<LesHouchesEvents version="3.0">
<header>
<!--
#*********************************************************************
#                                                                    *
#                        MadGraph5_aMC@NLO                           *
#                                                                    *
#                           Going Beyond                             *
#                                                                    *
#                   http://madgraph.hep.uiuc.edu                     *
#                   http://madgraph.phys.ucl.ac.be                   *
#                   http://amcatnlo.cern.ch                          *
#                                                                    *
#                     The MadGraph5_aMC@NLO team                     *
#                                                                    *
#....................................................................*
#                                                                    *
# This file contains all the information necessary to reproduce      *
# the events generated:                                              *
#                                                                    *
# 1. software version                                                *
# 2. proc_card          : code generation info including model       *
# 3. param_card         : model primary parameters in the LH format  *
# 4. run_card           : running parameters (collider and cuts)     *
# 5. pythia_card        : present only if pythia has been run        *
# 6. pgs_card           : present only if pgs has been run           *
# 7. delphes_cards      : present only if delphes has been run       *
#                                                                    *
#                                                                    *
#*********************************************************************
-->
<MGVersion>
#5.2.2.3
</MGVersion>
<MG5ProcCard>
#************************************************************
#*                     MadGraph5_aMC@NLO                    *
#*                                                          *
#*                *                       *                 *
#*                  *        * *        *                   *
#*                    * * * * 5 * * * *                     *
#*                  *        * *        *                   *
#*                *                       *                 *
#*                                                          *
#*                                                          *
#*         VERSION 2.2.3                 2015-02-10         *
#*                                                          *
#*    The MadGraph5_aMC@NLO Development Team - Find us at   *
#*    https://server06.fynu.ucl.ac.be/projects/madgraph     *
#*                                                          *
#************************************************************
#*                                                          *
#*               Command File for MadGraph5_aMC@NLO         *
#*                                                          *
#*     run as ./bin/mg5_aMC  filename                       *
#*                                                          *
#************************************************************
set group_subprocesses Auto
set ignore_six_quark_processes False
set loop_optimized_output True
set gauge unitary
set complex_mass_scheme False
import model sm
define p = g u c d s u~ c~ d~ s~
define j = g u c d s u~ c~ d~ s~
define l+ = e+ mu+
define l- = e- mu-
define vl = ve vm vt
define vl~ = ve~ vm~ vt~
import model Zprime_UFO
generate p p > zph, zph > j j
add process p p > zph, zph > b b~
output Dijet_signal
</MG5ProcCard>
<MGProcCard>
#*********************************************************************
#                        MadGraph/MadEvent                           *
#                   http://madgraph.hep.uiuc.edu                     *
#                                                                    *
#                          proc_card.dat                             *
#*********************************************************************
#                                                                    *
#            This Files is generated by MADGRAPH 5                   *
#                                                                    *
# WARNING: This Files is generated for MADEVENT (compatibility issue)*
#          This files is NOT a valid MG4 proc_card.dat               *
#          Running this in MG4 will NEVER reproduce the result of MG5*
#                                                                    *
#*********************************************************************
#*********************************************************************
# Process(es) requested : mg2 input                                  *
#*********************************************************************
# Begin PROCESS # This is TAG. Do not modify this line
p p > zph , zph > j j           #Process
# Be carefull the coupling are here in MG5 convention
          
end_coup           # End the couplings input

done               # this tells MG there are no more procs
# End PROCESS  # This is TAG. Do not modify this line
#*********************************************************************
# Model information                                                  *
#*********************************************************************
# Begin MODEL  # This is TAG. Do not modify this line
Zprime_UFO
# End   MODEL  # This is TAG. Do not modify this line
#*********************************************************************
# Start multiparticle definitions                                    *
#*********************************************************************
# Begin MULTIPARTICLES # This is TAG. Do not modify this line

# End  MULTIPARTICLES # This is TAG. Do not modify this line
</MGProcCard>
<MGRunCard>
#*********************************************************************
#                       MadGraph5_aMC@NLO                            *
#                                                                    *
#                     run_card.dat MadEvent                          *
#                                                                    *
#  This file is used to set the parameters of the run.               *
#                                                                    *
#  Some notation/conventions:                                        *
#                                                                    *
#   Lines starting with a '# ' are info or comments                  *
#                                                                    *
#   mind the format:   value    = variable     ! comment             *
#*********************************************************************
#
#*******************                                                 
# Running parameters
#*******************                                                 
#                                                                    
#*********************************************************************
# Tag name for the run (one word)                                    *
#*********************************************************************
  tag_1     = run_tag ! name of the run 
#*********************************************************************
# Run to generate the grid pack                                      *
#*********************************************************************
  .false.     = gridpack  !True = setting up the grid pack
#*********************************************************************
# Number of events and rnd seed                                      *
# Warning: Do not generate more than 1M events in a single run       *
# If you want to run Pythia, avoid more than 50k events in a run.    *
#*********************************************************************
  2000 = nevents ! Number of unweighted events requested 
 2370 = iseed   ! rnd seed (0=assigned automatically=default))
#*********************************************************************
# Collider type and energy                                           *
# lpp: 0=No PDF, 1=proton, -1=antiproton, 2=photon from proton,      *
#                                         3=photon from electron     *
#*********************************************************************
        1     = lpp1    ! beam 1 type 
        1     = lpp2    ! beam 2 type
     4000     = ebeam1  ! beam 1 total energy in GeV
     4000     = ebeam2  ! beam 2 total energy in GeV
#*********************************************************************
# Beam polarization from -100 (left-handed) to 100 (right-handed)    *
#*********************************************************************
        0     = polbeam1 ! beam polarization for beam 1
        0     = polbeam2 ! beam polarization for beam 2
#*********************************************************************
# PDF CHOICE: this automatically fixes also alpha_s and its evol.    *
#*********************************************************************
 'nn23lo1'    = pdlabel     ! PDF set                                     
 230000    = lhaid     ! if pdlabel=lhapdf, this is the lhapdf number
#*********************************************************************
# Renormalization and factorization scales                           *
#*********************************************************************
 F        = fixed_ren_scale  ! if .true. use fixed ren scale
 F        = fixed_fac_scale  ! if .true. use fixed fac scale
 91.1880  = scale            ! fixed ren scale
 91.1880  = dsqrt_q2fact1    ! fixed fact scale for pdf1
 91.1880  = dsqrt_q2fact2    ! fixed fact scale for pdf2
 1        = scalefact        ! scale factor for event-by-event scales
#*********************************************************************
# Matching - Warning! ickkw > 1 is still beta
#*********************************************************************
 0        = ickkw            ! 0 no matching, 1 MLM, 2 CKKW matching
 1        = highestmult      ! for ickkw=2, highest mult group
 1        = ktscheme         ! for ickkw=1, 1 Durham kT, 2 Pythia pTE
 1        = alpsfact         ! scale factor for QCD emission vx
 F        = chcluster        ! cluster only according to channel diag
 T        = pdfwgt           ! for ickkw=1, perform pdf reweighting
 5        = asrwgtflavor     ! highest quark flavor for a_s reweight
 T        = clusinfo         ! include clustering tag in output
 3.0      = lhe_version       ! Change the way clustering information pass to shower.        
#*********************************************************************
#**********************************************************
#
#**********************************************************
# Automatic ptj and mjj cuts if xqcut > 0
# (turn off for VBF and single top processes)
#**********************************************************
   T  = auto_ptj_mjj  ! Automatic setting of ptj and mjj
#**********************************************************
#                                                                    
#**********************************
# BW cutoff (M+/-bwcutoff*Gamma)
#**********************************
  15  = bwcutoff      ! (M+/-bwcutoff*Gamma)
#**********************************************************
# Apply pt/E/eta/dr/mij cuts on decay products or not
# (note that etmiss/ptll/ptheavy/ht/sorted cuts always apply)
#**********************************************************
   T  = cut_decays    ! Cut decay products 
#*************************************************************
# Number of helicities to sum per event (0 = all helicities)
# 0 gives more stable result, but longer run time (needed for
# long decay chains e.g.).
# Use >=2 if most helicities contribute, e.g. pure QCD.
#*************************************************************
   0  = nhel          ! Number of helicities used per event
#*******************                                                 
# Standard Cuts
#*******************                                                 
#                                                                    
#*********************************************************************
# Minimum and maximum pt's (for max, -1 means no cut)                *
#*********************************************************************
 20  = ptj       ! minimum pt for the jets 
  0  = ptb       ! minimum pt for the b 
 10  = pta       ! minimum pt for the photons 
 10  = ptl       ! minimum pt for the charged leptons 
  0  = misset    ! minimum missing Et (sum of neutrino's momenta)
  0  = ptheavy   ! minimum pt for one heavy final state
 1.0 = ptonium   ! minimum pt for the quarkonium states
 -1  = ptjmax    ! maximum pt for the jets
 -1  = ptbmax    ! maximum pt for the b
 -1  = ptamax    ! maximum pt for the photons
 -1  = ptlmax    ! maximum pt for the charged leptons
 -1  = missetmax ! maximum missing Et (sum of neutrino's momenta)
#*********************************************************************
# Minimum and maximum E's (in the center of mass frame)              *
#*********************************************************************
  0  = ej     ! minimum E for the jets 
  0  = eb     ! minimum E for the b 
  0  = ea     ! minimum E for the photons 
  0  = el     ! minimum E for the charged leptons 
 -1   = ejmax ! maximum E for the jets
 -1   = ebmax ! maximum E for the b
 -1   = eamax ! maximum E for the photons
 -1   = elmax ! maximum E for the charged leptons
#*********************************************************************
# Maximum and minimum absolute rapidity (for max, -1 means no cut)   *
#*********************************************************************
   5  = etaj    ! max rap for the jets 
  -1  = etab    ! max rap for the b
 2.5  = etaa    ! max rap for the photons 
 2.5  = etal    ! max rap for the charged leptons 
 0.6  = etaonium ! max rap for the quarkonium states
   0  = etajmin ! min rap for the jets
   0  = etabmin ! min rap for the b
   0  = etaamin ! min rap for the photons
   0  = etalmin ! main rap for the charged leptons
#*********************************************************************
# Minimum and maximum DeltaR distance                                *
#*********************************************************************
 0.4 = drjj    ! min distance between jets 
 0   = drbb    ! min distance between b's 
 0.4 = drll    ! min distance between leptons 
 0.4 = draa    ! min distance between gammas 
 0   = drbj    ! min distance between b and jet 
 0.4 = draj    ! min distance between gamma and jet 
 0.4 = drjl    ! min distance between jet and lepton 
 0   = drab    ! min distance between gamma and b 
 0   = drbl    ! min distance between b and lepton 
 0.4 = dral    ! min distance between gamma and lepton 
 -1  = drjjmax ! max distance between jets
 -1  = drbbmax ! max distance between b's
 -1  = drllmax ! max distance between leptons
 -1  = draamax ! max distance between gammas
 -1  = drbjmax ! max distance between b and jet
 -1  = drajmax ! max distance between gamma and jet
 -1  = drjlmax ! max distance between jet and lepton
 -1  = drabmax ! max distance between gamma and b
 -1  = drblmax ! max distance between b and lepton
 -1  = dralmax ! maxdistance between gamma and lepton
#*********************************************************************
# Minimum and maximum invariant mass for pairs                       *
# WARNING: for four lepton final state mmll cut require to have      *
#          different lepton masses for each flavor!                  *           
#*********************************************************************
 0   = mmjj    ! min invariant mass of a jet pair 
 0   = mmbb    ! min invariant mass of a b pair 
 0   = mmaa    ! min invariant mass of gamma gamma pair
 0   = mmll    ! min invariant mass of l+l- (same flavour) lepton pair
 -1  = mmjjmax ! max invariant mass of a jet pair
 -1  = mmbbmax ! max invariant mass of a b pair
 -1  = mmaamax ! max invariant mass of gamma gamma pair
 -1  = mmllmax ! max invariant mass of l+l- (same flavour) lepton pair
#*********************************************************************
# Minimum and maximum invariant mass for all letpons                 *
#*********************************************************************
 0   = mmnl    ! min invariant mass for all letpons (l+- and vl) 
 -1  = mmnlmax ! max invariant mass for all letpons (l+- and vl) 
#*********************************************************************
# Minimum and maximum pt for 4-momenta sum of leptons                *
#*********************************************************************
 0   = ptllmin  ! Minimum pt for 4-momenta sum of leptons(l and vl)
 -1  = ptllmax  ! Maximum pt for 4-momenta sum of leptons(l and vl)
#*********************************************************************
# Inclusive cuts                                                     *
#*********************************************************************
 0  = xptj ! minimum pt for at least one jet  
 0  = xptb ! minimum pt for at least one b 
 0  = xpta ! minimum pt for at least one photon 
 0  = xptl ! minimum pt for at least one charged lepton 
#*********************************************************************
# Control the pt's of the jets sorted by pt                          *
#*********************************************************************
 0   = ptj1min ! minimum pt for the leading jet in pt
 0   = ptj2min ! minimum pt for the second jet in pt
 0   = ptj3min ! minimum pt for the third jet in pt
 0   = ptj4min ! minimum pt for the fourth jet in pt
 -1  = ptj1max ! maximum pt for the leading jet in pt 
 -1  = ptj2max ! maximum pt for the second jet in pt
 -1  = ptj3max ! maximum pt for the third jet in pt
 -1  = ptj4max ! maximum pt for the fourth jet in pt
 0   = cutuse  ! reject event if fails any (0) / all (1) jet pt cuts
#*********************************************************************
# Control the pt's of leptons sorted by pt                           *
#*********************************************************************
 0   = ptl1min ! minimum pt for the leading lepton in pt
 0   = ptl2min ! minimum pt for the second lepton in pt
 0   = ptl3min ! minimum pt for the third lepton in pt
 0   = ptl4min ! minimum pt for the fourth lepton in pt
 -1  = ptl1max ! maximum pt for the leading lepton in pt 
 -1  = ptl2max ! maximum pt for the second lepton in pt
 -1  = ptl3max ! maximum pt for the third lepton in pt
 -1  = ptl4max ! maximum pt for the fourth lepton in pt
#*********************************************************************
# Control the Ht(k)=Sum of k leading jets                            *
#*********************************************************************
 0   = htjmin ! minimum jet HT=Sum(jet pt)
 -1  = htjmax ! maximum jet HT=Sum(jet pt)
 0   = ihtmin  !inclusive Ht for all partons (including b)
 -1  = ihtmax  !inclusive Ht for all partons (including b)
 0   = ht2min ! minimum Ht for the two leading jets
 0   = ht3min ! minimum Ht for the three leading jets
 0   = ht4min ! minimum Ht for the four leading jets
 -1  = ht2max ! maximum Ht for the two leading jets
 -1  = ht3max ! maximum Ht for the three leading jets
 -1  = ht4max ! maximum Ht for the four leading jets
#***********************************************************************
# Photon-isolation cuts, according to hep-ph/9801442                   *
# When ptgmin=0, all the other parameters are ignored                  *
# When ptgmin>0, pta and draj are not going to be used                 *
#***********************************************************************
   0 = ptgmin ! Min photon transverse momentum
 0.4 = R0gamma ! Radius of isolation code
 1.0 = xn ! n parameter of eq.(3.4) in hep-ph/9801442
 1.0 = epsgamma ! epsilon_gamma parameter of eq.(3.4) in hep-ph/9801442
 .true. = isoEM ! isolate photons from EM energy (photons and leptons)
#*********************************************************************
# WBF cuts                                                           *
#*********************************************************************
 0   = xetamin ! minimum rapidity for two jets in the WBF case  
 0   = deltaeta ! minimum rapidity for two jets in the WBF case 
#*********************************************************************
# KT DURHAM CUT                                                      *
#*********************************************************************
 -1    =  ktdurham        
 0.4  =  dparameter 
#*********************************************************************
# maximal pdg code for quark to be considered as a light jet         *
# (otherwise b cuts are applied)                                     *
#*********************************************************************
 4 = maxjetflavor    ! Maximum jet pdg code
#*********************************************************************
# Jet measure cuts                                                   *
#*********************************************************************
 0   = xqcut   ! minimum kt jet measure between partons
#*********************************************************************
#
#*********************************************************************
# Store info for systematics studies                                 *
# WARNING: If use_syst is T, matched Pythia output is                *
#          meaningful ONLY if plotted taking matchscale              *
#          reweighting into account!                                 *
#*********************************************************************
   F  = use_syst      ! Enable systematics studies
#
#**************************************
# Parameter of the systematics study
#  will be used by SysCalc (if installed)
#**************************************                                  
#
0.5 1 2 = sys_scalefact  # factorization/renormalization scale factor
0.5 1 2 = sys_alpsfact  # \alpha_s emission scale factors
30 50 = sys_matchscale # variation of merging scale
# PDF sets and number of members (0 or none for all members).
CT10nlo.LHgrid = sys_pdf # matching scales
# MSTW2008nlo68cl.LHgrid 1  = sys_pdf
</MGRunCard>
<slha>
######################################################################
## PARAM_CARD AUTOMATICALY GENERATED BY MG5 FOLLOWING UFO MODEL   ####
######################################################################
##                                                                  ##
##  Width set on Auto will be computed following the information    ##
##        present in the decay.py files of the model.               ##
##        See  arXiv:1402.1178 for more details.                    ##
##                                                                  ##
######################################################################

###################################
## INFORMATION FOR CKMBLOCK
###################################
Block ckmblock 
    1 2.277360e-01 # cabi 

###################################
## INFORMATION FOR FRBLOCK
###################################
Block frblock 
    1 1.200000e+00 # gz 

###################################
## INFORMATION FOR MASS
###################################
Block mass 
    1 5.040000e-03 # MD 
    2 2.550000e-03 # MU 
    3 1.010000e-01 # MS 
    4 1.270000e+00 # MC 
    5 4.700000e+00 # MB 
    6 1.720000e+02 # MT 
   11 5.110000e-04 # Me 
   13 1.056600e-01 # MM 
   15 1.777000e+00 # MTA 
   23 9.118760e+01 # MZ 
   25 1.200000e+02 # MH 
  10030 3.300000e+03 # MZph 
  10031 3.000000e+02 # MZpl 
## Dependent parameters, given by model restrictions.
## Those values should be edited following the 
## analytical expression. MG5 ignores those values 
## but they are important for interfacing the output of MG5
## to external program such as Pythia.
  12 0.000000 # ve : 0.0 
  14 0.000000 # vm : 0.0 
  16 0.000000 # vt : 0.0 
  21 0.000000 # g : 0.0 
  22 0.000000 # a : 0.0 
  24 79.824360 # w+ : cmath.sqrt(MZ__exp__2/2. + cmath.sqrt(MZ__exp__4/4. - (aEW*cmath.pi*MZ__exp__2)/(Gf*sqrt__2))) 

###################################
## INFORMATION FOR SMINPUTS
###################################
Block sminputs 
    1 1.279000e+02 # aEWM1 
    2 1.166370e-05 # Gf 
    3 1.184000e-01 # aS 

###################################
## INFORMATION FOR YUKAWA
###################################
Block yukawa 
    1 5.040000e-03 # ymdo 
    2 2.550000e-03 # ymup 
    3 1.010000e-01 # yms 
    4 1.270000e+00 # ymc 
    5 4.700000e+00 # ymb 
    6 1.720000e+02 # ymt 
   11 5.110000e-04 # yme 
   13 1.056600e-01 # ymm 
   15 1.777000e+00 # ymtau 

###################################
## INFORMATION FOR DECAY
###################################
DECAY   6 1.508336e+00 # WT 
DECAY  23 2.495200e+00 # WZ 
DECAY  24 2.085000e+00 # WW 
DECAY  25 5.753088e-03 # WH 
## Dependent parameters, given by model restrictions.
## Those values should be edited following the 
## analytical expression. MG5 ignores those values 
## but they are important for interfacing the output of MG5
## to external program such as Pythia.
DECAY  1 0.000000 # d : 0.0 
DECAY  2 0.000000 # u : 0.0 
DECAY  3 0.000000 # s : 0.0 
DECAY  4 0.000000 # c : 0.0 
DECAY  5 0.000000 # b : 0.0 
DECAY  11 0.000000 # e- : 0.0 
DECAY  12 0.000000 # ve : 0.0 
DECAY  13 0.000000 # mu- : 0.0 
DECAY  14 0.000000 # vm : 0.0 
DECAY  15 0.000000 # ta- : 0.0 
DECAY  16 0.000000 # vt : 0.0 
DECAY  21 0.000000 # g : 0.0 
DECAY  22 0.000000 # a : 0.0 
DECAY  10030 0.308725 # zph : (gz__exp__2*MZph*(5 + cmath.sqrt(1 - (4*MT__exp__2)/MZph__exp__2)))/(144.*cmath.pi) 
DECAY  10031 0.132629 # zpl : (5*gz__exp__2*MZpl)/(144.*cmath.pi) 
#===========================================================
# QUANTUM NUMBERS OF NEW STATE(S) (NON SM PDG CODE)
#===========================================================

Block QNUMBERS 10030  # zph 
        1 0  # 3 times electric charge
        2 3  # number of spin states (2S+1)
        3 1  # colour rep (1: singlet, 3: triplet, 8: octet)
        4 0  # Particle/Antiparticle distinction (0=own anti)
Block QNUMBERS 10031  # zpl 
        1 0  # 3 times electric charge
        2 3  # number of spin states (2S+1)
        3 1  # colour rep (1: singlet, 3: triplet, 8: octet)
        4 0  # Particle/Antiparticle distinction (0=own anti)
</slha>
## END BANNER##
<MGGenerationInfo>
#  Number of Events        :         3872
#  Integrated weight (pb)  :  0.68161E-03
#  Max wgt                 :  0.27059E-06
#  Average wgt             :  0.17604E-06
</MGGenerationInfo>
</header>
<init>
     2212     2212  0.40000000000E+04  0.40000000000E+04 0 0  247000  247000 2   1
  0.68195347671E-03  0.19379760925E-05  0.27058590000E-06   0
</init>
<event>
 5   0  0.2705859E-06  0.3633328E+04  0.7818609E-02  0.8082900E-01
       -2   -1    0    0    0  501  0.00000000000E+00  0.00000000000E+00  0.14514447379E+04  0.14514447379E+04  0.25500000920E-02 0.  1.
        2   -1    0    0  501    0  0.00000000000E+00  0.00000000000E+00 -0.22737815090E+04  0.22737815090E+04  0.25500000920E-02 0. -1.
    10030    2    1    2    0    0  0.00000000000E+00  0.00000000000E+00 -0.82233677110E+03  0.37252262469E+04  0.36333280647E+04 0.  0.
        1    1    3    3  502    0  0.47750379533E+03  0.50763547094E+03  0.13089314258E+04  0.14829042867E+04  0.50400001928E-02 0.  1.
       -1    1    3    3    0  502 -0.47750379533E+03 -0.50763547094E+03 -0.21312681969E+04  0.22423219602E+04  0.50400001928E-02 0. -1.
</event>
<event>
 5   0  0.2705859E-06  0.2775717E+04  0.7818609E-02  0.8310847E-01
        2   -1    0    0  501    0  0.00000000000E+00  0.00000000000E+00  0.13098992217E+04  0.13098992217E+04  0.25500000920E-02 0.  1.
       -2   -1    0    0    0  501  0.00000000000E+00  0.00000000000E+00 -0.14704579953E+04  0.14704579953E+04  0.25500000920E-02 0. -1.
    10030    2    1    2    0    0  0.00000000000E+00  0.00000000000E+00 -0.16055877352E+03  0.27803572170E+04  0.27757174090E+04 0.  0.
        1    1    3    3  502    0 -0.12107893583E+04  0.66008964081E+03  0.76259093612E+02  0.13811388973E+04  0.50400001928E-02 0.  1.
       -1    1    3    3    0  502  0.12107893583E+04 -0.66008964081E+03 -0.23681786714E+03  0.13992183198E+04  0.50400001928E-02 0. -1.
</event>
<event>
 5   0  0.2674551E-06  0.3332395E+04  0.7818609E-02  0.8154701E-01
        2   -1    0    0  501    0  0.00000000000E+00  0.00000000000E+00  0.20701486476E+04  0.20701486476E+04  0.25500000920E-02 0. -1.
       -2   -1    0    0    0  501  0.00000000000E+00  0.00000000000E+00 -0.13410695801E+04  0.13410695801E+04  0.25500000920E-02 0.  1.
    10030    2    1    2    0    0  0.00000000000E+00  0.00000000000E+00  0.72907906755E+03  0.34112182277E+04  0.33323945610E+04 0.  0.
        3    1    3    3  502    0  0.10314469544E+04  0.10667403237E+04 -0.41127631983E+03  0.15397941289E+04  0.10100000352E+00 0.  1.
       -3    1    3    3    0  502 -0.10314469544E+04 -0.10667403237E+04  0.11403553874E+04  0.18714240988E+04  0.10100000352E+00 0. -1.
</event>
<event>
 5   0  0.2705859E-06  0.3276094E+04  0.7818609E-02  0.8169005E-01
       -2   -1    0    0    0  501  0.00000000000E+00  0.00000000000E+00  0.11900498306E+04  0.11900498306E+04  0.25500000920E-02 0. -1.
        2   -1    0    0  501    0  0.00000000000E+00  0.00000000000E+00 -0.22546944011E+04  0.22546944011E+04  0.25500000920E-02 0.  1.
    10030    2    1    2    0    0  0.00000000000E+00  0.00000000000E+00 -0.10646445704E+04  0.34447442317E+04  0.32760944371E+04 0.  0.
        1    1    3    3  502    0 -0.13988085044E+02  0.16298294752E+04 -0.70400308370E+03  0.17754323774E+04  0.50400001928E-02 0.  1.
       -1    1    3    3    0  502  0.13988085044E+02 -0.16298294752E+04 -0.36064148672E+03  0.16693118543E+04  0.50400001928E-02 0. -1.
</event>
<event>
 5   0  0.2674551E-06  0.3263486E+04  0.7818609E-02  0.8172249E-01
        2   -1    0    0  501    0  0.00000000000E+00  0.00000000000E+00  0.20336793809E+04  0.20336793809E+04  0.25500000920E-02 0.  1.
       -2   -1    0    0    0  501  0.00000000000E+00  0.00000000000E+00 -0.13092452210E+04  0.13092452210E+04  0.25500000920E-02 0. -1.
    10030    2    1    2    0    0  0.00000000000E+00  0.00000000000E+00  0.72443415990E+03  0.33429246019E+04  0.32634858728E+04 0.  0.
        3    1    3    3  502    0  0.11893459198E+04 -0.11132292720E+04  0.26633371182E+03  0.16506837326E+04  0.10100000352E+00 0.  1.
       -3    1    3    3    0  502 -0.11893459198E+04  0.11132292720E+04  0.45810044808E+03  0.16922408693E+04  0.10100000352E+00 0. -1.
</event>
<event>
 5   0  0.8845526E-07  0.3298003E+04  0.7818609E-02  0.8163404E-01
        1   -1    0    0  501    0  0.00000000000E+00  0.00000000000E+00  0.24393070121E+04  0.24393070121E+04  0.50400001928E-02 0. -1.
       -1   -1    0    0    0  501  0.00000000000E+00  0.00000000000E+00 -0.11147454295E+04  0.11147454295E+04  0.50400001928E-02 0.  1.
    10030    2    1    2    0    0  0.00000000000E+00  0.00000000000E+00  0.13245615826E+04  0.35540524416E+04  0.32980032401E+04 0.  0.
        1    1    3    3  502    0 -0.90244356482E+03  0.37517368416E+03  0.20935712893E+04  0.23104545926E+04  0.50400001928E-02 0. -1.
       -1    1    3    3    0  502  0.90244356482E+03 -0.37517368416E+03 -0.76900970674E+03  0.12435978490E+04  0.50400001928E-02 0.  1.
</event>
<event>
 5   0  0.9268670E-07  0.3417729E+04  0.7818609E-02  0.8133569E-01
       -1   -1    0    0    0  501  0.00000000000E+00  0.00000000000E+00  0.15026260747E+04  0.15026260748E+04  0.50400001928E-02 0. -1.
        1   -1    0    0  501    0  0.00000000000E+00  0.00000000000E+00 -0.19434098228E+04  0.19434098228E+04  0.50400001928E-02 0.  1.
    10030    2    1    2    0    0  0.00000000000E+00  0.00000000000E+00 -0.44078374809E+03  0.34460358976E+04  0.34177292308E+04 0.  0.
        3    1    3    3  502    0  0.65952867650E+03  0.69277910212E+03  0.12074217754E+04  0.15403857677E+04  0.10100000352E+00 0. -1.
       -3    1    3    3    0  502 -0.65952867650E+03 -0.69277910212E+03 -0.16482055235E+04  0.19056501299E+04  0.10100000352E+00 0.  1.
</event>
<event>
 5   0  0.2705859E-06  0.3325855E+04  0.7818609E-02  0.8156348E-01
       -2   -1    0    0    0  501  0.00000000000E+00  0.00000000000E+00  0.14377620823E+04  0.14377620823E+04  0.25500000920E-02 0.  1.
        2   -1    0    0  501    0  0.00000000000E+00  0.00000000000E+00 -0.19233553123E+04  0.19233553123E+04  0.25500000920E-02 0. -1.
    10030    2    1    2    0    0  0.00000000000E+00  0.00000000000E+00 -0.48559322998E+03  0.33611173946E+04  0.33258546804E+04 0.  0.
        1    1    3    3  502    0 -0.85783536437E+03  0.13903371701E+04  0.70992449374E+02  0.16352244149E+04  0.50400001928E-02 0. -1.
       -1    1    3    3    0  502  0.85783536437E+03 -0.13903371701E+04 -0.55658567935E+03  0.17258929797E+04  0.50400001928E-02 0.  1.
</event>
<event>
 5   0  0.8705956E-07  0.3323885E+04  0.7818609E-02  0.8156844E-01
       -1   -1    0    0    0  501  0.00000000000E+00  0.00000000000E+00  0.16501265284E+04  0.16501265284E+04  0.50400001928E-02 0.  1.
        1   -1    0    0  501    0  0.00000000000E+00  0.00000000000E+00 -0.16738435431E+04  0.16738435431E+04  0.50400001928E-02 0. -1.
    10030    2    1    2    0    0  0.00000000000E+00  0.00000000000E+00 -0.23717014672E+02  0.33239700715E+04  0.33238854582E+04 0.  0.
        2    1    3    3  502    0 -0.12995185260E+03 -0.15898879036E+04  0.45443933137E+03  0.16586579322E+04  0.25500000920E-02 0.  1.
       -2    1    3    3    0  502  0.12995185260E+03  0.15898879036E+04 -0.47815634604E+03  0.16653121393E+04  0.25500000920E-02 0. -1.
</event>
<event>
 5   0  0.2705859E-06  0.3307832E+04  0.7818609E-02  0.8160905E-01
       -2   -1    0    0    0  501  0.00000000000E+00  0.00000000000E+00  0.19656995223E+04  0.19656995223E+04  0.25500000920E-02 0.  1.
        2   -1    0    0  501    0  0.00000000000E+00  0.00000000000E+00 -0.13915848473E+04  0.13915848473E+04  0.25500000920E-02 0. -1.
    10030    2    1    2    0    0  0.00000000000E+00  0.00000000000E+00  0.57411467499E+03  0.33572843697E+04  0.33078317186E+04 0.  0.
        1    1    3    3  502    0  0.11690854190E+04 -0.68685710338E+03  0.12482662026E+04  0.18430143543E+04  0.50400001928E-02 0.  1.
       -1    1    3    3    0  502 -0.11690854190E+04  0.68685710338E+03 -0.67415152758E+03  0.15142700154E+04  0.50400001928E-02 0. -1.
</event>
<event>
 5   0  0.8705956E-07  0.3314117E+04  0.7818609E-02  0.8159313E-01
        1   -1    0    0  501    0  0.00000000000E+00  0.00000000000E+00  0.25335072584E+04  0.25335072584E+04  0.50400001928E-02 0. -1.
       -1   -1    0    0    0  501  0.00000000000E+00  0.00000000000E+00 -0.10838108606E+04  0.10838108606E+04  0.50400001928E-02 0.  1.
    10030    2    1    2    0    0  0.00000000000E+00  0.00000000000E+00  0.14496963978E+04  0.36173181190E+04  0.33141168851E+04 0.  0.
        2    1    3    3  502    0  0.96520259735E+03  0.13189691475E+04  0.42683601900E+03  0.16892260515E+04  0.25500000920E-02 0.  1.
       -2    1    3    3    0  502 -0.96520259735E+03 -0.13189691475E+04  0.10228603788E+04  0.19280920675E+04  0.25500000920E-02 0. -1.
</event>
<event>
 5   0  0.2658600E-06  0.3278532E+04  0.7818609E-02  0.8168379E-01
        2   -1    0    0  501    0  0.00000000000E+00  0.00000000000E+00  0.13122775111E+04  0.13122775111E+04  0.25500000920E-02 0. -1.
       -2   -1    0    0    0  501  0.00000000000E+00  0.00000000000E+00 -0.20477325818E+04  0.20477325818E+04  0.25500000920E-02 0.  1.
    10030    2    1    2    0    0  0.00000000000E+00  0.00000000000E+00 -0.73545507070E+03  0.33600100930E+04  0.32785322423E+04 0.  0.
        5    1    3    3  502    0 -0.10892806408E+04 -0.84564972308E+02  0.88472696961E+03  0.14058618175E+04  0.46999998093E+01 0. -1.
       -5    1    3    3    0  502  0.10892806408E+04  0.84564972308E+02 -0.16201820403E+04  0.19541482755E+04  0.46999998093E+01 0.  1.
</event>
<event>
 5   0  0.9530268E-07  0.3268261E+04  0.7818609E-02  0.8171019E-01
        1   -1    0    0  501    0  0.00000000000E+00  0.00000000000E+00  0.27188889152E+04  0.27188889152E+04  0.50400001928E-02 0.  1.
       -1   -1    0    0    0  501  0.00000000000E+00  0.00000000000E+00 -0.98215972453E+03  0.98215972454E+03  0.50400001928E-02 0. -1.
    10030    2    1    2    0    0  0.00000000000E+00  0.00000000000E+00  0.17367291907E+04  0.37010486398E+04  0.32682614265E+04 0.  0.
        5    1    3    3  502    0 -0.12037072360E+04  0.20856953462E+03  0.20974192614E+04  0.24272622456E+04  0.46999998093E+01 0.  1.
       -5    1    3    3    0  502  0.12037072360E+04 -0.20856953462E+03 -0.36069007072E+03  0.12737863942E+04  0.46999998093E+01 0. -1.
</event>
<event>
 5   0  0.8845526E-07  0.3094718E+04  0.7818609E-02  0.8217189E-01
        1   -1    0    0  501    0  0.00000000000E+00  0.00000000000E+00  0.13815749333E+04  0.13815749333E+04  0.50400001928E-02 0.  1.
       -1   -1    0    0    0  501  0.00000000000E+00  0.00000000000E+00 -0.17330365285E+04  0.17330365285E+04  0.50400001928E-02 0. -1.
    10030    2    1    2    0    0  0.00000000000E+00  0.00000000000E+00 -0.35146159528E+03  0.31146114618E+04  0.30947179686E+04 0.  0.
        1    1    3    3  502    0 -0.65050911833E+03  0.11769659829E+04  0.59463644416E+03  0.14703753054E+04  0.50400001928E-02 0.  1.
       -1    1    3    3    0  502  0.65050911833E+03 -0.11769659829E+04 -0.94609803945E+03  0.16442361564E+04  0.50400001928E-02 0. -1.
</event>
<event>
 5   0  0.9268670E-07  0.3342183E+04  0.7818609E-02  0.8152244E-01
       -1   -1    0    0    0  501  0.00000000000E+00  0.00000000000E+00  0.17236646914E+04  0.17236646914E+04  0.50400001928E-02 0. -1.
        1   -1    0    0  501    0  0.00000000000E+00  0.00000000000E+00 -0.16201214876E+04  0.16201214876E+04  0.50400001928E-02 0.  1.
    10030    2    1    2    0    0  0.00000000000E+00  0.00000000000E+00  0.10354320383E+03  0.33437861790E+04  0.33421826425E+04 0.  0.
        3    1    3    3  502    0 -0.32029492860E+03 -0.12593796313E+04  0.11029518170E+04  0.17044437855E+04  0.10100000352E+00 0. -1.
       -3    1    3    3    0  502  0.32029492860E+03  0.12593796313E+04 -0.99940861317E+03  0.16393423936E+04  0.10100000352E+00 0.  1.
</event>
<event>
 5   0  0.9268670E-07  0.3248754E+04  0.7818609E-02  0.8176059E-01
        1   -1    0    0  501    0  0.00000000000E+00  0.00000000000E+00  0.25787241129E+04  0.25787241129E+04  0.50400001928E-02 0. -1.
       -1   -1    0    0    0  501  0.00000000000E+00  0.00000000000E+00 -0.10232196841E+04  0.10232196841E+04  0.50400001928E-02 0.  1.
    10030    2    1    2    0    0  0.00000000000E+00  0.00000000000E+00  0.15555044288E+04  0.36019437971E+04  0.32487543904E+04 0.  0.
        3    1    3    3  502    0  0.43202824533E+03  0.15657130361E+04  0.80243317393E+03  0.18116304052E+04  0.10100000352E+00 0. -1.
       -3    1    3    3    0  502 -0.43202824533E+03 -0.15657130361E+04  0.75307125485E+03  0.17903133919E+04  0.10100000352E+00 0.  1.
</event>
<event>
 5   0  0.2705859E-06  0.3311085E+04  0.7818609E-02  0.8160081E-01
       -2   -1    0    0    0  501  0.00000000000E+00  0.00000000000E+00  0.16208604388E+04  0.16208604388E+04  0.25500000920E-02 0.  1.
        2   -1    0    0  501    0  0.00000000000E+00  0.00000000000E+00 -0.16909664060E+04  0.16909664060E+04  0.25500000920E-02 0. -1.
    10030    2    1    2    0    0  0.00000000000E+00  0.00000000000E+00 -0.70105967242E+02  0.33118268448E+04  0.33110847472E+04 0.  0.
        1    1    3    3  502    0  0.10996984739E+04 -0.11621273985E+04 -0.46052312842E+03  0.16649199307E+04  0.50400001928E-02 0. -1.
       -1    1    3    3    0  502 -0.10996984739E+04  0.11621273985E+04  0.39041716117E+03  0.16469069141E+04  0.50400001928E-02 0.  1.
</event>
<event>
 5   0  0.9295663E-07  0.3235036E+04  0.7818609E-02  0.8179625E-01
       -1   -1    0    0    0  501  0.00000000000E+00  0.00000000000E+00  0.12070097388E+04  0.12070097388E+04  0.50400001928E-02 0. -1.
        1   -1    0    0  501    0  0.00000000000E+00  0.00000000000E+00 -0.21676414243E+04  0.21676414243E+04  0.50400001928E-02 0.  1.
    10030    2    1    2    0    0  0.00000000000E+00  0.00000000000E+00 -0.96063168550E+03  0.33746511631E+04  0.32350358943E+04 0.  0.
        4    1    3    3  502    0  0.13810778145E+03  0.12023587082E+04  0.63913453860E+03  0.13686616798E+04  0.12699999809E+01 0. -1.
       -4    1    3    3    0  502 -0.13810778145E+03 -0.12023587082E+04 -0.15997662241E+04  0.20059894833E+04  0.12699999809E+01 0.  1.
</event>
<event>
 5   0  0.8845526E-07  0.3298688E+04  0.7818609E-02  0.8163229E-01
       -1   -1    0    0    0  501  0.00000000000E+00  0.00000000000E+00  0.15689183965E+04  0.15689183965E+04  0.50400001928E-02 0.  1.
        1   -1    0    0  501    0  0.00000000000E+00  0.00000000000E+00 -0.17338925086E+04  0.17338925086E+04  0.50400001928E-02 0. -1.
    10030    2    1    2    0    0  0.00000000000E+00  0.00000000000E+00 -0.16497411213E+03  0.33028109052E+04  0.32986881358E+04 0.  0.
        1    1    3    3  502    0 -0.16052172537E+04 -0.11629338655E+02 -0.46174560814E+03  0.16703492688E+04  0.50400001928E-02 0. -1.
       -1    1    3    3    0  502  0.16052172537E+04  0.11629338655E+02  0.29677149601E+03  0.16324616363E+04  0.50400001928E-02 0.  1.
</event>
<event>
 5   0  0.2614212E-06  0.3330525E+04  0.7818609E-02  0.8155171E-01
        2   -1    0    0  501    0  0.00000000000E+00  0.00000000000E+00  0.86956543903E+03  0.86956543903E+03  0.25500000920E-02 0.  1.
       -2   -1    0    0    0  501  0.00000000000E+00  0.00000000000E+00 -0.31890636671E+04  0.31890636671E+04  0.25500000920E-02 0. -1.
    10030    2    1    2    0    0  0.00000000000E+00  0.00000000000E+00 -0.23194982281E+04  0.40586291061E+04  0.33305252125E+04 0.  0.
        2    1    3    3  502    0  0.39433932323E+03 -0.10631996550E+04  0.32636342679E+03  0.11800042774E+04  0.25500000920E-02 0.  1.
       -2    1    3    3    0  502 -0.39433932323E+03  0.10631996550E+04 -0.26458616549E+04  0.28786248288E+04  0.25500000920E-02 0. -1.
</event>
<event>
 5   0  0.9268670E-07  0.3334465E+04  0.7818609E-02  0.8154181E-01
       -1   -1    0    0    0  501  0.00000000000E+00  0.00000000000E+00  0.11257717423E+04  0.11257717423E+04  0.50400001928E-02 0.  1.
        1   -1    0    0  501    0  0.00000000000E+00  0.00000000000E+00 -0.24691185078E+04  0.24691185078E+04  0.50400001928E-02 0. -1.
    10030    2    1    2    0    0  0.00000000000E+00  0.00000000000E+00 -0.13433467655E+04  0.35948902501E+04  0.33344647813E+04 0.  0.
        3    1    3    3  502    0 -0.87098380838E+01 -0.16276768660E+04 -0.10607708094E+04  0.19428439365E+04  0.10100000352E+00 0.  1.
       -3    1    3    3    0  502  0.87098380838E+01  0.16276768660E+04 -0.28257595610E+03  0.16520463136E+04  0.10100000352E+00 0. -1.
</event>
<event>
 5   0  0.2674551E-06  0.3238417E+04  0.7818609E-02  0.8178744E-01
        2   -1    0    0  501    0  0.00000000000E+00  0.00000000000E+00  0.19505437209E+04  0.19505437209E+04  0.25500000920E-02 0. -1.
       -2   -1    0    0    0  501  0.00000000000E+00  0.00000000000E+00 -0.13441562377E+04  0.13441562377E+04  0.25500000920E-02 0.  1.
    10030    2    1    2    0    0  0.00000000000E+00  0.00000000000E+00  0.60638748319E+03  0.32946999587E+04  0.32384165942E+04 0.  0.
        3    1    3    3  502    0  0.15363913140E+04  0.50880452855E+03  0.35360469724E+03  0.16566280844E+04  0.10100000352E+00 0. -1.
       -3    1    3    3    0  502 -0.15363913140E+04 -0.50880452855E+03  0.25278278595E+03  0.16380718742E+04  0.10100000352E+00 0.  1.
</event>
<event>
 5   0  0.8845526E-07  0.3398355E+04  0.7818609E-02  0.8138310E-01
        1   -1    0    0  501    0  0.00000000000E+00  0.00000000000E+00  0.18793001384E+04  0.18793001384E+04  0.50400001928E-02 0. -1.
       -1   -1    0    0    0  501  0.00000000000E+00  0.00000000000E+00 -0.15363190156E+04  0.15363190156E+04  0.50400001928E-02 0.  1.
    10030    2    1    2    0    0  0.00000000000E+00  0.00000000000E+00  0.34298112277E+03  0.34156191540E+04  0.33983552131E+04 0.  0.
        1    1    3    3  502    0  0.40481272400E+03 -0.11383116370E+04  0.13723731934E+04  0.18283968131E+04  0.50400001928E-02 0. -1.
       -1    1    3    3    0  502 -0.40481272400E+03  0.11383116370E+04 -0.10293920706E+04  0.15872223409E+04  0.50400001928E-02 0.  1.
</event>
<event>
 5   0  0.2614212E-06  0.3330431E+04  0.7818609E-02  0.8155195E-01
        2   -1    0    0  501    0  0.00000000000E+00  0.00000000000E+00  0.20564447198E+04  0.20564447198E+04  0.25500000920E-02 0.  1.
       -2   -1    0    0    0  501  0.00000000000E+00  0.00000000000E+00 -0.13484162163E+04  0.13484162163E+04  0.25500000920E-02 0. -1.
    10030    2    1    2    0    0  0.00000000000E+00  0.00000000000E+00  0.70802850357E+03  0.34048609361E+04  0.33304314484E+04 0.  0.
        2    1    3    3  502    0  0.47188250190E+02  0.64336445428E+03 -0.12154814814E+04  0.13760595131E+04  0.25500000920E-02 0. -1.
       -2    1    3    3    0  502 -0.47188250190E+02 -0.64336445428E+03  0.19235099849E+04  0.20288014230E+04  0.25500000920E-02 0.  1.
</event>
<event>
 5   0  0.8705956E-07  0.3256043E+04  0.7818609E-02  0.8174171E-01
        1   -1    0    0  501    0  0.00000000000E+00  0.00000000000E+00  0.21734022976E+04  0.21734022976E+04  0.50400001928E-02 0. -1.
       -1   -1    0    0    0  501  0.00000000000E+00  0.00000000000E+00 -0.12194957156E+04  0.12194957156E+04  0.50400001928E-02 0.  1.
    10030    2    1    2    0    0  0.00000000000E+00  0.00000000000E+00  0.95390658205E+03  0.33928980132E+04  0.32560434827E+04 0.  0.
        2    1    3    3  502    0 -0.71292532580E+03  0.68525906137E+03  0.18246068143E+04  0.20753391357E+04  0.25500000920E-02 0. -1.
       -2    1    3    3    0  502  0.71292532580E+03 -0.68525906137E+03 -0.87070023225E+03  0.13175588776E+04  0.25500000920E-02 0.  1.
</event>
<event>
 5   0  0.2674551E-06  0.3323209E+04  0.7818609E-02  0.8157015E-01
        2   -1    0    0  501    0  0.00000000000E+00  0.00000000000E+00  0.20352922508E+04  0.20352922508E+04  0.25500000920E-02 0. -1.
       -2   -1    0    0    0  501  0.00000000000E+00  0.00000000000E+00 -0.13565276905E+04  0.13565276905E+04  0.25500000920E-02 0.  1.
    10030    2    1    2    0    0  0.00000000000E+00  0.00000000000E+00  0.67876456032E+03  0.33918199413E+04  0.33232094706E+04 0.  0.
        3    1    3    3  502    0  0.14952458752E+04  0.56702926895E+03  0.79997281114E+03  0.17880824723E+04  0.10100000352E+00 0. -1.
       -3    1    3    3    0  502 -0.14952458752E+04 -0.56702926895E+03 -0.12120825082E+03  0.16037374690E+04  0.10100000352E+00 0.  1.
</event>
<event>
 5   0  0.2658600E-06  0.3216326E+04  0.7818609E-02  0.8184519E-01
        2   -1    0    0  501    0  0.00000000000E+00  0.00000000000E+00  0.19889873904E+04  0.19889873904E+04  0.25500000920E-02 0. -1.
       -2   -1    0    0    0  501  0.00000000000E+00  0.00000000000E+00 -0.13002538008E+04  0.13002538008E+04  0.25500000920E-02 0.  1.
    10030    2    1    2    0    0  0.00000000000E+00  0.00000000000E+00  0.68873358958E+03  0.32892411912E+04  0.32163261117E+04 0.  0.
        5    1    3    3  502    0 -0.11621561932E+04  0.81120907816E+02 -0.78935846416E+03  0.14072300785E+04  0.46999998093E+01 0.  1.
       -5    1    3    3    0  502  0.11621561932E+04 -0.81120907816E+02  0.14780920537E+04  0.18820111127E+04  0.46999998093E+01 0. -1.
</event>
<event>
 5   0  0.8705956E-07  0.3264186E+04  0.7818609E-02  0.8172068E-01
       -1   -1    0    0    0  501  0.00000000000E+00  0.00000000000E+00  0.10082719066E+04  0.10082719066E+04  0.50400001928E-02 0. -1.
        1   -1    0    0  501    0  0.00000000000E+00  0.00000000000E+00 -0.26418745462E+04  0.26418745462E+04  0.50400001928E-02 0.  1.
    10030    2    1    2    0    0  0.00000000000E+00  0.00000000000E+00 -0.16336026396E+04  0.36501464529E+04  0.32641861993E+04 0.  0.
        2    1    3    3  502    0  0.10400905689E+04 -0.35349801532E+03  0.53297547963E+03  0.12209881655E+04  0.25500000920E-02 0. -1.
       -2    1    3    3    0  502 -0.10400905689E+04  0.35349801532E+03 -0.21665781192E+04  0.24291582874E+04  0.25500000920E-02 0.  1.
</event>
<event>
 5   0  0.2674551E-06  0.3250864E+04  0.7818609E-02  0.8175512E-01
        2   -1    0    0  501    0  0.00000000000E+00  0.00000000000E+00  0.23715053471E+04  0.23715053471E+04  0.25500000920E-02 0. -1.
       -2   -1    0    0    0  501  0.00000000000E+00  0.00000000000E+00 -0.11140723763E+04  0.11140723763E+04  0.25500000920E-02 0.  1.
    10030    2    1    2    0    0  0.00000000000E+00  0.00000000000E+00  0.12574329707E+04  0.34855777234E+04  0.32508636376E+04 0.  0.
        3    1    3    3  502    0  0.13928529857E+04 -0.23820071461E+03  0.14899875950E+04  0.20534950849E+04  0.10100000352E+00 0. -1.
       -3    1    3    3    0  502 -0.13928529857E+04  0.23820071461E+03 -0.23255462428E+03  0.14320826385E+04  0.10100000352E+00 0.  1.
</event>
<event>
 5   0  0.2705859E-06  0.3260214E+04  0.7818609E-02  0.8173093E-01
       -2   -1    0    0    0  501  0.00000000000E+00  0.00000000000E+00  0.16675088096E+04  0.16675088096E+04  0.25500000920E-02 0. -1.
        2   -1    0    0  501    0  0.00000000000E+00  0.00000000000E+00 -0.15935441530E+04  0.15935441530E+04  0.25500000920E-02 0.  1.
    10030    2    1    2    0    0  0.00000000000E+00  0.00000000000E+00  0.73964656625E+02  0.32610529626E+04  0.32602140504E+04 0.  0.
        1    1    3    3  502    0 -0.11910768068E+04 -0.23297327382E+03 -0.10515570482E+04  0.16058370813E+04  0.50400001928E-02 0.  1.
       -1    1    3    3    0  502  0.11910768068E+04  0.23297327382E+03  0.11255217048E+04  0.16552158814E+04  0.50400001928E-02 0. -1.
</event>
<event>
 5   0  0.9530268E-07  0.3206219E+04  0.7818609E-02  0.8187177E-01
        1   -1    0    0  501    0  0.00000000000E+00  0.00000000000E+00  0.20298143800E+04  0.20298143800E+04  0.50400001928E-02 0.  1.
       -1   -1    0    0    0  501  0.00000000000E+00  0.00000000000E+00 -0.12661063371E+04  0.12661063371E+04  0.50400001928E-02 0. -1.
    10030    2    1    2    0    0  0.00000000000E+00  0.00000000000E+00  0.76370804290E+03  0.32959207171E+04  0.32062194870E+04 0.  0.
        5    1    3    3  502    0 -0.27073925969E+03 -0.14452474533E+03  0.19993270296E+04  0.20227500612E+04  0.46999998093E+01 0.  1.
       -5    1    3    3    0  502  0.27073925969E+03  0.14452474533E+03 -0.12356189867E+04  0.12731706559E+04  0.46999998093E+01 0. -1.
</event>
<event>
 5   0  0.2674551E-06  0.3262513E+04  0.7818609E-02  0.8172500E-01
       -2   -1    0    0    0  501  0.00000000000E+00  0.00000000000E+00  0.14948774694E+04  0.14948774694E+04  0.25500000920E-02 0.  1.
        2   -1    0    0  501    0  0.00000000000E+00  0.00000000000E+00 -0.17800778183E+04  0.17800778183E+04  0.25500000920E-02 0. -1.
    10030    2    1    2    0    0  0.00000000000E+00  0.00000000000E+00 -0.28520034892E+03  0.32749552877E+04  0.32625132793E+04 0.  0.
        3    1    3    3  502    0  0.97763192962E+03 -0.11255337457E+04 -0.80724898046E+03  0.16953587612E+04  0.10100000352E+00 0. -1.
       -3    1    3    3    0  502 -0.97763192962E+03  0.11255337457E+04  0.52204863154E+03  0.15795965265E+04  0.10100000352E+00 0.  1.
</event>
<event>
 5   0  0.9295663E-07  0.3701680E+04  0.7818609E-02  0.8067590E-01
        1   -1    0    0  501    0  0.00000000000E+00  0.00000000000E+00  0.21189010664E+04  0.21189010664E+04  0.50400001928E-02 0. -1.
       -1   -1    0    0    0  501  0.00000000000E+00  0.00000000000E+00 -0.16166913231E+04  0.16166913231E+04  0.50400001928E-02 0.  1.
    10030    2    1    2    0    0  0.00000000000E+00  0.00000000000E+00  0.50220974329E+03  0.37355923895E+04  0.37016801421E+04 0.  0.
        4    1    3    3  502    0 -0.60402661471E+03 -0.25241802192E+03  0.19981622849E+04  0.21026690512E+04  0.12699999809E+01 0. -1.
       -4    1    3    3    0  502  0.60402661471E+03  0.25241802192E+03 -0.14959525416E+04  0.16329233383E+04  0.12699999809E+01 0.  1.
</event>
<event>
 5   0  0.8845526E-07  0.3314154E+04  0.7818609E-02  0.8159303E-01
        1   -1    0    0  501    0  0.00000000000E+00  0.00000000000E+00  0.13873159299E+04  0.13873159299E+04  0.50400001928E-02 0. -1.
       -1   -1    0    0    0  501  0.00000000000E+00  0.00000000000E+00 -0.19792922691E+04  0.19792922691E+04  0.50400001928E-02 0.  1.
    10030    2    1    2    0    0  0.00000000000E+00  0.00000000000E+00 -0.59197633919E+03  0.33666081990E+04  0.33141537048E+04 0.  0.
        1    1    3    3  502    0 -0.15485193906E+04 -0.74706192591E+02  0.29843179694E+03  0.15787827133E+04  0.50400001928E-02 0. -1.
       -1    1    3    3    0  502  0.15485193906E+04  0.74706192591E+02 -0.89040813614E+03  0.17878254857E+04  0.50400001928E-02 0.  1.
</event>
<event>
 5   0  0.9268670E-07  0.2916152E+04  0.7818609E-02  0.8268088E-01
        1   -1    0    0  501    0  0.00000000000E+00  0.00000000000E+00  0.28562480376E+04  0.28562480377E+04  0.50400001928E-02 0.  1.
       -1   -1    0    0    0  501  0.00000000000E+00  0.00000000000E+00 -0.74432828626E+03  0.74432828628E+03  0.50400001928E-02 0. -1.
    10030    2    1    2    0    0  0.00000000000E+00  0.00000000000E+00  0.21119197514E+04  0.36005763239E+04  0.29161524014E+04 0.  0.
        3    1    3    3  502    0  0.54474657691E+03  0.52005064859E+03 -0.48558037799E+03  0.89609699466E+03  0.10100000352E+00 0. -1.
       -3    1    3    3    0  502 -0.54474657691E+03 -0.52005064859E+03  0.25975001294E+04  0.27044793293E+04  0.10100000352E+00 0.  1.
</event>
<event>
 5   0  0.2574803E-06  0.3247697E+04  0.7818609E-02  0.8176333E-01
        2   -1    0    0  501    0  0.00000000000E+00  0.00000000000E+00  0.15497105901E+04  0.15497105901E+04  0.25500000920E-02 0.  1.
       -2   -1    0    0    0  501  0.00000000000E+00  0.00000000000E+00 -0.17015331780E+04  0.17015331780E+04  0.25500000920E-02 0. -1.
    10030    2    1    2    0    0  0.00000000000E+00  0.00000000000E+00 -0.15182258789E+03  0.32512437681E+04  0.32476970212E+04 0.  0.
        4    1    3    3  502    0 -0.60937989176E+03  0.15035982314E+04 -0.14476779126E+03  0.16288372602E+04  0.12699999809E+01 0. -1.
       -4    1    3    3    0  502  0.60937989176E+03 -0.15035982314E+04 -0.70547966265E+01  0.16224065079E+04  0.12699999809E+01 0.  1.
</event>
<event>
 5   0  0.2574803E-06  0.2364555E+04  0.7818609E-02  0.8452894E-01
        2   -1    0    0  501    0  0.00000000000E+00  0.00000000000E+00  0.11859676284E+04  0.11859676284E+04  0.25500000920E-02 0. -1.
       -2   -1    0    0    0  501  0.00000000000E+00  0.00000000000E+00 -0.11785986657E+04  0.11785986657E+04  0.25500000920E-02 0.  1.
    10030    2    1    2    0    0  0.00000000000E+00  0.00000000000E+00  0.73689627070E+01  0.23645662941E+04  0.23645548117E+04 0.  0.
        4    1    3    3  502    0 -0.21329270955E+03 -0.77705205876E+03 -0.86146396765E+03  0.11795869881E+04  0.12699999809E+01 0.  1.
       -4    1    3    3    0  502  0.21329270955E+03  0.77705205876E+03  0.86883293036E+03  0.11849793060E+04  0.12699999809E+01 0. -1.
</event>
<event>
 5   0  0.8705956E-07  0.3337399E+04  0.7818609E-02  0.8153444E-01
       -1   -1    0    0    0  501  0.00000000000E+00  0.00000000000E+00  0.83801140054E+03  0.83801140056E+03  0.50400001928E-02 0. -1.
        1   -1    0    0  501    0  0.00000000000E+00  0.00000000000E+00 -0.33228169274E+04  0.33228169274E+04  0.50400001928E-02 0.  1.
    10030    2    1    2    0    0  0.00000000000E+00  0.00000000000E+00 -0.24848055268E+04  0.41608283279E+04  0.33373992672E+04 0.  0.
        2    1    3    3  502    0 -0.74993237843E+03 -0.13420336851E+04 -0.43336819332E+03  0.15972667201E+04  0.25500000920E-02 0. -1.
       -2    1    3    3    0  502  0.74993237843E+03  0.13420336851E+04 -0.20514373335E+04  0.25635616079E+04  0.25500000920E-02 0.  1.
</event>
<event>
 5   0  0.9530268E-07  0.3306361E+04  0.7818609E-02  0.8161279E-01
        1   -1    0    0  501    0  0.00000000000E+00  0.00000000000E+00  0.21255060227E+04  0.21255060227E+04  0.50400001928E-02 0. -1.
       -1   -1    0    0    0  501  0.00000000000E+00  0.00000000000E+00 -0.12858141766E+04  0.12858141766E+04  0.50400001928E-02 0.  1.
    10030    2    1    2    0    0  0.00000000000E+00  0.00000000000E+00  0.83969184611E+03  0.34113201994E+04  0.33063610066E+04 0.  0.
        5    1    3    3  502    0  0.30057957569E+03 -0.65372349035E+03 -0.11157842846E+04  0.13276668042E+04  0.46999998093E+01 0.  1.
       -5    1    3    3    0  502 -0.30057957569E+03  0.65372349035E+03  0.19554761308E+04  0.20836533951E+04  0.46999998093E+01 0. -1.
</event>
<event>
 5   0  0.9530268E-07  0.3203316E+04  0.7818609E-02  0.8187942E-01
       -1   -1    0    0    0  501  0.00000000000E+00  0.00000000000E+00  0.13476079848E+04  0.13476079848E+04  0.50400001928E-02 0.  1.
        1   -1    0    0  501    0  0.00000000000E+00  0.00000000000E+00 -0.19036011989E+04  0.19036011989E+04  0.50400001928E-02 0. -1.
    10030    2    1    2    0    0  0.00000000000E+00  0.00000000000E+00 -0.55599321412E+03  0.32512091837E+04  0.32033158917E+04 0.  0.
        5    1    3    3  502    0 -0.14809843590E+04  0.57920054696E+03 -0.84095399920E+02  0.15924453119E+04  0.46999998093E+01 0.  1.
       -5    1    3    3    0  502  0.14809843590E+04 -0.57920054696E+03 -0.47189781420E+03  0.16587638718E+04  0.46999998093E+01 0. -1.
</event>
<event>
 5   0  0.2614212E-06  0.3175744E+04  0.7818609E-02  0.8195253E-01
        2   -1    0    0  501    0  0.00000000000E+00  0.00000000000E+00  0.18052047261E+04  0.18052047261E+04  0.25500000920E-02 0.  1.
       -2   -1    0    0    0  501  0.00000000000E+00  0.00000000000E+00 -0.13967047931E+04  0.13967047931E+04  0.25500000920E-02 0. -1.
    10030    2    1    2    0    0  0.00000000000E+00  0.00000000000E+00  0.40849993308E+03  0.32019095192E+04  0.31757443811E+04 0.  0.
        2    1    3    3  502    0  0.15072187534E+04 -0.73322763352E+02 -0.29404202872E+03  0.15373826176E+04  0.25500000920E-02 0. -1.
       -2    1    3    3    0  502 -0.15072187534E+04  0.73322763352E+02  0.70254196180E+03  0.16645269016E+04  0.25500000920E-02 0.  1.
</event>
<event>
 5   0  0.2674551E-06  0.3159983E+04  0.7818609E-02  0.8199466E-01
       -2   -1    0    0    0  501  0.00000000000E+00  0.00000000000E+00  0.15121852398E+04  0.15121852398E+04  0.25500000920E-02 0. -1.
        2   -1    0    0  501    0  0.00000000000E+00  0.00000000000E+00 -0.16508380686E+04  0.16508380686E+04  0.25500000920E-02 0.  1.
    10030    2    1    2    0    0  0.00000000000E+00  0.00000000000E+00 -0.13865282885E+03  0.31630233084E+04  0.31599828864E+04 0.  0.
        3    1    3    3  502    0 -0.37006867581E+03  0.15186905743E+04 -0.29976752554E+03  0.15916131643E+04  0.10100000352E+00 0. -1.
       -3    1    3    3    0  502  0.37006867581E+03 -0.15186905743E+04  0.16111469669E+03  0.15714101441E+04  0.10100000352E+00 0.  1.
</event>
<event>
 5   0  0.2705859E-06  0.3413632E+04  0.7818609E-02  0.8134569E-01
       -2   -1    0    0    0  501  0.00000000000E+00  0.00000000000E+00  0.10429085627E+04  0.10429085627E+04  0.25500000920E-02 0.  1.
        2   -1    0    0  501    0  0.00000000000E+00  0.00000000000E+00 -0.27933610667E+04  0.27933610667E+04  0.25500000920E-02 0. -1.
    10030    2    1    2    0    0  0.00000000000E+00  0.00000000000E+00 -0.17504525040E+04  0.38362696294E+04  0.34136316000E+04 0.  0.
        1    1    3    3  502    0 -0.69445500265E+02  0.80422120728E+02  0.10391880195E+04  0.10446062104E+04  0.50400001928E-02 0.  1.
       -1    1    3    3    0  502  0.69445500265E+02 -0.80422120728E+02 -0.27896405234E+04  0.27916634190E+04  0.50400001928E-02 0. -1.
</event>
<event>
 5   0  0.2614212E-06  0.3319365E+04  0.7818609E-02  0.8157985E-01
        2   -1    0    0  501    0  0.00000000000E+00  0.00000000000E+00  0.15667122504E+04  0.15667122504E+04  0.25500000920E-02 0.  1.
       -2   -1    0    0    0  501  0.00000000000E+00  0.00000000000E+00 -0.17581699116E+04  0.17581699116E+04  0.25500000920E-02 0. -1.
    10030    2    1    2    0    0  0.00000000000E+00  0.00000000000E+00 -0.19145766122E+03  0.33248821621E+04  0.33193652037E+04 0.  0.
        2    1    3    3  502    0 -0.44716449019E+03 -0.66400218280E+03 -0.15519991794E+04  0.17462979221E+04  0.25500000920E-02 0. -1.
       -2    1    3    3    0  502  0.44716449019E+03  0.66400218280E+03  0.13605415181E+04  0.15785842400E+04  0.25500000920E-02 0.  1.
</event>
<event>
 5   0  0.2674551E-06  0.3290182E+04  0.7818609E-02  0.8165398E-01
       -2   -1    0    0    0  501  0.00000000000E+00  0.00000000000E+00  0.97241028241E+03  0.97241028241E+03  0.25500000920E-02 0.  1.
        2   -1    0    0  501    0  0.00000000000E+00  0.00000000000E+00 -0.27831096624E+04  0.27831096624E+04  0.25500000920E-02 0. -1.
    10030    2    1    2    0    0  0.00000000000E+00  0.00000000000E+00 -0.18106993800E+04  0.37555199448E+04  0.32901820331E+04 0.  0.
        3    1    3    3  502    0  0.27761444190E+03  0.12782479854E+03 -0.27504196058E+04  0.27673483654E+04  0.10100000352E+00 0. -1.
       -3    1    3    3    0  502 -0.27761444190E+03 -0.12782479854E+03  0.93972022576E+03  0.98817157943E+03  0.10100000352E+00 0.  1.
</event>
<event>
 5   0  0.9530268E-07  0.3298935E+04  0.7818609E-02  0.8163166E-01
       -1   -1    0    0    0  501  0.00000000000E+00  0.00000000000E+00  0.15460421370E+04  0.15460421370E+04  0.50400001928E-02 0.  1.
        1   -1    0    0  501    0  0.00000000000E+00  0.00000000000E+00 -0.17598114131E+04  0.17598114131E+04  0.50400001928E-02 0. -1.
    10030    2    1    2    0    0  0.00000000000E+00  0.00000000000E+00 -0.21376927606E+03  0.33058535501E+04  0.32989347358E+04 0.  0.
        5    1    3    3  502    0 -0.15201150127E+04 -0.30726661973E+03 -0.66980834550E+03  0.16893275991E+04  0.46999998093E+01 0. -1.
       -5    1    3    3    0  502  0.15201150127E+04  0.30726661973E+03  0.45603906944E+03  0.16165259510E+04  0.46999998093E+01 0.  1.
</event>
<event>
 5   0  0.2658600E-06  0.3307000E+04  0.7818609E-02  0.8161116E-01
       -2   -1    0    0    0  501  0.00000000000E+00  0.00000000000E+00  0.10600318373E+04  0.10600318373E+04  0.25500000920E-02 0. -1.
        2   -1    0    0  501    0  0.00000000000E+00  0.00000000000E+00 -0.25792269833E+04  0.25792269833E+04  0.25500000920E-02 0.  1.
    10030    2    1    2    0    0  0.00000000000E+00  0.00000000000E+00 -0.15191951460E+04  0.36392588205E+04  0.33070002829E+04 0.  0.
        5    1    3    3  502    0  0.76173776192E+03  0.54149827605E+03 -0.22606725950E+04  0.24462476311E+04  0.46999998093E+01 0.  1.
       -5    1    3    3    0  502 -0.76173776192E+03 -0.54149827605E+03  0.74147744894E+03  0.11930111895E+04  0.46999998093E+01 0. -1.
</event>
<event>
 5   0  0.9530268E-07  0.3306420E+04  0.7818609E-02  0.8161264E-01
       -1   -1    0    0    0  501  0.00000000000E+00  0.00000000000E+00  0.30137256264E+04  0.30137256264E+04  0.50400001928E-02 0.  1.
        1   -1    0    0  501    0  0.00000000000E+00  0.00000000000E+00 -0.90688544086E+03  0.90688544087E+03  0.50400001928E-02 0. -1.
    10030    2    1    2    0    0  0.00000000000E+00  0.00000000000E+00  0.21068401855E+04  0.39206110673E+04  0.33064203564E+04 0.  0.
        5    1    3    3  502    0  0.17032594988E+03  0.14965345234E+04  0.24531535248E+03  0.15260498751E+04  0.46999998093E+01 0.  1.
       -5    1    3    3    0  502 -0.17032594988E+03 -0.14965345234E+04  0.18615248331E+04  0.23945611922E+04  0.46999998093E+01 0. -1.
</event>
<event>
 5   0  0.9268670E-07  0.3300021E+04  0.7818609E-02  0.8162890E-01
        1   -1    0    0  501    0  0.00000000000E+00  0.00000000000E+00  0.15563027360E+04  0.15563027360E+04  0.50400001928E-02 0.  1.
       -1   -1    0    0    0  501  0.00000000000E+00  0.00000000000E+00 -0.17493607885E+04  0.17493607886E+04  0.50400001928E-02 0. -1.
    10030    2    1    2    0    0  0.00000000000E+00  0.00000000000E+00 -0.19305805256E+03  0.33056635245E+04  0.33000212008E+04 0.  0.
        3    1    3    3  502    0  0.13061133576E+04 -0.10067901268E+04 -0.15117969887E+03  0.16560234823E+04  0.10100000352E+00 0. -1.
       -3    1    3    3    0  502 -0.13061133576E+04  0.10067901268E+04 -0.41878353695E+02  0.16496400423E+04  0.10100000352E+00 0.  1.
</event>
<event>
 5   0  0.2674551E-06  0.3211247E+04  0.7818609E-02  0.8185853E-01
       -2   -1    0    0    0  501  0.00000000000E+00  0.00000000000E+00  0.99895201584E+03  0.99895201584E+03  0.25500000920E-02 0.  1.
        2   -1    0    0  501    0  0.00000000000E+00  0.00000000000E+00 -0.25807307467E+04  0.25807307467E+04  0.25500000920E-02 0. -1.
    10030    2    1    2    0    0  0.00000000000E+00  0.00000000000E+00 -0.15817787308E+04  0.35796827625E+04  0.32112466001E+04 0.  0.
        3    1    3    3  502    0  0.10120462187E+04  0.12445621880E+04 -0.71322851945E+03  0.17555248559E+04  0.10100000352E+00 0.  1.
       -3    1    3    3    0  502 -0.10120462187E+04 -0.12445621880E+04 -0.86855021139E+03  0.18241579066E+04  0.10100000352E+00 0. -1.
</event>
<event>
 5   0  0.8845526E-07  0.3314445E+04  0.7818609E-02  0.8159230E-01
       -1   -1    0    0    0  501  0.00000000000E+00  0.00000000000E+00  0.15854758849E+04  0.15854758849E+04  0.50400001928E-02 0. -1.
        1   -1    0    0  501    0  0.00000000000E+00  0.00000000000E+00 -0.17322159061E+04  0.17322159061E+04  0.50400001928E-02 0.  1.
    10030    2    1    2    0    0  0.00000000000E+00  0.00000000000E+00 -0.14674002122E+03  0.33176917910E+04  0.33144450797E+04 0.  0.
        1    1    3    3  502    0 -0.17711521955E+03 -0.82974993053E+03 -0.14983275463E+04  0.17218711288E+04  0.50400001928E-02 0.  1.
       -1    1    3    3    0  502  0.17711521955E+03  0.82974993053E+03  0.13515875250E+04  0.15958206623E+04  0.50400001928E-02 0. -1.
</event>
<event>
 5   0  0.9268670E-07  0.3024314E+04  0.7818609E-02  0.8236822E-01
       -1   -1    0    0    0  501  0.00000000000E+00  0.00000000000E+00  0.22888751667E+04  0.22888751667E+04  0.50400001928E-02 0. -1.
        1   -1    0    0  501    0  0.00000000000E+00  0.00000000000E+00 -0.99901444193E+03  0.99901444194E+03  0.50400001928E-02 0.  1.
    10030    2    1    2    0    0  0.00000000000E+00  0.00000000000E+00  0.12898607248E+04  0.32878896087E+04  0.30243143668E+04 0.  0.
        3    1    3    3  502    0  0.12267328905E+04  0.76492938427E+03  0.16285620806E+03  0.14548239420E+04  0.10100000352E+00 0.  1.
       -3    1    3    3    0  502 -0.12267328905E+04 -0.76492938427E+03  0.11270045167E+04  0.18330656667E+04  0.10100000352E+00 0. -1.
</event>
<event>
 5   0  0.9295663E-07  0.3229723E+04  0.7818609E-02  0.8181011E-01
       -1   -1    0    0    0  501  0.00000000000E+00  0.00000000000E+00  0.19901429297E+04  0.19901429297E+04  0.50400001928E-02 0. -1.
        1   -1    0    0  501    0  0.00000000000E+00  0.00000000000E+00 -0.13103471769E+04  0.13103471769E+04  0.50400001928E-02 0.  1.
    10030    2    1    2    0    0  0.00000000000E+00  0.00000000000E+00  0.67979575277E+03  0.33004901066E+04  0.32297233129E+04 0.  0.
        4    1    3    3  502    0  0.15581430395E+04 -0.32293713241E+03  0.62102269248E+03  0.17081478040E+04  0.12699999809E+01 0. -1.
       -4    1    3    3    0  502 -0.15581430395E+04  0.32293713241E+03  0.58773060289E+02  0.15923423025E+04  0.12699999809E+01 0.  1.
</event>
<event>
 5   0  0.9530268E-07  0.3285658E+04  0.7818609E-02  0.8166554E-01
       -1   -1    0    0    0  501  0.00000000000E+00  0.00000000000E+00  0.26276912176E+04  0.26276912176E+04  0.50400001928E-02 0. -1.
        1   -1    0    0  501    0  0.00000000000E+00  0.00000000000E+00 -0.10270944121E+04  0.10270944121E+04  0.50400001928E-02 0.  1.
    10030    2    1    2    0    0  0.00000000000E+00  0.00000000000E+00  0.16005968056E+04  0.36547856297E+04  0.32856579044E+04 0.  0.
        5    1    3    3  502    0  0.70228638808E+03  0.44863263865E+03  0.23751165243E+04  0.25170772752E+04  0.46999998093E+01 0. -1.
       -5    1    3    3    0  502 -0.70228638808E+03 -0.44863263865E+03 -0.77451971868E+03  0.11377083545E+04  0.46999998093E+01 0.  1.
</event>
<event>
 5   0  0.2574803E-06  0.3368859E+04  0.7818609E-02  0.8145592E-01
        2   -1    0    0  501    0  0.00000000000E+00  0.00000000000E+00  0.13161398489E+04  0.13161398490E+04  0.25500000920E-02 0. -1.
       -2   -1    0    0    0  501  0.00000000000E+00  0.00000000000E+00 -0.21557754922E+04  0.21557754922E+04  0.25500000920E-02 0.  1.
    10030    2    1    2    0    0  0.00000000000E+00  0.00000000000E+00 -0.83963564327E+03  0.34719153412E+04  0.33688585786E+04 0.  0.
        4    1    3    3  502    0 -0.14149793087E+04 -0.45866517192E+03 -0.12344152527E+04  0.19329570127E+04  0.12699999809E+01 0.  1.
       -4    1    3    3    0  502  0.14149793087E+04  0.45866517192E+03  0.39477960945E+03  0.15389583285E+04  0.12699999809E+01 0. -1.
</event>
<event>
 5   0  0.2705859E-06  0.3273297E+04  0.7818609E-02  0.8169723E-01
       -2   -1    0    0    0  501  0.00000000000E+00  0.00000000000E+00  0.95311688585E+03  0.95311688585E+03  0.25500000920E-02 0. -1.
        2   -1    0    0  501    0  0.00000000000E+00  0.00000000000E+00 -0.28103772861E+04  0.28103772861E+04  0.25500000920E-02 0.  1.
    10030    2    1    2    0    0  0.00000000000E+00  0.00000000000E+00 -0.18572604003E+04  0.37634941720E+04  0.32732968377E+04 0.  0.
        1    1    3    3  502    0 -0.36614191223E+02  0.65116935739E+03  0.79725186973E+03  0.10300352784E+04  0.50400001928E-02 0. -1.
       -1    1    3    3    0  502  0.36614191223E+02 -0.65116935739E+03 -0.26545122700E+04  0.27334588935E+04  0.50400001928E-02 0.  1.
</event>
<event>
 5   0  0.9295663E-07  0.3326930E+04  0.7818609E-02  0.8156077E-01
        1   -1    0    0  501    0  0.00000000000E+00  0.00000000000E+00  0.15494874259E+04  0.15494874259E+04  0.50400001928E-02 0.  1.
       -1   -1    0    0    0  501  0.00000000000E+00  0.00000000000E+00 -0.17858269743E+04  0.17858269744E+04  0.50400001928E-02 0. -1.
    10030    2    1    2    0    0  0.00000000000E+00  0.00000000000E+00 -0.23633954842E+03  0.33353144003E+04  0.33269303820E+04 0.  0.
        4    1    3    3  502    0  0.16439701007E+04  0.22089025661E+02  0.13542858830E+03  0.16496872833E+04  0.12699999809E+01 0.  1.
       -4    1    3    3    0  502 -0.16439701007E+04 -0.22089025661E+02 -0.37176813672E+03  0.16856271170E+04  0.12699999809E+01 0. -1.
</event>
<event>
 5   0  0.2614212E-06  0.2557198E+04  0.7818609E-02  0.8382887E-01
       -2   -1    0    0    0  501  0.00000000000E+00  0.00000000000E+00  0.94294667691E+03  0.94294667691E+03  0.25500000920E-02 0. -1.
        2   -1    0    0  501    0  0.00000000000E+00  0.00000000000E+00 -0.17337304160E+04  0.17337304160E+04  0.25500000920E-02 0.  1.
    10030    2    1    2    0    0  0.00000000000E+00  0.00000000000E+00 -0.79078373910E+03  0.26766770929E+04  0.25571979465E+04 0.  0.
        2    1    3    3  502    0  0.94424189795E+03  0.65588566904E+03 -0.98102976006E+03  0.15113563983E+04  0.25500000920E-02 0.  1.
       -2    1    3    3    0  502 -0.94424189795E+03 -0.65588566904E+03  0.19024602096E+03  0.11653206946E+04  0.25500000920E-02 0. -1.
</event>
<event>
 5   0  0.9530268E-07  0.3210197E+04  0.7818609E-02  0.8186129E-01
        1   -1    0    0  501    0  0.00000000000E+00  0.00000000000E+00  0.12360241695E+04  0.12360241695E+04  0.50400001928E-02 0.  1.
       -1   -1    0    0    0  501  0.00000000000E+00  0.00000000000E+00 -0.20843770588E+04  0.20843770588E+04  0.50400001928E-02 0. -1.
    10030    2    1    2    0    0  0.00000000000E+00  0.00000000000E+00 -0.84835288929E+03  0.33204012284E+04  0.32101965193E+04 0.  0.
        5    1    3    3  502    0 -0.14857692225E+04 -0.18288364855E+03 -0.10231610927E+04  0.18132394556E+04  0.46999998093E+01 0. -1.
       -5    1    3    3    0  502  0.14857692225E+04  0.18288364855E+03  0.17480820345E+03  0.15071617728E+04  0.46999998093E+01 0.  1.
</event>
<event>
 5   0  0.2614212E-06  0.3329959E+04  0.7818609E-02  0.8155314E-01
        2   -1    0    0  501    0  0.00000000000E+00  0.00000000000E+00  0.16042150830E+04  0.16042150830E+04  0.25500000920E-02 0. -1.
       -2   -1    0    0    0  501  0.00000000000E+00  0.00000000000E+00 -0.17280452247E+04  0.17280452247E+04  0.25500000920E-02 0.  1.
    10030    2    1    2    0    0  0.00000000000E+00  0.00000000000E+00 -0.12383014171E+03  0.33322603077E+04  0.33299586866E+04 0.  0.
        2    1    3    3  502    0 -0.22050352958E+03  0.10676746499E+04 -0.13211986518E+04  0.17129263972E+04  0.25500000920E-02 0.  1.
       -2    1    3    3    0  502  0.22050352958E+03 -0.10676746499E+04  0.11973685101E+04  0.16193339105E+04  0.25500000920E-02 0. -1.
</event>
<event>
 5   0  0.9295663E-07  0.3344921E+04  0.7818609E-02  0.8151558E-01
        1   -1    0    0  501    0  0.00000000000E+00  0.00000000000E+00  0.16853408653E+04  0.16853408653E+04  0.50400001928E-02 0.  1.
       -1   -1    0    0    0  501  0.00000000000E+00  0.00000000000E+00 -0.16596784140E+04  0.16596784140E+04  0.50400001928E-02 0. -1.
    10030    2    1    2    0    0  0.00000000000E+00  0.00000000000E+00  0.25662451287E+02  0.33450192793E+04  0.33449208387E+04 0.  0.
        4    1    3    3  502    0 -0.11972030337E+04 -0.39931631844E+03  0.11103030957E+04  0.16809292678E+04  0.12699999809E+01 0.  1.
       -4    1    3    3    0  502  0.11972030337E+04  0.39931631844E+03 -0.10846406444E+04  0.16640900115E+04  0.12699999809E+01 0. -1.
</event>
<event>
 5   0  0.9295663E-07  0.3315152E+04  0.7818609E-02  0.8159051E-01
       -1   -1    0    0    0  501  0.00000000000E+00  0.00000000000E+00  0.17588526471E+04  0.17588526471E+04  0.50400001928E-02 0.  1.
        1   -1    0    0  501    0  0.00000000000E+00  0.00000000000E+00 -0.15621309641E+04  0.15621309641E+04  0.50400001928E-02 0. -1.
    10030    2    1    2    0    0  0.00000000000E+00  0.00000000000E+00  0.19672168302E+03  0.33209836112E+04  0.33151519913E+04 0.  0.
        4    1    3    3  502    0 -0.67627759269E+03 -0.10888063437E+04  0.11512596420E+04  0.17228612865E+04  0.12699999809E+01 0.  1.
       -4    1    3    3    0  502  0.67627759269E+03  0.10888063437E+04 -0.95453795901E+03  0.15981223246E+04  0.12699999809E+01 0. -1.
</event>
<event>
 5   0  0.8705956E-07  0.3354043E+04  0.7818609E-02  0.8149279E-01
       -1   -1    0    0    0  501  0.00000000000E+00  0.00000000000E+00  0.11716376058E+04  0.11716376058E+04  0.50400001928E-02 0. -1.
        1   -1    0    0  501    0  0.00000000000E+00  0.00000000000E+00 -0.24004019177E+04  0.24004019177E+04  0.50400001928E-02 0.  1.
    10030    2    1    2    0    0  0.00000000000E+00  0.00000000000E+00 -0.12287643119E+04  0.35720395235E+04  0.33540430264E+04 0.  0.
        2    1    3    3  502    0  0.16177025553E+04  0.39195705821E+03 -0.39661926162E+03  0.17111103798E+04  0.25500000920E-02 0.  1.
       -2    1    3    3    0  502 -0.16177025553E+04 -0.39195705821E+03 -0.83214505030E+03  0.18609291437E+04  0.25500000920E-02 0. -1.
</event>
<event>
 5   0  0.2614212E-06  0.3361547E+04  0.7818609E-02  0.8147409E-01
       -2   -1    0    0    0  501  0.00000000000E+00  0.00000000000E+00  0.13812145211E+04  0.13812145211E+04  0.25500000920E-02 0. -1.
        2   -1    0    0  501    0  0.00000000000E+00  0.00000000000E+00 -0.20453005279E+04  0.20453005279E+04  0.25500000920E-02 0.  1.
    10030    2    1    2    0    0  0.00000000000E+00  0.00000000000E+00 -0.66408600675E+03  0.34265150490E+04  0.33615465424E+04 0.  0.
        2    1    3    3  502    0 -0.54212440787E+02 -0.11045263604E+04 -0.16222393065E+04  0.19633078814E+04  0.25500000920E-02 0.  1.
       -2    1    3    3    0  502  0.54212440787E+02  0.11045263604E+04  0.95815329973E+03  0.14632071676E+04  0.25500000920E-02 0. -1.
</event>
<event>
 5   0  0.8520125E-07  0.3394094E+04  0.7818609E-02  0.8139357E-01
        3   -1    0    0  501    0  0.00000000000E+00  0.00000000000E+00  0.17392921682E+04  0.17392921711E+04  0.10100000352E+00 0. -1.
       -3   -1    0    0    0  501  0.00000000000E+00  0.00000000000E+00 -0.16558278349E+04  0.16558278380E+04  0.10100000352E+00 0.  1.
    10030    2    1    2    0    0  0.00000000000E+00  0.00000000000E+00  0.83464333337E+02  0.33951200091E+04  0.33940939264E+04 0.  0.
        5    1    3    3  502    0  0.21234542898E+03 -0.12748250835E+04 -0.10584533840E+04  0.16705134633E+04  0.46999998093E+01 0.  1.
       -5    1    3    3    0  502 -0.21234542898E+03  0.12748250835E+04  0.11419177173E+04  0.17246065458E+04  0.46999998093E+01 0. -1.
</event>
<event>
 5   0  0.2658600E-06  0.3727336E+04  0.7818609E-02  0.8061931E-01
        2   -1    0    0  501    0  0.00000000000E+00  0.00000000000E+00  0.13130757019E+04  0.13130757019E+04  0.25500000920E-02 0. -1.
       -2   -1    0    0    0  501  0.00000000000E+00  0.00000000000E+00 -0.26451314873E+04  0.26451314873E+04  0.25500000920E-02 0.  1.
    10030    2    1    2    0    0  0.00000000000E+00  0.00000000000E+00 -0.13320557854E+04  0.39582071891E+04  0.37273357156E+04 0.  0.
        5    1    3    3  502    0 -0.13915667411E+04 -0.89792024135E+03  0.24161536861E+03  0.16736543344E+04  0.46999998093E+01 0.  1.
       -5    1    3    3    0  502  0.13915667411E+04  0.89792024135E+03 -0.15736711540E+04  0.22845528547E+04  0.46999998093E+01 0. -1.
</event>
<event>
 5   0  0.2658600E-06  0.3356352E+04  0.7818609E-02  0.8148703E-01
       -2   -1    0    0    0  501  0.00000000000E+00  0.00000000000E+00  0.13425228662E+04  0.13425228662E+04  0.25500000920E-02 0.  1.
        2   -1    0    0  501    0  0.00000000000E+00  0.00000000000E+00 -0.20977485764E+04  0.20977485764E+04  0.25500000920E-02 0. -1.
    10030    2    1    2    0    0  0.00000000000E+00  0.00000000000E+00 -0.75522571021E+03  0.34402714425E+04  0.33563524435E+04 0.  0.
        5    1    3    3  502    0 -0.47276404553E+03  0.67879008738E+03  0.11190290035E+04  0.13915853643E+04  0.46999998093E+01 0.  1.
       -5    1    3    3    0  502  0.47276404553E+03 -0.67879008738E+03 -0.18742547137E+04  0.20486860783E+04  0.46999998093E+01 0. -1.
</event>
<event>
 5   0  0.2574803E-06  0.3352157E+04  0.7818609E-02  0.8149749E-01
        2   -1    0    0  501    0  0.00000000000E+00  0.00000000000E+00  0.13033737328E+04  0.13033737328E+04  0.25500000920E-02 0.  1.
       -2   -1    0    0    0  501  0.00000000000E+00  0.00000000000E+00 -0.21553599178E+04  0.21553599178E+04  0.25500000920E-02 0. -1.
    10030    2    1    2    0    0  0.00000000000E+00  0.00000000000E+00 -0.85198618500E+03  0.34587336506E+04  0.33521572169E+04 0.  0.
        4    1    3    3  502    0  0.65721077187E+03  0.10597325224E+03  0.11611189822E+04  0.13384151944E+04  0.12699999809E+01 0.  1.
       -4    1    3    3    0  502 -0.65721077187E+03 -0.10597325224E+03 -0.20131051672E+04  0.21203184562E+04  0.12699999809E+01 0. -1.
</event>
<event>
 5   0  0.9295663E-07  0.2762665E+04  0.7818609E-02  0.8314954E-01
        1   -1    0    0  501    0  0.00000000000E+00  0.00000000000E+00  0.14381532608E+04  0.14381532608E+04  0.50400001928E-02 0.  1.
       -1   -1    0    0    0  501  0.00000000000E+00  0.00000000000E+00 -0.13267564911E+04  0.13267564911E+04  0.50400001928E-02 0. -1.
    10030    2    1    2    0    0  0.00000000000E+00  0.00000000000E+00  0.11139676969E+03  0.27649097519E+04  0.27626647817E+04 0.  0.
        4    1    3    3  502    0  0.22393897389E+03  0.12622614221E+04 -0.45913678129E+03  0.13617124360E+04  0.12699999809E+01 0.  1.
       -4    1    3    3    0  502 -0.22393897389E+03 -0.12622614221E+04  0.57053355098E+03  0.14031973159E+04  0.12699999809E+01 0. -1.
</event>
<event>
 5   0  0.8705956E-07  0.3316920E+04  0.7818609E-02  0.8158603E-01
        1   -1    0    0  501    0  0.00000000000E+00  0.00000000000E+00  0.23714695134E+04  0.23714695134E+04  0.50400001928E-02 0. -1.
       -1   -1    0    0    0  501  0.00000000000E+00  0.00000000000E+00 -0.11598246992E+04  0.11598246992E+04  0.50400001928E-02 0.  1.
    10030    2    1    2    0    0  0.00000000000E+00  0.00000000000E+00  0.12116448141E+04  0.35312942126E+04  0.33169196042E+04 0.  0.
        2    1    3    3  502    0  0.13897891705E+04  0.50068492314E+03 -0.19674922626E+03  0.14902716493E+04  0.25500000920E-02 0.  1.
       -2    1    3    3    0  502 -0.13897891705E+04 -0.50068492314E+03  0.14083940404E+04  0.20410225633E+04  0.25500000920E-02 0. -1.
</event>
<event>
 5   0  0.2614212E-06  0.3309456E+04  0.7818609E-02  0.8160494E-01
       -2   -1    0    0    0  501  0.00000000000E+00  0.00000000000E+00  0.13539857452E+04  0.13539857452E+04  0.25500000920E-02 0. -1.
        2   -1    0    0  501    0  0.00000000000E+00  0.00000000000E+00 -0.20222694100E+04  0.20222694100E+04  0.25500000920E-02 0.  1.
    10030    2    1    2    0    0  0.00000000000E+00  0.00000000000E+00 -0.66828366481E+03  0.33762551551E+04  0.33094555165E+04 0.  0.
        2    1    3    3  502    0 -0.29315376392E+03 -0.10399075040E+04 -0.16127456824E+04  0.19412097729E+04  0.25500000920E-02 0.  1.
       -2    1    3    3    0  502  0.29315376392E+03  0.10399075040E+04  0.94446201763E+03  0.14350453822E+04  0.25500000920E-02 0. -1.
</event>
<event>
 5   0  0.8705956E-07  0.3298389E+04  0.7818609E-02  0.8163305E-01
        1   -1    0    0  501    0  0.00000000000E+00  0.00000000000E+00  0.15476698972E+04  0.15476698972E+04  0.50400001928E-02 0. -1.
       -1   -1    0    0    0  501  0.00000000000E+00  0.00000000000E+00 -0.17573790595E+04  0.17573790595E+04  0.50400001928E-02 0.  1.
    10030    2    1    2    0    0  0.00000000000E+00  0.00000000000E+00 -0.20970916237E+03  0.33050489567E+04  0.32983891028E+04 0.  0.
        2    1    3    3  502    0  0.13864655719E+03  0.28428792865E+03  0.15169932086E+04  0.15496163684E+04  0.25500000920E-02 0. -1.
       -2    1    3    3    0  502 -0.13864655719E+03 -0.28428792865E+03 -0.17267023710E+04  0.17554325883E+04  0.25500000920E-02 0.  1.
</event>
<event>
 5   0  0.2674551E-06  0.2478156E+04  0.7818609E-02  0.8410809E-01
        2   -1    0    0  501    0  0.00000000000E+00  0.00000000000E+00  0.11858186243E+04  0.11858186243E+04  0.25500000920E-02 0. -1.
       -2   -1    0    0    0  501  0.00000000000E+00  0.00000000000E+00 -0.12947297536E+04  0.12947297536E+04  0.25500000920E-02 0.  1.
    10030    2    1    2    0    0  0.00000000000E+00  0.00000000000E+00 -0.10891112935E+03  0.24805483779E+04  0.24781562947E+04 0.  0.
        3    1    3    3  502    0  0.45737226936E+03  0.11262451974E+03 -0.12016163366E+04  0.12906415095E+04  0.10100000352E+00 0.  1.
       -3    1    3    3    0  502 -0.45737226936E+03 -0.11262451974E+03  0.10927052073E+04  0.11899068684E+04  0.10100000352E+00 0. -1.
</event>
<event>
 5   0  0.2658600E-06  0.3384159E+04  0.7818609E-02  0.8141805E-01
       -2   -1    0    0    0  501  0.00000000000E+00  0.00000000000E+00  0.13909513485E+04  0.13909513485E+04  0.25500000920E-02 0. -1.
        2   -1    0    0  501    0  0.00000000000E+00  0.00000000000E+00 -0.20583995686E+04  0.20583995686E+04  0.25500000920E-02 0.  1.
    10030    2    1    2    0    0  0.00000000000E+00  0.00000000000E+00 -0.66744822002E+03  0.34493509171E+04  0.33841593672E+04 0.  0.
        5    1    3    3  502    0  0.11118846340E+03 -0.13369860106E+04  0.71726338505E+03  0.15213097385E+04  0.46999998093E+01 0. -1.
       -5    1    3    3    0  502 -0.11118846340E+03  0.13369860106E+04 -0.13847116051E+04  0.19280411786E+04  0.46999998093E+01 0.  1.
</event>
<event>
 5   0  0.9530268E-07  0.3181247E+04  0.7818609E-02  0.8193788E-01
       -1   -1    0    0    0  501  0.00000000000E+00  0.00000000000E+00  0.12066197548E+04  0.12066197548E+04  0.50400001928E-02 0.  1.
        1   -1    0    0  501    0  0.00000000000E+00  0.00000000000E+00 -0.20968349429E+04  0.20968349429E+04  0.50400001928E-02 0. -1.
    10030    2    1    2    0    0  0.00000000000E+00  0.00000000000E+00 -0.89021518804E+03  0.33034546977E+04  0.31812465888E+04 0.  0.
        5    1    3    3  502    0  0.14556254946E+04 -0.24037881379E+03  0.17223246552E+03  0.14853665092E+04  0.46999998093E+01 0.  1.
       -5    1    3    3    0  502 -0.14556254946E+04  0.24037881379E+03 -0.10624476536E+04  0.18180881885E+04  0.46999998093E+01 0. -1.
</event>
<event>
 5   0  0.9268670E-07  0.3480031E+04  0.7818609E-02  0.8118539E-01
       -1   -1    0    0    0  501  0.00000000000E+00  0.00000000000E+00  0.12084849775E+04  0.12084849775E+04  0.50400001928E-02 0.  1.
        1   -1    0    0  501    0  0.00000000000E+00  0.00000000000E+00 -0.25053297456E+04  0.25053297456E+04  0.50400001928E-02 0. -1.
    10030    2    1    2    0    0  0.00000000000E+00  0.00000000000E+00 -0.12968447681E+04  0.37138147232E+04  0.34800306673E+04 0.  0.
        3    1    3    3  502    0  0.11404028067E+04 -0.63309051774E+03 -0.18774542779E+04  0.22860789009E+04  0.10100000352E+00 0. -1.
       -3    1    3    3    0  502 -0.11404028067E+04  0.63309051774E+03  0.58060950977E+03  0.14277358223E+04  0.10100000352E+00 0.  1.
</event>
<event>
 5   0  0.2674551E-06  0.3241279E+04  0.7818609E-02  0.8178000E-01
       -2   -1    0    0    0  501  0.00000000000E+00  0.00000000000E+00  0.17817737520E+04  0.17817737520E+04  0.25500000920E-02 0.  1.
        2   -1    0    0  501    0  0.00000000000E+00  0.00000000000E+00 -0.14740770827E+04  0.14740770827E+04  0.25500000920E-02 0. -1.
    10030    2    1    2    0    0  0.00000000000E+00  0.00000000000E+00  0.30769666937E+03  0.32558508347E+04  0.32412786701E+04 0.  0.
        3    1    3    3  502    0  0.10444048201E+04 -0.14519702657E+02 -0.10908673239E+04  0.15102926136E+04  0.10100000352E+00 0.  1.
       -3    1    3    3    0  502 -0.10444048201E+04  0.14519702657E+02  0.13985639932E+04  0.17455582212E+04  0.10100000352E+00 0. -1.
</event>
<event>
 5   0  0.2705859E-06  0.3276202E+04  0.7818609E-02  0.8168977E-01
       -2   -1    0    0    0  501  0.00000000000E+00  0.00000000000E+00  0.14503381404E+04  0.14503381404E+04  0.25500000920E-02 0. -1.
        2   -1    0    0  501    0  0.00000000000E+00  0.00000000000E+00 -0.18501721718E+04  0.18501721718E+04  0.25500000920E-02 0.  1.
    10030    2    1    2    0    0  0.00000000000E+00  0.00000000000E+00 -0.39983403141E+03  0.33005103121E+04  0.32762022324E+04 0.  0.
        1    1    3    3  502    0 -0.61735907810E+03 -0.11701368135E+02  0.13286097965E+04  0.14650846886E+04  0.50400001928E-02 0. -1.
       -1    1    3    3    0  502  0.61735907810E+03  0.11701368135E+02 -0.17284438279E+04  0.18354256235E+04  0.50400001928E-02 0.  1.
</event>
<event>
 5   0  0.2705859E-06  0.3219228E+04  0.7818609E-02  0.8183757E-01
       -2   -1    0    0    0  501  0.00000000000E+00  0.00000000000E+00  0.24284465745E+04  0.24284465745E+04  0.25500000920E-02 0.  1.
        2   -1    0    0  501    0  0.00000000000E+00  0.00000000000E+00 -0.10668786001E+04  0.10668786001E+04  0.25500000920E-02 0. -1.
    10030    2    1    2    0    0  0.00000000000E+00  0.00000000000E+00  0.13615679744E+04  0.34953251746E+04  0.32192282813E+04 0.  0.
        1    1    3    3  502    0 -0.78072592035E+03  0.11906894481E+04  0.14958914895E+04  0.20651793319E+04  0.50400001928E-02 0.  1.
       -1    1    3    3    0  502  0.78072592035E+03 -0.11906894481E+04 -0.13432351509E+03  0.14301458427E+04  0.50400001928E-02 0. -1.
</event>
<event>
 5   0  0.2614212E-06  0.3315648E+04  0.7818609E-02  0.8158925E-01
       -2   -1    0    0    0  501  0.00000000000E+00  0.00000000000E+00  0.11536453905E+04  0.11536453905E+04  0.25500000920E-02 0.  1.
        2   -1    0    0  501    0  0.00000000000E+00  0.00000000000E+00 -0.23823442757E+04  0.23823442757E+04  0.25500000920E-02 0. -1.
    10030    2    1    2    0    0  0.00000000000E+00  0.00000000000E+00 -0.12286988852E+04  0.35359896661E+04  0.33156480465E+04 0.  0.
        2    1    3    3  502    0 -0.13245479961E+04 -0.83580188639E+03 -0.34734983155E+02  0.15665882376E+04  0.25500000920E-02 0.  1.
       -2    1    3    3    0  502  0.13245479961E+04  0.83580188639E+03 -0.11939639021E+04  0.19694014285E+04  0.25500000920E-02 0. -1.
</event>
<event>
 5   0  0.8845526E-07  0.3324536E+04  0.7818609E-02  0.8156680E-01
        1   -1    0    0  501    0  0.00000000000E+00  0.00000000000E+00  0.27089376116E+04  0.27089376116E+04  0.50400001928E-02 0.  1.
       -1   -1    0    0    0  501  0.00000000000E+00  0.00000000000E+00 -0.10200067918E+04  0.10200067918E+04  0.50400001928E-02 0. -1.
    10030    2    1    2    0    0  0.00000000000E+00  0.00000000000E+00  0.16889308198E+04  0.37289444034E+04  0.33245359150E+04 0.  0.
        1    1    3    3  502    0 -0.83497200361E+01 -0.48659519388E+03  0.26272402433E+04  0.26719348601E+04  0.50400001928E-02 0.  1.
       -1    1    3    3    0  502  0.83497200361E+01  0.48659519388E+03 -0.93830942350E+03  0.10570095434E+04  0.50400001928E-02 0. -1.
</event>
<event>
 5   0  0.2705859E-06  0.3297650E+04  0.7818609E-02  0.8163494E-01
       -2   -1    0    0    0  501  0.00000000000E+00  0.00000000000E+00  0.99650562250E+03  0.99650562251E+03  0.25500000920E-02 0. -1.
        2   -1    0    0  501    0  0.00000000000E+00  0.00000000000E+00 -0.27281565744E+04  0.27281565744E+04  0.25500000920E-02 0.  1.
    10030    2    1    2    0    0  0.00000000000E+00  0.00000000000E+00 -0.17316509519E+04  0.37246621969E+04  0.32976496875E+04 0.  0.
        1    1    3    3  502    0  0.63646245360E+03  0.51311583985E+03  0.75145704886E+03  0.11104323556E+04  0.50400001928E-02 0. -1.
       -1    1    3    3    0  502 -0.63646245360E+03 -0.51311583985E+03 -0.24831080007E+04  0.26142298413E+04  0.50400001928E-02 0.  1.
</event>
<event>
 5   0  0.2574803E-06  0.3389832E+04  0.7818609E-02  0.8140406E-01
       -2   -1    0    0    0  501  0.00000000000E+00  0.00000000000E+00  0.15176542122E+04  0.15176542122E+04  0.25500000920E-02 0.  1.
        2   -1    0    0  501    0  0.00000000000E+00  0.00000000000E+00 -0.18928821152E+04  0.18928821152E+04  0.25500000920E-02 0. -1.
    10030    2    1    2    0    0  0.00000000000E+00  0.00000000000E+00 -0.37522790296E+03  0.34105363274E+04  0.33898321583E+04 0.  0.
        4    1    3    3  502    0  0.52990105399E+02  0.12012959104E+04 -0.13894049300E+04  0.18374894525E+04  0.12699999809E+01 0. -1.
       -4    1    3    3    0  502 -0.52990105399E+02 -0.12012959104E+04  0.10141770271E+04  0.15730468749E+04  0.12699999809E+01 0.  1.
</event>
<event>
 5   0  0.2674551E-06  0.3337129E+04  0.7818609E-02  0.8153512E-01
       -2   -1    0    0    0  501  0.00000000000E+00  0.00000000000E+00  0.11841851888E+04  0.11841851888E+04  0.25500000920E-02 0.  1.
        2   -1    0    0  501    0  0.00000000000E+00  0.00000000000E+00 -0.23510737046E+04  0.23510737046E+04  0.25500000920E-02 0. -1.
    10030    2    1    2    0    0  0.00000000000E+00  0.00000000000E+00 -0.11668885158E+04  0.35352588933E+04  0.33371285014E+04 0.  0.
        3    1    3    3  502    0 -0.61490140888E+03  0.15363956636E+04 -0.80939424851E+03  0.18422091188E+04  0.10100000352E+00 0.  1.
       -3    1    3    3    0  502  0.61490140888E+03 -0.15363956636E+04 -0.35749426727E+03  0.16930497745E+04  0.10100000352E+00 0. -1.
</event>
<event>
 5   0  0.9530268E-07  0.3346317E+04  0.7818609E-02  0.8151209E-01
       -1   -1    0    0    0  501  0.00000000000E+00  0.00000000000E+00  0.10235816927E+04  0.10235816927E+04  0.50400001928E-02 0.  1.
        1   -1    0    0  501    0  0.00000000000E+00  0.00000000000E+00 -0.27349635205E+04  0.27349635205E+04  0.50400001928E-02 0. -1.
    10030    2    1    2    0    0  0.00000000000E+00  0.00000000000E+00 -0.17113818278E+04  0.37585452132E+04  0.33463165360E+04 0.  0.
        5    1    3    3  502    0  0.11127956799E+04  0.14921102441E+02  0.54757588181E+03  0.12403218537E+04  0.46999998093E+01 0. -1.
       -5    1    3    3    0  502 -0.11127956799E+04 -0.14921102441E+02 -0.22589577096E+04  0.25182233595E+04  0.46999998093E+01 0.  1.
</event>
<event>
 5   0  0.8705956E-07  0.3099676E+04  0.7818609E-02  0.8215827E-01
        1   -1    0    0  501    0  0.00000000000E+00  0.00000000000E+00  0.20262681597E+04  0.20262681597E+04  0.50400001928E-02 0. -1.
       -1   -1    0    0    0  501  0.00000000000E+00  0.00000000000E+00 -0.11854294517E+04  0.11854294517E+04  0.50400001928E-02 0.  1.
    10030    2    1    2    0    0  0.00000000000E+00  0.00000000000E+00  0.84083870794E+03  0.32116976114E+04  0.30996760821E+04 0.  0.
        2    1    3    3  502    0 -0.77180188984E+03 -0.63635267217E+03 -0.80615966207E+03  0.12847242044E+04  0.25500000920E-02 0.  1.
       -2    1    3    3    0  502  0.77180188984E+03  0.63635267217E+03  0.16469983700E+04  0.19269734070E+04  0.25500000920E-02 0. -1.
</event>
<event>
 5   0  0.2705859E-06  0.2792678E+04  0.7818609E-02  0.8305545E-01
        2   -1    0    0  501    0  0.00000000000E+00  0.00000000000E+00  0.14063915625E+04  0.14063915625E+04  0.25500000920E-02 0. -1.
       -2   -1    0    0    0  501  0.00000000000E+00  0.00000000000E+00 -0.13863582624E+04  0.13863582624E+04  0.25500000920E-02 0.  1.
    10030    2    1    2    0    0  0.00000000000E+00  0.00000000000E+00  0.20033300090E+02  0.27927498249E+04  0.27926779712E+04 0.  0.
        1    1    3    3  502    0 -0.30676184535E+03  0.94603390683E+03 -0.97015120086E+03  0.13893438506E+04  0.50400001928E-02 0.  1.
       -1    1    3    3    0  502  0.30676184535E+03 -0.94603390683E+03  0.99018450095E+03  0.14034059743E+04  0.50400001928E-02 0. -1.
</event>
<event>
 5   0  0.2574803E-06  0.3658561E+04  0.7818609E-02  0.8077208E-01
       -2   -1    0    0    0  501  0.00000000000E+00  0.00000000000E+00  0.12411306289E+04  0.12411306289E+04  0.25500000920E-02 0. -1.
        2   -1    0    0  501    0  0.00000000000E+00  0.00000000000E+00 -0.26961448672E+04  0.26961448672E+04  0.25500000920E-02 0.  1.
    10030    2    1    2    0    0  0.00000000000E+00  0.00000000000E+00 -0.14550142383E+04  0.39372754962E+04  0.36585614521E+04 0.  0.
        4    1    3    3  502    0  0.21792797450E+03  0.18069571975E+04 -0.53000674544E+03  0.18956517820E+04  0.12699999809E+01 0.  1.
       -4    1    3    3    0  502 -0.21792797450E+03 -0.18069571975E+04 -0.92500749285E+03  0.20416237142E+04  0.12699999809E+01 0. -1.
</event>
<event>
 5   0  0.2674551E-06  0.3135695E+04  0.7818609E-02  0.8206009E-01
       -2   -1    0    0    0  501  0.00000000000E+00  0.00000000000E+00  0.12393860188E+04  0.12393860188E+04  0.25500000920E-02 0.  1.
        2   -1    0    0  501    0  0.00000000000E+00  0.00000000000E+00 -0.19833577842E+04  0.19833577842E+04  0.25500000920E-02 0. -1.
    10030    2    1    2    0    0  0.00000000000E+00  0.00000000000E+00 -0.74397176535E+03  0.32227438030E+04  0.31356950796E+04 0.  0.
        3    1    3    3  502    0  0.76821130168E+02 -0.63634477501E+03  0.10985774523E+04  0.12718917358E+04  0.10100000352E+00 0.  1.
       -3    1    3    3    0  502 -0.76821130168E+02  0.63634477501E+03 -0.18425492176E+04  0.19508520672E+04  0.10100000352E+00 0. -1.
</event>
<event>
 5   0  0.8845526E-07  0.3420329E+04  0.7818609E-02  0.8132935E-01
        1   -1    0    0  501    0  0.00000000000E+00  0.00000000000E+00  0.10875339675E+04  0.10875339675E+04  0.50400001928E-02 0.  1.
       -1   -1    0    0    0  501  0.00000000000E+00  0.00000000000E+00 -0.26892610926E+04  0.26892610926E+04  0.50400001928E-02 0. -1.
    10030    2    1    2    0    0  0.00000000000E+00  0.00000000000E+00 -0.16017271251E+04  0.37767950601E+04  0.34203290985E+04 0.  0.
        1    1    3    3  502    0  0.56220354939E+03 -0.15901898922E+04 -0.11129615937E+04  0.20207573415E+04  0.50400001928E-02 0. -1.
       -1    1    3    3    0  502 -0.56220354939E+03  0.15901898922E+04 -0.48876553144E+03  0.17560377186E+04  0.50400001928E-02 0.  1.
</event>
<event>
 5   0  0.2614212E-06  0.3306309E+04  0.7818609E-02  0.8161292E-01
       -2   -1    0    0    0  501  0.00000000000E+00  0.00000000000E+00  0.18966741335E+04  0.18966741335E+04  0.25500000920E-02 0.  1.
        2   -1    0    0  501    0  0.00000000000E+00  0.00000000000E+00 -0.14409014163E+04  0.14409014163E+04  0.25500000920E-02 0. -1.
    10030    2    1    2    0    0  0.00000000000E+00  0.00000000000E+00  0.45577271726E+03  0.33375755498E+04  0.33063093898E+04 0.  0.
        2    1    3    3  502    0  0.33389353937E+03  0.15991652974E+04 -0.27699381349E+02  0.16338854917E+04  0.25500000920E-02 0. -1.
       -2    1    3    3    0  502 -0.33389353937E+03 -0.15991652974E+04  0.48347209861E+03  0.17036900582E+04  0.25500000920E-02 0.  1.
</event>
<event>
 5   0  0.8845526E-07  0.3253418E+04  0.7818609E-02  0.8174850E-01
        1   -1    0    0  501    0  0.00000000000E+00  0.00000000000E+00  0.10497741759E+04  0.10497741760E+04  0.50400001928E-02 0.  1.
       -1   -1    0    0    0  501  0.00000000000E+00  0.00000000000E+00 -0.25207162499E+04  0.25207162499E+04  0.50400001928E-02 0. -1.
    10030    2    1    2    0    0  0.00000000000E+00  0.00000000000E+00 -0.14709420739E+04  0.35704904258E+04  0.32534184016E+04 0.  0.
        1    1    3    3  502    0  0.15593183556E+04 -0.32383595098E+03 -0.37175121946E+03  0.16354028331E+04  0.50400001928E-02 0.  1.
       -1    1    3    3    0  502 -0.15593183556E+04  0.32383595098E+03 -0.10991908545E+04  0.19350875928E+04  0.50400001928E-02 0. -1.
</event>
<event>
 5   0  0.8705956E-07  0.3327755E+04  0.7818609E-02  0.8155869E-01
       -1   -1    0    0    0  501  0.00000000000E+00  0.00000000000E+00  0.22275327463E+04  0.22275327463E+04  0.50400001928E-02 0. -1.
        1   -1    0    0  501    0  0.00000000000E+00  0.00000000000E+00 -0.12428495360E+04  0.12428495360E+04  0.50400001928E-02 0.  1.
    10030    2    1    2    0    0  0.00000000000E+00  0.00000000000E+00  0.98468321031E+03  0.34703822823E+04  0.33277548228E+04 0.  0.
        2    1    3    3  502    0 -0.12073434143E+04  0.68431316502E+02  0.16841836772E+04  0.20733633603E+04  0.25500000920E-02 0.  1.
       -2    1    3    3    0  502  0.12073434143E+04 -0.68431316502E+02 -0.69950046693E+03  0.13970189220E+04  0.25500000920E-02 0. -1.
</event>
<event>
 5   0  0.2658600E-06  0.3348348E+04  0.7818609E-02  0.8150701E-01
        2   -1    0    0  501    0  0.00000000000E+00  0.00000000000E+00  0.22710607228E+04  0.22710607228E+04  0.25500000920E-02 0.  1.
       -2   -1    0    0    0  501  0.00000000000E+00  0.00000000000E+00 -0.12341631104E+04  0.12341631104E+04  0.25500000920E-02 0. -1.
    10030    2    1    2    0    0  0.00000000000E+00  0.00000000000E+00  0.10368976124E+04  0.35052238332E+04  0.33483484679E+04 0.  0.
        5    1    3    3  502    0  0.11142709415E+03  0.13654470996E+04  0.15258091582E+04  0.20506041686E+04  0.46999998093E+01 0.  1.
       -5    1    3    3    0  502 -0.11142709415E+03 -0.13654470996E+04 -0.48891154582E+03  0.14546196646E+04  0.46999998093E+01 0. -1.
</event>
<event>
 5   0  0.8845526E-07  0.2573266E+04  0.7818609E-02  0.8377339E-01
        1   -1    0    0  501    0  0.00000000000E+00  0.00000000000E+00  0.14360521407E+04  0.14360521407E+04  0.50400001928E-02 0. -1.
       -1   -1    0    0    0  501  0.00000000000E+00  0.00000000000E+00 -0.11527605044E+04  0.11527605045E+04  0.50400001928E-02 0.  1.
    10030    2    1    2    0    0  0.00000000000E+00  0.00000000000E+00  0.28329163622E+03  0.25888126451E+04  0.25732657773E+04 0.  0.
        1    1    3    3  502    0 -0.69603731744E+03  0.10139882505E+04 -0.23850493619E+03  0.12528067385E+04  0.50400001928E-02 0.  1.
       -1    1    3    3    0  502  0.69603731744E+03 -0.10139882505E+04  0.52179657241E+03  0.13360059066E+04  0.50400001928E-02 0. -1.
</event>
<event>
 5   0  0.2574803E-06  0.3533885E+04  0.7818609E-02  0.8105806E-01
        2   -1    0    0  501    0  0.00000000000E+00  0.00000000000E+00  0.14903660422E+04  0.14903660422E+04  0.25500000920E-02 0. -1.
       -2   -1    0    0    0  501  0.00000000000E+00  0.00000000000E+00 -0.20948450752E+04  0.20948450752E+04  0.25500000920E-02 0.  1.
    10030    2    1    2    0    0  0.00000000000E+00  0.00000000000E+00 -0.60447903303E+03  0.35852111173E+04  0.35338850936E+04 0.  0.
        4    1    3    3  502    0  0.29145845682E+03  0.17415383415E+04 -0.23664347172E+03  0.17815458379E+04  0.12699999809E+01 0. -1.
       -4    1    3    3    0  502 -0.29145845682E+03 -0.17415383415E+04 -0.36783556131E+03  0.18036652794E+04  0.12699999809E+01 0.  1.
</event>
<event>
 5   0  0.8520125E-07  0.2979301E+04  0.7818609E-02  0.8249667E-01
       -3   -1    0    0    0  501  0.00000000000E+00  0.00000000000E+00  0.14296299556E+04  0.14296299591E+04  0.10100000352E+00 0.  1.
        3   -1    0    0  501    0  0.00000000000E+00  0.00000000000E+00 -0.15521904117E+04  0.15521904150E+04  0.10100000352E+00 0. -1.
    10030    2    1    2    0    0  0.00000000000E+00  0.00000000000E+00 -0.12256045611E+03  0.29818203741E+04  0.29793005350E+04 0.  0.
        5    1    3    3  502    0 -0.74344628819E+03 -0.12134667207E+03  0.12249520206E+04  0.14380427466E+04  0.46999998093E+01 0.  1.
       -5    1    3    3    0  502  0.74344628819E+03  0.12134667207E+03 -0.13475124767E+04  0.15437776275E+04  0.46999998093E+01 0. -1.
</event>
<event>
 5   0  0.2674551E-06  0.3319302E+04  0.7818609E-02  0.8158001E-01
       -2   -1    0    0    0  501  0.00000000000E+00  0.00000000000E+00  0.13388404188E+04  0.13388404188E+04  0.25500000920E-02 0. -1.
        2   -1    0    0  501    0  0.00000000000E+00  0.00000000000E+00 -0.20573334564E+04  0.20573334564E+04  0.25500000920E-02 0.  1.
    10030    2    1    2    0    0  0.00000000000E+00  0.00000000000E+00 -0.71849303758E+03  0.33961738752E+04  0.33193018461E+04 0.  0.
        3    1    3    3  502    0  0.13771781935E+04 -0.54660000984E+02 -0.13052309366E+04  0.18982189811E+04  0.10100000352E+00 0.  1.
       -3    1    3    3    0  502 -0.13771781935E+04  0.54660000984E+02  0.58673789902E+03  0.14979548941E+04  0.10100000352E+00 0. -1.
</event>
<event>
 5   0  0.2674551E-06  0.3295481E+04  0.7818609E-02  0.8164046E-01
       -2   -1    0    0    0  501  0.00000000000E+00  0.00000000000E+00  0.10288148955E+04  0.10288148955E+04  0.25500000920E-02 0.  1.
        2   -1    0    0  501    0  0.00000000000E+00  0.00000000000E+00 -0.26390057661E+04  0.26390057661E+04  0.25500000920E-02 0. -1.
    10030    2    1    2    0    0  0.00000000000E+00  0.00000000000E+00 -0.16101908706E+04  0.36678206617E+04  0.32954808096E+04 0.  0.
        3    1    3    3  502    0  0.60117579965E+03 -0.11163514687E+04 -0.19763213700E+04  0.23480841363E+04  0.10100000352E+00 0. -1.
       -3    1    3    3    0  502 -0.60117579965E+03  0.11163514687E+04  0.36613049935E+03  0.13197365254E+04  0.10100000352E+00 0.  1.
</event>
<event>
 5   0  0.9268670E-07  0.3300105E+04  0.7818609E-02  0.8162869E-01
        1   -1    0    0  501    0  0.00000000000E+00  0.00000000000E+00  0.16254123681E+04  0.16254123681E+04  0.50400001928E-02 0. -1.
       -1   -1    0    0    0  501  0.00000000000E+00  0.00000000000E+00 -0.16750664369E+04  0.16750664369E+04  0.50400001928E-02 0.  1.
    10030    2    1    2    0    0  0.00000000000E+00  0.00000000000E+00 -0.49654068818E+02  0.33004788051E+04  0.33001052735E+04 0.  0.
        3    1    3    3  502    0 -0.34075747101E+03 -0.10117019244E+04  0.12334955127E+04  0.16313085631E+04  0.10100000352E+00 0. -1.
       -3    1    3    3    0  502  0.34075747101E+03  0.10117019244E+04 -0.12831495816E+04  0.16691702420E+04  0.10100000352E+00 0.  1.
</event>
<event>
 5   0  0.2614212E-06  0.3274781E+04  0.7818609E-02  0.8169342E-01
        2   -1    0    0  501    0  0.00000000000E+00  0.00000000000E+00  0.10871054734E+04  0.10871054734E+04  0.25500000920E-02 0.  1.
       -2   -1    0    0    0  501  0.00000000000E+00  0.00000000000E+00 -0.24662253283E+04  0.24662253283E+04  0.25500000920E-02 0. -1.
    10030    2    1    2    0    0  0.00000000000E+00  0.00000000000E+00 -0.13791198549E+04  0.35533308017E+04  0.32747806357E+04 0.  0.
        2    1    3    3  502    0 -0.67979625148E+03  0.13574159979E+04 -0.13552116065E+04  0.20350183374E+04  0.25500000920E-02 0. -1.
       -2    1    3    3    0  502  0.67979625148E+03 -0.13574159979E+04 -0.23908248395E+02  0.15183124643E+04  0.25500000920E-02 0.  1.
</event>
<event>
 5   0  0.2574803E-06  0.3379723E+04  0.7818609E-02  0.8142901E-01
       -2   -1    0    0    0  501  0.00000000000E+00  0.00000000000E+00  0.16623143608E+04  0.16623143608E+04  0.25500000920E-02 0. -1.
        2   -1    0    0  501    0  0.00000000000E+00  0.00000000000E+00 -0.17178646645E+04  0.17178646645E+04  0.25500000920E-02 0.  1.
    10030    2    1    2    0    0  0.00000000000E+00  0.00000000000E+00 -0.55550303669E+02  0.33801790254E+04  0.33797225341E+04 0.  0.
        4    1    3    3  502    0 -0.75542590750E+03 -0.20031974521E+03 -0.15262542597E+04  0.17147157141E+04  0.12699999809E+01 0.  1.
       -4    1    3    3    0  502  0.75542590750E+03  0.20031974521E+03  0.14707039560E+04  0.16654633113E+04  0.12699999809E+01 0. -1.
</event>
<event>
 5   0  0.2574803E-06  0.3266182E+04  0.7818609E-02  0.8171554E-01
        2   -1    0    0  501    0  0.00000000000E+00  0.00000000000E+00  0.15290888763E+04  0.15290888763E+04  0.25500000920E-02 0.  1.
       -2   -1    0    0    0  501  0.00000000000E+00  0.00000000000E+00 -0.17441663843E+04  0.17441663843E+04  0.25500000920E-02 0. -1.
    10030    2    1    2    0    0  0.00000000000E+00  0.00000000000E+00 -0.21507750806E+03  0.32732552606E+04  0.32661815116E+04 0.  0.
        4    1    3    3  502    0 -0.14729131539E+04  0.47965355423E+02 -0.81277438789E+03  0.16829669197E+04  0.12699999809E+01 0. -1.
       -4    1    3    3    0  502  0.14729131539E+04 -0.47965355423E+02  0.59769687982E+03  0.15902883409E+04  0.12699999809E+01 0.  1.
</event>
<event>
 5   0  0.9295663E-07  0.3349575E+04  0.7818609E-02  0.8150394E-01
       -1   -1    0    0    0  501  0.00000000000E+00  0.00000000000E+00  0.10859418967E+04  0.10859418967E+04  0.50400001928E-02 0.  1.
        1   -1    0    0  501    0  0.00000000000E+00  0.00000000000E+00 -0.25829309419E+04  0.25829309419E+04  0.50400001928E-02 0. -1.
    10030    2    1    2    0    0  0.00000000000E+00  0.00000000000E+00 -0.14969890452E+04  0.36688728386E+04  0.33495748542E+04 0.  0.
        4    1    3    3  502    0 -0.88053750449E+03  0.78906731251E+03  0.55071866384E+03  0.13043259486E+04  0.12699999809E+01 0.  1.
       -4    1    3    3    0  502  0.88053750449E+03 -0.78906731251E+03 -0.20477077090E+04  0.23645468900E+04  0.12699999809E+01 0. -1.
</event>
<event>
 5   0  0.9530268E-07  0.3232613E+04  0.7818609E-02  0.8180257E-01
        1   -1    0    0  501    0  0.00000000000E+00  0.00000000000E+00  0.22308565625E+04  0.22308565625E+04  0.50400001928E-02 0.  1.
       -1   -1    0    0    0  501  0.00000000000E+00  0.00000000000E+00 -0.11710512029E+04  0.11710512030E+04  0.50400001928E-02 0. -1.
    10030    2    1    2    0    0  0.00000000000E+00  0.00000000000E+00  0.10598053596E+04  0.34019077655E+04  0.32326133460E+04 0.  0.
        5    1    3    3  502    0 -0.26746850677E+03 -0.48474623343E+03  0.21279500673E+04  0.21987978288E+04  0.46999998093E+01 0.  1.
       -5    1    3    3    0  502  0.26746850677E+03  0.48474623343E+03 -0.10681447078E+04  0.12031099367E+04  0.46999998093E+01 0. -1.
</event>
<event>
 5   0  0.8845526E-07  0.2389796E+04  0.7818609E-02  0.8443334E-01
        1   -1    0    0  501    0  0.00000000000E+00  0.00000000000E+00  0.69027567790E+03  0.69027567792E+03  0.50400001928E-02 0. -1.
       -1   -1    0    0    0  501  0.00000000000E+00  0.00000000000E+00 -0.20684225261E+04  0.20684225261E+04  0.50400001928E-02 0.  1.
    10030    2    1    2    0    0  0.00000000000E+00  0.00000000000E+00 -0.13781468482E+04  0.27586982040E+04  0.23897964444E+04 0.  0.
        1    1    3    3  502    0  0.78866311370E+03  0.87895787248E+03 -0.89948896899E+03  0.14844651744E+04  0.50400001928E-02 0. -1.
       -1    1    3    3    0  502 -0.78866311370E+03 -0.87895787248E+03 -0.47865787917E+03  0.12742330296E+04  0.50400001928E-02 0.  1.
</event>
<event>
 5   0  0.9295663E-07  0.3354894E+04  0.7818609E-02  0.8149066E-01
        1   -1    0    0  501    0  0.00000000000E+00  0.00000000000E+00  0.23544855192E+04  0.23544855192E+04  0.50400001928E-02 0. -1.
       -1   -1    0    0    0  501  0.00000000000E+00  0.00000000000E+00 -0.11950924301E+04  0.11950924301E+04  0.50400001928E-02 0.  1.
    10030    2    1    2    0    0  0.00000000000E+00  0.00000000000E+00  0.11593930891E+04  0.35495779493E+04  0.33548936321E+04 0.  0.
        4    1    3    3  502    0  0.29108837996E+03 -0.10842480481E+04  0.18984195479E+04  0.22055214049E+04  0.12699999809E+01 0. -1.
       -4    1    3    3    0  502 -0.29108837996E+03  0.10842480481E+04 -0.73902645876E+03  0.13440565444E+04  0.12699999809E+01 0.  1.
</event>
<event>
 5   0  0.8845526E-07  0.3328103E+04  0.7818609E-02  0.8155781E-01
        1   -1    0    0  501    0  0.00000000000E+00  0.00000000000E+00  0.24229257198E+04  0.24229257198E+04  0.50400001928E-02 0.  1.
       -1   -1    0    0    0  501  0.00000000000E+00  0.00000000000E+00 -0.11428610714E+04  0.11428610714E+04  0.50400001928E-02 0. -1.
    10030    2    1    2    0    0  0.00000000000E+00  0.00000000000E+00  0.12800646484E+04  0.35657867912E+04  0.33281030537E+04 0.  0.
        1    1    3    3  502    0  0.65948670124E+02 -0.12050503578E+04 -0.58746387541E+03  0.13422404393E+04  0.50400001928E-02 0. -1.
       -1    1    3    3    0  502 -0.65948670124E+02  0.12050503578E+04  0.18675285238E+04  0.22235463519E+04  0.50400001928E-02 0.  1.
</event>
<event>
 5   0  0.2614212E-06  0.2450469E+04  0.7818609E-02  0.8420847E-01
       -2   -1    0    0    0  501  0.00000000000E+00  0.00000000000E+00  0.82020042837E+03  0.82020042838E+03  0.25500000920E-02 0. -1.
        2   -1    0    0  501    0  0.00000000000E+00  0.00000000000E+00 -0.18302840216E+04  0.18302840216E+04  0.25500000920E-02 0.  1.
    10030    2    1    2    0    0  0.00000000000E+00  0.00000000000E+00 -0.10100835932E+04  0.26504844499E+04  0.24504691294E+04 0.  0.
        2    1    3    3  502    0 -0.93857135376E+03  0.59374938425E+03 -0.10647180608E+04  0.15385314642E+04  0.25500000920E-02 0.  1.
       -2    1    3    3    0  502  0.93857135376E+03 -0.59374938425E+03  0.54634467621E+02  0.11119529857E+04  0.25500000920E-02 0. -1.
</event>
<event>
 5   0  0.9295663E-07  0.3283237E+04  0.7818609E-02  0.8167174E-01
        1   -1    0    0  501    0  0.00000000000E+00  0.00000000000E+00  0.17110079268E+04  0.17110079268E+04  0.50400001928E-02 0. -1.
       -1   -1    0    0    0  501  0.00000000000E+00  0.00000000000E+00 -0.15750433015E+04  0.15750433016E+04  0.50400001928E-02 0.  1.
    10030    2    1    2    0    0  0.00000000000E+00  0.00000000000E+00  0.13596462527E+03  0.32860512284E+04  0.32832371672E+04 0.  0.
        4    1    3    3  502    0  0.13952394364E+03  0.16251801621E+04  0.25316108450E+03  0.16506876257E+04  0.12699999809E+01 0. -1.
       -4    1    3    3    0  502 -0.13952394364E+03 -0.16251801621E+04 -0.11719645923E+03  0.16353636027E+04  0.12699999809E+01 0.  1.
</event>
<event>
 5   0  0.2614212E-06  0.3342781E+04  0.7818609E-02  0.8152094E-01
        2   -1    0    0  501    0  0.00000000000E+00  0.00000000000E+00  0.19527690207E+04  0.19527690207E+04  0.25500000920E-02 0.  1.
       -2   -1    0    0    0  501  0.00000000000E+00  0.00000000000E+00 -0.14305564014E+04  0.14305564014E+04  0.25500000920E-02 0. -1.
    10030    2    1    2    0    0  0.00000000000E+00  0.00000000000E+00  0.52221261935E+03  0.33833254221E+04  0.33427810117E+04 0.  0.
        2    1    3    3  502    0 -0.65238901262E+03  0.15316040247E+04  0.41165146802E+03  0.17148991934E+04  0.25500000920E-02 0.  1.
       -2    1    3    3    0  502  0.65238901262E+03 -0.15316040247E+04  0.11056115133E+03  0.16684262287E+04  0.25500000920E-02 0. -1.
</event>
<event>
 5   0  0.8845526E-07  0.3282051E+04  0.7818609E-02  0.8167477E-01
        1   -1    0    0  501    0  0.00000000000E+00  0.00000000000E+00  0.25148585500E+04  0.25148585500E+04  0.50400001928E-02 0.  1.
       -1   -1    0    0    0  501  0.00000000000E+00  0.00000000000E+00 -0.10708217743E+04  0.10708217743E+04  0.50400001928E-02 0. -1.
    10030    2    1    2    0    0  0.00000000000E+00  0.00000000000E+00  0.14440367756E+04  0.35856803243E+04  0.32820513675E+04 0.  0.
        1    1    3    3  502    0 -0.46989075385E+03  0.10148202880E+04  0.20340828235E+04  0.23212389947E+04  0.50400001928E-02 0.  1.
       -1    1    3    3    0  502  0.46989075385E+03 -0.10148202880E+04 -0.59004604786E+03  0.12644413296E+04  0.50400001928E-02 0. -1.
</event>
<event>
 5   0  0.9268670E-07  0.3292269E+04  0.7818609E-02  0.8164865E-01
        1   -1    0    0  501    0  0.00000000000E+00  0.00000000000E+00  0.27102005742E+04  0.27102005742E+04  0.50400001928E-02 0. -1.
       -1   -1    0    0    0  501  0.00000000000E+00  0.00000000000E+00 -0.99983679067E+03  0.99983679068E+03  0.50400001928E-02 0.  1.
    10030    2    1    2    0    0  0.00000000000E+00  0.00000000000E+00  0.17103637835E+04  0.37100373649E+04  0.32922686672E+04 0.  0.
        3    1    3    3  502    0 -0.14384336016E+04 -0.39189288560E+03  0.16416593372E+04  0.22175925347E+04  0.10100000352E+00 0. -1.
       -3    1    3    3    0  502  0.14384336016E+04  0.39189288560E+03  0.68704446291E+02  0.14924448302E+04  0.10100000352E+00 0.  1.
</event>
<event>
 5   0  0.2614212E-06  0.3319365E+04  0.7818609E-02  0.8157985E-01
       -2   -1    0    0    0  501  0.00000000000E+00  0.00000000000E+00  0.17405915267E+04  0.17405915267E+04  0.25500000920E-02 0.  1.
        2   -1    0    0  501    0  0.00000000000E+00  0.00000000000E+00 -0.15825345386E+04  0.15825345386E+04  0.25500000920E-02 0. -1.
    10030    2    1    2    0    0  0.00000000000E+00  0.00000000000E+00  0.15805698803E+03  0.33231260653E+04  0.33193651252E+04 0.  0.
        2    1    3    3  502    0  0.59636398770E+03 -0.28993405310E+03 -0.14441533641E+04  0.15891163267E+04  0.25500000920E-02 0. -1.
       -2    1    3    3    0  502 -0.59636398770E+03  0.28993405310E+03  0.16022103521E+04  0.17340097385E+04  0.25500000920E-02 0.  1.
</event>
<event>
 5   0  0.2705859E-06  0.3292586E+04  0.7818609E-02  0.8164784E-01
       -2   -1    0    0    0  501  0.00000000000E+00  0.00000000000E+00  0.18933642094E+04  0.18933642094E+04  0.25500000920E-02 0.  1.
        2   -1    0    0  501    0  0.00000000000E+00  0.00000000000E+00 -0.14314632270E+04  0.14314632271E+04  0.25500000920E-02 0. -1.
    10030    2    1    2    0    0  0.00000000000E+00  0.00000000000E+00  0.46190098233E+03  0.33248274364E+04  0.32925863640E+04 0.  0.
        1    1    3    3  502    0  0.14018653473E+04  0.21899434069E+03  0.10740489845E+04  0.17795410067E+04  0.50400001928E-02 0.  1.
       -1    1    3    3    0  502 -0.14018653473E+04 -0.21899434069E+03 -0.61214800218E+03  0.15452864297E+04  0.50400001928E-02 0. -1.
</event>
<event>
 5   0  0.2658600E-06  0.3281185E+04  0.7818609E-02  0.8167699E-01
       -2   -1    0    0    0  501  0.00000000000E+00  0.00000000000E+00  0.15977696818E+04  0.15977696818E+04  0.25500000920E-02 0. -1.
        2   -1    0    0  501    0  0.00000000000E+00  0.00000000000E+00 -0.16845627992E+04  0.16845627992E+04  0.25500000920E-02 0.  1.
    10030    2    1    2    0    0  0.00000000000E+00  0.00000000000E+00 -0.86793117437E+02  0.32823324810E+04  0.32811847663E+04 0.  0.
        5    1    3    3  502    0  0.13057916557E+04 -0.27471564926E+03 -0.99817304405E+03  0.16664129296E+04  0.46999998093E+01 0.  1.
       -5    1    3    3    0  502 -0.13057916557E+04  0.27471564926E+03  0.91137992661E+03  0.16159195514E+04  0.46999998093E+01 0. -1.
</event>
<event>
 5   0  0.9295663E-07  0.2883487E+04  0.7818609E-02  0.8277808E-01
        1   -1    0    0  501    0  0.00000000000E+00  0.00000000000E+00  0.13263782679E+04  0.13263782679E+04  0.50400001928E-02 0. -1.
       -1   -1    0    0    0  501  0.00000000000E+00  0.00000000000E+00 -0.15671427921E+04  0.15671427921E+04  0.50400001928E-02 0.  1.
    10030    2    1    2    0    0  0.00000000000E+00  0.00000000000E+00 -0.24076452422E+03  0.28935210600E+04  0.28834868767E+04 0.  0.
        4    1    3    3  502    0 -0.16794701741E+03  0.11741978974E+04 -0.94279241450E+03  0.15151917544E+04  0.12699999809E+01 0.  1.
       -4    1    3    3    0  502  0.16794701741E+03 -0.11741978974E+04  0.70202789027E+03  0.13783293055E+04  0.12699999809E+01 0. -1.
</event>
<event>
 5   0  0.8845526E-07  0.3281710E+04  0.7818609E-02  0.8167565E-01
        1   -1    0    0  501    0  0.00000000000E+00  0.00000000000E+00  0.25304370344E+04  0.25304370344E+04  0.50400001928E-02 0.  1.
       -1   -1    0    0    0  501  0.00000000000E+00  0.00000000000E+00 -0.10640079187E+04  0.10640079187E+04  0.50400001928E-02 0. -1.
    10030    2    1    2    0    0  0.00000000000E+00  0.00000000000E+00  0.14664291157E+04  0.35944449531E+04  0.32817099460E+04 0.  0.
        1    1    3    3  502    0 -0.14141925619E+04  0.61690935461E+02 -0.17572217107E+03  0.14264026974E+04  0.50400001928E-02 0. -1.
       -1    1    3    3    0  502  0.14141925619E+04 -0.61690935461E+02  0.16421512868E+04  0.21680422557E+04  0.50400001928E-02 0.  1.
</event>
<event>
 5   0  0.9530268E-07  0.3345650E+04  0.7818609E-02  0.8151376E-01
        1   -1    0    0  501    0  0.00000000000E+00  0.00000000000E+00  0.18908149953E+04  0.18908149954E+04  0.50400001928E-02 0. -1.
       -1   -1    0    0    0  501  0.00000000000E+00  0.00000000000E+00 -0.14799670255E+04  0.14799670255E+04  0.50400001928E-02 0.  1.
    10030    2    1    2    0    0  0.00000000000E+00  0.00000000000E+00  0.41084796985E+03  0.33707820209E+04  0.33456502175E+04 0.  0.
        5    1    3    3  502    0  0.10886635674E+04  0.38301539824E+03  0.14254839808E+04  0.18340980966E+04  0.46999998093E+01 0. -1.
       -5    1    3    3    0  502 -0.10886635674E+04 -0.38301539824E+03 -0.10146360110E+04  0.15366839243E+04  0.46999998093E+01 0.  1.
</event>
<event>
 5   0  0.2674551E-06  0.3331529E+04  0.7818609E-02  0.8154919E-01
       -2   -1    0    0    0  501  0.00000000000E+00  0.00000000000E+00  0.12812967510E+04  0.12812967510E+04  0.25500000920E-02 0. -1.
        2   -1    0    0  501    0  0.00000000000E+00  0.00000000000E+00 -0.21655961035E+04  0.21655961035E+04  0.25500000920E-02 0.  1.
    10030    2    1    2    0    0  0.00000000000E+00  0.00000000000E+00 -0.88429935251E+03  0.34468928546E+04  0.33315289292E+04 0.  0.
        3    1    3    3  502    0  0.14257253660E+03  0.16298569310E+04 -0.11824222797E+03  0.16403480663E+04  0.10100000352E+00 0. -1.
       -3    1    3    3    0  502 -0.14257253660E+03 -0.16298569310E+04 -0.76605712454E+03  0.18065447883E+04  0.10100000352E+00 0.  1.
</event>
<event>
 5   0  0.2614212E-06  0.3367218E+04  0.7818609E-02  0.8145999E-01
       -2   -1    0    0    0  501  0.00000000000E+00  0.00000000000E+00  0.11706508065E+04  0.11706508065E+04  0.25500000920E-02 0.  1.
        2   -1    0    0  501    0  0.00000000000E+00  0.00000000000E+00 -0.24213363291E+04  0.24213363291E+04  0.25500000920E-02 0. -1.
    10030    2    1    2    0    0  0.00000000000E+00  0.00000000000E+00 -0.12506855227E+04  0.35919871356E+04  0.33672180366E+04 0.  0.
        2    1    3    3  502    0  0.90670942324E+03  0.12679813803E+04  0.53232845966E+02  0.15597219287E+04  0.25500000920E-02 0.  1.
       -2    1    3    3    0  502 -0.90670942324E+03 -0.12679813803E+04 -0.13039183686E+04  0.20322652069E+04  0.25500000920E-02 0. -1.
</event>
<event>
 5   0  0.8705956E-07  0.3283688E+04  0.7818609E-02  0.8167058E-01
       -1   -1    0    0    0  501  0.00000000000E+00  0.00000000000E+00  0.20408544948E+04  0.20408544948E+04  0.50400001928E-02 0. -1.
        1   -1    0    0  501    0  0.00000000000E+00  0.00000000000E+00 -0.13208446201E+04  0.13208446201E+04  0.50400001928E-02 0.  1.
    10030    2    1    2    0    0  0.00000000000E+00  0.00000000000E+00  0.72000987472E+03  0.33616991150E+04  0.32836879754E+04 0.  0.
        2    1    3    3  502    0  0.64188409562E+03  0.13993011235E+04 -0.22415852442E+03  0.15557332260E+04  0.25500000920E-02 0.  1.
       -2    1    3    3    0  502 -0.64188409562E+03 -0.13993011235E+04  0.94416839913E+03  0.18059658890E+04  0.25500000920E-02 0. -1.
</event>
<event>
 5   0  0.8705956E-07  0.3306368E+04  0.7818609E-02  0.8161277E-01
        1   -1    0    0  501    0  0.00000000000E+00  0.00000000000E+00  0.13226695802E+04  0.13226695802E+04  0.50400001928E-02 0.  1.
       -1   -1    0    0    0  501  0.00000000000E+00  0.00000000000E+00 -0.20662882797E+04  0.20662882797E+04  0.50400001928E-02 0. -1.
    10030    2    1    2    0    0  0.00000000000E+00  0.00000000000E+00 -0.74361869948E+03  0.33889578599E+04  0.33063675848E+04 0.  0.
        2    1    3    3  502    0  0.49796974558E+03 -0.91092431003E+03 -0.16905157164E+04  0.19838347596E+04  0.25500000920E-02 0. -1.
       -2    1    3    3    0  502 -0.49796974558E+03  0.91092431003E+03  0.94689701694E+03  0.14051231002E+04  0.25500000920E-02 0.  1.
</event>
<event>
 5   0  0.2574803E-06  0.2522681E+04  0.7818609E-02  0.8394950E-01
        2   -1    0    0  501    0  0.00000000000E+00  0.00000000000E+00  0.22278028279E+04  0.22278028279E+04  0.25500000920E-02 0. -1.
       -2   -1    0    0    0  501  0.00000000000E+00  0.00000000000E+00 -0.71414733021E+03  0.71414733022E+03  0.25500000920E-02 0.  1.
    10030    2    1    2    0    0  0.00000000000E+00  0.00000000000E+00  0.15136554977E+04  0.29419501582E+04  0.25226806709E+04 0.  0.
        4    1    3    3  502    0 -0.39759891326E+03 -0.52041400011E+03 -0.50032404293E+03  0.82416102078E+03  0.12699999809E+01 0.  1.
       -4    1    3    3    0  502  0.39759891326E+03  0.52041400011E+03  0.20139795406E+04  0.21177891374E+04  0.12699999809E+01 0. -1.
</event>
<event>
 5   0  0.9268670E-07  0.3297289E+04  0.7818609E-02  0.8163586E-01
        1   -1    0    0  501    0  0.00000000000E+00  0.00000000000E+00  0.28064327362E+04  0.28064327362E+04  0.50400001928E-02 0.  1.
       -1   -1    0    0    0  501  0.00000000000E+00  0.00000000000E+00 -0.96849922031E+03  0.96849922033E+03  0.50400001928E-02 0. -1.
    10030    2    1    2    0    0  0.00000000000E+00  0.00000000000E+00  0.18379335159E+04  0.37749319565E+04  0.32972885326E+04 0.  0.
        3    1    3    3  502    0 -0.43016401691E+03 -0.88464068929E+03  0.24336455327E+04  0.26249306314E+04  0.10100000352E+00 0.  1.
       -3    1    3    3    0  502  0.43016401691E+03  0.88464068929E+03 -0.59571201683E+03  0.11500013251E+04  0.10100000352E+00 0. -1.
</event>
<event>
 5   0  0.2705859E-06  0.3276733E+04  0.7818609E-02  0.8168841E-01
       -2   -1    0    0    0  501  0.00000000000E+00  0.00000000000E+00  0.28151276362E+04  0.28151276362E+04  0.25500000920E-02 0. -1.
        2   -1    0    0  501    0  0.00000000000E+00  0.00000000000E+00 -0.95350750315E+03  0.95350750315E+03  0.25500000920E-02 0.  1.
    10030    2    1    2    0    0  0.00000000000E+00  0.00000000000E+00  0.18616201330E+04  0.37686351393E+04  0.32767333266E+04 0.  0.
        1    1    3    3  502    0 -0.88903223712E+03 -0.65857515106E+03  0.23205742119E+04  0.25708294812E+04  0.50400001928E-02 0. -1.
       -1    1    3    3    0  502  0.88903223712E+03  0.65857515106E+03 -0.45895407886E+03  0.11978056582E+04  0.50400001928E-02 0.  1.
</event>
<event>
 5   0  0.8705956E-07  0.3328614E+04  0.7818609E-02  0.8155653E-01
       -1   -1    0    0    0  501  0.00000000000E+00  0.00000000000E+00  0.16185262527E+04  0.16185262528E+04  0.50400001928E-02 0. -1.
        1   -1    0    0  501    0  0.00000000000E+00  0.00000000000E+00 -0.17113824852E+04  0.17113824852E+04  0.50400001928E-02 0.  1.
    10030    2    1    2    0    0  0.00000000000E+00  0.00000000000E+00 -0.92856232424E+02  0.33299087379E+04  0.33286138140E+04 0.  0.
        2    1    3    3  502    0 -0.31112237698E+03  0.89477372802E+03  0.13224975634E+04  0.16267811663E+04  0.25500000920E-02 0. -1.
       -2    1    3    3    0  502  0.31112237698E+03 -0.89477372802E+03 -0.14153537958E+04  0.17031275716E+04  0.25500000920E-02 0.  1.
</event>
<event>
 5   0  0.9295663E-07  0.3299189E+04  0.7818609E-02  0.8163102E-01
       -1   -1    0    0    0  501  0.00000000000E+00  0.00000000000E+00  0.93538122911E+03  0.93538122912E+03  0.50400001928E-02 0.  1.
        1   -1    0    0  501    0  0.00000000000E+00  0.00000000000E+00 -0.29091482557E+04  0.29091482557E+04  0.50400001928E-02 0. -1.
    10030    2    1    2    0    0  0.00000000000E+00  0.00000000000E+00 -0.19737670266E+04  0.38445294848E+04  0.32991893981E+04 0.  0.
        4    1    3    3  502    0 -0.56865311281E+03  0.13378513139E+04 -0.18954764663E+04  0.23887329587E+04  0.12699999809E+01 0. -1.
       -4    1    3    3    0  502  0.56865311281E+03 -0.13378513139E+04 -0.78290560300E+02  0.14557965261E+04  0.12699999809E+01 0.  1.
</event>
<event>
 5   0  0.2574803E-06  0.3317945E+04  0.7818609E-02  0.8158344E-01
       -2   -1    0    0    0  501  0.00000000000E+00  0.00000000000E+00  0.11908033410E+04  0.11908033410E+04  0.25500000920E-02 0.  1.
        2   -1    0    0  501    0  0.00000000000E+00  0.00000000000E+00 -0.23112046894E+04  0.23112046894E+04  0.25500000920E-02 0. -1.
    10030    2    1    2    0    0  0.00000000000E+00  0.00000000000E+00 -0.11204013484E+04  0.35020080304E+04  0.33179453075E+04 0.  0.
        4    1    3    3  502    0 -0.11534762984E+04 -0.11857619332E+04 -0.69223936152E+03  0.17932473002E+04  0.12699999809E+01 0. -1.
       -4    1    3    3    0  502  0.11534762984E+04  0.11857619332E+04 -0.42816198688E+03  0.17087607302E+04  0.12699999809E+01 0.  1.
</event>
<event>
 5   0  0.2614212E-06  0.3319248E+04  0.7818609E-02  0.8158015E-01
        2   -1    0    0  501    0  0.00000000000E+00  0.00000000000E+00  0.15824801960E+04  0.15824801960E+04  0.25500000920E-02 0. -1.
       -2   -1    0    0    0  501  0.00000000000E+00  0.00000000000E+00 -0.17405286815E+04  0.17405286815E+04  0.25500000920E-02 0.  1.
    10030    2    1    2    0    0  0.00000000000E+00  0.00000000000E+00 -0.15804848547E+03  0.33230088775E+04  0.33192482095E+04 0.  0.
        2    1    3    3  502    0 -0.93653678583E+03 -0.17184503440E+03 -0.14398730820E+04  0.17262289417E+04  0.25500000920E-02 0.  1.
       -2    1    3    3    0  502  0.93653678583E+03  0.17184503440E+03  0.12818245965E+04  0.15967799358E+04  0.25500000920E-02 0. -1.
</event>
<event>
 5   0  0.9530268E-07  0.3271916E+04  0.7818609E-02  0.8170078E-01
       -1   -1    0    0    0  501  0.00000000000E+00  0.00000000000E+00  0.16597445679E+04  0.16597445679E+04  0.50400001928E-02 0.  1.
        1   -1    0    0  501    0  0.00000000000E+00  0.00000000000E+00 -0.16125126136E+04  0.16125126136E+04  0.50400001928E-02 0. -1.
    10030    2    1    2    0    0  0.00000000000E+00  0.00000000000E+00  0.47231954311E+02  0.32722571815E+04  0.32719162893E+04 0.  0.
        5    1    3    3  502    0 -0.65822621917E+03  0.12423915566E+04 -0.81285530097E+03  0.16240549147E+04  0.46999998093E+01 0.  1.
       -5    1    3    3    0  502  0.65822621917E+03 -0.12423915566E+04  0.86008725528E+03  0.16482022668E+04  0.46999998093E+01 0. -1.
</event>
<event>
 5   0  0.2658600E-06  0.2720903E+04  0.7818609E-02  0.8328254E-01
       -2   -1    0    0    0  501  0.00000000000E+00  0.00000000000E+00  0.94810572285E+03  0.94810572285E+03  0.25500000920E-02 0. -1.
        2   -1    0    0  501    0  0.00000000000E+00  0.00000000000E+00 -0.19521334728E+04  0.19521334728E+04  0.25500000920E-02 0.  1.
    10030    2    1    2    0    0  0.00000000000E+00  0.00000000000E+00 -0.10040277500E+04  0.29002391957E+04  0.27209034657E+04 0.  0.
        5    1    3    3  502    0  0.12803643696E+04  0.36564854823E+03 -0.20475089526E+03  0.13472107477E+04  0.46999998093E+01 0.  1.
       -5    1    3    3    0  502 -0.12803643696E+04 -0.36564854823E+03 -0.79927685471E+03  0.15530284479E+04  0.46999998093E+01 0. -1.
</event>
<event>
 5   0  0.2614212E-06  0.2433622E+04  0.7818609E-02  0.8427022E-01
        2   -1    0    0  501    0  0.00000000000E+00  0.00000000000E+00  0.92093956425E+03  0.92093956425E+03  0.25500000920E-02 0.  1.
       -2   -1    0    0    0  501  0.00000000000E+00  0.00000000000E+00 -0.16077370646E+04  0.16077370646E+04  0.25500000920E-02 0. -1.
    10030    2    1    2    0    0  0.00000000000E+00  0.00000000000E+00 -0.68679750031E+03  0.25286766288E+04  0.24336217222E+04 0.  0.
        2    1    3    3  502    0  0.52162702677E+03 -0.10500700348E+04 -0.52862613973E+01  0.11725057687E+04  0.25500000920E-02 0.  1.
       -2    1    3    3    0  502 -0.52162702677E+03  0.10500700348E+04 -0.68151123891E+03  0.13561708601E+04  0.25500000920E-02 0. -1.
</event>
<event>
 5   0  0.8520125E-07  0.3041487E+04  0.7818609E-02  0.8231982E-01
        4   -1    0    0  501    0  0.00000000000E+00  0.00000000000E+00  0.14294004946E+04  0.14294010588E+04  0.12699999809E+01 0. -1.
       -4   -1    0    0    0  501  0.00000000000E+00  0.00000000000E+00 -0.16179226899E+04  0.16179231883E+04  0.12699999809E+01 0.  1.
    10030    2    1    2    0    0  0.00000000000E+00  0.00000000000E+00 -0.18852219522E+03  0.30473242471E+04  0.30414872101E+04 0.  0.
        5    1    3    3  502    0  0.72734974879E+03  0.10296226862E+04  0.75794666207E+03  0.14709404358E+04  0.46999998093E+01 0. -1.
       -5    1    3    3    0  502 -0.72734974879E+03 -0.10296226862E+04 -0.94646885729E+03  0.15763838114E+04  0.46999998093E+01 0.  1.
</event>
<event>
 5   0  0.9268670E-07  0.3351863E+04  0.7818609E-02  0.8149823E-01
        1   -1    0    0  501    0  0.00000000000E+00  0.00000000000E+00  0.27024057619E+04  0.27024057620E+04  0.50400001928E-02 0. -1.
       -1   -1    0    0    0  501  0.00000000000E+00  0.00000000000E+00 -0.10393501465E+04  0.10393501465E+04  0.50400001928E-02 0.  1.
    10030    2    1    2    0    0  0.00000000000E+00  0.00000000000E+00  0.16630556154E+04  0.37417559085E+04  0.33518626611E+04 0.  0.
        3    1    3    3  502    0  0.97687022787E+03  0.52671572915E+03 -0.57035179782E+03  0.12478004988E+04  0.10100000352E+00 0.  1.
       -3    1    3    3    0  502 -0.97687022787E+03 -0.52671572915E+03  0.22334074133E+04  0.24939554096E+04  0.10100000352E+00 0. -1.
</event>
<event>
 5   0  0.2705859E-06  0.3398837E+04  0.7818609E-02  0.8138192E-01
       -2   -1    0    0    0  501  0.00000000000E+00  0.00000000000E+00  0.11750136297E+04  0.11750136297E+04  0.25500000920E-02 0.  1.
        2   -1    0    0  501    0  0.00000000000E+00  0.00000000000E+00 -0.24578638747E+04  0.24578638747E+04  0.25500000920E-02 0. -1.
    10030    2    1    2    0    0  0.00000000000E+00  0.00000000000E+00 -0.12828502450E+04  0.36328775043E+04  0.33988371851E+04 0.  0.
        1    1    3    3  502    0  0.16946379824E+04  0.89603642942E+02 -0.54465443042E+03  0.17822668579E+04  0.50400001928E-02 0. -1.
       -1    1    3    3    0  502 -0.16946379824E+04 -0.89603642942E+02 -0.73819581455E+03  0.18506106465E+04  0.50400001928E-02 0.  1.
</event>
<event>
 5   0  0.9268670E-07  0.3200683E+04  0.7818609E-02  0.8188637E-01
        1   -1    0    0  501    0  0.00000000000E+00  0.00000000000E+00  0.14584014626E+04  0.14584014626E+04  0.50400001928E-02 0. -1.
       -1   -1    0    0    0  501  0.00000000000E+00  0.00000000000E+00 -0.17560963169E+04  0.17560963169E+04  0.50400001928E-02 0.  1.
    10030    2    1    2    0    0  0.00000000000E+00  0.00000000000E+00 -0.29769485429E+03  0.32144977796E+04  0.32006833252E+04 0.  0.
        3    1    3    3  502    0 -0.48396985901E+03 -0.56328316430E+03  0.12748671444E+04  0.14753985881E+04  0.10100000352E+00 0. -1.
       -3    1    3    3    0  502  0.48396985901E+03  0.56328316430E+03 -0.15725619987E+04  0.17390991914E+04  0.10100000352E+00 0.  1.
</event>
<event>
 5   0  0.2614212E-06  0.3295811E+04  0.7818609E-02  0.8163962E-01
        2   -1    0    0  501    0  0.00000000000E+00  0.00000000000E+00  0.14145810068E+04  0.14145810068E+04  0.25500000920E-02 0. -1.
       -2   -1    0    0    0  501  0.00000000000E+00  0.00000000000E+00 -0.19197151070E+04  0.19197151070E+04  0.25500000920E-02 0.  1.
    10030    2    1    2    0    0  0.00000000000E+00  0.00000000000E+00 -0.50513410019E+03  0.33342961137E+04  0.32958109950E+04 0.  0.
        2    1    3    3  502    0 -0.10821190819E+04 -0.10265827505E+04 -0.96127452292E+03  0.17745147392E+04  0.25500000920E-02 0.  1.
       -2    1    3    3    0  502  0.10821190819E+04  0.10265827505E+04  0.45614042273E+03  0.15597813745E+04  0.25500000920E-02 0. -1.
</event>
<event>
 5   0  0.2674551E-06  0.3279068E+04  0.7818609E-02  0.8168242E-01
        2   -1    0    0  501    0  0.00000000000E+00  0.00000000000E+00  0.14861304020E+04  0.14861304020E+04  0.25500000920E-02 0. -1.
       -2   -1    0    0    0  501  0.00000000000E+00  0.00000000000E+00 -0.18087725943E+04  0.18087725943E+04  0.25500000920E-02 0.  1.
    10030    2    1    2    0    0  0.00000000000E+00  0.00000000000E+00 -0.32264219225E+03  0.32949029963E+04  0.32790681254E+04 0.  0.
        3    1    3    3  502    0 -0.83176463744E+03  0.10182423181E+04  0.82290993433E+03  0.15510740152E+04  0.10100000352E+00 0. -1.
       -3    1    3    3    0  502  0.83176463744E+03 -0.10182423181E+04 -0.11455521266E+04  0.17438289811E+04  0.10100000352E+00 0.  1.
</event>
<event>
 5   0  0.2705859E-06  0.3359713E+04  0.7818609E-02  0.8147865E-01
        2   -1    0    0  501    0  0.00000000000E+00  0.00000000000E+00  0.18681347010E+04  0.18681347010E+04  0.25500000920E-02 0.  1.
       -2   -1    0    0    0  501  0.00000000000E+00  0.00000000000E+00 -0.15105538329E+04  0.15105538329E+04  0.25500000920E-02 0. -1.
    10030    2    1    2    0    0  0.00000000000E+00  0.00000000000E+00  0.35758086813E+03  0.33786885339E+04  0.33597131026E+04 0.  0.
        1    1    3    3  502    0  0.15011570514E+04 -0.56420329651E+03 -0.32415437633E+03  0.16361154949E+04  0.50400001928E-02 0. -1.
       -1    1    3    3    0  502 -0.15011570514E+04  0.56420329651E+03  0.68173524446E+03  0.17425730390E+04  0.50400001928E-02 0.  1.
</event>
<event>
 5   0  0.2658600E-06  0.3445111E+04  0.7818609E-02  0.8126922E-01
        2   -1    0    0  501    0  0.00000000000E+00  0.00000000000E+00  0.15485356397E+04  0.15485356397E+04  0.25500000920E-02 0.  1.
       -2   -1    0    0    0  501  0.00000000000E+00  0.00000000000E+00 -0.19161315052E+04  0.19161315052E+04  0.25500000920E-02 0. -1.
    10030    2    1    2    0    0  0.00000000000E+00  0.00000000000E+00 -0.36759586549E+03  0.34646671449E+04  0.34451112761E+04 0.  0.
        5    1    3    3  502    0 -0.11562674845E+04  0.14417694191E+03  0.10920381976E+04  0.15969693176E+04  0.46999998093E+01 0.  1.
       -5    1    3    3    0  502  0.11562674845E+04 -0.14417694191E+03 -0.14596340631E+04  0.18676978274E+04  0.46999998093E+01 0. -1.
</event>
<event>
 5   0  0.9295663E-07  0.3118091E+04  0.7818609E-02  0.8210790E-01
       -1   -1    0    0    0  501  0.00000000000E+00  0.00000000000E+00  0.98954226906E+03  0.98954226908E+03  0.50400001928E-02 0.  1.
        1   -1    0    0  501    0  0.00000000000E+00  0.00000000000E+00 -0.24563106576E+04  0.24563106576E+04  0.50400001928E-02 0. -1.
    10030    2    1    2    0    0  0.00000000000E+00  0.00000000000E+00 -0.14667683885E+04  0.34458529266E+04  0.31180912249E+04 0.  0.
        4    1    3    3  502    0  0.13115359843E+04 -0.76209581925E+03 -0.11313870303E+04  0.18923411165E+04  0.12699999809E+01 0. -1.
       -4    1    3    3    0  502 -0.13115359843E+04  0.76209581925E+03 -0.33538135816E+03  0.15535118101E+04  0.12699999809E+01 0.  1.
</event>
<event>
 5   0  0.9530268E-07  0.3317961E+04  0.7818609E-02  0.8158340E-01
       -1   -1    0    0    0  501  0.00000000000E+00  0.00000000000E+00  0.18044638235E+04  0.18044638235E+04  0.50400001928E-02 0.  1.
        1   -1    0    0  501    0  0.00000000000E+00  0.00000000000E+00 -0.15252268794E+04  0.15252268794E+04  0.50400001928E-02 0. -1.
    10030    2    1    2    0    0  0.00000000000E+00  0.00000000000E+00  0.27923694406E+03  0.33296907029E+04  0.33179612574E+04 0.  0.
        5    1    3    3  502    0  0.20426202102E+03 -0.10105192925E+04 -0.11647156511E+04  0.15554603343E+04  0.46999998093E+01 0. -1.
       -5    1    3    3    0  502 -0.20426202102E+03  0.10105192925E+04  0.14439525952E+04  0.17742303686E+04  0.46999998093E+01 0.  1.
</event>
<event>
 5   0  0.2574803E-06  0.3271484E+04  0.7818609E-02  0.8170189E-01
        2   -1    0    0  501    0  0.00000000000E+00  0.00000000000E+00  0.28406319027E+04  0.28406319027E+04  0.25500000920E-02 0. -1.
       -2   -1    0    0    0  501  0.00000000000E+00  0.00000000000E+00 -0.94192124950E+03  0.94192124950E+03  0.25500000920E-02 0.  1.
    10030    2    1    2    0    0  0.00000000000E+00  0.00000000000E+00  0.18987106532E+04  0.37825531522E+04  0.32714837925E+04 0.  0.
        4    1    3    3  502    0 -0.16029375154E+04 -0.19105120211E+03  0.64401553022E+03  0.17380065754E+04  0.12699999809E+01 0. -1.
       -4    1    3    3    0  502  0.16029375154E+04  0.19105120211E+03  0.12546951230E+04  0.20445465768E+04  0.12699999809E+01 0.  1.
</event>
<event>
 5   0  0.9295663E-07  0.2440948E+04  0.7818609E-02  0.8424330E-01
       -1   -1    0    0    0  501  0.00000000000E+00  0.00000000000E+00  0.13034842440E+04  0.13034842441E+04  0.50400001928E-02 0.  1.
        1   -1    0    0  501    0  0.00000000000E+00  0.00000000000E+00 -0.11427502943E+04  0.11427502944E+04  0.50400001928E-02 0. -1.
    10030    2    1    2    0    0  0.00000000000E+00  0.00000000000E+00  0.16073394970E+03  0.24462345384E+04  0.24409481794E+04 0.  0.
        4    1    3    3  502    0 -0.60306886766E+03 -0.57512694186E+03 -0.81324363545E+03  0.11644010829E+04  0.12699999809E+01 0. -1.
       -4    1    3    3    0  502  0.60306886766E+03  0.57512694186E+03  0.97397758514E+03  0.12818334555E+04  0.12699999809E+01 0.  1.
</event>
<event>
 5   0  0.8845526E-07  0.2934112E+04  0.7818609E-02  0.8262800E-01
       -1   -1    0    0    0  501  0.00000000000E+00  0.00000000000E+00  0.18308328577E+04  0.18308328577E+04  0.50400001928E-02 0.  1.
        1   -1    0    0  501    0  0.00000000000E+00  0.00000000000E+00 -0.11755593012E+04  0.11755593012E+04  0.50400001928E-02 0. -1.
    10030    2    1    2    0    0  0.00000000000E+00  0.00000000000E+00  0.65527355649E+03  0.30063921589E+04  0.29341115145E+04 0.  0.
        1    1    3    3  502    0  0.93502675560E+02 -0.14555930279E+04  0.16641130920E+03  0.14680553590E+04  0.50400001928E-02 0.  1.
       -1    1    3    3    0  502 -0.93502675560E+02  0.14555930279E+04  0.48886224729E+03  0.15383367999E+04  0.50400001928E-02 0. -1.
</event>
<event>
 5   0  0.2705859E-06  0.3302036E+04  0.7818609E-02  0.8162377E-01
       -2   -1    0    0    0  501  0.00000000000E+00  0.00000000000E+00  0.10955024150E+04  0.10955024150E+04  0.25500000920E-02 0. -1.
        2   -1    0    0  501    0  0.00000000000E+00  0.00000000000E+00 -0.24882288923E+04  0.24882288923E+04  0.25500000920E-02 0.  1.
    10030    2    1    2    0    0  0.00000000000E+00  0.00000000000E+00 -0.13927264773E+04  0.35837313073E+04  0.33020361964E+04 0.  0.
        1    1    3    3  502    0  0.76600026422E+03 -0.14618309649E+04 -0.64598586789E+03  0.17722877634E+04  0.50400001928E-02 0.  1.
       -1    1    3    3    0  502 -0.76600026422E+03  0.14618309649E+04 -0.74674060943E+03  0.18114435439E+04  0.50400001928E-02 0. -1.
</event>
<event>
 5   0  0.9530268E-07  0.3279692E+04  0.7818609E-02  0.8168082E-01
       -1   -1    0    0    0  501  0.00000000000E+00  0.00000000000E+00  0.10380772516E+04  0.10380772516E+04  0.50400001928E-02 0.  1.
        1   -1    0    0  501    0  0.00000000000E+00  0.00000000000E+00 -0.25904573297E+04  0.25904573297E+04  0.50400001928E-02 0. -1.
    10030    2    1    2    0    0  0.00000000000E+00  0.00000000000E+00 -0.15523800781E+04  0.36285345814E+04  0.32796919522E+04 0.  0.
        5    1    3    3  502    0  0.61673506462E+03 -0.11763976289E+04  0.28776172328E+03  0.13590814621E+04  0.46999998093E+01 0.  1.
       -5    1    3    3    0  502 -0.61673506462E+03  0.11763976289E+04 -0.18401418014E+04  0.22694531192E+04  0.46999998093E+01 0. -1.
</event>
<event>
 5   0  0.2574803E-06  0.3241199E+04  0.7818609E-02  0.8178021E-01
        2   -1    0    0  501    0  0.00000000000E+00  0.00000000000E+00  0.21361014434E+04  0.21361014434E+04  0.25500000920E-02 0. -1.
       -2   -1    0    0    0  501  0.00000000000E+00  0.00000000000E+00 -0.12295025933E+04  0.12295025933E+04  0.25500000920E-02 0.  1.
    10030    2    1    2    0    0  0.00000000000E+00  0.00000000000E+00  0.90659885010E+03  0.33656040367E+04  0.32411987067E+04 0.  0.
        4    1    3    3  502    0  0.52261808432E+03  0.47281575137E+03 -0.10620476603E+04  0.12746102316E+04  0.12699999809E+01 0.  1.
       -4    1    3    3    0  502 -0.52261808432E+03 -0.47281575137E+03  0.19686465104E+04  0.20909938050E+04  0.12699999809E+01 0. -1.
</event>
<event>
 5   0  0.2705859E-06  0.3290470E+04  0.7818609E-02  0.8165325E-01
       -2   -1    0    0    0  501  0.00000000000E+00  0.00000000000E+00  0.81330109039E+03  0.81330109039E+03  0.25500000920E-02 0. -1.
        2   -1    0    0  501    0  0.00000000000E+00  0.00000000000E+00 -0.33281623209E+04  0.33281623209E+04  0.25500000920E-02 0.  1.
    10030    2    1    2    0    0  0.00000000000E+00  0.00000000000E+00 -0.25148612305E+04  0.41414634113E+04  0.32904699024E+04 0.  0.
        1    1    3    3  502    0  0.17398131804E+03  0.61789662244E+03 -0.31640408561E+04  0.32285012427E+04  0.50400001928E-02 0.  1.
       -1    1    3    3    0  502 -0.17398131804E+03 -0.61789662244E+03  0.64917962556E+03  0.91296216861E+03  0.50400001928E-02 0. -1.
</event>
<event>
 5   0  0.2674551E-06  0.3308635E+04  0.7818609E-02  0.8160702E-01
        2   -1    0    0  501    0  0.00000000000E+00  0.00000000000E+00  0.24572721500E+04  0.24572721500E+04  0.25500000920E-02 0.  1.
       -2   -1    0    0    0  501  0.00000000000E+00  0.00000000000E+00 -0.11137417069E+04  0.11137417069E+04  0.25500000920E-02 0. -1.
    10030    2    1    2    0    0  0.00000000000E+00  0.00000000000E+00  0.13435304431E+04  0.35710138569E+04  0.33086350531E+04 0.  0.
        3    1    3    3  502    0  0.97538630899E+02  0.44117069664E+03 -0.10458575110E+04  0.11392819281E+04  0.10100000352E+00 0. -1.
       -3    1    3    3    0  502 -0.97538630899E+02 -0.44117069664E+03  0.23893879541E+04  0.24317319288E+04  0.10100000352E+00 0.  1.
</event>
<event>
 5   0  0.2614212E-06  0.3248720E+04  0.7818609E-02  0.8176068E-01
       -2   -1    0    0    0  501  0.00000000000E+00  0.00000000000E+00  0.19032411662E+04  0.19032411662E+04  0.25500000920E-02 0. -1.
        2   -1    0    0  501    0  0.00000000000E+00  0.00000000000E+00 -0.13863430494E+04  0.13863430494E+04  0.25500000920E-02 0.  1.
    10030    2    1    2    0    0  0.00000000000E+00  0.00000000000E+00  0.51689811683E+03  0.32895842156E+04  0.32487198477E+04 0.  0.
        2    1    3    3  502    0  0.33069419086E+03 -0.40061804141E+03 -0.12999655711E+04  0.13999156935E+04  0.25500000920E-02 0.  1.
       -2    1    3    3    0  502 -0.33069419086E+03  0.40061804141E+03  0.18168636879E+04  0.18896685221E+04  0.25500000920E-02 0. -1.
</event>
<event>
 5   0  0.2705859E-06  0.3385821E+04  0.7818609E-02  0.8141395E-01
       -2   -1    0    0    0  501  0.00000000000E+00  0.00000000000E+00  0.16801689882E+04  0.16801689882E+04  0.25500000920E-02 0.  1.
        2   -1    0    0  501    0  0.00000000000E+00  0.00000000000E+00 -0.17057484687E+04  0.17057484687E+04  0.25500000920E-02 0. -1.
    10030    2    1    2    0    0  0.00000000000E+00  0.00000000000E+00 -0.25579480467E+02  0.33859174569E+04  0.33858208333E+04 0.  0.
        1    1    3    3  502    0  0.22186491906E+03 -0.11635318007E+04  0.11967551671E+04  0.16838210189E+04  0.50400001928E-02 0.  1.
       -1    1    3    3    0  502 -0.22186491906E+03  0.11635318007E+04 -0.12223346476E+04  0.17020964380E+04  0.50400001928E-02 0. -1.
</event>
<event>
 5   0  0.2658600E-06  0.3275351E+04  0.7818609E-02  0.8169196E-01
        2   -1    0    0  501    0  0.00000000000E+00  0.00000000000E+00  0.25053523703E+04  0.25053523703E+04  0.25500000920E-02 0.  1.
       -2   -1    0    0    0  501  0.00000000000E+00  0.00000000000E+00 -0.10705004786E+04  0.10705004786E+04  0.25500000920E-02 0. -1.
    10030    2    1    2    0    0  0.00000000000E+00  0.00000000000E+00  0.14348518917E+04  0.35758528489E+04  0.32753509195E+04 0.  0.
        5    1    3    3  502    0  0.86449044707E+03 -0.75391208883E+03 -0.55867189211E+03  0.12758775583E+04  0.46999998093E+01 0. -1.
       -5    1    3    3    0  502 -0.86449044707E+03  0.75391208883E+03  0.19935237838E+04  0.22999752906E+04  0.46999998093E+01 0.  1.
</event>
<event>
 5   0  0.2614212E-06  0.3273574E+04  0.7818609E-02  0.8169652E-01
       -2   -1    0    0    0  501  0.00000000000E+00  0.00000000000E+00  0.12755063014E+04  0.12755063014E+04  0.25500000920E-02 0. -1.
        2   -1    0    0  501    0  0.00000000000E+00  0.00000000000E+00 -0.21003988191E+04  0.21003988191E+04  0.25500000920E-02 0.  1.
    10030    2    1    2    0    0  0.00000000000E+00  0.00000000000E+00 -0.82489251767E+03  0.33759051204E+04  0.32735741502E+04 0.  0.
        2    1    3    3  502    0  0.11795724674E+04 -0.88358804747E+03  0.32181708784E+03  0.15085374644E+04  0.25500000920E-02 0. -1.
       -2    1    3    3    0  502 -0.11795724674E+04  0.88358804747E+03 -0.11467096055E+04  0.18673676560E+04  0.25500000920E-02 0.  1.
</event>
<event>
 5   0  0.9268670E-07  0.3304799E+04  0.7818609E-02  0.8161675E-01
       -1   -1    0    0    0  501  0.00000000000E+00  0.00000000000E+00  0.16933279121E+04  0.16933279121E+04  0.50400001928E-02 0.  1.
        1   -1    0    0  501    0  0.00000000000E+00  0.00000000000E+00 -0.16124603512E+04  0.16124603512E+04  0.50400001928E-02 0. -1.
    10030    2    1    2    0    0  0.00000000000E+00  0.00000000000E+00  0.80867560930E+02  0.33057882633E+04  0.33047990074E+04 0.  0.
        3    1    3    3  502    0  0.79609308621E+03  0.12162536865E+04  0.82640868416E+03  0.16721209751E+04  0.10100000352E+00 0.  1.
       -3    1    3    3    0  502 -0.79609308621E+03 -0.12162536865E+04 -0.74554112323E+03  0.16336672882E+04  0.10100000352E+00 0. -1.
</event>
<event>
 5   0  0.8845526E-07  0.3325240E+04  0.7818609E-02  0.8156503E-01
       -1   -1    0    0    0  501  0.00000000000E+00  0.00000000000E+00  0.12549948107E+04  0.12549948107E+04  0.50400001928E-02 0. -1.
        1   -1    0    0  501    0  0.00000000000E+00  0.00000000000E+00 -0.22026427709E+04  0.22026427709E+04  0.50400001928E-02 0.  1.
    10030    2    1    2    0    0  0.00000000000E+00  0.00000000000E+00 -0.94764796018E+03  0.34576375817E+04  0.33252399898E+04 0.  0.
        1    1    3    3  502    0  0.39188863944E+03 -0.43912322042E+03  0.11430478086E+04  0.12856765539E+04  0.50400001928E-02 0. -1.
       -1    1    3    3    0  502 -0.39188863944E+03  0.43912322042E+03 -0.20906957688E+04  0.21719610278E+04  0.50400001928E-02 0.  1.
</event>
<event>
 5   0  0.2614212E-06  0.2432401E+04  0.7818609E-02  0.8427472E-01
       -2   -1    0    0    0  501  0.00000000000E+00  0.00000000000E+00  0.10811560229E+04  0.10811560229E+04  0.25500000920E-02 0.  1.
        2   -1    0    0  501    0  0.00000000000E+00  0.00000000000E+00 -0.13681128947E+04  0.13681128947E+04  0.25500000920E-02 0. -1.
    10030    2    1    2    0    0  0.00000000000E+00  0.00000000000E+00 -0.28695687174E+03  0.24492689176E+04  0.24324008684E+04 0.  0.
        2    1    3    3  502    0  0.53786977437E+03  0.10413922869E+04 -0.47029307089E+03  0.12629241315E+04  0.25500000920E-02 0. -1.
       -2    1    3    3    0  502 -0.53786977437E+03 -0.10413922869E+04  0.18333619914E+03  0.11863447861E+04  0.25500000920E-02 0.  1.
</event>
<event>
 5   0  0.2658600E-06  0.3233575E+04  0.7818609E-02  0.8180006E-01
        2   -1    0    0  501    0  0.00000000000E+00  0.00000000000E+00  0.24851471939E+04  0.24851471939E+04  0.25500000920E-02 0.  1.
       -2   -1    0    0    0  501  0.00000000000E+00  0.00000000000E+00 -0.10518498562E+04  0.10518498562E+04  0.25500000920E-02 0. -1.
    10030    2    1    2    0    0  0.00000000000E+00  0.00000000000E+00  0.14332973376E+04  0.35369970501E+04  0.32335749372E+04 0.  0.
        5    1    3    3  502    0  0.10105682331E+04 -0.62669794191E+03 -0.48157800204E+03  0.12829411234E+04  0.46999998093E+01 0. -1.
       -5    1    3    3    0  502 -0.10105682331E+04  0.62669794191E+03  0.19148753397E+04  0.22540559267E+04  0.46999998093E+01 0.  1.
</event>
<event>
 5   0  0.2658600E-06  0.3078331E+04  0.7818609E-02  0.8221710E-01
        2   -1    0    0  501    0  0.00000000000E+00  0.00000000000E+00  0.81270444268E+03  0.81270444268E+03  0.25500000920E-02 0.  1.
       -2   -1    0    0    0  501  0.00000000000E+00  0.00000000000E+00 -0.29149962316E+04  0.29149962316E+04  0.25500000920E-02 0. -1.
    10030    2    1    2    0    0  0.00000000000E+00  0.00000000000E+00 -0.21022917889E+04  0.37277006743E+04  0.30783309684E+04 0.  0.
        5    1    3    3  502    0  0.89727082735E+03  0.11584486014E+04 -0.48070014107E+03  0.15421390389E+04  0.46999998093E+01 0.  1.
       -5    1    3    3    0  502 -0.89727082735E+03 -0.11584486014E+04 -0.16215916478E+04  0.21855616354E+04  0.46999998093E+01 0. -1.
</event>
<event>
 5   0  0.9295663E-07  0.3281169E+04  0.7818609E-02  0.8167704E-01
        1   -1    0    0  501    0  0.00000000000E+00  0.00000000000E+00  0.18505470349E+04  0.18505470349E+04  0.50400001928E-02 0. -1.
       -1   -1    0    0    0  501  0.00000000000E+00  0.00000000000E+00 -0.14544441030E+04  0.14544441030E+04  0.50400001928E-02 0.  1.
    10030    2    1    2    0    0  0.00000000000E+00  0.00000000000E+00  0.39610293182E+03  0.33049911379E+04  0.32811688297E+04 0.  0.
        4    1    3    3  502    0 -0.14996114653E+04 -0.65844262010E+03  0.29431930601E+03  0.16640332621E+04  0.12699999809E+01 0. -1.
       -4    1    3    3    0  502  0.14996114653E+04  0.65844262010E+03  0.10178362582E+03  0.16409578758E+04  0.12699999809E+01 0.  1.
</event>
<event>
 5   0  0.8520125E-07  0.3280967E+04  0.7818609E-02  0.8167755E-01
        3   -1    0    0  501    0  0.00000000000E+00  0.00000000000E+00  0.24962224356E+04  0.24962224377E+04  0.10100000352E+00 0.  1.
       -3   -1    0    0    0  501  0.00000000000E+00  0.00000000000E+00 -0.10781036660E+04  0.10781036707E+04  0.10100000352E+00 0. -1.
    10030    2    1    2    0    0  0.00000000000E+00  0.00000000000E+00  0.14181187697E+04  0.35743261084E+04  0.32809672787E+04 0.  0.
        2    1    3    3  502    0  0.48939190455E+03  0.98460792088E+03 -0.61726569680E+03  0.12609417649E+04  0.25500000920E-02 0. -1.
       -2    1    3    3    0  502 -0.48939190455E+03 -0.98460792088E+03  0.20353844665E+04  0.23133843434E+04  0.25500000920E-02 0.  1.
</event>
<event>
 5   0  0.2705859E-06  0.3288609E+04  0.7818609E-02  0.8165800E-01
       -2   -1    0    0    0  501  0.00000000000E+00  0.00000000000E+00  0.10718691018E+04  0.10718691018E+04  0.25500000920E-02 0.  1.
        2   -1    0    0  501    0  0.00000000000E+00  0.00000000000E+00 -0.25224504235E+04  0.25224504235E+04  0.25500000920E-02 0. -1.
    10030    2    1    2    0    0  0.00000000000E+00  0.00000000000E+00 -0.14505813218E+04  0.35943195253E+04  0.32886086236E+04 0.  0.
        1    1    3    3  502    0  0.11008211743E+04 -0.90201609635E+03 -0.16254393191E+04  0.21604382139E+04  0.50400001928E-02 0. -1.
       -1    1    3    3    0  502 -0.11008211743E+04  0.90201609635E+03  0.17485799738E+03  0.14338813114E+04  0.50400001928E-02 0.  1.
</event>
<event>
 5   0  0.2574803E-06  0.3303479E+04  0.7818609E-02  0.8162011E-01
        2   -1    0    0  501    0  0.00000000000E+00  0.00000000000E+00  0.24141511028E+04  0.24141511028E+04  0.25500000920E-02 0.  1.
       -2   -1    0    0    0  501  0.00000000000E+00  0.00000000000E+00 -0.11301049340E+04  0.11301049340E+04  0.25500000920E-02 0. -1.
    10030    2    1    2    0    0  0.00000000000E+00  0.00000000000E+00  0.12840461688E+04  0.35442560368E+04  0.33034794219E+04 0.  0.
        4    1    3    3  502    0  0.12077709869E+04  0.88741883830E+03 -0.10285601689E+03  0.15022662629E+04  0.12699999809E+01 0.  1.
       -4    1    3    3    0  502 -0.12077709869E+04 -0.88741883830E+03  0.13869021857E+04  0.20419897740E+04  0.12699999809E+01 0. -1.
</event>
<event>
 5   0  0.2614212E-06  0.2986629E+04  0.7818609E-02  0.8247559E-01
       -2   -1    0    0    0  501  0.00000000000E+00  0.00000000000E+00  0.17315934225E+04  0.17315934225E+04  0.25500000920E-02 0. -1.
        2   -1    0    0  501    0  0.00000000000E+00  0.00000000000E+00 -0.12878244678E+04  0.12878244678E+04  0.25500000920E-02 0.  1.
    10030    2    1    2    0    0  0.00000000000E+00  0.00000000000E+00  0.44376895474E+03  0.30194178904E+04  0.29866291218E+04 0.  0.
        2    1    3    3  502    0 -0.24378450515E+03 -0.94245000973E+03  0.13667235674E+04  0.16779678828E+04  0.25500000920E-02 0. -1.
       -2    1    3    3    0  502  0.24378450515E+03  0.94245000973E+03 -0.92295461269E+03  0.13414500076E+04  0.25500000920E-02 0.  1.
</event>
<event>
 5   0  0.2614212E-06  0.3133357E+04  0.7818609E-02  0.8206643E-01
       -2   -1    0    0    0  501  0.00000000000E+00  0.00000000000E+00  0.13629315433E+04  0.13629315433E+04  0.25500000920E-02 0.  1.
        2   -1    0    0  501    0  0.00000000000E+00  0.00000000000E+00 -0.18008840231E+04  0.18008840231E+04  0.25500000920E-02 0. -1.
    10030    2    1    2    0    0  0.00000000000E+00  0.00000000000E+00 -0.43795247981E+03  0.31638155664E+04  0.31333570756E+04 0.  0.
        2    1    3    3  502    0  0.34603817876E+03  0.14588845351E+04 -0.67769974574E+03  0.16454067744E+04  0.25500000920E-02 0. -1.
       -2    1    3    3    0  502 -0.34603817876E+03 -0.14588845351E+04  0.23974726593E+03  0.15184087919E+04  0.25500000920E-02 0.  1.
</event>
<event>
 5   0  0.8705956E-07  0.3375714E+04  0.7818609E-02  0.8143893E-01
       -1   -1    0    0    0  501  0.00000000000E+00  0.00000000000E+00  0.10551663270E+04  0.10551663270E+04  0.50400001928E-02 0.  1.
        1   -1    0    0  501    0  0.00000000000E+00  0.00000000000E+00 -0.26999162745E+04  0.26999162745E+04  0.50400001928E-02 0. -1.
    10030    2    1    2    0    0  0.00000000000E+00  0.00000000000E+00 -0.16447499476E+04  0.37550826015E+04  0.33757136955E+04 0.  0.
        2    1    3    3  502    0 -0.49417052098E+03 -0.57453014913E+03  0.85528394739E+03  0.11427160744E+04  0.25500000920E-02 0.  1.
       -2    1    3    3    0  502  0.49417052098E+03  0.57453014913E+03 -0.25000338949E+04  0.26123665271E+04  0.25500000920E-02 0. -1.
</event>
<event>
 5   0  0.9268670E-07  0.3052020E+04  0.7818609E-02  0.8229030E-01
        1   -1    0    0  501    0  0.00000000000E+00  0.00000000000E+00  0.15042050429E+04  0.15042050429E+04  0.50400001928E-02 0.  1.
       -1   -1    0    0    0  501  0.00000000000E+00  0.00000000000E+00 -0.15481310228E+04  0.15481310229E+04  0.50400001928E-02 0. -1.
    10030    2    1    2    0    0  0.00000000000E+00  0.00000000000E+00 -0.43925979978E+02  0.30523360657E+04  0.30520199813E+04 0.  0.
        3    1    3    3  502    0 -0.13923645040E+04 -0.20388390372E+03  0.56840223914E+03  0.15176721233E+04  0.10100000352E+00 0.  1.
       -3    1    3    3    0  502  0.13923645040E+04  0.20388390372E+03 -0.61232821912E+03  0.15346639424E+04  0.10100000352E+00 0. -1.
</event>
<event>
 5   0  0.2658600E-06  0.3268710E+04  0.7818609E-02  0.8170903E-01
       -2   -1    0    0    0  501  0.00000000000E+00  0.00000000000E+00  0.12243922083E+04  0.12243922083E+04  0.25500000920E-02 0. -1.
        2   -1    0    0  501    0  0.00000000000E+00  0.00000000000E+00 -0.21815851631E+04  0.21815851631E+04  0.25500000920E-02 0.  1.
    10030    2    1    2    0    0  0.00000000000E+00  0.00000000000E+00 -0.95719295480E+03  0.34059773713E+04  0.32687097609E+04 0.  0.
        5    1    3    3  502    0  0.10303263592E+04  0.38324465406E+03 -0.17387830591E+04  0.20571430403E+04  0.46999998093E+01 0.  1.
       -5    1    3    3    0  502 -0.10303263592E+04 -0.38324465406E+03  0.78159010434E+03  0.13488343310E+04  0.46999998093E+01 0. -1.
</event>
<event>
 5   0  0.2705859E-06  0.3266396E+04  0.7818609E-02  0.8171499E-01
        2   -1    0    0  501    0  0.00000000000E+00  0.00000000000E+00  0.11796326278E+04  0.11796326278E+04  0.25500000920E-02 0.  1.
       -2   -1    0    0    0  501  0.00000000000E+00  0.00000000000E+00 -0.22611579436E+04  0.22611579436E+04  0.25500000920E-02 0. -1.
    10030    2    1    2    0    0  0.00000000000E+00  0.00000000000E+00 -0.10815253158E+04  0.34407905714E+04  0.32663959876E+04 0.  0.
        1    1    3    3  502    0 -0.31534618985E+03 -0.15060750324E+04  0.35847633802E+02  0.15391524536E+04  0.50400001928E-02 0.  1.
       -1    1    3    3    0  502  0.31534618985E+03  0.15060750324E+04 -0.11173729496E+04  0.19016381178E+04  0.50400001928E-02 0. -1.
</event>
<event>
 5   0  0.9295663E-07  0.3289032E+04  0.7818609E-02  0.8165692E-01
       -1   -1    0    0    0  501  0.00000000000E+00  0.00000000000E+00  0.14707772244E+04  0.14707772244E+04  0.50400001928E-02 0.  1.
        1   -1    0    0  501    0  0.00000000000E+00  0.00000000000E+00 -0.18387775752E+04  0.18387775752E+04  0.50400001928E-02 0. -1.
    10030    2    1    2    0    0  0.00000000000E+00  0.00000000000E+00 -0.36800035085E+03  0.33095547996E+04  0.32890315768E+04 0.  0.
        4    1    3    3  502    0  0.12781269387E+04 -0.15465968606E+03 -0.12135672535E+04  0.17692583705E+04  0.12699999809E+01 0. -1.
       -4    1    3    3    0  502 -0.12781269387E+04  0.15465968606E+03  0.84556690261E+03  0.15402964291E+04  0.12699999809E+01 0.  1.
</event>
<event>
 5   0  0.9268670E-07  0.3339699E+04  0.7818609E-02  0.8152867E-01
       -1   -1    0    0    0  501  0.00000000000E+00  0.00000000000E+00  0.16346977813E+04  0.16346977813E+04  0.50400001928E-02 0. -1.
        1   -1    0    0  501    0  0.00000000000E+00  0.00000000000E+00 -0.17057567442E+04  0.17057567442E+04  0.50400001928E-02 0.  1.
    10030    2    1    2    0    0  0.00000000000E+00  0.00000000000E+00 -0.71058962941E+02  0.33404545255E+04  0.33396986482E+04 0.  0.
        3    1    3    3  502    0 -0.45116775541E+03  0.10932905613E+04 -0.12145923433E+04  0.16953085753E+04  0.10100000352E+00 0.  1.
       -3    1    3    3    0  502  0.45116775541E+03 -0.10932905613E+04  0.11435333804E+04  0.16451459501E+04  0.10100000352E+00 0. -1.
</event>
<event>
 5   0  0.2658600E-06  0.3324940E+04  0.7818609E-02  0.8156578E-01
       -2   -1    0    0    0  501  0.00000000000E+00  0.00000000000E+00  0.13483362306E+04  0.13483362306E+04  0.25500000920E-02 0. -1.
        2   -1    0    0  501    0  0.00000000000E+00  0.00000000000E+00 -0.20497906402E+04  0.20497906402E+04  0.25500000920E-02 0.  1.
    10030    2    1    2    0    0  0.00000000000E+00  0.00000000000E+00 -0.70145440964E+03  0.33981268709E+04  0.33249402914E+04 0.  0.
        5    1    3    3  502    0  0.12207013928E+04  0.98201722950E+03 -0.91913018445E+03  0.18163953632E+04  0.46999998093E+01 0.  1.
       -5    1    3    3    0  502 -0.12207013928E+04 -0.98201722950E+03  0.21767577481E+03  0.15817315077E+04  0.46999998093E+01 0. -1.
</event>
<event>
 5   0  0.2658600E-06  0.3263432E+04  0.7818609E-02  0.8172263E-01
        2   -1    0    0  501    0  0.00000000000E+00  0.00000000000E+00  0.17727449763E+04  0.17727449763E+04  0.25500000920E-02 0.  1.
       -2   -1    0    0    0  501  0.00000000000E+00  0.00000000000E+00 -0.15019066002E+04  0.15019066002E+04  0.25500000920E-02 0. -1.
    10030    2    1    2    0    0  0.00000000000E+00  0.00000000000E+00  0.27083837607E+03  0.32746515765E+04  0.32634321690E+04 0.  0.
        5    1    3    3  502    0  0.64747052139E+02  0.77764538085E+03  0.15733673495E+04  0.17562549433E+04  0.46999998093E+01 0.  1.
       -5    1    3    3    0  502 -0.64747052139E+02 -0.77764538085E+03 -0.13025289735E+04  0.15183966333E+04  0.46999998093E+01 0. -1.
</event>
<event>
 5   0  0.2614212E-06  0.3239330E+04  0.7818609E-02  0.8178507E-01
       -2   -1    0    0    0  501  0.00000000000E+00  0.00000000000E+00  0.20544542634E+04  0.20544542634E+04  0.25500000920E-02 0.  1.
        2   -1    0    0  501    0  0.00000000000E+00  0.00000000000E+00 -0.12768914596E+04  0.12768914596E+04  0.25500000920E-02 0. -1.
    10030    2    1    2    0    0  0.00000000000E+00  0.00000000000E+00  0.77756280382E+03  0.33313457230E+04  0.32393302413E+04 0.  0.
        2    1    3    3  502    0  0.10081901300E+04 -0.73797733689E+03 -0.67115382197E+03  0.14182754813E+04  0.25500000920E-02 0. -1.
       -2    1    3    3    0  502 -0.10081901300E+04  0.73797733689E+03  0.14487166258E+04  0.19130702417E+04  0.25500000920E-02 0.  1.
</event>
<event>
 5   0  0.2574803E-06  0.2675657E+04  0.7818609E-02  0.8342947E-01
        2   -1    0    0  501    0  0.00000000000E+00  0.00000000000E+00  0.15749101985E+04  0.15749101985E+04  0.25500000920E-02 0.  1.
       -2   -1    0    0    0  501  0.00000000000E+00  0.00000000000E+00 -0.11364358912E+04  0.11364358912E+04  0.25500000920E-02 0. -1.
    10030    2    1    2    0    0  0.00000000000E+00  0.00000000000E+00  0.43847430739E+03  0.27113460897E+04  0.26756565362E+04 0.  0.
        4    1    3    3  502    0 -0.60054359120E+03 -0.68948500584E+03  0.12088600781E+04  0.15157131917E+04  0.12699999809E+01 0.  1.
       -4    1    3    3    0  502  0.60054359120E+03  0.68948500584E+03 -0.77038577069E+03  0.11956328980E+04  0.12699999809E+01 0. -1.
</event>
<event>
 5   0  0.8845526E-07  0.3270658E+04  0.7818609E-02  0.8170402E-01
        1   -1    0    0  501    0  0.00000000000E+00  0.00000000000E+00  0.11089940166E+04  0.11089940166E+04  0.50400001928E-02 0.  1.
       -1   -1    0    0    0  501  0.00000000000E+00  0.00000000000E+00 -0.24114654537E+04  0.24114654538E+04  0.50400001928E-02 0. -1.
    10030    2    1    2    0    0  0.00000000000E+00  0.00000000000E+00 -0.13024714371E+04  0.35204594704E+04  0.32706578907E+04 0.  0.
        1    1    3    3  502    0 -0.15951706495E+04 -0.12254854843E+02 -0.26376829991E+03  0.16168776387E+04  0.50400001928E-02 0.  1.
       -1    1    3    3    0  502  0.15951706495E+04  0.12254854843E+02 -0.10387031372E+04  0.19035818317E+04  0.50400001928E-02 0. -1.
</event>
<event>
 5   0  0.8845526E-07  0.3273718E+04  0.7818609E-02  0.8169615E-01
       -1   -1    0    0    0  501  0.00000000000E+00  0.00000000000E+00  0.18335749270E+04  0.18335749270E+04  0.50400001928E-02 0.  1.
        1   -1    0    0  501    0  0.00000000000E+00  0.00000000000E+00 -0.14612476025E+04  0.14612476025E+04  0.50400001928E-02 0. -1.
    10030    2    1    2    0    0  0.00000000000E+00  0.00000000000E+00  0.37232732453E+03  0.32948225295E+04  0.32737177435E+04 0.  0.
        1    1    3    3  502    0  0.15793365666E+04 -0.23697082391E+03 -0.17510418032E+03  0.16065866412E+04  0.50400001928E-02 0. -1.
       -1    1    3    3    0  502 -0.15793365666E+04  0.23697082391E+03  0.54743150485E+03  0.16882358883E+04  0.50400001928E-02 0.  1.
</event>
<event>
 5   0  0.9530268E-07  0.3312658E+04  0.7818609E-02  0.8159682E-01
       -1   -1    0    0    0  501  0.00000000000E+00  0.00000000000E+00  0.17393228123E+04  0.17393228123E+04  0.50400001928E-02 0.  1.
        1   -1    0    0  501    0  0.00000000000E+00  0.00000000000E+00 -0.15772957027E+04  0.15772957027E+04  0.50400001928E-02 0. -1.
    10030    2    1    2    0    0  0.00000000000E+00  0.00000000000E+00  0.16202710966E+03  0.33166185150E+04  0.33126583871E+04 0.  0.
        5    1    3    3  502    0  0.50463599209E+03 -0.15772395625E+04  0.11364370340E+03  0.16599033416E+04  0.46999998093E+01 0. -1.
       -5    1    3    3    0  502 -0.50463599209E+03  0.15772395625E+04  0.48383406253E+02  0.16567151735E+04  0.46999998093E+01 0.  1.
</event>
<event>
 5   0  0.2705859E-06  0.3300118E+04  0.7818609E-02  0.8162865E-01
        2   -1    0    0  501    0  0.00000000000E+00  0.00000000000E+00  0.16201764707E+04  0.16201764707E+04  0.25500000920E-02 0. -1.
       -2   -1    0    0    0  501  0.00000000000E+00  0.00000000000E+00 -0.16804930935E+04  0.16804930935E+04  0.25500000920E-02 0.  1.
    10030    2    1    2    0    0  0.00000000000E+00  0.00000000000E+00 -0.60316622832E+02  0.33006695642E+04  0.33001184035E+04 0.  0.
        1    1    3    3  502    0 -0.77120953334E+02  0.16391408212E+04 -0.20329151387E+03  0.16534986280E+04  0.50400001928E-02 0.  1.
       -1    1    3    3    0  502  0.77120953334E+02 -0.16391408212E+04  0.14297489104E+03  0.16471709361E+04  0.50400001928E-02 0. -1.
</event>
<event>
 5   0  0.2574803E-06  0.3314349E+04  0.7818609E-02  0.8159254E-01
       -2   -1    0    0    0  501  0.00000000000E+00  0.00000000000E+00  0.10092464596E+04  0.10092464596E+04  0.25500000920E-02 0.  1.
        2   -1    0    0  501    0  0.00000000000E+00  0.00000000000E+00 -0.27210677802E+04  0.27210677802E+04  0.25500000920E-02 0. -1.
    10030    2    1    2    0    0  0.00000000000E+00  0.00000000000E+00 -0.17118213206E+04  0.37303142398E+04  0.33143494224E+04 0.  0.
        4    1    3    3  502    0 -0.12553842894E+04 -0.65797474569E+03 -0.18223419640E+04  0.23086472937E+04  0.12699999809E+01 0. -1.
       -4    1    3    3    0  502  0.12553842894E+04  0.65797474569E+03  0.11052064342E+03  0.14216669461E+04  0.12699999809E+01 0.  1.
</event>
<event>
 5   0  0.9295663E-07  0.2883441E+04  0.7818609E-02  0.8277821E-01
        1   -1    0    0  501    0  0.00000000000E+00  0.00000000000E+00  0.20689572688E+04  0.20689572688E+04  0.50400001928E-02 0.  1.
       -1   -1    0    0    0  501  0.00000000000E+00  0.00000000000E+00 -0.10046400654E+04  0.10046400654E+04  0.50400001928E-02 0. -1.
    10030    2    1    2    0    0  0.00000000000E+00  0.00000000000E+00  0.10643172034E+04  0.30735973342E+04  0.28834405600E+04 0.  0.
        4    1    3    3  502    0  0.38143623819E+03  0.89060603227E+03 -0.60590390151E+03  0.11427133758E+04  0.12699999809E+01 0. -1.
       -4    1    3    3    0  502 -0.38143623819E+03 -0.89060603227E+03  0.16702211049E+04  0.19308839583E+04  0.12699999809E+01 0.  1.
</event>
<event>
 5   0  0.9530268E-07  0.3319494E+04  0.7818609E-02  0.8157953E-01
        1   -1    0    0  501    0  0.00000000000E+00  0.00000000000E+00  0.94145926725E+03  0.94145926726E+03  0.50400001928E-02 0. -1.
       -1   -1    0    0    0  501  0.00000000000E+00  0.00000000000E+00 -0.29260533090E+04  0.29260533090E+04  0.50400001928E-02 0.  1.
    10030    2    1    2    0    0  0.00000000000E+00  0.00000000000E+00 -0.19845940417E+04  0.38675125762E+04  0.33194939399E+04 0.  0.
        5    1    3    3  502    0 -0.95925686366E+02  0.70761405353E+03  0.75332605202E+03  0.10379988520E+04  0.46999998093E+01 0. -1.
       -5    1    3    3    0  502  0.95925686366E+02 -0.70761405353E+03 -0.27379200937E+04  0.28295137243E+04  0.46999998093E+01 0.  1.
</event>
<event>
 5   0  0.2705859E-06  0.2895109E+04  0.7818609E-02  0.8274334E-01
       -2   -1    0    0    0  501  0.00000000000E+00  0.00000000000E+00  0.11404888653E+04  0.11404888654E+04  0.25500000920E-02 0. -1.
        2   -1    0    0  501    0  0.00000000000E+00  0.00000000000E+00 -0.18372943790E+04  0.18372943790E+04  0.25500000920E-02 0.  1.
    10030    2    1    2    0    0  0.00000000000E+00  0.00000000000E+00 -0.69680551368E+03  0.29777832444E+04  0.28951088281E+04 0.  0.
        1    1    3    3  502    0  0.13302896496E+03  0.11000132212E+04 -0.13065008618E+04  0.17130879412E+04  0.50400001928E-02 0.  1.
       -1    1    3    3    0  502 -0.13302896496E+03 -0.11000132212E+04  0.60969534814E+03  0.12646953032E+04  0.50400001928E-02 0. -1.
</event>
<event>
 5   0  0.9268670E-07  0.3300124E+04  0.7818609E-02  0.8162864E-01
       -1   -1    0    0    0  501  0.00000000000E+00  0.00000000000E+00  0.18552005564E+04  0.18552005564E+04  0.50400001928E-02 0. -1.
        1   -1    0    0  501    0  0.00000000000E+00  0.00000000000E+00 -0.14676070322E+04  0.14676070323E+04  0.50400001928E-02 0.  1.
    10030    2    1    2    0    0  0.00000000000E+00  0.00000000000E+00  0.38759352413E+03  0.33228075886E+04  0.33001244721E+04 0.  0.
        3    1    3    3  502    0  0.15206960816E+04  0.41794052877E+03  0.68243079468E+03  0.17184011924E+04  0.10100000352E+00 0. -1.
       -3    1    3    3    0  502 -0.15206960816E+04 -0.41794052877E+03 -0.29483727055E+03  0.16044063963E+04  0.10100000352E+00 0.  1.
</event>
<event>
 5   0  0.2614212E-06  0.3181338E+04  0.7818609E-02  0.8193763E-01
        2   -1    0    0  501    0  0.00000000000E+00  0.00000000000E+00  0.13269565878E+04  0.13269565878E+04  0.25500000920E-02 0.  1.
       -2   -1    0    0    0  501  0.00000000000E+00  0.00000000000E+00 -0.19067899255E+04  0.19067899255E+04  0.25500000920E-02 0. -1.
    10030    2    1    2    0    0  0.00000000000E+00  0.00000000000E+00 -0.57983333765E+03  0.32337465133E+04  0.31813377395E+04 0.  0.
        2    1    3    3  502    0  0.99475895441E+03 -0.99062687413E+03  0.47029462688E+03  0.14805620612E+04  0.25500000920E-02 0.  1.
       -2    1    3    3    0  502 -0.99475895441E+03  0.99062687413E+03 -0.10501279645E+04  0.17531844521E+04  0.25500000920E-02 0. -1.
</event>
<event>
 5   0  0.2614212E-06  0.3268621E+04  0.7818609E-02  0.8170926E-01
       -2   -1    0    0    0  501  0.00000000000E+00  0.00000000000E+00  0.24275014554E+04  0.24275014554E+04  0.25500000920E-02 0.  1.
        2   -1    0    0  501    0  0.00000000000E+00  0.00000000000E+00 -0.11002964403E+04  0.11002964403E+04  0.25500000920E-02 0. -1.
    10030    2    1    2    0    0  0.00000000000E+00  0.00000000000E+00  0.13272050151E+04  0.35277978956E+04  0.32686212446E+04 0.  0.
        2    1    3    3  502    0 -0.70034165707E+03  0.10781203514E+04  0.17526450045E+04  0.21736113821E+04  0.25500000920E-02 0.  1.
       -2    1    3    3    0  502  0.70034165707E+03 -0.10781203514E+04 -0.42543998946E+03  0.13541865135E+04  0.25500000920E-02 0. -1.
</event>
<event>
 5   0  0.2574803E-06  0.2969534E+04  0.7818609E-02  0.8252484E-01
        2   -1    0    0  501    0  0.00000000000E+00  0.00000000000E+00  0.17673036652E+04  0.17673036652E+04  0.25500000920E-02 0. -1.
       -2   -1    0    0    0  501  0.00000000000E+00  0.00000000000E+00 -0.12473993844E+04  0.12473993844E+04  0.25500000920E-02 0.  1.
    10030    2    1    2    0    0  0.00000000000E+00  0.00000000000E+00  0.51990428085E+03  0.30147030496E+04  0.29695343096E+04 0.  0.
        4    1    3    3  502    0 -0.61710414192E+03 -0.13284303074E+04  0.13384882026E+02  0.14648294684E+04  0.12699999809E+01 0.  1.
       -4    1    3    3    0  502  0.61710414192E+03  0.13284303074E+04  0.50651939882E+03  0.15498735812E+04  0.12699999809E+01 0. -1.
</event>
<event>
 5   0  0.2674551E-06  0.3294748E+04  0.7818609E-02  0.8164233E-01
        2   -1    0    0  501    0  0.00000000000E+00  0.00000000000E+00  0.18993129300E+04  0.18993129300E+04  0.25500000920E-02 0.  1.
       -2   -1    0    0    0  501  0.00000000000E+00  0.00000000000E+00 -0.14288540089E+04  0.14288540089E+04  0.25500000920E-02 0. -1.
    10030    2    1    2    0    0  0.00000000000E+00  0.00000000000E+00  0.47045892116E+03  0.33281669389E+04  0.32947478776E+04 0.  0.
        3    1    3    3  502    0  0.42618284525E+03  0.97277595439E+03  0.15073345987E+04  0.18439041401E+04  0.10100000352E+00 0.  1.
       -3    1    3    3    0  502 -0.42618284525E+03 -0.97277595439E+03 -0.10368756776E+04  0.14842627988E+04  0.10100000352E+00 0. -1.
</event>
<event>
 5   0  0.2705859E-06  0.3354835E+04  0.7818609E-02  0.8149081E-01
        2   -1    0    0  501    0  0.00000000000E+00  0.00000000000E+00  0.12186217852E+04  0.12186217852E+04  0.25500000920E-02 0. -1.
       -2   -1    0    0    0  501  0.00000000000E+00  0.00000000000E+00 -0.23089441376E+04  0.23089441376E+04  0.25500000920E-02 0.  1.
    10030    2    1    2    0    0  0.00000000000E+00  0.00000000000E+00 -0.10903223524E+04  0.35275659229E+04  0.33548350940E+04 0.  0.
        1    1    3    3  502    0  0.31373654970E+03  0.15966718089E+04 -0.11683258126E+03  0.16313924544E+04  0.50400001928E-02 0.  1.
       -1    1    3    3    0  502 -0.31373654970E+03 -0.15966718089E+04 -0.97348977116E+03  0.18961734685E+04  0.50400001928E-02 0. -1.
</event>
<event>
 5   0  0.2658600E-06  0.3260606E+04  0.7818609E-02  0.8172992E-01
       -2   -1    0    0    0  501  0.00000000000E+00  0.00000000000E+00  0.98041681268E+03  0.98041681268E+03  0.25500000920E-02 0. -1.
        2   -1    0    0  501    0  0.00000000000E+00  0.00000000000E+00 -0.27109781697E+04  0.27109781697E+04  0.25500000920E-02 0.  1.
    10030    2    1    2    0    0  0.00000000000E+00  0.00000000000E+00 -0.17305613571E+04  0.36913949824E+04  0.32606064322E+04 0.  0.
        5    1    3    3  502    0 -0.13604338983E+04 -0.88790351409E+03 -0.10201512858E+04  0.19183023167E+04  0.46999998093E+01 0. -1.
       -5    1    3    3    0  502  0.13604338983E+04  0.88790351409E+03 -0.71041007122E+03  0.17730926658E+04  0.46999998093E+01 0.  1.
</event>
<event>
 5   0  0.9295663E-07  0.3304323E+04  0.7818609E-02  0.8161796E-01
       -1   -1    0    0    0  501  0.00000000000E+00  0.00000000000E+00  0.13736086450E+04  0.13736086450E+04  0.50400001928E-02 0. -1.
        1   -1    0    0  501    0  0.00000000000E+00  0.00000000000E+00 -0.19872019353E+04  0.19872019353E+04  0.50400001928E-02 0.  1.
    10030    2    1    2    0    0  0.00000000000E+00  0.00000000000E+00 -0.61359329030E+03  0.33608105804E+04  0.33043230822E+04 0.  0.
        4    1    3    3  502    0 -0.13906922333E+03 -0.15348730624E+04  0.29874707199E+03  0.15698493535E+04  0.12699999809E+01 0.  1.
       -4    1    3    3    0  502  0.13906922333E+03  0.15348730624E+04 -0.91234036229E+03  0.17909612269E+04  0.12699999809E+01 0. -1.
</event>
<event>
 5   0  0.9530268E-07  0.3390515E+04  0.7818609E-02  0.8140238E-01
        1   -1    0    0  501    0  0.00000000000E+00  0.00000000000E+00  0.30085230488E+04  0.30085230488E+04  0.50400001928E-02 0. -1.
       -1   -1    0    0    0  501  0.00000000000E+00  0.00000000000E+00 -0.95525224420E+03  0.95525224421E+03  0.50400001928E-02 0.  1.
    10030    2    1    2    0    0  0.00000000000E+00  0.00000000000E+00  0.20532708046E+04  0.39637752930E+04  0.33905152376E+04 0.  0.
        5    1    3    3  502    0  0.74201929061E+03 -0.10318106098E+04 -0.28494799152E+03  0.13024758002E+04  0.46999998093E+01 0.  1.
       -5    1    3    3    0  502 -0.74201929061E+03  0.10318106098E+04  0.23382187961E+04  0.26612994929E+04  0.46999998093E+01 0. -1.
</event>
<event>
 5   0  0.2574803E-06  0.3263641E+04  0.7818609E-02  0.8172209E-01
        2   -1    0    0  501    0  0.00000000000E+00  0.00000000000E+00  0.16265772754E+04  0.16265772754E+04  0.25500000920E-02 0. -1.
       -2   -1    0    0    0  501  0.00000000000E+00  0.00000000000E+00 -0.16370804130E+04  0.16370804130E+04  0.25500000920E-02 0.  1.
    10030    2    1    2    0    0  0.00000000000E+00  0.00000000000E+00 -0.10503137626E+02  0.32636576884E+04  0.32636407877E+04 0.  0.
        4    1    3    3  502    0 -0.27656817624E+03 -0.11192324420E+04  0.11495985437E+04  0.16281122934E+04  0.12699999809E+01 0. -1.
       -4    1    3    3    0  502  0.27656817624E+03  0.11192324420E+04 -0.11601016813E+04  0.16355453950E+04  0.12699999809E+01 0.  1.
</event>
<event>
 5   0  0.2614212E-06  0.3033676E+04  0.7818609E-02  0.8234179E-01
       -2   -1    0    0    0  501  0.00000000000E+00  0.00000000000E+00  0.10896151833E+04  0.10896151833E+04  0.25500000920E-02 0. -1.
        2   -1    0    0  501    0  0.00000000000E+00  0.00000000000E+00 -0.21115686131E+04  0.21115686131E+04  0.25500000920E-02 0.  1.
    10030    2    1    2    0    0  0.00000000000E+00  0.00000000000E+00 -0.10219534297E+04  0.32011837964E+04  0.30336758044E+04 0.  0.
        2    1    3    3  502    0  0.35763534304E+03 -0.14650258400E+04 -0.68305614370E+03  0.16555269390E+04  0.25500000920E-02 0.  1.
       -2    1    3    3    0  502 -0.35763534304E+03  0.14650258400E+04 -0.33889728604E+03  0.15456568574E+04  0.25500000920E-02 0. -1.
</event>
<event>
 5   0  0.9530268E-07  0.3254562E+04  0.7818609E-02  0.8174554E-01
       -1   -1    0    0    0  501  0.00000000000E+00  0.00000000000E+00  0.13492556066E+04  0.13492556066E+04  0.50400001928E-02 0.  1.
        1   -1    0    0  501    0  0.00000000000E+00  0.00000000000E+00 -0.19625956606E+04  0.19625956606E+04  0.50400001928E-02 0. -1.
    10030    2    1    2    0    0  0.00000000000E+00  0.00000000000E+00 -0.61334005403E+03  0.33118512672E+04  0.32545618437E+04 0.  0.
        5    1    3    3  502    0  0.13151521837E+03 -0.15313717503E+04 -0.85051700928E+03  0.17566436643E+04  0.46999998093E+01 0. -1.
       -5    1    3    3    0  502 -0.13151521837E+03  0.15313717503E+04  0.23717695525E+03  0.15552076030E+04  0.46999998093E+01 0.  1.
</event>
<event>
 5   0  0.9295663E-07  0.3230214E+04  0.7818609E-02  0.8180883E-01
        1   -1    0    0  501    0  0.00000000000E+00  0.00000000000E+00  0.13995920310E+04  0.13995920310E+04  0.50400001928E-02 0.  1.
       -1   -1    0    0    0  501  0.00000000000E+00  0.00000000000E+00 -0.18638084246E+04  0.18638084246E+04  0.50400001928E-02 0. -1.
    10030    2    1    2    0    0  0.00000000000E+00  0.00000000000E+00 -0.46421639361E+03  0.32634004556E+04  0.32302144934E+04 0.  0.
        4    1    3    3  502    0  0.22802516701E+03 -0.15464274474E+04  0.17843656773E+03  0.15733005271E+04  0.12699999809E+01 0.  1.
       -4    1    3    3    0  502 -0.22802516701E+03  0.15464274474E+04 -0.64265296135E+03  0.16900999285E+04  0.12699999809E+01 0. -1.
</event>
<event>
 5   0  0.2658600E-06  0.3202521E+04  0.7818609E-02  0.8188152E-01
       -2   -1    0    0    0  501  0.00000000000E+00  0.00000000000E+00  0.14482834704E+04  0.14482834704E+04  0.25500000920E-02 0.  1.
        2   -1    0    0  501    0  0.00000000000E+00  0.00000000000E+00 -0.17703963267E+04  0.17703963267E+04  0.25500000920E-02 0. -1.
    10030    2    1    2    0    0  0.00000000000E+00  0.00000000000E+00 -0.32211285632E+03  0.32186797971E+04  0.32025213417E+04 0.  0.
        5    1    3    3  502    0 -0.91119067365E+03 -0.73394709731E+03  0.93765044981E+03  0.14993856213E+04  0.46999998093E+01 0. -1.
       -5    1    3    3    0  502  0.91119067365E+03  0.73394709731E+03 -0.12597633061E+04  0.17192941758E+04  0.46999998093E+01 0.  1.
</event>
<event>
 5   0  0.8705956E-07  0.3277402E+04  0.7818609E-02  0.8168669E-01
       -1   -1    0    0    0  501  0.00000000000E+00  0.00000000000E+00  0.13921999391E+04  0.13921999391E+04  0.50400001928E-02 0. -1.
        1   -1    0    0  501    0  0.00000000000E+00  0.00000000000E+00 -0.19288467524E+04  0.19288467524E+04  0.50400001928E-02 0.  1.
    10030    2    1    2    0    0  0.00000000000E+00  0.00000000000E+00 -0.53664681327E+03  0.33210466916E+04  0.32774016119E+04 0.  0.
        2    1    3    3  502    0  0.34093191753E+03  0.64409837857E+03 -0.17556031659E+04  0.19008523798E+04  0.25500000920E-02 0.  1.
       -2    1    3    3    0  502 -0.34093191753E+03 -0.64409837857E+03  0.12189563526E+04  0.14201943118E+04  0.25500000920E-02 0. -1.
</event>
<event>
 5   0  0.9268670E-07  0.3341944E+04  0.7818609E-02  0.8152304E-01
        1   -1    0    0  501    0  0.00000000000E+00  0.00000000000E+00  0.16769376122E+04  0.16769376122E+04  0.50400001928E-02 0. -1.
       -1   -1    0    0    0  501  0.00000000000E+00  0.00000000000E+00 -0.16650277952E+04  0.16650277952E+04  0.50400001928E-02 0.  1.
    10030    2    1    2    0    0  0.00000000000E+00  0.00000000000E+00  0.11909816981E+02  0.33419654074E+04  0.33419441857E+04 0.  0.
        3    1    3    3  502    0 -0.13390609525E+02  0.11915976119E+04  0.11773135100E+04  0.16751570936E+04  0.10100000352E+00 0. -1.
       -3    1    3    3    0  502  0.13390609525E+02 -0.11915976119E+04 -0.11654036930E+04  0.16668083138E+04  0.10100000352E+00 0.  1.
</event>
<event>
 5   0  0.8845526E-07  0.3105164E+04  0.7818609E-02  0.8214322E-01
       -1   -1    0    0    0  501  0.00000000000E+00  0.00000000000E+00  0.14494925158E+04  0.14494925158E+04  0.50400001928E-02 0. -1.
        1   -1    0    0  501    0  0.00000000000E+00  0.00000000000E+00 -0.16630033319E+04  0.16630033319E+04  0.50400001928E-02 0.  1.
    10030    2    1    2    0    0  0.00000000000E+00  0.00000000000E+00 -0.21351081613E+03  0.31124958477E+04  0.31051640107E+04 0.  0.
        1    1    3    3  502    0  0.10835679201E+02  0.81274049595E+03  0.12191855792E+04  0.14652910981E+04  0.50400001928E-02 0. -1.
       -1    1    3    3    0  502 -0.10835679201E+02 -0.81274049595E+03 -0.14326963953E+04  0.16472047495E+04  0.50400001928E-02 0.  1.
</event>
<event>
 5   0  0.2705859E-06  0.3289981E+04  0.7818609E-02  0.8165449E-01
       -2   -1    0    0    0  501  0.00000000000E+00  0.00000000000E+00  0.10890152864E+04  0.10890152864E+04  0.25500000920E-02 0.  1.
        2   -1    0    0  501    0  0.00000000000E+00  0.00000000000E+00 -0.24848079174E+04  0.24848079174E+04  0.25500000920E-02 0. -1.
    10030    2    1    2    0    0  0.00000000000E+00  0.00000000000E+00 -0.13957926310E+04  0.35738232037E+04  0.32899810369E+04 0.  0.
        1    1    3    3  502    0 -0.29595559225E+03 -0.50298980573E+03 -0.23685731731E+04  0.24394112678E+04  0.50400001928E-02 0. -1.
       -1    1    3    3    0  502  0.29595559225E+03  0.50298980573E+03  0.97278054212E+03  0.11344119359E+04  0.50400001928E-02 0.  1.
</event>
<event>
 5   0  0.2674551E-06  0.3294995E+04  0.7818609E-02  0.8164170E-01
       -2   -1    0    0    0  501  0.00000000000E+00  0.00000000000E+00  0.15887979740E+04  0.15887979740E+04  0.25500000920E-02 0.  1.
        2   -1    0    0  501    0  0.00000000000E+00  0.00000000000E+00 -0.17083662419E+04  0.17083662419E+04  0.25500000920E-02 0. -1.
    10030    2    1    2    0    0  0.00000000000E+00  0.00000000000E+00 -0.11956826787E+03  0.32971642159E+04  0.32949954926E+04 0.  0.
        3    1    3    3  502    0  0.16196353516E+04  0.18105971993E+03  0.18171994518E+03  0.16398242110E+04  0.10100000352E+00 0.  1.
       -3    1    3    3    0  502 -0.16196353516E+04 -0.18105971993E+03 -0.30128821305E+03  0.16573400049E+04  0.10100000352E+00 0. -1.
</event>
<event>
 5   0  0.2658600E-06  0.3276624E+04  0.7818609E-02  0.8168869E-01
        2   -1    0    0  501    0  0.00000000000E+00  0.00000000000E+00  0.15627169154E+04  0.15627169154E+04  0.25500000920E-02 0. -1.
       -2   -1    0    0    0  501  0.00000000000E+00  0.00000000000E+00 -0.17175635149E+04  0.17175635149E+04  0.25500000920E-02 0.  1.
    10030    2    1    2    0    0  0.00000000000E+00  0.00000000000E+00 -0.15484659952E+03  0.32802804303E+04  0.32766236024E+04 0.  0.
        5    1    3    3  502    0  0.14224695003E+04 -0.28561386287E+03 -0.83922505143E+03  0.16761012902E+04  0.46999998093E+01 0.  1.
       -5    1    3    3    0  502 -0.14224695003E+04  0.28561386287E+03  0.68437845191E+03  0.16041791401E+04  0.46999998093E+01 0. -1.
</event>
<event>
 5   0  0.2574803E-06  0.3008785E+04  0.7818609E-02  0.8241227E-01
       -2   -1    0    0    0  501  0.00000000000E+00  0.00000000000E+00  0.12245511891E+04  0.12245511891E+04  0.25500000920E-02 0.  1.
        2   -1    0    0  501    0  0.00000000000E+00  0.00000000000E+00 -0.18481842864E+04  0.18481842864E+04  0.25500000920E-02 0. -1.
    10030    2    1    2    0    0  0.00000000000E+00  0.00000000000E+00 -0.62363309734E+03  0.30727354754E+04  0.30087846487E+04 0.  0.
        4    1    3    3  502    0  0.77199102583E+02 -0.12584235088E+04  0.52636248494E+03  0.13662534565E+04  0.12699999809E+01 0.  1.
       -4    1    3    3    0  502 -0.77199102583E+02  0.12584235088E+04 -0.11499955823E+04  0.17064820190E+04  0.12699999809E+01 0. -1.
</event>
<event>
 5   0  0.2705859E-06  0.2992178E+04  0.7818609E-02  0.8245968E-01
       -2   -1    0    0    0  501  0.00000000000E+00  0.00000000000E+00  0.16412804324E+04  0.16412804324E+04  0.25500000920E-02 0. -1.
        2   -1    0    0  501    0  0.00000000000E+00  0.00000000000E+00 -0.13637417510E+04  0.13637417510E+04  0.25500000920E-02 0.  1.
    10030    2    1    2    0    0  0.00000000000E+00  0.00000000000E+00  0.27753868143E+03  0.30050221834E+04  0.29921782372E+04 0.  0.
        1    1    3    3  502    0  0.14832538792E+04 -0.43887241289E+02 -0.52612267922E+02  0.14848354154E+04  0.50400001928E-02 0.  1.
       -1    1    3    3    0  502 -0.14832538792E+04  0.43887241289E+02  0.33015094935E+03  0.15201867680E+04  0.50400001928E-02 0. -1.
</event>
<event>
 5   0  0.8705956E-07  0.3249606E+04  0.7818609E-02  0.8175838E-01
        1   -1    0    0  501    0  0.00000000000E+00  0.00000000000E+00  0.25679459102E+04  0.25679459102E+04  0.50400001928E-02 0.  1.
       -1   -1    0    0    0  501  0.00000000000E+00  0.00000000000E+00 -0.10280529395E+04  0.10280529395E+04  0.50400001928E-02 0. -1.
    10030    2    1    2    0    0  0.00000000000E+00  0.00000000000E+00  0.15398929707E+04  0.35959988497E+04  0.32496057247E+04 0.  0.
        2    1    3    3  502    0 -0.82273893277E+03  0.54218890289E+03 -0.65971150870E+03  0.11857855762E+04  0.25500000920E-02 0. -1.
       -2    1    3    3    0  502  0.82273893277E+03 -0.54218890289E+03  0.21996044794E+04  0.24102132735E+04  0.25500000920E-02 0.  1.
</event>
<event>
 5   0  0.9268670E-07  0.3298430E+04  0.7818609E-02  0.8163295E-01
       -1   -1    0    0    0  501  0.00000000000E+00  0.00000000000E+00  0.12306937192E+04  0.12306937192E+04  0.50400001928E-02 0.  1.
        1   -1    0    0  501    0  0.00000000000E+00  0.00000000000E+00 -0.22100630257E+04  0.22100630257E+04  0.50400001928E-02 0. -1.
    10030    2    1    2    0    0  0.00000000000E+00  0.00000000000E+00 -0.97936930654E+03  0.34407567449E+04  0.32984303448E+04 0.  0.
        3    1    3    3  502    0 -0.51206326259E+03 -0.34628098457E+02  0.11452683864E+04  0.12550089949E+04  0.10100000352E+00 0.  1.
       -3    1    3    3    0  502  0.51206326259E+03  0.34628098457E+02 -0.21246376930E+04  0.21857477500E+04  0.10100000352E+00 0. -1.
</event>
<event>
 5   0  0.2674551E-06  0.3305261E+04  0.7818609E-02  0.8161558E-01
       -2   -1    0    0    0  501  0.00000000000E+00  0.00000000000E+00  0.15034540918E+04  0.15034540918E+04  0.25500000920E-02 0. -1.
        2   -1    0    0  501    0  0.00000000000E+00  0.00000000000E+00 -0.18166086888E+04  0.18166086888E+04  0.25500000920E-02 0.  1.
    10030    2    1    2    0    0  0.00000000000E+00  0.00000000000E+00 -0.31315459692E+03  0.33200627806E+04  0.33052611191E+04 0.  0.
        3    1    3    3  502    0  0.15648430783E+04 -0.52824134541E+03 -0.97877792193E+02  0.16544947419E+04  0.10100000352E+00 0.  1.
       -3    1    3    3    0  502 -0.15648430783E+04  0.52824134541E+03 -0.21527680472E+03  0.16655680387E+04  0.10100000352E+00 0. -1.
</event>
<event>
 5   0  0.2674551E-06  0.2902689E+04  0.7818609E-02  0.8272078E-01
       -2   -1    0    0    0  501  0.00000000000E+00  0.00000000000E+00  0.87054627123E+03  0.87054627124E+03  0.25500000920E-02 0. -1.
        2   -1    0    0  501    0  0.00000000000E+00  0.00000000000E+00 -0.24196309440E+04  0.24196309440E+04  0.25500000920E-02 0.  1.
    10030    2    1    2    0    0  0.00000000000E+00  0.00000000000E+00 -0.15490846728E+04  0.32901772153E+04  0.29026888887E+04 0.  0.
        3    1    3    3  502    0 -0.76930756754E+03 -0.10413538102E+03  0.61541871532E+03  0.99066569357E+03  0.10100000352E+00 0. -1.
       -3    1    3    3    0  502  0.76930756754E+03  0.10413538102E+03 -0.21645033881E+04  0.22995115217E+04  0.10100000352E+00 0.  1.
</event>
<event>
 5   0  0.9295663E-07  0.2601660E+04  0.7818609E-02  0.8367637E-01
        1   -1    0    0  501    0  0.00000000000E+00  0.00000000000E+00  0.18510543795E+04  0.18510543795E+04  0.50400001928E-02 0.  1.
       -1   -1    0    0    0  501  0.00000000000E+00  0.00000000000E+00 -0.91415968758E+03  0.91415968760E+03  0.50400001928E-02 0. -1.
    10030    2    1    2    0    0  0.00000000000E+00  0.00000000000E+00  0.93689469194E+03  0.27652140671E+04  0.26016604646E+04 0.  0.
        4    1    3    3  502    0 -0.12871240584E+04  0.97898180409E+02  0.63945069444E+03  0.14405454519E+04  0.12699999809E+01 0. -1.
       -4    1    3    3    0  502  0.12871240584E+04 -0.97898180409E+02  0.29744399750E+03  0.13246686152E+04  0.12699999809E+01 0.  1.
</event>
<event>
 5   0  0.8845526E-07  0.3257341E+04  0.7818609E-02  0.8173836E-01
        1   -1    0    0  501    0  0.00000000000E+00  0.00000000000E+00  0.18618623932E+04  0.18618623932E+04  0.50400001928E-02 0.  1.
       -1   -1    0    0    0  501  0.00000000000E+00  0.00000000000E+00 -0.14246846948E+04  0.14246846948E+04  0.50400001928E-02 0. -1.
    10030    2    1    2    0    0  0.00000000000E+00  0.00000000000E+00  0.43717769836E+03  0.32865470880E+04  0.32573405444E+04 0.  0.
        1    1    3    3  502    0 -0.81305057593E+03  0.38204035604E+01  0.16424477705E+04  0.18326757797E+04  0.50400001928E-02 0.  1.
       -1    1    3    3    0  502  0.81305057593E+03 -0.38204035604E+01 -0.12052700721E+04  0.14538713084E+04  0.50400001928E-02 0. -1.
</event>
<event>
 5   0  0.2658600E-06  0.3394614E+04  0.7818609E-02  0.8139229E-01
        2   -1    0    0  501    0  0.00000000000E+00  0.00000000000E+00  0.17797738462E+04  0.17797738462E+04  0.25500000920E-02 0.  1.
       -2   -1    0    0    0  501  0.00000000000E+00  0.00000000000E+00 -0.16186613508E+04  0.16186613508E+04  0.25500000920E-02 0. -1.
    10030    2    1    2    0    0  0.00000000000E+00  0.00000000000E+00  0.16111249540E+03  0.33984351969E+04  0.33946140504E+04 0.  0.
        5    1    3    3  502    0  0.17170688620E+03 -0.27640938170E+03  0.17482475837E+04  0.17782792539E+04  0.46999998093E+01 0.  1.
       -5    1    3    3    0  502 -0.17170688620E+03  0.27640938170E+03 -0.15871350883E+04  0.16201559430E+04  0.46999998093E+01 0. -1.
</event>
<event>
 5   0  0.9295663E-07  0.3241824E+04  0.7818609E-02  0.8177858E-01
       -1   -1    0    0    0  501  0.00000000000E+00  0.00000000000E+00  0.28064360573E+04  0.28064360573E+04  0.50400001928E-02 0.  1.
        1   -1    0    0  501    0  0.00000000000E+00  0.00000000000E+00 -0.93618960816E+03  0.93618960818E+03  0.50400001928E-02 0. -1.
    10030    2    1    2    0    0  0.00000000000E+00  0.00000000000E+00  0.18702464492E+04  0.37426256655E+04  0.32418243462E+04 0.  0.
        4    1    3    3  502    0 -0.47870926240E+03 -0.62199015634E+03  0.25724204866E+04  0.26894949499E+04  0.12699999809E+01 0.  1.
       -4    1    3    3    0  502  0.47870926240E+03  0.62199015634E+03 -0.70217403744E+03  0.10531307157E+04  0.12699999809E+01 0. -1.
</event>
<event>
 5   0  0.8845526E-07  0.2550293E+04  0.7818609E-02  0.8385284E-01
        1   -1    0    0  501    0  0.00000000000E+00  0.00000000000E+00  0.24633962393E+04  0.24633962393E+04  0.50400001928E-02 0.  1.
       -1   -1    0    0    0  501  0.00000000000E+00  0.00000000000E+00 -0.66006380786E+03  0.66006380788E+03  0.50400001928E-02 0. -1.
    10030    2    1    2    0    0  0.00000000000E+00  0.00000000000E+00  0.18033324315E+04  0.31234600472E+04  0.25502930828E+04 0.  0.
        1    1    3    3  502    0  0.77315885600E+02 -0.70350297520E+03  0.22007653605E+04  0.23117660683E+04  0.50400001928E-02 0.  1.
       -1    1    3    3    0  502 -0.77315885600E+02  0.70350297520E+03 -0.39743292908E+03  0.81169397892E+03  0.50400001928E-02 0. -1.
</event>
<event>
 5   0  0.2574803E-06  0.3342659E+04  0.7818609E-02  0.8152125E-01
       -2   -1    0    0    0  501  0.00000000000E+00  0.00000000000E+00  0.94024986340E+03  0.94024986340E+03  0.25500000920E-02 0. -1.
        2   -1    0    0  501    0  0.00000000000E+00  0.00000000000E+00 -0.29708519333E+04  0.29708519333E+04  0.25500000920E-02 0.  1.
    10030    2    1    2    0    0  0.00000000000E+00  0.00000000000E+00 -0.20306020699E+04  0.39111017967E+04  0.33426594948E+04 0.  0.
        4    1    3    3  502    0 -0.32571561632E+03 -0.17413501173E+03 -0.29225037718E+04  0.29457500869E+04  0.12699999809E+01 0.  1.
       -4    1    3    3    0  502  0.32571561632E+03  0.17413501173E+03  0.89190170189E+03  0.96535170987E+03  0.12699999809E+01 0. -1.
</event>
<event>
 5   0  0.9268670E-07  0.3327896E+04  0.7818609E-02  0.8155833E-01
        1   -1    0    0  501    0  0.00000000000E+00  0.00000000000E+00  0.12866813714E+04  0.12866813714E+04  0.50400001928E-02 0.  1.
       -1   -1    0    0    0  501  0.00000000000E+00  0.00000000000E+00 -0.21518325290E+04  0.21518325290E+04  0.50400001928E-02 0. -1.
    10030    2    1    2    0    0  0.00000000000E+00  0.00000000000E+00 -0.86515115764E+03  0.34385139004E+04  0.33278959295E+04 0.  0.
        3    1    3    3  502    0 -0.16083801034E+04  0.31413560417E+03 -0.73052699365E+03  0.17942233511E+04  0.10100000352E+00 0. -1.
       -3    1    3    3    0  502  0.16083801034E+04 -0.31413560417E+03 -0.13462416398E+03  0.16442905493E+04  0.10100000352E+00 0.  1.
</event>
<event>
 5   0  0.8845526E-07  0.2734659E+04  0.7818609E-02  0.8323846E-01
       -1   -1    0    0    0  501  0.00000000000E+00  0.00000000000E+00  0.10471996674E+04  0.10471996674E+04  0.50400001928E-02 0. -1.
        1   -1    0    0  501    0  0.00000000000E+00  0.00000000000E+00 -0.17853235357E+04  0.17853235358E+04  0.50400001928E-02 0.  1.
    10030    2    1    2    0    0  0.00000000000E+00  0.00000000000E+00 -0.73812386838E+03  0.28325232031E+04  0.27346591837E+04 0.  0.
        1    1    3    3  502    0  0.12763981967E+04  0.45522162425E+03 -0.18041472073E+03  0.13671022475E+04  0.50400001928E-02 0.  1.
       -1    1    3    3    0  502 -0.12763981967E+04 -0.45522162425E+03 -0.55770914765E+03  0.14654209556E+04  0.50400001928E-02 0. -1.
</event>
<event>
 5   0  0.8845526E-07  0.3230151E+04  0.7818609E-02  0.8180900E-01
        1   -1    0    0  501    0  0.00000000000E+00  0.00000000000E+00  0.22086333277E+04  0.22086333277E+04  0.50400001928E-02 0.  1.
       -1   -1    0    0    0  501  0.00000000000E+00  0.00000000000E+00 -0.11810326906E+04  0.11810326906E+04  0.50400001928E-02 0. -1.
    10030    2    1    2    0    0  0.00000000000E+00  0.00000000000E+00  0.10276006371E+04  0.33896660182E+04  0.32301505609E+04 0.  0.
        1    1    3    3  502    0  0.61329978057E+03  0.89348665540E+03 -0.74283918723E+03  0.13138740740E+04  0.50400001928E-02 0. -1.
       -1    1    3    3    0  502 -0.61329978057E+03 -0.89348665540E+03  0.17704398243E+04  0.20757919442E+04  0.50400001928E-02 0.  1.
</event>
<event>
 5   0  0.9530268E-07  0.2945360E+04  0.7818609E-02  0.8259508E-01
        1   -1    0    0  501    0  0.00000000000E+00  0.00000000000E+00  0.13085784915E+04  0.13085784915E+04  0.50400001928E-02 0. -1.
       -1   -1    0    0    0  501  0.00000000000E+00  0.00000000000E+00 -0.16573601184E+04  0.16573601185E+04  0.50400001928E-02 0.  1.
    10030    2    1    2    0    0  0.00000000000E+00  0.00000000000E+00 -0.34878162695E+03  0.29659386100E+04  0.29453596070E+04 0.  0.
        5    1    3    3  502    0 -0.64252593804E+03 -0.58516004283E+03 -0.13716096989E+04  0.16237570978E+04  0.46999998093E+01 0.  1.
       -5    1    3    3    0  502  0.64252593804E+03  0.58516004283E+03  0.10228280719E+04  0.13421815121E+04  0.46999998093E+01 0. -1.
</event>
<event>
 5   0  0.9530268E-07  0.3303830E+04  0.7818609E-02  0.8161921E-01
        1   -1    0    0  501    0  0.00000000000E+00  0.00000000000E+00  0.29236103336E+04  0.29236103336E+04  0.50400001928E-02 0.  1.
       -1   -1    0    0    0  501  0.00000000000E+00  0.00000000000E+00 -0.93337460269E+03  0.93337460270E+03  0.50400001928E-02 0. -1.
    10030    2    1    2    0    0  0.00000000000E+00  0.00000000000E+00  0.19902357309E+04  0.38569849363E+04  0.33038302823E+04 0.  0.
        5    1    3    3  502    0  0.17531110048E+03 -0.46950925577E+03  0.28327065916E+04  0.28767032602E+04  0.46999998093E+01 0.  1.
       -5    1    3    3    0  502 -0.17531110048E+03  0.46950925577E+03 -0.84247086074E+03  0.98028167605E+03  0.46999998093E+01 0. -1.
</event>
<event>
 5   0  0.8705956E-07  0.3266731E+04  0.7818609E-02  0.8171413E-01
        1   -1    0    0  501    0  0.00000000000E+00  0.00000000000E+00  0.22601932143E+04  0.22601932143E+04  0.50400001928E-02 0. -1.
       -1   -1    0    0    0  501  0.00000000000E+00  0.00000000000E+00 -0.11803781463E+04  0.11803781463E+04  0.50400001928E-02 0.  1.
    10030    2    1    2    0    0  0.00000000000E+00  0.00000000000E+00  0.10798150680E+04  0.34405713606E+04  0.32667308898E+04 0.  0.
        2    1    3    3  502    0 -0.68759993330E+03 -0.14568893558E+04  0.25619856237E+03  0.16312443002E+04  0.25500000920E-02 0. -1.
       -2    1    3    3    0  502  0.68759993330E+03  0.14568893558E+04  0.82361650561E+03  0.18093270605E+04  0.25500000920E-02 0.  1.
</event>
<event>
 5   0  0.8705956E-07  0.2501409E+04  0.7818609E-02  0.8402484E-01
        1   -1    0    0  501    0  0.00000000000E+00  0.00000000000E+00  0.16827712147E+04  0.16827712147E+04  0.50400001928E-02 0.  1.
       -1   -1    0    0    0  501  0.00000000000E+00  0.00000000000E+00 -0.92957450593E+03  0.92957450595E+03  0.50400001928E-02 0. -1.
    10030    2    1    2    0    0  0.00000000000E+00  0.00000000000E+00  0.75319670880E+03  0.26123457207E+04  0.25014085796E+04 0.  0.
        2    1    3    3  502    0  0.11839750192E+04 -0.31086379378E+03  0.10864968912E+03  0.12289173688E+04  0.25500000920E-02 0.  1.
       -2    1    3    3    0  502 -0.11839750192E+04  0.31086379378E+03  0.64454701967E+03  0.13834283519E+04  0.25500000920E-02 0. -1.
</event>
<event>
 5   0  0.8705956E-07  0.3300275E+04  0.7818609E-02  0.8162825E-01
        1   -1    0    0  501    0  0.00000000000E+00  0.00000000000E+00  0.18700477948E+04  0.18700477948E+04  0.50400001928E-02 0.  1.
       -1   -1    0    0    0  501  0.00000000000E+00  0.00000000000E+00 -0.14560876153E+04  0.14560876153E+04  0.50400001928E-02 0. -1.
    10030    2    1    2    0    0  0.00000000000E+00  0.00000000000E+00  0.41396017946E+03  0.33261354102E+04  0.33002747971E+04 0.  0.
        2    1    3    3  502    0 -0.60277885392E+02  0.42631261185E+03 -0.13984798975E+04  0.14632572877E+04  0.25500000920E-02 0. -1.
       -2    1    3    3    0  502  0.60277885392E+02 -0.42631261185E+03  0.18124400769E+04  0.18628781224E+04  0.25500000920E-02 0.  1.
</event>
<event>
 5   0  0.2658600E-06  0.3308395E+04  0.7818609E-02  0.8160763E-01
       -2   -1    0    0    0  501  0.00000000000E+00  0.00000000000E+00  0.11830095029E+04  0.11830095029E+04  0.25500000920E-02 0.  1.
        2   -1    0    0  501    0  0.00000000000E+00  0.00000000000E+00 -0.23130579150E+04  0.23130579150E+04  0.25500000920E-02 0. -1.
    10030    2    1    2    0    0  0.00000000000E+00  0.00000000000E+00 -0.11300484121E+04  0.34960674179E+04  0.33083950756E+04 0.  0.
        5    1    3    3  502    0 -0.13341423283E+04  0.65639345816E+03 -0.13311027301E+04  0.19956564565E+04  0.46999998093E+01 0. -1.
       -5    1    3    3    0  502  0.13341423283E+04 -0.65639345816E+03  0.20105431801E+03  0.15004109614E+04  0.46999998093E+01 0.  1.
</event>
<event>
 5   0  0.8845526E-07  0.2977434E+04  0.7818609E-02  0.8250204E-01
        1   -1    0    0  501    0  0.00000000000E+00  0.00000000000E+00  0.13073668647E+04  0.13073668647E+04  0.50400001928E-02 0. -1.
       -1   -1    0    0    0  501  0.00000000000E+00  0.00000000000E+00 -0.16952234938E+04  0.16952234938E+04  0.50400001928E-02 0.  1.
    10030    2    1    2    0    0  0.00000000000E+00  0.00000000000E+00 -0.38785662905E+03  0.30025903585E+04  0.29774344823E+04 0.  0.
        1    1    3    3  502    0 -0.13362582162E+04 -0.63313937008E+03 -0.36809400424E+03  0.15237928593E+04  0.50400001928E-02 0.  1.
       -1    1    3    3    0  502  0.13362582162E+04  0.63313937008E+03 -0.19762624816E+02  0.14787974992E+04  0.50400001928E-02 0. -1.
</event>
<event>
 5   0  0.2674551E-06  0.3204817E+04  0.7818609E-02  0.8187546E-01
        2   -1    0    0  501    0  0.00000000000E+00  0.00000000000E+00  0.19991204030E+04  0.19991204030E+04  0.25500000920E-02 0.  1.
       -2   -1    0    0    0  501  0.00000000000E+00  0.00000000000E+00 -0.12844214299E+04  0.12844214299E+04  0.25500000920E-02 0. -1.
    10030    2    1    2    0    0  0.00000000000E+00  0.00000000000E+00  0.71469897313E+03  0.32835418329E+04  0.32048170534E+04 0.  0.
        3    1    3    3  502    0  0.79440703919E+03  0.11050166450E+04 -0.50934292232E+03  0.14531257868E+04  0.10100000352E+00 0.  1.
       -3    1    3    3    0  502 -0.79440703919E+03 -0.11050166450E+04  0.12240418954E+04  0.18304160460E+04  0.10100000352E+00 0. -1.
</event>
<event>
 5   0  0.9295663E-07  0.3331712E+04  0.7818609E-02  0.8154873E-01
       -1   -1    0    0    0  501  0.00000000000E+00  0.00000000000E+00  0.13063149653E+04  0.13063149653E+04  0.50400001928E-02 0.  1.
        1   -1    0    0  501    0  0.00000000000E+00  0.00000000000E+00 -0.21243547600E+04  0.21243547600E+04  0.50400001928E-02 0. -1.
    10030    2    1    2    0    0  0.00000000000E+00  0.00000000000E+00 -0.81803979471E+03  0.34306697253E+04  0.33317121212E+04 0.  0.
        4    1    3    3  502    0 -0.84124689784E+03 -0.12241499950E+04 -0.11856329601E+04  0.19005174775E+04  0.12699999809E+01 0. -1.
       -4    1    3    3    0  502  0.84124689784E+03  0.12241499950E+04  0.36759316537E+03  0.15301522478E+04  0.12699999809E+01 0.  1.
</event>
<event>
 5   0  0.2574803E-06  0.3280007E+04  0.7818609E-02  0.8168001E-01
       -2   -1    0    0    0  501  0.00000000000E+00  0.00000000000E+00  0.15592431763E+04  0.15592431763E+04  0.25500000920E-02 0. -1.
        2   -1    0    0  501    0  0.00000000000E+00  0.00000000000E+00 -0.17249466482E+04  0.17249466482E+04  0.25500000920E-02 0.  1.
    10030    2    1    2    0    0  0.00000000000E+00  0.00000000000E+00 -0.16570347193E+03  0.32841898245E+04  0.32800068845E+04 0.  0.
        4    1    3    3  502    0 -0.83849423045E+03 -0.50373356826E+03  0.12351816517E+04  0.15755936684E+04  0.12699999809E+01 0. -1.
       -4    1    3    3    0  502  0.83849423045E+03  0.50373356826E+03 -0.14008851236E+04  0.17085961561E+04  0.12699999809E+01 0.  1.
</event>
<event>
 5   0  0.2705859E-06  0.3326038E+04  0.7818609E-02  0.8156302E-01
        2   -1    0    0  501    0  0.00000000000E+00  0.00000000000E+00  0.23514675841E+04  0.23514675841E+04  0.25500000920E-02 0.  1.
       -2   -1    0    0    0  501  0.00000000000E+00  0.00000000000E+00 -0.11761299658E+04  0.11761299658E+04  0.25500000920E-02 0. -1.
    10030    2    1    2    0    0  0.00000000000E+00  0.00000000000E+00  0.11753376183E+04  0.35275975499E+04  0.33260375760E+04 0.  0.
        1    1    3    3  502    0 -0.14949391548E+04 -0.15509235217E+03 -0.16732299200E+03  0.15122478957E+04  0.50400001928E-02 0. -1.
       -1    1    3    3    0  502  0.14949391548E+04  0.15509235217E+03  0.13426606103E+04  0.20153496542E+04  0.50400001928E-02 0.  1.
</event>
<event>
 5   0  0.9268670E-07  0.3300327E+04  0.7818609E-02  0.8162812E-01
        1   -1    0    0  501    0  0.00000000000E+00  0.00000000000E+00  0.90570146451E+03  0.90570146452E+03  0.50400001928E-02 0. -1.
       -1   -1    0    0    0  501  0.00000000000E+00  0.00000000000E+00 -0.30065527879E+04  0.30065527879E+04  0.50400001928E-02 0.  1.
    10030    2    1    2    0    0  0.00000000000E+00  0.00000000000E+00 -0.21008513234E+04  0.39122542525E+04  0.33003268100E+04 0.  0.
        3    1    3    3  502    0 -0.89218031433E+02  0.79039332008E+03 -0.27643057692E+04  0.28764679476E+04  0.10100000352E+00 0.  1.
       -3    1    3    3    0  502  0.89218031433E+02 -0.79039332008E+03  0.66345444578E+03  0.10357863049E+04  0.10100000352E+00 0. -1.
</event>
<event>
 5   0  0.2674551E-06  0.3303848E+04  0.7818609E-02  0.8161917E-01
        2   -1    0    0  501    0  0.00000000000E+00  0.00000000000E+00  0.19067155952E+04  0.19067155952E+04  0.25500000920E-02 0.  1.
       -2   -1    0    0    0  501  0.00000000000E+00  0.00000000000E+00 -0.14311798021E+04  0.14311798021E+04  0.25500000920E-02 0. -1.
    10030    2    1    2    0    0  0.00000000000E+00  0.00000000000E+00  0.47553579312E+03  0.33378953972E+04  0.33038479675E+04 0.  0.
        3    1    3    3  502    0  0.25130867721E+03 -0.15431835015E+04  0.77644304817E+03  0.17456904616E+04  0.10100000352E+00 0.  1.
       -3    1    3    3    0  502 -0.25130867721E+03  0.15431835015E+04 -0.30090725505E+03  0.15922049356E+04  0.10100000352E+00 0. -1.
</event>
<event>
 5   0  0.9295663E-07  0.3356537E+04  0.7818609E-02  0.8148657E-01
       -1   -1    0    0    0  501  0.00000000000E+00  0.00000000000E+00  0.17554998336E+04  0.17554998336E+04  0.50400001928E-02 0.  1.
        1   -1    0    0  501    0  0.00000000000E+00  0.00000000000E+00 -0.16044350620E+04  0.16044350620E+04  0.50400001928E-02 0. -1.
    10030    2    1    2    0    0  0.00000000000E+00  0.00000000000E+00  0.15106477165E+03  0.33599348956E+04  0.33565371945E+04 0.  0.
        4    1    3    3  502    0 -0.12900811893E+03  0.13180108044E+03  0.17453244362E+04  0.17550423414E+04  0.12699999809E+01 0.  1.
       -4    1    3    3    0  502  0.12900811893E+03 -0.13180108044E+03 -0.15942596646E+04  0.16048925542E+04  0.12699999809E+01 0. -1.
</event>
<event>
 5   0  0.2614212E-06  0.3206390E+04  0.7818609E-02  0.8187132E-01
       -2   -1    0    0    0  501  0.00000000000E+00  0.00000000000E+00  0.17217654153E+04  0.17217654153E+04  0.25500000920E-02 0. -1.
        2   -1    0    0  501    0  0.00000000000E+00  0.00000000000E+00 -0.14927897943E+04  0.14927897943E+04  0.25500000920E-02 0.  1.
    10030    2    1    2    0    0  0.00000000000E+00  0.00000000000E+00  0.22897562106E+03  0.32145552096E+04  0.32063897705E+04 0.  0.
        2    1    3    3  502    0  0.15131317454E+04 -0.52052181497E+03  0.21334521680E+03  0.16143193056E+04  0.25500000920E-02 0.  1.
       -2    1    3    3    0  502 -0.15131317454E+04  0.52052181497E+03  0.15630404257E+02  0.16002359040E+04  0.25500000920E-02 0. -1.
</event>
<event>
 5   0  0.9295663E-07  0.3321051E+04  0.7818609E-02  0.8157560E-01
       -1   -1    0    0    0  501  0.00000000000E+00  0.00000000000E+00  0.13984046065E+04  0.13984046065E+04  0.50400001928E-02 0.  1.
        1   -1    0    0  501    0  0.00000000000E+00  0.00000000000E+00 -0.19717789662E+04  0.19717789662E+04  0.50400001928E-02 0. -1.
    10030    2    1    2    0    0  0.00000000000E+00  0.00000000000E+00 -0.57337435963E+03  0.33701835727E+04  0.33210509116E+04 0.  0.
        4    1    3    3  502    0  0.52791913605E+03 -0.83564920031E+03  0.10673446887E+04  0.14547283243E+04  0.12699999809E+01 0.  1.
       -4    1    3    3    0  502 -0.52791913605E+03  0.83564920031E+03 -0.16407190483E+04  0.19154552484E+04  0.12699999809E+01 0. -1.
</event>
<event>
 5   0  0.9295663E-07  0.2394645E+04  0.7818609E-02  0.8441511E-01
       -1   -1    0    0    0  501  0.00000000000E+00  0.00000000000E+00  0.94468957396E+03  0.94468957397E+03  0.50400001928E-02 0. -1.
        1   -1    0    0  501    0  0.00000000000E+00  0.00000000000E+00 -0.15175157123E+04  0.15175157123E+04  0.50400001928E-02 0.  1.
    10030    2    1    2    0    0  0.00000000000E+00  0.00000000000E+00 -0.57282613832E+03  0.24622052863E+04  0.23946450858E+04 0.  0.
        4    1    3    3  502    0 -0.27196124933E+03 -0.82882731311E+03 -0.11297120177E+04  0.14272941154E+04  0.12699999809E+01 0.  1.
       -4    1    3    3    0  502  0.27196124933E+03  0.82882731311E+03  0.55688587933E+03  0.10349111709E+04  0.12699999809E+01 0. -1.
</event>
<event>
 5   0  0.8705956E-07  0.3299194E+04  0.7818609E-02  0.8163101E-01
        1   -1    0    0  501    0  0.00000000000E+00  0.00000000000E+00  0.12951075017E+04  0.12951075017E+04  0.50400001928E-02 0. -1.
       -1   -1    0    0    0  501  0.00000000000E+00  0.00000000000E+00 -0.21011150529E+04  0.21011150529E+04  0.50400001928E-02 0.  1.
    10030    2    1    2    0    0  0.00000000000E+00  0.00000000000E+00 -0.80600755116E+03  0.33962225546E+04  0.32991937603E+04 0.  0.
        2    1    3    3  502    0 -0.50943890944E+02  0.81920889175E+03  0.10699775448E+04  0.13485364047E+04  0.25500000920E-02 0. -1.
       -2    1    3    3    0  502  0.50943890944E+02 -0.81920889175E+03 -0.18759850960E+04  0.20476861499E+04  0.25500000920E-02 0.  1.
</event>
<event>
 5   0  0.2614212E-06  0.3324925E+04  0.7818609E-02  0.8156582E-01
        2   -1    0    0  501    0  0.00000000000E+00  0.00000000000E+00  0.22424738369E+04  0.22424738369E+04  0.25500000920E-02 0. -1.
       -2   -1    0    0    0  501  0.00000000000E+00  0.00000000000E+00 -0.12324698645E+04  0.12324698645E+04  0.25500000920E-02 0.  1.
    10030    2    1    2    0    0  0.00000000000E+00  0.00000000000E+00  0.10100039724E+04  0.34749437015E+04  0.33249249171E+04 0.  0.
        2    1    3    3  502    0  0.51193044937E+03  0.78635231738E+03  0.19392770523E+04  0.21543486806E+04  0.25500000920E-02 0. -1.
       -2    1    3    3    0  502 -0.51193044937E+03 -0.78635231738E+03 -0.92927307992E+03  0.13205950209E+04  0.25500000920E-02 0.  1.
</event>
<event>
 5   0  0.2705859E-06  0.3318246E+04  0.7818609E-02  0.8158268E-01
       -2   -1    0    0    0  501  0.00000000000E+00  0.00000000000E+00  0.98304380641E+03  0.98304380642E+03  0.25500000920E-02 0. -1.
        2   -1    0    0  501    0  0.00000000000E+00  0.00000000000E+00 -0.28001691818E+04  0.28001691818E+04  0.25500000920E-02 0.  1.
    10030    2    1    2    0    0  0.00000000000E+00  0.00000000000E+00 -0.18171253753E+04  0.37832129882E+04  0.33182459047E+04 0.  0.
        1    1    3    3  502    0 -0.44967701037E+03 -0.13903743383E+04 -0.18043687484E+04  0.23218735526E+04  0.50400001928E-02 0.  1.
       -1    1    3    3    0  502  0.44967701037E+03  0.13903743383E+04 -0.12756626964E+02  0.14613394355E+04  0.50400001928E-02 0. -1.
</event>
<event>
 5   0  0.8520125E-07  0.3289027E+04  0.7818609E-02  0.8165693E-01
       -4   -1    0    0    0  501  0.00000000000E+00  0.00000000000E+00  0.17142802065E+04  0.17142806769E+04  0.12699999809E+01 0.  1.
        4   -1    0    0  501    0  0.00000000000E+00  0.00000000000E+00 -0.15775848632E+04  0.15775853744E+04  0.12699999809E+01 0. -1.
    10030    2    1    2    0    0  0.00000000000E+00  0.00000000000E+00  0.13669534334E+03  0.32918660513E+04  0.32890266771E+04 0.  0.
        4    1    3    3  502    0  0.84854459794E+03  0.11957562041E+04 -0.67698418635E+03  0.16149829831E+04  0.12699999809E+01 0. -1.
       -4    1    3    3    0  502 -0.84854459794E+03 -0.11957562041E+04  0.81367952968E+03  0.16768830682E+04  0.12699999809E+01 0.  1.
</event>
<event>
 5   0  0.2705859E-06  0.3327843E+04  0.7818609E-02  0.8155847E-01
       -2   -1    0    0    0  501  0.00000000000E+00  0.00000000000E+00  0.19385966889E+04  0.19385966889E+04  0.25500000920E-02 0.  1.
        2   -1    0    0  501    0  0.00000000000E+00  0.00000000000E+00 -0.14281641116E+04  0.14281641116E+04  0.25500000920E-02 0. -1.
    10030    2    1    2    0    0  0.00000000000E+00  0.00000000000E+00  0.51043257733E+03  0.33667608005E+04  0.33278426753E+04 0.  0.
        1    1    3    3  502    0  0.89152535435E+03 -0.45864404161E+03 -0.10882679563E+04  0.14796955630E+04  0.50400001928E-02 0. -1.
       -1    1    3    3    0  502 -0.89152535435E+03  0.45864404161E+03  0.15987005336E+04  0.18870652375E+04  0.50400001928E-02 0.  1.
</event>
<event>
 5   0  0.8845526E-07  0.3209679E+04  0.7818609E-02  0.8186266E-01
       -1   -1    0    0    0  501  0.00000000000E+00  0.00000000000E+00  0.13484888111E+04  0.13484888111E+04  0.50400001928E-02 0.  1.
        1   -1    0    0  501    0  0.00000000000E+00  0.00000000000E+00 -0.19099226740E+04  0.19099226740E+04  0.50400001928E-02 0. -1.
    10030    2    1    2    0    0  0.00000000000E+00  0.00000000000E+00 -0.56143386285E+03  0.32584114851E+04  0.32096787104E+04 0.  0.
        1    1    3    3  502    0 -0.91680312358E+03 -0.12659008602E+04  0.88782374103E+02  0.15655399277E+04  0.50400001928E-02 0.  1.
       -1    1    3    3    0  502  0.91680312358E+03  0.12659008602E+04 -0.65021623695E+03  0.16928715574E+04  0.50400001928E-02 0. -1.
</event>
<event>
 5   0  0.2658600E-06  0.3268019E+04  0.7818609E-02  0.8171081E-01
        2   -1    0    0  501    0  0.00000000000E+00  0.00000000000E+00  0.21322344269E+04  0.21322344269E+04  0.25500000920E-02 0. -1.
       -2   -1    0    0    0  501  0.00000000000E+00  0.00000000000E+00 -0.12522014950E+04  0.12522014950E+04  0.25500000920E-02 0.  1.
    10030    2    1    2    0    0  0.00000000000E+00  0.00000000000E+00  0.88003293197E+03  0.33844359219E+04  0.32680190557E+04 0.  0.
        5    1    3    3  502    0 -0.66771299931E+03 -0.13648494611E+04  0.10625201338E+04  0.18540835541E+04  0.46999998093E+01 0. -1.
       -5    1    3    3    0  502  0.66771299931E+03  0.13648494611E+04 -0.18248720178E+03  0.15303523678E+04  0.46999998093E+01 0.  1.
</event>
<event>
 5   0  0.2574803E-06  0.3547341E+04  0.7818609E-02  0.8102662E-01
        2   -1    0    0  501    0  0.00000000000E+00  0.00000000000E+00  0.24140939724E+04  0.24140939724E+04  0.25500000920E-02 0.  1.
       -2   -1    0    0    0  501  0.00000000000E+00  0.00000000000E+00 -0.13031417934E+04  0.13031417934E+04  0.25500000920E-02 0. -1.
    10030    2    1    2    0    0  0.00000000000E+00  0.00000000000E+00  0.11109521790E+04  0.37172357659E+04  0.35473408343E+04 0.  0.
        4    1    3    3  502    0 -0.48969763545E+03  0.14582682901E+04 -0.36973442004E+03  0.15821047166E+04  0.12699999809E+01 0. -1.
       -4    1    3    3    0  502  0.48969763545E+03 -0.14582682901E+04  0.14806865991E+04  0.21351310493E+04  0.12699999809E+01 0.  1.
</event>
<event>
 5   0  0.2574803E-06  0.3285592E+04  0.7818609E-02  0.8166571E-01
        2   -1    0    0  501    0  0.00000000000E+00  0.00000000000E+00  0.14315695566E+04  0.14315695566E+04  0.25500000920E-02 0.  1.
       -2   -1    0    0    0  501  0.00000000000E+00  0.00000000000E+00 -0.18851885583E+04  0.18851885583E+04  0.25500000920E-02 0. -1.
    10030    2    1    2    0    0  0.00000000000E+00  0.00000000000E+00 -0.45361900173E+03  0.33167581149E+04  0.32855919092E+04 0.  0.
        4    1    3    3  502    0 -0.11188483322E+04 -0.11047789269E+04  0.25353905244E+03  0.15926838142E+04  0.12699999809E+01 0.  1.
       -4    1    3    3    0  502  0.11188483322E+04  0.11047789269E+04 -0.70715805417E+03  0.17240743007E+04  0.12699999809E+01 0. -1.
</event>
<event>
 5   0  0.8705956E-07  0.3236564E+04  0.7818609E-02  0.8179227E-01
       -1   -1    0    0    0  501  0.00000000000E+00  0.00000000000E+00  0.11551354780E+04  0.11551354780E+04  0.50400001928E-02 0.  1.
        1   -1    0    0  501    0  0.00000000000E+00  0.00000000000E+00 -0.22671244041E+04  0.22671244041E+04  0.50400001928E-02 0. -1.
    10030    2    1    2    0    0  0.00000000000E+00  0.00000000000E+00 -0.11119889261E+04  0.34222598821E+04  0.32365635061E+04 0.  0.
        2    1    3    3  502    0 -0.14850055896E+04 -0.37462866616E+01 -0.12359941628E+04  0.19320810558E+04  0.25500000920E-02 0. -1.
       -2    1    3    3    0  502  0.14850055896E+04  0.37462866616E+01  0.12400523673E+03  0.14901788263E+04  0.25500000920E-02 0.  1.
</event>
<event>
 5   0  0.9268670E-07  0.3345854E+04  0.7818609E-02  0.8151325E-01
       -1   -1    0    0    0  501  0.00000000000E+00  0.00000000000E+00  0.20945035221E+04  0.20945035221E+04  0.50400001928E-02 0.  1.
        1   -1    0    0  501    0  0.00000000000E+00  0.00000000000E+00 -0.13362044638E+04  0.13362044638E+04  0.50400001928E-02 0. -1.
    10030    2    1    2    0    0  0.00000000000E+00  0.00000000000E+00  0.75829905831E+03  0.34307079859E+04  0.33458541245E+04 0.  0.
        3    1    3    3  502    0  0.42764606481E+03 -0.69287201078E+03  0.18776267500E+04  0.20465666377E+04  0.10100000352E+00 0.  1.
       -3    1    3    3    0  502 -0.42764606481E+03  0.69287201078E+03 -0.11193276917E+04  0.13841413482E+04  0.10100000352E+00 0. -1.
</event>
<event>
 5   0  0.9530268E-07  0.3306189E+04  0.7818609E-02  0.8161322E-01
       -1   -1    0    0    0  501  0.00000000000E+00  0.00000000000E+00  0.10883787530E+04  0.10883787531E+04  0.50400001928E-02 0. -1.
        1   -1    0    0  501    0  0.00000000000E+00  0.00000000000E+00 -0.25108179033E+04  0.25108179033E+04  0.50400001928E-02 0.  1.
    10030    2    1    2    0    0  0.00000000000E+00  0.00000000000E+00 -0.14224391502E+04  0.35991966563E+04  0.33061886569E+04 0.  0.
        5    1    3    3  502    0 -0.25988021605E+03 -0.12002659962E+04  0.49343169854E+03  0.13235078842E+04  0.46999998093E+01 0. -1.
       -5    1    3    3    0  502  0.25988021605E+03  0.12002659962E+04 -0.19158708488E+04  0.22756887721E+04  0.46999998093E+01 0.  1.
</event>
<event>
 5   0  0.2574803E-06  0.3332281E+04  0.7818609E-02  0.8154730E-01
       -2   -1    0    0    0  501  0.00000000000E+00  0.00000000000E+00  0.96980812273E+03  0.96980812274E+03  0.25500000920E-02 0. -1.
        2   -1    0    0  501    0  0.00000000000E+00  0.00000000000E+00 -0.28624476503E+04  0.28624476503E+04  0.25500000920E-02 0.  1.
    10030    2    1    2    0    0  0.00000000000E+00  0.00000000000E+00 -0.18926395276E+04  0.38322557731E+04  0.33322814900E+04 0.  0.
        4    1    3    3  502    0 -0.35145434748E+03 -0.15922008728E+04 -0.55227451148E+03  0.17215204114E+04  0.12699999809E+01 0.  1.
       -4    1    3    3    0  502  0.35145434748E+03  0.15922008728E+04 -0.13403650161E+04  0.21107353617E+04  0.12699999809E+01 0. -1.
</event>
<event>
 5   0  0.2658600E-06  0.2521803E+04  0.7818609E-02  0.8395259E-01
       -2   -1    0    0    0  501  0.00000000000E+00  0.00000000000E+00  0.14923287516E+04  0.14923287516E+04  0.25500000920E-02 0.  1.
        2   -1    0    0  501    0  0.00000000000E+00  0.00000000000E+00 -0.10653632428E+04  0.10653632428E+04  0.25500000920E-02 0. -1.
    10030    2    1    2    0    0  0.00000000000E+00  0.00000000000E+00  0.42696550885E+03  0.25576919944E+04  0.25218026871E+04 0.  0.
        5    1    3    3  502    0  0.11588187952E+04 -0.49684438910E+03  0.20170887967E+03  0.12768805383E+04  0.46999998093E+01 0. -1.
       -5    1    3    3    0  502 -0.11588187952E+04  0.49684438910E+03  0.22525662918E+03  0.12808114561E+04  0.46999998093E+01 0.  1.
</event>
<event>
 5   0  0.2705859E-06  0.3331179E+04  0.7818609E-02  0.8155007E-01
        2   -1    0    0  501    0  0.00000000000E+00  0.00000000000E+00  0.25070283780E+04  0.25070283780E+04  0.25500000920E-02 0.  1.
       -2   -1    0    0    0  501  0.00000000000E+00  0.00000000000E+00 -0.11065643729E+04  0.11065643729E+04  0.25500000920E-02 0. -1.
    10030    2    1    2    0    0  0.00000000000E+00  0.00000000000E+00  0.14004640051E+04  0.36135927509E+04  0.33311789414E+04 0.  0.
        1    1    3    3  502    0  0.13129942310E+03  0.25193180017E+03  0.24805519181E+04  0.24967673078E+04  0.50400001928E-02 0.  1.
       -1    1    3    3    0  502 -0.13129942310E+03 -0.25193180017E+03 -0.10800879131E+04  0.11168254431E+04  0.50400001928E-02 0. -1.
</event>
<event>
 5   0  0.2705859E-06  0.3279413E+04  0.7818609E-02  0.8168154E-01
       -2   -1    0    0    0  501  0.00000000000E+00  0.00000000000E+00  0.11635953459E+04  0.11635953459E+04  0.25500000920E-02 0.  1.
        2   -1    0    0  501    0  0.00000000000E+00  0.00000000000E+00 -0.23106295816E+04  0.23106295816E+04  0.25500000920E-02 0. -1.
    10030    2    1    2    0    0  0.00000000000E+00  0.00000000000E+00 -0.11470342357E+04  0.34742249275E+04  0.32794132568E+04 0.  0.
        1    1    3    3  502    0 -0.10983557153E+04 -0.10203874062E+04 -0.12770941443E+04  0.19694022416E+04  0.50400001928E-02 0. -1.
       -1    1    3    3    0  502  0.10983557153E+04  0.10203874062E+04  0.13005990861E+03  0.15048226858E+04  0.50400001928E-02 0.  1.
</event>
<event>
 5   0  0.8520125E-07  0.3272777E+04  0.7818609E-02  0.8169857E-01
       -3   -1    0    0    0  501  0.00000000000E+00  0.00000000000E+00  0.22333554530E+04  0.22333554553E+04  0.10100000352E+00 0.  1.
        3   -1    0    0  501    0  0.00000000000E+00  0.00000000000E+00 -0.11989886848E+04  0.11989886890E+04  0.10100000352E+00 0. -1.
    10030    2    1    2    0    0  0.00000000000E+00  0.00000000000E+00  0.10343667682E+04  0.34323441443E+04  0.32727773700E+04 0.  0.
        3    1    3    3  502    0  0.36411059985E+03 -0.11442904560E+04  0.16830445354E+04  0.20675144727E+04  0.10100000352E+00 0.  1.
       -3    1    3    3    0  502 -0.36411059985E+03  0.11442904560E+04 -0.64867776716E+03  0.13648296716E+04  0.10100000352E+00 0. -1.
</event>
<event>
 5   0  0.8520125E-07  0.3062636E+04  0.7818609E-02  0.8226068E-01
        3   -1    0    0  501    0  0.00000000000E+00  0.00000000000E+00  0.17833241334E+04  0.17833241362E+04  0.10100000352E+00 0. -1.
       -3   -1    0    0    0  501  0.00000000000E+00  0.00000000000E+00 -0.13149233037E+04  0.13149233075E+04  0.10100000352E+00 0.  1.
    10030    2    1    2    0    0  0.00000000000E+00  0.00000000000E+00  0.46840082970E+03  0.30982474437E+04  0.30626357742E+04 0.  0.
        3    1    3    3  502    0 -0.91620228629E+03 -0.11445880432E+04  0.68141089059E+03  0.16167341248E+04  0.10100000352E+00 0. -1.
       -3    1    3    3    0  502  0.91620228629E+03  0.11445880432E+04 -0.21301006088E+03  0.14815133190E+04  0.10100000352E+00 0.  1.
</event>
<event>
 5   0  0.2574803E-06  0.3311957E+04  0.7818609E-02  0.8159859E-01
        2   -1    0    0  501    0  0.00000000000E+00  0.00000000000E+00  0.17004224097E+04  0.17004224097E+04  0.25500000920E-02 0. -1.
       -2   -1    0    0    0  501  0.00000000000E+00  0.00000000000E+00 -0.16126966108E+04  0.16126966108E+04  0.25500000920E-02 0.  1.
    10030    2    1    2    0    0  0.00000000000E+00  0.00000000000E+00  0.87725798864E+02  0.33131190205E+04  0.33119574013E+04 0.  0.
        4    1    3    3  502    0  0.16115869018E+04 -0.28553779611E+03 -0.20825658423E+03  0.16498838119E+04  0.12699999809E+01 0. -1.
       -4    1    3    3    0  502 -0.16115869018E+04  0.28553779611E+03  0.29598238310E+03  0.16632352086E+04  0.12699999809E+01 0.  1.
</event>
<event>
 5   0  0.9295663E-07  0.3286023E+04  0.7818609E-02  0.8166461E-01
       -1   -1    0    0    0  501  0.00000000000E+00  0.00000000000E+00  0.20752905446E+04  0.20752905446E+04  0.50400001928E-02 0.  1.
        1   -1    0    0  501    0  0.00000000000E+00  0.00000000000E+00 -0.13007750251E+04  0.13007750251E+04  0.50400001928E-02 0. -1.
    10030    2    1    2    0    0  0.00000000000E+00  0.00000000000E+00  0.77451551952E+03  0.33760655697E+04  0.32860225868E+04 0.  0.
        4    1    3    3  502    0 -0.15411688198E+04  0.55454438504E+03  0.52028027548E+03  0.17185499655E+04  0.12699999809E+01 0. -1.
       -4    1    3    3    0  502  0.15411688198E+04 -0.55454438504E+03  0.25423524403E+03  0.16575156042E+04  0.12699999809E+01 0.  1.
</event>
<event>
 5   0  0.2574803E-06  0.3302032E+04  0.7818609E-02  0.8162378E-01
        2   -1    0    0  501    0  0.00000000000E+00  0.00000000000E+00  0.24738406344E+04  0.24738406344E+04  0.25500000920E-02 0. -1.
       -2   -1    0    0    0  501  0.00000000000E+00  0.00000000000E+00 -0.11018714184E+04  0.11018714184E+04  0.25500000920E-02 0.  1.
    10030    2    1    2    0    0  0.00000000000E+00  0.00000000000E+00  0.13719692160E+04  0.35757120529E+04  0.33020322765E+04 0.  0.
        4    1    3    3  502    0  0.11325883296E+04 -0.67036413188E+03 -0.39348564540E+03  0.13736727993E+04  0.12699999809E+01 0.  1.
       -4    1    3    3    0  502 -0.11325883296E+04  0.67036413188E+03  0.17654548614E+04  0.22020392535E+04  0.12699999809E+01 0. -1.
</event>
<event>
 5   0  0.9268670E-07  0.2837620E+04  0.7818609E-02  0.8291683E-01
        1   -1    0    0  501    0  0.00000000000E+00  0.00000000000E+00  0.12680128213E+04  0.12680128213E+04  0.50400001928E-02 0. -1.
       -1   -1    0    0    0  501  0.00000000000E+00  0.00000000000E+00 -0.15875402889E+04  0.15875402889E+04  0.50400001928E-02 0.  1.
    10030    2    1    2    0    0  0.00000000000E+00  0.00000000000E+00 -0.31952746764E+03  0.28555531103E+04  0.28376197354E+04 0.  0.
        3    1    3    3  502    0  0.99708342642E+02 -0.46662309432E+03  0.11848477796E+04  0.12773187295E+04  0.10100000352E+00 0. -1.
       -3    1    3    3    0  502 -0.99708342642E+02  0.46662309432E+03 -0.15043752473E+04  0.15782343807E+04  0.10100000352E+00 0.  1.
</event>
<event>
 5   0  0.9295663E-07  0.3145990E+04  0.7818609E-02  0.8203229E-01
        1   -1    0    0  501    0  0.00000000000E+00  0.00000000000E+00  0.19348754610E+04  0.19348754611E+04  0.50400001928E-02 0.  1.
       -1   -1    0    0    0  501  0.00000000000E+00  0.00000000000E+00 -0.12787971380E+04  0.12787971380E+04  0.50400001928E-02 0. -1.
    10030    2    1    2    0    0  0.00000000000E+00  0.00000000000E+00  0.65607832305E+03  0.32136725991E+04  0.31459899567E+04 0.  0.
        4    1    3    3  502    0  0.84389953436E+02  0.72604676611E+03 -0.10947819935E+04  0.13163642341E+04  0.12699999809E+01 0. -1.
       -4    1    3    3    0  502 -0.84389953436E+02 -0.72604676611E+03  0.17508603165E+04  0.18973083649E+04  0.12699999809E+01 0.  1.
</event>
<event>
 5   0  0.8705956E-07  0.3278638E+04  0.7818609E-02  0.8168352E-01
       -1   -1    0    0    0  501  0.00000000000E+00  0.00000000000E+00  0.15753068031E+04  0.15753068031E+04  0.50400001928E-02 0.  1.
        1   -1    0    0  501    0  0.00000000000E+00  0.00000000000E+00 -0.17059318773E+04  0.17059318773E+04  0.50400001928E-02 0. -1.
    10030    2    1    2    0    0  0.00000000000E+00  0.00000000000E+00 -0.13062507416E+03  0.32812386804E+04  0.32786375780E+04 0.  0.
        2    1    3    3  502    0 -0.93391384021E+03  0.12784028947E+04  0.36029778848E+03  0.16236759278E+04  0.25500000920E-02 0. -1.
       -2    1    3    3    0  502  0.93391384021E+03 -0.12784028947E+04 -0.49092286264E+03  0.16575627527E+04  0.25500000920E-02 0.  1.
</event>
<event>
 5   0  0.2705859E-06  0.3257615E+04  0.7818609E-02  0.8173765E-01
       -2   -1    0    0    0  501  0.00000000000E+00  0.00000000000E+00  0.14107935353E+04  0.14107935353E+04  0.25500000920E-02 0.  1.
        2   -1    0    0  501    0  0.00000000000E+00  0.00000000000E+00 -0.18805120849E+04  0.18805120849E+04  0.25500000920E-02 0. -1.
    10030    2    1    2    0    0  0.00000000000E+00  0.00000000000E+00 -0.46971854952E+03  0.32913056202E+04  0.32576152581E+04 0.  0.
        1    1    3    3  502    0  0.14881382537E+04  0.18647189015E+03 -0.87679395305E+03  0.17372664920E+04  0.50400001928E-02 0. -1.
       -1    1    3    3    0  502 -0.14881382537E+04 -0.18647189015E+03  0.40707540353E+03  0.15540391282E+04  0.50400001928E-02 0.  1.
</event>
<event>
 5   0  0.8845526E-07  0.3299306E+04  0.7818609E-02  0.8163072E-01
        1   -1    0    0  501    0  0.00000000000E+00  0.00000000000E+00  0.17131055533E+04  0.17131055533E+04  0.50400001928E-02 0.  1.
       -1   -1    0    0    0  501  0.00000000000E+00  0.00000000000E+00 -0.15885505315E+04  0.15885505316E+04  0.50400001928E-02 0. -1.
    10030    2    1    2    0    0  0.00000000000E+00  0.00000000000E+00  0.12455502177E+03  0.33016560849E+04  0.32993058284E+04 0.  0.
        1    1    3    3  502    0  0.99096092070E+03 -0.11976181819E+04 -0.49044000915E+03  0.16299767663E+04  0.50400001928E-02 0.  1.
       -1    1    3    3    0  502 -0.99096092070E+03  0.11976181819E+04  0.61499503092E+03  0.16716793186E+04  0.50400001928E-02 0. -1.
</event>
<event>
 5   0  0.2705859E-06  0.3415374E+04  0.7818609E-02  0.8134143E-01
        2   -1    0    0  501    0  0.00000000000E+00  0.00000000000E+00  0.22608603567E+04  0.22608603567E+04  0.25500000920E-02 0.  1.
       -2   -1    0    0    0  501  0.00000000000E+00  0.00000000000E+00 -0.12898604024E+04  0.12898604024E+04  0.25500000920E-02 0. -1.
    10030    2    1    2    0    0  0.00000000000E+00  0.00000000000E+00  0.97099995429E+03  0.35507207592E+04  0.34153736250E+04 0.  0.
        1    1    3    3  502    0 -0.46799868163E+03  0.10930526238E+04  0.17598013837E+04  0.21238379681E+04  0.50400001928E-02 0.  1.
       -1    1    3    3    0  502  0.46799868163E+03 -0.10930526238E+04 -0.78880142945E+03  0.14268827911E+04  0.50400001928E-02 0. -1.
</event>
<event>
 5   0  0.2614212E-06  0.3336482E+04  0.7818609E-02  0.8153674E-01
        2   -1    0    0  501    0  0.00000000000E+00  0.00000000000E+00  0.22281346880E+04  0.22281346880E+04  0.25500000920E-02 0. -1.
       -2   -1    0    0    0  501  0.00000000000E+00  0.00000000000E+00 -0.12490396917E+04  0.12490396917E+04  0.25500000920E-02 0.  1.
    10030    2    1    2    0    0  0.00000000000E+00  0.00000000000E+00  0.97909499633E+03  0.34771743797E+04  0.33364823774E+04 0.  0.
        2    1    3    3  502    0  0.41106326704E+03 -0.25283231855E+03 -0.11747038647E+04  0.12699710078E+04  0.25500000920E-02 0.  1.
       -2    1    3    3    0  502 -0.41106326704E+03  0.25283231855E+03  0.21537988611E+04  0.22072033719E+04  0.25500000920E-02 0. -1.
</event>
<event>
 5   0  0.2574803E-06  0.3286476E+04  0.7818609E-02  0.8166345E-01
        2   -1    0    0  501    0  0.00000000000E+00  0.00000000000E+00  0.27019231465E+04  0.27019231465E+04  0.25500000920E-02 0. -1.
       -2   -1    0    0    0  501  0.00000000000E+00  0.00000000000E+00 -0.99937403142E+03  0.99937403143E+03  0.25500000920E-02 0.  1.
    10030    2    1    2    0    0  0.00000000000E+00  0.00000000000E+00  0.17025491150E+04  0.37012971779E+04  0.32864764277E+04 0.  0.
        4    1    3    3  502    0  0.14156376254E+04  0.80874484935E+03  0.62010535703E+03  0.17443137288E+04  0.12699999809E+01 0.  1.
       -4    1    3    3    0  502 -0.14156376254E+04 -0.80874484935E+03  0.10824437580E+04  0.19569834491E+04  0.12699999809E+01 0. -1.
</event>
<event>
 5   0  0.9295663E-07  0.3263551E+04  0.7818609E-02  0.8172232E-01
       -1   -1    0    0    0  501  0.00000000000E+00  0.00000000000E+00  0.14155679846E+04  0.14155679846E+04  0.50400001928E-02 0. -1.
        1   -1    0    0  501    0  0.00000000000E+00  0.00000000000E+00 -0.18810059252E+04  0.18810059252E+04  0.50400001928E-02 0.  1.
    10030    2    1    2    0    0  0.00000000000E+00  0.00000000000E+00 -0.46543794060E+03  0.32965739098E+04  0.32635512967E+04 0.  0.
        4    1    3    3  502    0  0.15884401372E+04  0.13728945944E+03  0.11821503130E+03  0.15987391506E+04  0.12699999809E+01 0. -1.
       -4    1    3    3    0  502 -0.15884401372E+04 -0.13728945944E+03 -0.58365297190E+03  0.16978347592E+04  0.12699999809E+01 0.  1.
</event>
<event>
 5   0  0.8845526E-07  0.3341053E+04  0.7818609E-02  0.8152527E-01
        1   -1    0    0  501    0  0.00000000000E+00  0.00000000000E+00  0.21223036135E+04  0.21223036135E+04  0.50400001928E-02 0. -1.
       -1   -1    0    0    0  501  0.00000000000E+00  0.00000000000E+00 -0.13149199026E+04  0.13149199026E+04  0.50400001928E-02 0.  1.
    10030    2    1    2    0    0  0.00000000000E+00  0.00000000000E+00  0.80738371092E+03  0.34372235161E+04  0.33410532835E+04 0.  0.
        1    1    3    3  502    0 -0.89185035288E+03  0.40674439584E+03 -0.98795390416E+03  0.13917223043E+04  0.50400001928E-02 0.  1.
       -1    1    3    3    0  502  0.89185035288E+03 -0.40674439584E+03  0.17953376151E+04  0.20455012118E+04  0.50400001928E-02 0. -1.
</event>
<event>
 5   0  0.2574803E-06  0.3273494E+04  0.7818609E-02  0.8169673E-01
        2   -1    0    0  501    0  0.00000000000E+00  0.00000000000E+00  0.21769932702E+04  0.21769932702E+04  0.25500000920E-02 0.  1.
       -2   -1    0    0    0  501  0.00000000000E+00  0.00000000000E+00 -0.12305692562E+04  0.12305692562E+04  0.25500000920E-02 0. -1.
    10030    2    1    2    0    0  0.00000000000E+00  0.00000000000E+00  0.94642401401E+03  0.34075625264E+04  0.32734941510E+04 0.  0.
        4    1    3    3  502    0 -0.15434272367E+04  0.18862942136E+03 -0.58787346595E+02  0.15560225765E+04  0.12699999809E+01 0. -1.
       -4    1    3    3    0  502  0.15434272367E+04 -0.18862942136E+03  0.10052113606E+04  0.18515399499E+04  0.12699999809E+01 0.  1.
</event>
<event>
 5   0  0.2658600E-06  0.3150842E+04  0.7818609E-02  0.8201922E-01
       -2   -1    0    0    0  501  0.00000000000E+00  0.00000000000E+00  0.16470086297E+04  0.16470086297E+04  0.25500000920E-02 0. -1.
        2   -1    0    0  501    0  0.00000000000E+00  0.00000000000E+00 -0.15069453189E+04  0.15069453189E+04  0.25500000920E-02 0.  1.
    10030    2    1    2    0    0  0.00000000000E+00  0.00000000000E+00  0.14006331080E+03  0.31539539486E+04  0.31508423919E+04 0.  0.
        5    1    3    3  502    0 -0.45299351302E+02  0.15747624248E+04  0.71095262970E+02  0.15770242078E+04  0.46999998093E+01 0. -1.
       -5    1    3    3    0  502  0.45299351302E+02 -0.15747624248E+04  0.68968047827E+02  0.15769297408E+04  0.46999998093E+01 0.  1.
</event>
<event>
 5   0  0.8705956E-07  0.2892484E+04  0.7818609E-02  0.8275117E-01
        1   -1    0    0  501    0  0.00000000000E+00  0.00000000000E+00  0.17320047756E+04  0.17320047756E+04  0.50400001928E-02 0. -1.
       -1   -1    0    0    0  501  0.00000000000E+00  0.00000000000E+00 -0.12076268183E+04  0.12076268183E+04  0.50400001928E-02 0.  1.
    10030    2    1    2    0    0  0.00000000000E+00  0.00000000000E+00  0.52437795737E+03  0.29396315939E+04  0.28924836500E+04 0.  0.
        2    1    3    3  502    0 -0.12942233506E+04  0.50588256674E+03 -0.14519930260E+03  0.13971449782E+04  0.25500000920E-02 0. -1.
       -2    1    3    3    0  502  0.12942233506E+04 -0.50588256674E+03  0.66957725997E+03  0.15424866157E+04  0.25500000920E-02 0.  1.
</event>
<event>
 5   0  0.9268670E-07  0.3002466E+04  0.7818609E-02  0.8243027E-01
        1   -1    0    0  501    0  0.00000000000E+00  0.00000000000E+00  0.19325939024E+04  0.19325939024E+04  0.50400001928E-02 0. -1.
       -1   -1    0    0    0  501  0.00000000000E+00  0.00000000000E+00 -0.11661530203E+04  0.11661530203E+04  0.50400001928E-02 0.  1.
    10030    2    1    2    0    0  0.00000000000E+00  0.00000000000E+00  0.76644088209E+03  0.30987469227E+04  0.30024657975E+04 0.  0.
        3    1    3    3  502    0  0.10824934833E+04 -0.72722250929E+03  0.11507451970E+04  0.17392122464E+04  0.10100000352E+00 0. -1.
       -3    1    3    3    0  502 -0.10824934833E+04  0.72722250929E+03 -0.38430431494E+03  0.13595346763E+04  0.10100000352E+00 0.  1.
</event>
<event>
 5   0  0.2614212E-06  0.3336593E+04  0.7818609E-02  0.8153646E-01
       -2   -1    0    0    0  501  0.00000000000E+00  0.00000000000E+00  0.17915064508E+04  0.17915064508E+04  0.25500000920E-02 0. -1.
        2   -1    0    0  501    0  0.00000000000E+00  0.00000000000E+00 -0.15535598388E+04  0.15535598388E+04  0.25500000920E-02 0.  1.
    10030    2    1    2    0    0  0.00000000000E+00  0.00000000000E+00  0.23794661197E+03  0.33450662896E+04  0.33365925570E+04 0.  0.
        2    1    3    3  502    0 -0.15659102341E+04 -0.36246869451E+03 -0.32910029399E+03  0.16406600560E+04  0.25500000920E-02 0.  1.
       -2    1    3    3    0  502  0.15659102341E+04  0.36246869451E+03  0.56704690596E+03  0.17044062336E+04  0.25500000920E-02 0. -1.
</event>
<event>
 5   0  0.2574803E-06  0.3320110E+04  0.7818609E-02  0.8157797E-01
        2   -1    0    0  501    0  0.00000000000E+00  0.00000000000E+00  0.12316122543E+04  0.12316122543E+04  0.25500000920E-02 0. -1.
       -2   -1    0    0    0  501  0.00000000000E+00  0.00000000000E+00 -0.22375400785E+04  0.22375400785E+04  0.25500000920E-02 0.  1.
    10030    2    1    2    0    0  0.00000000000E+00  0.00000000000E+00 -0.10059278242E+04  0.34691523328E+04  0.33201095043E+04 0.  0.
        4    1    3    3  502    0 -0.13336695385E+03  0.17028928900E+03 -0.22227524999E+04  0.22332522193E+04  0.12699999809E+01 0.  1.
       -4    1    3    3    0  502  0.13336695385E+03 -0.17028928900E+03  0.12168246757E+04  0.12359001135E+04  0.12699999809E+01 0. -1.
</event>
<event>
 5   0  0.8845526E-07  0.2390651E+04  0.7818609E-02  0.8443012E-01
       -1   -1    0    0    0  501  0.00000000000E+00  0.00000000000E+00  0.98819323408E+03  0.98819323409E+03  0.50400001928E-02 0.  1.
        1   -1    0    0  501    0  0.00000000000E+00  0.00000000000E+00 -0.14458744640E+04  0.14458744640E+04  0.50400001928E-02 0. -1.
    10030    2    1    2    0    0  0.00000000000E+00  0.00000000000E+00 -0.45768122988E+03  0.24340676981E+04  0.23906512608E+04 0.  0.
        1    1    3    3  502    0  0.58727704701E+03 -0.21243641910E+03 -0.12665558038E+04  0.14121569199E+04  0.50400001928E-02 0. -1.
       -1    1    3    3    0  502 -0.58727704701E+03  0.21243641910E+03  0.80887457397E+03  0.10219107782E+04  0.50400001928E-02 0.  1.
</event>
<event>
 5   0  0.8845526E-07  0.3374684E+04  0.7818609E-02  0.8144148E-01
       -1   -1    0    0    0  501  0.00000000000E+00  0.00000000000E+00  0.17610267183E+04  0.17610267183E+04  0.50400001928E-02 0. -1.
        1   -1    0    0  501    0  0.00000000000E+00  0.00000000000E+00 -0.16167407887E+04  0.16167407887E+04  0.50400001928E-02 0.  1.
    10030    2    1    2    0    0  0.00000000000E+00  0.00000000000E+00  0.14428592959E+03  0.33777675071E+04  0.33746844152E+04 0.  0.
        1    1    3    3  502    0  0.74631482148E+03 -0.90387587490E+03  0.12869842140E+04  0.17407773485E+04  0.50400001928E-02 0. -1.
       -1    1    3    3    0  502 -0.74631482148E+03  0.90387587490E+03 -0.11426982844E+04  0.16369901586E+04  0.50400001928E-02 0.  1.
</event>
<event>
 5   0  0.2674551E-06  0.3382752E+04  0.7818609E-02  0.8142153E-01
       -2   -1    0    0    0  501  0.00000000000E+00  0.00000000000E+00  0.13426284510E+04  0.13426284510E+04  0.25500000920E-02 0.  1.
        2   -1    0    0  501    0  0.00000000000E+00  0.00000000000E+00 -0.21307107062E+04  0.21307107062E+04  0.25500000920E-02 0. -1.
    10030    2    1    2    0    0  0.00000000000E+00  0.00000000000E+00 -0.78808225520E+03  0.34733391573E+04  0.33827520247E+04 0.  0.
        3    1    3    3  502    0  0.40699785473E+02 -0.13829235790E+04 -0.13930390180E+04  0.19633369079E+04  0.10100000352E+00 0. -1.
       -3    1    3    3    0  502 -0.40699785473E+02  0.13829235790E+04  0.60495676282E+03  0.15100022494E+04  0.10100000352E+00 0.  1.
</event>
<event>
 5   0  0.9295663E-07  0.3371952E+04  0.7818609E-02  0.8144825E-01
       -1   -1    0    0    0  501  0.00000000000E+00  0.00000000000E+00  0.13210448369E+04  0.13210448369E+04  0.50400001928E-02 0. -1.
        1   -1    0    0  501    0  0.00000000000E+00  0.00000000000E+00 -0.21517171318E+04  0.21517171318E+04  0.50400001928E-02 0.  1.
    10030    2    1    2    0    0  0.00000000000E+00  0.00000000000E+00 -0.83067229488E+03  0.34727619688E+04  0.33719518428E+04 0.  0.
        4    1    3    3  502    0  0.12041135957E+04 -0.90440215552E+03 -0.11960768840E+04  0.19231313880E+04  0.12699999809E+01 0.  1.
       -4    1    3    3    0  502 -0.12041135957E+04  0.90440215552E+03  0.36540458909E+03  0.15496305808E+04  0.12699999809E+01 0. -1.
</event>
<event>
 5   0  0.9268670E-07  0.3293057E+04  0.7818609E-02  0.8164664E-01
        1   -1    0    0  501    0  0.00000000000E+00  0.00000000000E+00  0.27055104925E+04  0.27055104925E+04  0.50400001928E-02 0. -1.
       -1   -1    0    0    0  501  0.00000000000E+00  0.00000000000E+00 -0.10020498994E+04  0.10020498994E+04  0.50400001928E-02 0.  1.
    10030    2    1    2    0    0  0.00000000000E+00  0.00000000000E+00  0.17034605931E+04  0.37075603919E+04  0.32930572524E+04 0.  0.
        3    1    3    3  502    0  0.10930619983E+04 -0.10879943451E+04  0.15009789855E+04  0.21520813535E+04  0.10100000352E+00 0.  1.
       -3    1    3    3    0  502 -0.10930619983E+04  0.10879943451E+04  0.20248160759E+03  0.15554790384E+04  0.10100000352E+00 0. -1.
</event>
<event>
 5   0  0.8845526E-07  0.3207457E+04  0.7818609E-02  0.8186851E-01
       -1   -1    0    0    0  501  0.00000000000E+00  0.00000000000E+00  0.13456460505E+04  0.13456460505E+04  0.50400001928E-02 0.  1.
        1   -1    0    0  501    0  0.00000000000E+00  0.00000000000E+00 -0.19113082296E+04  0.19113082296E+04  0.50400001928E-02 0. -1.
    10030    2    1    2    0    0  0.00000000000E+00  0.00000000000E+00 -0.56566217910E+03  0.32569542801E+04  0.32074565440E+04 0.  0.
        1    1    3    3  502    0  0.81889263196E+03 -0.83655943403E+03 -0.13958889630E+04  0.18217911040E+04  0.50400001928E-02 0. -1.
       -1    1    3    3    0  502 -0.81889263196E+03  0.83655943403E+03  0.83022678391E+03  0.14351631761E+04  0.50400001928E-02 0.  1.
</event>
<event>
 5   0  0.9268670E-07  0.3327595E+04  0.7818609E-02  0.8155909E-01
        1   -1    0    0  501    0  0.00000000000E+00  0.00000000000E+00  0.20137908579E+04  0.20137908579E+04  0.50400001928E-02 0.  1.
       -1   -1    0    0    0  501  0.00000000000E+00  0.00000000000E+00 -0.13746322086E+04  0.13746322086E+04  0.50400001928E-02 0. -1.
    10030    2    1    2    0    0  0.00000000000E+00  0.00000000000E+00  0.63915864927E+03  0.33884230665E+04  0.33275947918E+04 0.  0.
        3    1    3    3  502    0  0.28350447717E+03  0.83414939822E+03 -0.11176180413E+04  0.14231128218E+04  0.10100000352E+00 0. -1.
       -3    1    3    3    0  502 -0.28350447717E+03 -0.83414939822E+03  0.17567766906E+04  0.19653102447E+04  0.10100000352E+00 0.  1.
</event>
<event>
 5   0  0.2658600E-06  0.3249608E+04  0.7818609E-02  0.8175837E-01
        2   -1    0    0  501    0  0.00000000000E+00  0.00000000000E+00  0.22820119475E+04  0.22820119475E+04  0.25500000920E-02 0. -1.
       -2   -1    0    0    0  501  0.00000000000E+00  0.00000000000E+00 -0.11568684873E+04  0.11568684873E+04  0.25500000920E-02 0.  1.
    10030    2    1    2    0    0  0.00000000000E+00  0.00000000000E+00  0.11251434602E+04  0.34388804348E+04  0.32496077977E+04 0.  0.
        5    1    3    3  502    0 -0.12825428034E+04  0.65937617980E+03 -0.22953888243E+03  0.14602750349E+04  0.46999998093E+01 0.  1.
       -5    1    3    3    0  502  0.12825428034E+04 -0.65937617980E+03  0.13546823427E+04  0.19786053999E+04  0.46999998093E+01 0. -1.
</event>
<event>
 5   0  0.9295663E-07  0.3323187E+04  0.7818609E-02  0.8157020E-01
       -1   -1    0    0    0  501  0.00000000000E+00  0.00000000000E+00  0.10761373992E+04  0.10761373992E+04  0.50400001928E-02 0.  1.
        1   -1    0    0  501    0  0.00000000000E+00  0.00000000000E+00 -0.25655577407E+04  0.25655577407E+04  0.50400001928E-02 0. -1.
    10030    2    1    2    0    0  0.00000000000E+00  0.00000000000E+00 -0.14894203415E+04  0.36416951399E+04  0.33231868046E+04 0.  0.
        4    1    3    3  502    0 -0.15051635377E+03 -0.16489932621E+04 -0.59343177840E+03  0.17589760771E+04  0.12699999809E+01 0. -1.
       -4    1    3    3    0  502  0.15051635377E+03  0.16489932621E+04 -0.89598856306E+03  0.18827190628E+04  0.12699999809E+01 0.  1.
</event>
<event>
 5   0  0.8845526E-07  0.3336195E+04  0.7818609E-02  0.8153746E-01
        1   -1    0    0  501    0  0.00000000000E+00  0.00000000000E+00  0.12625050894E+04  0.12625050895E+04  0.50400001928E-02 0.  1.
       -1   -1    0    0    0  501  0.00000000000E+00  0.00000000000E+00 -0.22039901878E+04  0.22039901878E+04  0.50400001928E-02 0. -1.
    10030    2    1    2    0    0  0.00000000000E+00  0.00000000000E+00 -0.94148509831E+03  0.34664952772E+04  0.33361947360E+04 0.  0.
        1    1    3    3  502    0  0.63798675446E+03  0.14568349589E+04  0.52052302466E+02  0.15912588220E+04  0.50400001928E-02 0.  1.
       -1    1    3    3    0  502 -0.63798675446E+03 -0.14568349589E+04 -0.99353740078E+03  0.18752364552E+04  0.50400001928E-02 0. -1.
</event>
<event>
 5   0  0.9268670E-07  0.3332144E+04  0.7818609E-02  0.8154764E-01
        1   -1    0    0  501    0  0.00000000000E+00  0.00000000000E+00  0.21603488933E+04  0.21603488933E+04  0.50400001928E-02 0. -1.
       -1   -1    0    0    0  501  0.00000000000E+00  0.00000000000E+00 -0.12848827841E+04  0.12848827841E+04  0.50400001928E-02 0.  1.
    10030    2    1    2    0    0  0.00000000000E+00  0.00000000000E+00  0.87546610923E+03  0.34452316774E+04  0.33321435147E+04 0.  0.
        3    1    3    3  502    0  0.14742239171E+04  0.69576925528E+03  0.79345011090E+03  0.18130069231E+04  0.10100000352E+00 0.  1.
       -3    1    3    3    0  502 -0.14742239171E+04 -0.69576925528E+03  0.82015998335E+02  0.16322247543E+04  0.10100000352E+00 0. -1.
</event>
<event>
 5   0  0.2658600E-06  0.3274512E+04  0.7818609E-02  0.8169411E-01
        2   -1    0    0  501    0  0.00000000000E+00  0.00000000000E+00  0.12747671347E+04  0.12747671347E+04  0.25500000920E-02 0.  1.
       -2   -1    0    0    0  501  0.00000000000E+00  0.00000000000E+00 -0.21028205429E+04  0.21028205429E+04  0.25500000920E-02 0. -1.
    10030    2    1    2    0    0  0.00000000000E+00  0.00000000000E+00 -0.82805340827E+03  0.33775876776E+04  0.32745115778E+04 0.  0.
        5    1    3    3  502    0 -0.95156415750E+03 -0.80075995833E+03 -0.15123905973E+04  0.19580700359E+04  0.46999998093E+01 0. -1.
       -5    1    3    3    0  502  0.95156415750E+03  0.80075995833E+03  0.68433718904E+03  0.14195176417E+04  0.46999998093E+01 0.  1.
</event>
<event>
 5   0  0.2574803E-06  0.3314482E+04  0.7818609E-02  0.8159220E-01
        2   -1    0    0  501    0  0.00000000000E+00  0.00000000000E+00  0.19735081056E+04  0.19735081056E+04  0.25500000920E-02 0. -1.
       -2   -1    0    0    0  501  0.00000000000E+00  0.00000000000E+00 -0.13916578936E+04  0.13916578936E+04  0.25500000920E-02 0.  1.
    10030    2    1    2    0    0  0.00000000000E+00  0.00000000000E+00  0.58185021198E+03  0.33651659992E+04  0.33144822421E+04 0.  0.
        4    1    3    3  502    0 -0.15037155200E+04  0.36613321759E+03  0.89263647699E+03  0.17866212220E+04  0.12699999809E+01 0. -1.
       -4    1    3    3    0  502  0.15037155200E+04 -0.36613321759E+03 -0.31078626501E+03  0.15785447772E+04  0.12699999809E+01 0.  1.
</event>
<event>
 5   0  0.9530268E-07  0.3277079E+04  0.7818609E-02  0.8168752E-01
        1   -1    0    0  501    0  0.00000000000E+00  0.00000000000E+00  0.20185305503E+04  0.20185305503E+04  0.50400001928E-02 0.  1.
       -1   -1    0    0    0  501  0.00000000000E+00  0.00000000000E+00 -0.13300826361E+04  0.13300826361E+04  0.50400001928E-02 0. -1.
    10030    2    1    2    0    0  0.00000000000E+00  0.00000000000E+00  0.68844791420E+03  0.33486131864E+04  0.32770794530E+04 0.  0.
        5    1    3    3  502    0 -0.11567091567E+04  0.92483139124E+03  0.10605987403E+04  0.18215874817E+04  0.46999998093E+01 0.  1.
       -5    1    3    3    0  502  0.11567091567E+04 -0.92483139124E+03 -0.37215082611E+03  0.15270257047E+04  0.46999998093E+01 0. -1.
</event>
<event>
 5   0  0.2574803E-06  0.2392312E+04  0.7818609E-02  0.8442387E-01
        2   -1    0    0  501    0  0.00000000000E+00  0.00000000000E+00  0.14382679033E+04  0.14382679033E+04  0.25500000920E-02 0. -1.
       -2   -1    0    0    0  501  0.00000000000E+00  0.00000000000E+00 -0.99480044918E+03  0.99480044918E+03  0.25500000920E-02 0.  1.
    10030    2    1    2    0    0  0.00000000000E+00  0.00000000000E+00  0.44346745415E+03  0.24330683525E+04  0.23923123176E+04 0.  0.
        4    1    3    3  502    0 -0.11554204515E+03  0.50973086411E+03  0.13159874258E+04  0.14159802384E+04  0.12699999809E+01 0. -1.
       -4    1    3    3    0  502  0.11554204515E+03 -0.50973086411E+03 -0.87251997160E+03  0.10170881141E+04  0.12699999809E+01 0.  1.
</event>
<event>
 5   0  0.9268670E-07  0.3281540E+04  0.7818609E-02  0.8167608E-01
        1   -1    0    0  501    0  0.00000000000E+00  0.00000000000E+00  0.92589240433E+03  0.92589240434E+03  0.50400001928E-02 0.  1.
       -1   -1    0    0    0  501  0.00000000000E+00  0.00000000000E+00 -0.29076022678E+04  0.29076022678E+04  0.50400001928E-02 0. -1.
    10030    2    1    2    0    0  0.00000000000E+00  0.00000000000E+00 -0.19817098634E+04  0.38334946721E+04  0.32815404033E+04 0.  0.
        3    1    3    3  502    0 -0.55223262413E+03  0.94051807532E+03  0.44112721805E+03  0.11764898443E+04  0.10100000352E+00 0.  1.
       -3    1    3    3    0  502  0.55223262413E+03 -0.94051807532E+03 -0.24228370815E+04  0.26570048278E+04  0.10100000352E+00 0. -1.
</event>
<event>
 5   0  0.2614212E-06  0.3274341E+04  0.7818609E-02  0.8169455E-01
        2   -1    0    0  501    0  0.00000000000E+00  0.00000000000E+00  0.24374589806E+04  0.24374589806E+04  0.25500000920E-02 0. -1.
       -2   -1    0    0    0  501  0.00000000000E+00  0.00000000000E+00 -0.10996396842E+04  0.10996396842E+04  0.25500000920E-02 0.  1.
    10030    2    1    2    0    0  0.00000000000E+00  0.00000000000E+00  0.13378192964E+04  0.35370986648E+04  0.32743406198E+04 0.  0.
        2    1    3    3  502    0  0.12950408076E+03 -0.16299407409E+04  0.75830624334E+03  0.18023613635E+04  0.25500000920E-02 0.  1.
       -2    1    3    3    0  502 -0.12950408076E+03  0.16299407409E+04  0.57951305304E+03  0.17347373013E+04  0.25500000920E-02 0. -1.
</event>
<event>
 5   0  0.2705859E-06  0.3308603E+04  0.7818609E-02  0.8160710E-01
        2   -1    0    0  501    0  0.00000000000E+00  0.00000000000E+00  0.24531392224E+04  0.24531392224E+04  0.25500000920E-02 0. -1.
       -2   -1    0    0    0  501  0.00000000000E+00  0.00000000000E+00 -0.11155961314E+04  0.11155961314E+04  0.25500000920E-02 0.  1.
    10030    2    1    2    0    0  0.00000000000E+00  0.00000000000E+00  0.13375430910E+04  0.35687353538E+04  0.33086025004E+04 0.  0.
        1    1    3    3  502    0 -0.32784546596E+01 -0.10283781597E+03 -0.11121415725E+04  0.11168908818E+04  0.50400001928E-02 0.  1.
       -1    1    3    3    0  502  0.32784546596E+01  0.10283781597E+03  0.24496846634E+04  0.24518444720E+04  0.50400001928E-02 0. -1.
</event>
<event>
 5   0  0.9295663E-07  0.3346619E+04  0.7818609E-02  0.8151133E-01
        1   -1    0    0  501    0  0.00000000000E+00  0.00000000000E+00  0.26038263792E+04  0.26038263792E+04  0.50400001928E-02 0.  1.
       -1   -1    0    0    0  501  0.00000000000E+00  0.00000000000E+00 -0.10753270022E+04  0.10753270022E+04  0.50400001928E-02 0. -1.
    10030    2    1    2    0    0  0.00000000000E+00  0.00000000000E+00  0.15284993770E+04  0.36791533814E+04  0.33466190787E+04 0.  0.
        4    1    3    3  502    0  0.15827784182E+04  0.46023760122E+03  0.44760791365E+03  0.17080282866E+04  0.12699999809E+01 0. -1.
       -4    1    3    3    0  502 -0.15827784182E+04 -0.46023760122E+03  0.10808914633E+04  0.19711250947E+04  0.12699999809E+01 0.  1.
</event>
<event>
 5   0  0.2705859E-06  0.3195680E+04  0.7818609E-02  0.8189959E-01
       -2   -1    0    0    0  501  0.00000000000E+00  0.00000000000E+00  0.19384942788E+04  0.19384942788E+04  0.25500000920E-02 0.  1.
        2   -1    0    0  501    0  0.00000000000E+00  0.00000000000E+00 -0.13170497363E+04  0.13170497363E+04  0.25500000920E-02 0. -1.
    10030    2    1    2    0    0  0.00000000000E+00  0.00000000000E+00  0.62144454258E+03  0.32555440151E+04  0.31956804463E+04 0.  0.
        1    1    3    3  502    0 -0.50883848667E+03  0.15146253433E+04  0.30122877343E+03  0.16259598120E+04  0.50400001928E-02 0. -1.
       -1    1    3    3    0  502  0.50883848667E+03 -0.15146253433E+04  0.32021576915E+03  0.16295842031E+04  0.50400001928E-02 0.  1.
</event>
<event>
 5   0  0.8705956E-07  0.3288743E+04  0.7818609E-02  0.8165766E-01
        1   -1    0    0  501    0  0.00000000000E+00  0.00000000000E+00  0.28916059923E+04  0.28916059924E+04  0.50400001928E-02 0.  1.
       -1   -1    0    0    0  501  0.00000000000E+00  0.00000000000E+00 -0.93510568232E+03  0.93510568233E+03  0.50400001928E-02 0. -1.
    10030    2    1    2    0    0  0.00000000000E+00  0.00000000000E+00  0.19565003100E+04  0.38267116747E+04  0.32887427351E+04 0.  0.
        2    1    3    3  502    0  0.11026199526E+04 -0.11937885632E+04  0.68606601278E+03  0.17639695199E+04  0.25500000920E-02 0. -1.
       -2    1    3    3    0  502 -0.11026199526E+04  0.11937885632E+04  0.12704342972E+04  0.20627421547E+04  0.25500000920E-02 0.  1.
</event>
<event>
 5   0  0.2574803E-06  0.2520583E+04  0.7818609E-02  0.8395689E-01
        2   -1    0    0  501    0  0.00000000000E+00  0.00000000000E+00  0.77470073426E+03  0.77470073427E+03  0.25500000920E-02 0. -1.
       -2   -1    0    0    0  501  0.00000000000E+00  0.00000000000E+00 -0.20502564733E+04  0.20502564733E+04  0.25500000920E-02 0.  1.
    10030    2    1    2    0    0  0.00000000000E+00  0.00000000000E+00 -0.12755557390E+04  0.28249572076E+04  0.25205834208E+04 0.  0.
        4    1    3    3  502    0  0.10091622546E+03  0.48868362022E+03  0.65926957980E+03  0.82682147831E+03  0.12699999809E+01 0. -1.
       -4    1    3    3    0  502 -0.10091622546E+03 -0.48868362022E+03 -0.19348253188E+04  0.19981357293E+04  0.12699999809E+01 0.  1.
</event>
<event>
 5   0  0.2674551E-06  0.3309765E+04  0.7818609E-02  0.8160415E-01
       -2   -1    0    0    0  501  0.00000000000E+00  0.00000000000E+00  0.11077817232E+04  0.11077817232E+04  0.25500000920E-02 0.  1.
        2   -1    0    0  501    0  0.00000000000E+00  0.00000000000E+00 -0.24721805006E+04  0.24721805006E+04  0.25500000920E-02 0. -1.
    10030    2    1    2    0    0  0.00000000000E+00  0.00000000000E+00 -0.13643987773E+04  0.35799622238E+04  0.33097651730E+04 0.  0.
        3    1    3    3  502    0  0.33494823444E+03  0.30742800880E+03  0.10389059750E+04  0.11340317172E+04  0.10100000352E+00 0.  1.
       -3    1    3    3    0  502 -0.33494823444E+03 -0.30742800880E+03 -0.24033047524E+04  0.24459305066E+04  0.10100000352E+00 0. -1.
</event>
<event>
 5   0  0.8705956E-07  0.3324407E+04  0.7818609E-02  0.8156713E-01
        1   -1    0    0  501    0  0.00000000000E+00  0.00000000000E+00  0.24739276308E+04  0.24739276308E+04  0.50400001928E-02 0. -1.
       -1   -1    0    0    0  501  0.00000000000E+00  0.00000000000E+00 -0.11168156091E+04  0.11168156092E+04  0.50400001928E-02 0.  1.
    10030    2    1    2    0    0  0.00000000000E+00  0.00000000000E+00  0.13571120216E+04  0.35907432399E+04  0.33244073120E+04 0.  0.
        2    1    3    3  502    0  0.16140948081E+04  0.38418318740E+03  0.57042452916E+03  0.17545036091E+04  0.25500000920E-02 0.  1.
       -2    1    3    3    0  502 -0.16140948081E+04 -0.38418318740E+03  0.78668749248E+03  0.18362396308E+04  0.25500000920E-02 0. -1.
</event>
<event>
 5   0  0.9295663E-07  0.3302613E+04  0.7818609E-02  0.8162231E-01
        1   -1    0    0  501    0  0.00000000000E+00  0.00000000000E+00  0.17155861235E+04  0.17155861235E+04  0.50400001928E-02 0.  1.
       -1   -1    0    0    0  501  0.00000000000E+00  0.00000000000E+00 -0.15894357097E+04  0.15894357098E+04  0.50400001928E-02 0. -1.
    10030    2    1    2    0    0  0.00000000000E+00  0.00000000000E+00  0.12615041379E+03  0.33050218333E+04  0.33026134184E+04 0.  0.
        4    1    3    3  502    0 -0.87803787083E+03 -0.21901626985E+03  0.14453477071E+04  0.17052713088E+04  0.12699999809E+01 0.  1.
       -4    1    3    3    0  502  0.87803787083E+03  0.21901626985E+03 -0.13191972933E+04  0.15997505245E+04  0.12699999809E+01 0. -1.
</event>
<event>
 5   0  0.9268670E-07  0.2406438E+04  0.7818609E-02  0.8437097E-01
        1   -1    0    0  501    0  0.00000000000E+00  0.00000000000E+00  0.25599408236E+04  0.25599408236E+04  0.50400001928E-02 0.  1.
       -1   -1    0    0    0  501  0.00000000000E+00  0.00000000000E+00 -0.56553500127E+03  0.56553500130E+03  0.50400001928E-02 0. -1.
    10030    2    1    2    0    0  0.00000000000E+00  0.00000000000E+00  0.19944058224E+04  0.31254758249E+04  0.24064381455E+04 0.  0.
        3    1    3    3  502    0 -0.34014501156E+03  0.98954909831E+03  0.17686821485E+04  0.20550286128E+04  0.10100000352E+00 0.  1.
       -3    1    3    3    0  502  0.34014501156E+03 -0.98954909831E+03  0.22572367389E+03  0.10704472122E+04  0.10100000352E+00 0. -1.
</event>
<event>
 5   0  0.9268670E-07  0.3303105E+04  0.7818609E-02  0.8162106E-01
       -1   -1    0    0    0  501  0.00000000000E+00  0.00000000000E+00  0.12985947625E+04  0.12985947625E+04  0.50400001928E-02 0.  1.
        1   -1    0    0  501    0  0.00000000000E+00  0.00000000000E+00 -0.21004439827E+04  0.21004439827E+04  0.50400001928E-02 0. -1.
    10030    2    1    2    0    0  0.00000000000E+00  0.00000000000E+00 -0.80184922023E+03  0.33990387453E+04  0.33031049362E+04 0.  0.
        3    1    3    3  502    0  0.91416117482E+03  0.13728617059E+04 -0.31369456448E+03  0.16789413948E+04  0.10100000352E+00 0.  1.
       -3    1    3    3    0  502 -0.91416117482E+03 -0.13728617059E+04 -0.48815465575E+03  0.17200973505E+04  0.10100000352E+00 0. -1.
</event>
<event>
 5   0  0.2705859E-06  0.3300884E+04  0.7818609E-02  0.8162670E-01
       -2   -1    0    0    0  501  0.00000000000E+00  0.00000000000E+00  0.31197744938E+04  0.31197744938E+04  0.25500000920E-02 0.  1.
        2   -1    0    0  501    0  0.00000000000E+00  0.00000000000E+00 -0.87312692310E+03  0.87312692310E+03  0.25500000920E-02 0. -1.
    10030    2    1    2    0    0  0.00000000000E+00  0.00000000000E+00  0.22466475708E+04  0.39929014169E+04  0.33008841874E+04 0.  0.
        1    1    3    3  502    0 -0.92756496473E+03 -0.52407583713E+03  0.26481145524E+04  0.28543901152E+04  0.50400001928E-02 0.  1.
       -1    1    3    3    0  502  0.92756496473E+03  0.52407583713E+03 -0.40146698167E+03  0.11385113018E+04  0.50400001928E-02 0. -1.
</event>
<event>
 5   0  0.2658600E-06  0.3308100E+04  0.7818609E-02  0.8160837E-01
        2   -1    0    0  501    0  0.00000000000E+00  0.00000000000E+00  0.14928801160E+04  0.14928801160E+04  0.25500000920E-02 0.  1.
       -2   -1    0    0    0  501  0.00000000000E+00  0.00000000000E+00 -0.18326192459E+04  0.18326192459E+04  0.25500000920E-02 0. -1.
    10030    2    1    2    0    0  0.00000000000E+00  0.00000000000E+00 -0.33973912992E+03  0.33254993620E+04  0.33080996554E+04 0.  0.
        5    1    3    3  502    0  0.59230068810E+03  0.11885022277E+04 -0.11612111710E+04  0.17640269624E+04  0.46999998093E+01 0. -1.
       -5    1    3    3    0  502 -0.59230068810E+03 -0.11885022277E+04  0.82147204106E+03  0.15614723996E+04  0.46999998093E+01 0.  1.
</event>
<event>
 5   0  0.2614212E-06  0.3319217E+04  0.7818609E-02  0.8158023E-01
        2   -1    0    0  501    0  0.00000000000E+00  0.00000000000E+00  0.20997380819E+04  0.20997380819E+04  0.25500000920E-02 0. -1.
       -2   -1    0    0    0  501  0.00000000000E+00  0.00000000000E+00 -0.13117354146E+04  0.13117354146E+04  0.25500000920E-02 0.  1.
    10030    2    1    2    0    0  0.00000000000E+00  0.00000000000E+00  0.78800266727E+03  0.34114734965E+04  0.33192172592E+04 0.  0.
        2    1    3    3  502    0  0.10550529036E+04 -0.12795367251E+04  0.45859675545E+03  0.17206573873E+04  0.25500000920E-02 0. -1.
       -2    1    3    3    0  502 -0.10550529036E+04  0.12795367251E+04  0.32940591182E+03  0.16908161092E+04  0.25500000920E-02 0.  1.
</event>
<event>
 5   0  0.8845526E-07  0.3307961E+04  0.7818609E-02  0.8160873E-01
       -1   -1    0    0    0  501  0.00000000000E+00  0.00000000000E+00  0.26185750725E+04  0.26185750725E+04  0.50400001928E-02 0. -1.
        1   -1    0    0  501    0  0.00000000000E+00  0.00000000000E+00 -0.10447097226E+04  0.10447097226E+04  0.50400001928E-02 0.  1.
    10030    2    1    2    0    0  0.00000000000E+00  0.00000000000E+00  0.15738653498E+04  0.36632847951E+04  0.33079606029E+04 0.  0.
        1    1    3    3  502    0  0.13702044640E+04  0.20693148942E+03  0.17869043502E+04  0.22612624949E+04  0.50400001928E-02 0. -1.
       -1    1    3    3    0  502 -0.13702044640E+04 -0.20693148942E+03 -0.21303900032E+03  0.14020223001E+04  0.50400001928E-02 0.  1.
</event>
<event>
 5   0  0.2614212E-06  0.3253060E+04  0.7818609E-02  0.8174943E-01
        2   -1    0    0  501    0  0.00000000000E+00  0.00000000000E+00  0.14302076106E+04  0.14302076106E+04  0.25500000920E-02 0. -1.
       -2   -1    0    0    0  501  0.00000000000E+00  0.00000000000E+00 -0.18498009532E+04  0.18498009532E+04  0.25500000920E-02 0.  1.
    10030    2    1    2    0    0  0.00000000000E+00  0.00000000000E+00 -0.41959334265E+03  0.32800085638E+04  0.32530597297E+04 0.  0.
        2    1    3    3  502    0  0.97353784110E+03  0.34318705036E+03 -0.14772086932E+04  0.18021372875E+04  0.25500000920E-02 0.  1.
       -2    1    3    3    0  502 -0.97353784110E+03 -0.34318705036E+03  0.10576153505E+04  0.14778712763E+04  0.25500000920E-02 0. -1.
</event>
<event>
 5   0  0.8845526E-07  0.3317663E+04  0.7818609E-02  0.8158415E-01
       -1   -1    0    0    0  501  0.00000000000E+00  0.00000000000E+00  0.12133513861E+04  0.12133513861E+04  0.50400001928E-02 0.  1.
        1   -1    0    0  501    0  0.00000000000E+00  0.00000000000E+00 -0.22678691354E+04  0.22678691354E+04  0.50400001928E-02 0. -1.
    10030    2    1    2    0    0  0.00000000000E+00  0.00000000000E+00 -0.10545177493E+04  0.34812205215E+04  0.33176631287E+04 0.  0.
        1    1    3    3  502    0 -0.20563539176E+03 -0.57184882080E+03 -0.21468630331E+04  0.22312144386E+04  0.50400001928E-02 0. -1.
       -1    1    3    3    0  502  0.20563539176E+03  0.57184882080E+03  0.10923452838E+04  0.12500060829E+04  0.50400001928E-02 0.  1.
</event>
<event>
 5   0  0.9530268E-07  0.2791807E+04  0.7818609E-02  0.8305816E-01
       -1   -1    0    0    0  501  0.00000000000E+00  0.00000000000E+00  0.14323539276E+04  0.14323539276E+04  0.50400001928E-02 0. -1.
        1   -1    0    0  501    0  0.00000000000E+00  0.00000000000E+00 -0.13603806485E+04  0.13603806485E+04  0.50400001928E-02 0.  1.
    10030    2    1    2    0    0  0.00000000000E+00  0.00000000000E+00  0.71973279161E+02  0.27927345761E+04  0.27918069883E+04 0.  0.
        5    1    3    3  502    0  0.84952475494E+03  0.66530381732E+03 -0.84985995628E+03  0.13735375910E+04  0.46999998093E+01 0.  1.
       -5    1    3    3    0  502 -0.84952475494E+03 -0.66530381732E+03  0.92183323544E+03  0.14191969851E+04  0.46999998093E+01 0. -1.
</event>
<event>
 5   0  0.2574803E-06  0.2602013E+04  0.7818609E-02  0.8367518E-01
       -2   -1    0    0    0  501  0.00000000000E+00  0.00000000000E+00  0.11476557969E+04  0.11476557969E+04  0.25500000920E-02 0. -1.
        2   -1    0    0  501    0  0.00000000000E+00  0.00000000000E+00 -0.14748481411E+04  0.14748481411E+04  0.25500000920E-02 0.  1.
    10030    2    1    2    0    0  0.00000000000E+00  0.00000000000E+00 -0.32719234415E+03  0.26225039380E+04  0.26020130812E+04 0.  0.
        4    1    3    3  502    0 -0.88193161615E+03 -0.52112085363E+03 -0.97193836769E+03  0.14121034393E+04  0.12699999809E+01 0.  1.
       -4    1    3    3    0  502  0.88193161615E+03  0.52112085363E+03  0.64474602354E+03  0.12104004988E+04  0.12699999809E+01 0. -1.
</event>
<event>
 5   0  0.9268670E-07  0.2515505E+04  0.7818609E-02  0.8397483E-01
       -1   -1    0    0    0  501  0.00000000000E+00  0.00000000000E+00  0.12749201365E+04  0.12749201365E+04  0.50400001928E-02 0. -1.
        1   -1    0    0  501    0  0.00000000000E+00  0.00000000000E+00 -0.12408158929E+04  0.12408158929E+04  0.50400001928E-02 0.  1.
    10030    2    1    2    0    0  0.00000000000E+00  0.00000000000E+00  0.34104243567E+02  0.25157360294E+04  0.25155048539E+04 0.  0.
        3    1    3    3  502    0 -0.11375020522E+03 -0.10885598125E+04  0.63681834604E+03  0.12662697937E+04  0.10100000352E+00 0.  1.
       -3    1    3    3    0  502  0.11375020522E+03  0.10885598125E+04 -0.60271410247E+03  0.12494662356E+04  0.10100000352E+00 0. -1.
</event>
<event>
 5   0  0.8845526E-07  0.3332901E+04  0.7818609E-02  0.8154574E-01
       -1   -1    0    0    0  501  0.00000000000E+00  0.00000000000E+00  0.17331793226E+04  0.17331793226E+04  0.50400001928E-02 0. -1.
        1   -1    0    0  501    0  0.00000000000E+00  0.00000000000E+00 -0.16022904290E+04  0.16022904290E+04  0.50400001928E-02 0.  1.
    10030    2    1    2    0    0  0.00000000000E+00  0.00000000000E+00  0.13088889357E+03  0.33354697516E+04  0.33329006228E+04 0.  0.
        1    1    3    3  502    0  0.16052791553E+04  0.17167922185E+03 -0.34798623121E+03  0.16515112287E+04  0.50400001928E-02 0.  1.
       -1    1    3    3    0  502 -0.16052791553E+04 -0.17167922185E+03  0.47887512478E+03  0.16839585229E+04  0.50400001928E-02 0. -1.
</event>
<event>
 5   0  0.8705956E-07  0.3320883E+04  0.7818609E-02  0.8157602E-01
        1   -1    0    0  501    0  0.00000000000E+00  0.00000000000E+00  0.22837376985E+04  0.22837376985E+04  0.50400001928E-02 0.  1.
       -1   -1    0    0    0  501  0.00000000000E+00  0.00000000000E+00 -0.12072604877E+04  0.12072604877E+04  0.50400001928E-02 0. -1.
    10030    2    1    2    0    0  0.00000000000E+00  0.00000000000E+00  0.10764772109E+04  0.34909981862E+04  0.33208831884E+04 0.  0.
        2    1    3    3  502    0 -0.12566658853E+04  0.65718200056E+03 -0.36969983039E+03  0.14655290150E+04  0.25500000920E-02 0. -1.
       -2    1    3    3    0  502  0.12566658853E+04 -0.65718200056E+03  0.14461770412E+04  0.20254691713E+04  0.25500000920E-02 0.  1.
</event>
<event>
 5   0  0.9295663E-07  0.3303306E+04  0.7818609E-02  0.8162055E-01
       -1   -1    0    0    0  501  0.00000000000E+00  0.00000000000E+00  0.16617687898E+04  0.16617687898E+04  0.50400001928E-02 0. -1.
        1   -1    0    0  501    0  0.00000000000E+00  0.00000000000E+00 -0.16415983313E+04  0.16415983313E+04  0.50400001928E-02 0.  1.
    10030    2    1    2    0    0  0.00000000000E+00  0.00000000000E+00  0.20170458488E+02  0.33033671210E+04  0.33033055398E+04 0.  0.
        4    1    3    3  502    0 -0.91839413426E+03 -0.13209800754E+04 -0.36344430884E+03  0.16494027780E+04  0.12699999809E+01 0.  1.
       -4    1    3    3    0  502  0.91839413426E+03  0.13209800754E+04  0.38361476732E+03  0.16539643431E+04  0.12699999809E+01 0. -1.
</event>
<event>
 5   0  0.8520125E-07  0.3330749E+04  0.7818609E-02  0.8155115E-01
        3   -1    0    0  501    0  0.00000000000E+00  0.00000000000E+00  0.11111759882E+04  0.11111759928E+04  0.10100000352E+00 0. -1.
       -3   -1    0    0    0  501  0.00000000000E+00  0.00000000000E+00 -0.24959797522E+04  0.24959797542E+04  0.10100000352E+00 0.  1.
    10030    2    1    2    0    0  0.00000000000E+00  0.00000000000E+00 -0.13848037640E+04  0.36071557470E+04  0.33307493329E+04 0.  0.
        1    1    3    3  502    0 -0.51222347914E+03 -0.15571630640E+04 -0.10106286522E+04  0.19257466015E+04  0.50400001928E-02 0. -1.
       -1    1    3    3    0  502  0.51222347914E+03  0.15571630640E+04 -0.37417511177E+03  0.16814091455E+04  0.50400001928E-02 0.  1.
</event>
<event>
 5   0  0.2705859E-06  0.3293693E+04  0.7818609E-02  0.8164502E-01
       -2   -1    0    0    0  501  0.00000000000E+00  0.00000000000E+00  0.15290890591E+04  0.15290890591E+04  0.25500000920E-02 0.  1.
        2   -1    0    0  501    0  0.00000000000E+00  0.00000000000E+00 -0.17736730322E+04  0.17736730322E+04  0.25500000920E-02 0. -1.
    10030    2    1    2    0    0  0.00000000000E+00  0.00000000000E+00 -0.24458397312E+03  0.33027620913E+04  0.32936933846E+04 0.  0.
        1    1    3    3  502    0 -0.55437929824E+03  0.59396346004E+03 -0.15587077399E+04  0.17577539124E+04  0.50400001928E-02 0. -1.
       -1    1    3    3    0  502  0.55437929824E+03 -0.59396346004E+03  0.13141237668E+04  0.15450081788E+04  0.50400001928E-02 0.  1.
</event>
<event>
 5   0  0.8705956E-07  0.3285335E+04  0.7818609E-02  0.8166637E-01
        1   -1    0    0  501    0  0.00000000000E+00  0.00000000000E+00  0.23957933352E+04  0.23957933352E+04  0.50400001928E-02 0. -1.
       -1   -1    0    0    0  501  0.00000000000E+00  0.00000000000E+00 -0.11262890140E+04  0.11262890140E+04  0.50400001928E-02 0.  1.
    10030    2    1    2    0    0  0.00000000000E+00  0.00000000000E+00  0.12695043212E+04  0.35220823493E+04  0.32853345116E+04 0.  0.
        2    1    3    3  502    0  0.11487544327E+04  0.70208269953E+03 -0.37423924276E+03  0.13973588925E+04  0.25500000920E-02 0.  1.
       -2    1    3    3    0  502 -0.11487544327E+04 -0.70208269953E+03  0.16437435640E+04  0.21247234568E+04  0.25500000920E-02 0. -1.
</event>
<event>
 5   0  0.2674551E-06  0.3222988E+04  0.7818609E-02  0.8182772E-01
        2   -1    0    0  501    0  0.00000000000E+00  0.00000000000E+00  0.30283335641E+04  0.30283335641E+04  0.25500000920E-02 0.  1.
       -2   -1    0    0    0  501  0.00000000000E+00  0.00000000000E+00 -0.85753846118E+03  0.85753846118E+03  0.25500000920E-02 0. -1.
    10030    2    1    2    0    0  0.00000000000E+00  0.00000000000E+00  0.21707951029E+04  0.38858720253E+04  0.32229877471E+04 0.  0.
        3    1    3    3  502    0  0.12032450323E+04 -0.34451742884E+03  0.23092732800E+04  0.26266392898E+04  0.10100000352E+00 0.  1.
       -3    1    3    3    0  502 -0.12032450323E+04  0.34451742884E+03 -0.13847817710E+03  0.12592327355E+04  0.10100000352E+00 0. -1.
</event>
<event>
 5   0  0.9295663E-07  0.3311055E+04  0.7818609E-02  0.8160088E-01
        1   -1    0    0  501    0  0.00000000000E+00  0.00000000000E+00  0.18315087532E+04  0.18315087532E+04  0.50400001928E-02 0.  1.
       -1   -1    0    0    0  501  0.00000000000E+00  0.00000000000E+00 -0.14964553557E+04  0.14964553557E+04  0.50400001928E-02 0. -1.
    10030    2    1    2    0    0  0.00000000000E+00  0.00000000000E+00  0.33505339750E+03  0.33279641090E+04  0.33110548669E+04 0.  0.
        4    1    3    3  502    0 -0.27572900467E+02  0.86109542961E+03 -0.12533844635E+04  0.15209272928E+04  0.12699999809E+01 0. -1.
       -4    1    3    3    0  502  0.27572900467E+02 -0.86109542961E+03  0.15884378610E+04  0.18070368162E+04  0.12699999809E+01 0.  1.
</event>
<event>
 5   0  0.2705859E-06  0.3292122E+04  0.7818609E-02  0.8164903E-01
        2   -1    0    0  501    0  0.00000000000E+00  0.00000000000E+00  0.24753210508E+04  0.24753210508E+04  0.25500000920E-02 0. -1.
       -2   -1    0    0    0  501  0.00000000000E+00  0.00000000000E+00 -0.10946125736E+04  0.10946125736E+04  0.25500000920E-02 0.  1.
    10030    2    1    2    0    0  0.00000000000E+00  0.00000000000E+00  0.13807084772E+04  0.35699336244E+04  0.32921224435E+04 0.  0.
        1    1    3    3  502    0 -0.55007739956E+03  0.11945321694E+04  0.17638561074E+04  0.22001546802E+04  0.50400001928E-02 0. -1.
       -1    1    3    3    0  502  0.55007739956E+03 -0.11945321694E+04 -0.38314763016E+03  0.13697789441E+04  0.50400001928E-02 0.  1.
</event>
<event>
 5   0  0.9268670E-07  0.3199439E+04  0.7818609E-02  0.8188965E-01
       -1   -1    0    0    0  501  0.00000000000E+00  0.00000000000E+00  0.16198863360E+04  0.16198863360E+04  0.50400001928E-02 0.  1.
        1   -1    0    0  501    0  0.00000000000E+00  0.00000000000E+00 -0.15798041304E+04  0.15798041304E+04  0.50400001928E-02 0. -1.
    10030    2    1    2    0    0  0.00000000000E+00  0.00000000000E+00  0.40082205602E+02  0.31996904664E+04  0.31994394037E+04 0.  0.
        3    1    3    3  502    0 -0.15792776584E+04 -0.15906824813E+03 -0.17917915840E+03  0.15973496207E+04  0.10100000352E+00 0. -1.
       -3    1    3    3    0  502  0.15792776584E+04  0.15906824813E+03  0.21926136400E+03  0.16023408457E+04  0.10100000352E+00 0.  1.
</event>
<event>
 5   0  0.2574803E-06  0.3317458E+04  0.7818609E-02  0.8158467E-01
        2   -1    0    0  501    0  0.00000000000E+00  0.00000000000E+00  0.15052745295E+04  0.15052745295E+04  0.25500000920E-02 0. -1.
       -2   -1    0    0    0  501  0.00000000000E+00  0.00000000000E+00 -0.18278277390E+04  0.18278277390E+04  0.25500000920E-02 0.  1.
    10030    2    1    2    0    0  0.00000000000E+00  0.00000000000E+00 -0.32255320952E+03  0.33331022685E+04  0.33174583885E+04 0.  0.
        4    1    3    3  502    0 -0.78043682027E+02  0.12912049649E+03 -0.18209190202E+04  0.18271591638E+04  0.12699999809E+01 0.  1.
       -4    1    3    3    0  502  0.78043682027E+02 -0.12912049649E+03  0.14983658107E+04  0.15059431047E+04  0.12699999809E+01 0. -1.
</event>
<event>
 5   0  0.2574803E-06  0.3383545E+04  0.7818609E-02  0.8141957E-01
       -2   -1    0    0    0  501  0.00000000000E+00  0.00000000000E+00  0.14912227412E+04  0.14912227412E+04  0.25500000920E-02 0. -1.
        2   -1    0    0  501    0  0.00000000000E+00  0.00000000000E+00 -0.19192937089E+04  0.19192937089E+04  0.25500000920E-02 0.  1.
    10030    2    1    2    0    0  0.00000000000E+00  0.00000000000E+00 -0.42807096774E+03  0.34105164501E+04  0.33835451383E+04 0.  0.
        4    1    3    3  502    0 -0.10112720538E+04  0.79592176031E+03 -0.13209377058E+04  0.18441910560E+04  0.12699999809E+01 0.  1.
       -4    1    3    3    0  502  0.10112720538E+04 -0.79592176031E+03  0.89286673807E+03  0.15663253941E+04  0.12699999809E+01 0. -1.
</event>
<event>
 5   0  0.2658600E-06  0.3282242E+04  0.7818609E-02  0.8167429E-01
        2   -1    0    0  501    0  0.00000000000E+00  0.00000000000E+00  0.19472039952E+04  0.19472039952E+04  0.25500000920E-02 0. -1.
       -2   -1    0    0    0  501  0.00000000000E+00  0.00000000000E+00 -0.13831518245E+04  0.13831518245E+04  0.25500000920E-02 0.  1.
    10030    2    1    2    0    0  0.00000000000E+00  0.00000000000E+00  0.56405217073E+03  0.33303558197E+04  0.32822423790E+04 0.  0.
        5    1    3    3  502    0  0.14934533149E+04  0.53311979736E+03  0.71087653953E+03  0.17378109985E+04  0.46999998093E+01 0. -1.
       -5    1    3    3    0  502 -0.14934533149E+04 -0.53311979736E+03 -0.14682436880E+03  0.15925448212E+04  0.46999998093E+01 0.  1.
</event>
<event>
 5   0  0.2614212E-06  0.2970157E+04  0.7818609E-02  0.8252304E-01
       -2   -1    0    0    0  501  0.00000000000E+00  0.00000000000E+00  0.13570577296E+04  0.13570577296E+04  0.25500000920E-02 0.  1.
        2   -1    0    0  501    0  0.00000000000E+00  0.00000000000E+00 -0.16251763167E+04  0.16251763167E+04  0.25500000920E-02 0. -1.
    10030    2    1    2    0    0  0.00000000000E+00  0.00000000000E+00 -0.26811858711E+03  0.29822340464E+04  0.29701569539E+04 0.  0.
        2    1    3    3  502    0  0.53620569453E+02 -0.26411350108E+02 -0.16239680620E+04  0.16250676883E+04  0.25500000920E-02 0. -1.
       -2    1    3    3    0  502 -0.53620569453E+02  0.26411350108E+02  0.13558494749E+04  0.13571663581E+04  0.25500000920E-02 0.  1.
</event>
<event>
 5   0  0.2674551E-06  0.3170587E+04  0.7818609E-02  0.8196629E-01
       -2   -1    0    0    0  501  0.00000000000E+00  0.00000000000E+00  0.16327211552E+04  0.16327211552E+04  0.25500000920E-02 0. -1.
        2   -1    0    0  501    0  0.00000000000E+00  0.00000000000E+00 -0.15392430920E+04  0.15392430920E+04  0.25500000920E-02 0.  1.
    10030    2    1    2    0    0  0.00000000000E+00  0.00000000000E+00  0.93478063177E+02  0.31719642472E+04  0.31705865446E+04 0.  0.
        3    1    3    3  502    0  0.15773780313E+03 -0.63236662094E+03 -0.13990138179E+04  0.15433756609E+04  0.10100000352E+00 0.  1.
       -3    1    3    3    0  502 -0.15773780313E+03  0.63236662094E+03  0.14924918811E+04  0.16285885862E+04  0.10100000352E+00 0. -1.
</event>
<event>
 5   0  0.2674551E-06  0.2990293E+04  0.7818609E-02  0.8246508E-01
       -2   -1    0    0    0  501  0.00000000000E+00  0.00000000000E+00  0.27539614770E+04  0.27539614770E+04  0.25500000920E-02 0. -1.
        2   -1    0    0  501    0  0.00000000000E+00  0.00000000000E+00 -0.81172633584E+03  0.81172633584E+03  0.25500000920E-02 0.  1.
    10030    2    1    2    0    0  0.00000000000E+00  0.00000000000E+00  0.19422351412E+04  0.35656878129E+04  0.29902930016E+04 0.  0.
        3    1    3    3  502    0  0.38582544001E+03 -0.40897975577E+03 -0.68086411471E+03  0.88300717080E+03  0.10100000352E+00 0.  1.
       -3    1    3    3    0  502 -0.38582544001E+03  0.40897975577E+03  0.26230992559E+04  0.26826806421E+04  0.10100000352E+00 0. -1.
</event>
<event>
 5   0  0.2614212E-06  0.3347074E+04  0.7818609E-02  0.8151020E-01
        2   -1    0    0  501    0  0.00000000000E+00  0.00000000000E+00  0.19425726589E+04  0.19425726589E+04  0.25500000920E-02 0.  1.
       -2   -1    0    0    0  501  0.00000000000E+00  0.00000000000E+00 -0.14417616849E+04  0.14417616849E+04  0.25500000920E-02 0. -1.
    10030    2    1    2    0    0  0.00000000000E+00  0.00000000000E+00  0.50081097400E+03  0.33843343438E+04  0.33470744418E+04 0.  0.
        2    1    3    3  502    0  0.74345170180E+03 -0.14760544666E+04 -0.15715580284E+02  0.16527867983E+04  0.25500000920E-02 0. -1.
       -2    1    3    3    0  502 -0.74345170180E+03  0.14760544666E+04  0.51652655429E+03  0.17315475455E+04  0.25500000920E-02 0.  1.
</event>
<event>
 5   0  0.8520125E-07  0.3329222E+04  0.7818609E-02  0.8155499E-01
       -4   -1    0    0    0  501  0.00000000000E+00  0.00000000000E+00  0.13171130250E+04  0.13171136373E+04  0.12699999809E+01 0. -1.
        4   -1    0    0  501    0  0.00000000000E+00  0.00000000000E+00 -0.21037895483E+04  0.21037899316E+04  0.12699999809E+01 0.  1.
    10030    2    1    2    0    0  0.00000000000E+00  0.00000000000E+00 -0.78667652330E+03  0.34209035689E+04  0.33292223229E+04 0.  0.
        4    1    3    3  502    0  0.11111597947E+04 -0.68489728431E+02  0.87830499694E+03  0.14180226419E+04  0.12699999809E+01 0. -1.
       -4    1    3    3    0  502 -0.11111597947E+04  0.68489728431E+02 -0.16649815202E+04  0.20028809270E+04  0.12699999809E+01 0.  1.
</event>
<event>
 5   0  0.2674551E-06  0.3296039E+04  0.7818609E-02  0.8163904E-01
        2   -1    0    0  501    0  0.00000000000E+00  0.00000000000E+00  0.17410089965E+04  0.17410089965E+04  0.25500000920E-02 0.  1.
       -2   -1    0    0    0  501  0.00000000000E+00  0.00000000000E+00 -0.15599966057E+04  0.15599966057E+04  0.25500000920E-02 0. -1.
    10030    2    1    2    0    0  0.00000000000E+00  0.00000000000E+00  0.18101239076E+03  0.33010056022E+04  0.32960389106E+04 0.  0.
        3    1    3    3  502    0 -0.91563278812E+03 -0.15578376885E+03  0.14539231305E+04  0.17252664910E+04  0.10100000352E+00 0.  1.
       -3    1    3    3    0  502  0.91563278812E+03  0.15578376885E+03 -0.12729107397E+04  0.15757391113E+04  0.10100000352E+00 0. -1.
</event>
<event>
 5   0  0.8845526E-07  0.3298741E+04  0.7818609E-02  0.8163216E-01
       -1   -1    0    0    0  501  0.00000000000E+00  0.00000000000E+00  0.23138211471E+04  0.23138211471E+04  0.50400001928E-02 0. -1.
        1   -1    0    0  501    0  0.00000000000E+00  0.00000000000E+00 -0.11757273904E+04  0.11757273904E+04  0.50400001928E-02 0.  1.
    10030    2    1    2    0    0  0.00000000000E+00  0.00000000000E+00  0.11380937566E+04  0.34895485375E+04  0.32987409108E+04 0.  0.
        1    1    3    3  502    0  0.88008558277E+03 -0.13880049540E+04  0.42203144582E+03  0.16968261333E+04  0.50400001928E-02 0.  1.
       -1    1    3    3    0  502 -0.88008558277E+03  0.13880049540E+04  0.71606231083E+03  0.17927224042E+04  0.50400001928E-02 0. -1.
</event>
<event>
 5   0  0.2705859E-06  0.3331012E+04  0.7818609E-02  0.8155049E-01
        2   -1    0    0  501    0  0.00000000000E+00  0.00000000000E+00  0.24118833834E+04  0.24118833834E+04  0.25500000920E-02 0.  1.
       -2   -1    0    0    0  501  0.00000000000E+00  0.00000000000E+00 -0.11501010630E+04  0.11501010630E+04  0.25500000920E-02 0. -1.
    10030    2    1    2    0    0  0.00000000000E+00  0.00000000000E+00  0.12617823204E+04  0.35619844465E+04  0.33310116441E+04 0.  0.
        1    1    3    3  502    0  0.12536740325E+04  0.12230819818E+03  0.17960557575E+04  0.21937352072E+04  0.50400001928E-02 0.  1.
       -1    1    3    3    0  502 -0.12536740325E+04 -0.12230819818E+03 -0.53427343716E+03  0.13682492393E+04  0.50400001928E-02 0. -1.
</event>
<event>
 5   0  0.2614212E-06  0.3082542E+04  0.7818609E-02  0.8220546E-01
        2   -1    0    0  501    0  0.00000000000E+00  0.00000000000E+00  0.16091559232E+04  0.16091559232E+04  0.25500000920E-02 0. -1.
       -2   -1    0    0    0  501  0.00000000000E+00  0.00000000000E+00 -0.14762496482E+04  0.14762496482E+04  0.25500000920E-02 0.  1.
    10030    2    1    2    0    0  0.00000000000E+00  0.00000000000E+00  0.13290627501E+03  0.30854055714E+04  0.30825417211E+04 0.  0.
        2    1    3    3  502    0 -0.10559605663E+04  0.11942257464E+03 -0.10509179071E+04  0.14945711479E+04  0.25500000920E-02 0.  1.
       -2    1    3    3    0  502  0.10559605663E+04 -0.11942257464E+03  0.11838241821E+04  0.15908344235E+04  0.25500000920E-02 0. -1.
</event>
<event>
 5   0  0.8705956E-07  0.3297271E+04  0.7818609E-02  0.8163590E-01
        1   -1    0    0  501    0  0.00000000000E+00  0.00000000000E+00  0.24896330019E+04  0.24896330019E+04  0.50400001928E-02 0.  1.
       -1   -1    0    0    0  501  0.00000000000E+00  0.00000000000E+00 -0.10917267761E+04  0.10917267761E+04  0.50400001928E-02 0. -1.
    10030    2    1    2    0    0  0.00000000000E+00  0.00000000000E+00  0.13979062258E+04  0.35813597780E+04  0.32972709994E+04 0.  0.
        2    1    3    3  502    0  0.95381404382E+03 -0.69411136282E+03  0.19498983331E+04  0.22789592633E+04  0.25500000920E-02 0.  1.
       -2    1    3    3    0  502 -0.95381404382E+03  0.69411136282E+03 -0.55199210732E+03  0.13024005147E+04  0.25500000920E-02 0. -1.
</event>
<event>
 5   0  0.2658600E-06  0.3274871E+04  0.7818609E-02  0.8169319E-01
       -2   -1    0    0    0  501  0.00000000000E+00  0.00000000000E+00  0.18003793220E+04  0.18003793220E+04  0.25500000920E-02 0.  1.
        2   -1    0    0  501    0  0.00000000000E+00  0.00000000000E+00 -0.14892386990E+04  0.14892386990E+04  0.25500000920E-02 0. -1.
    10030    2    1    2    0    0  0.00000000000E+00  0.00000000000E+00  0.31114062301E+03  0.32896180211E+04  0.32748707207E+04 0.  0.
        5    1    3    3  502    0 -0.93635549786E+02 -0.28342236313E+03 -0.14616724981E+04  0.14918459820E+04  0.46999998093E+01 0. -1.
       -5    1    3    3    0  502  0.93635549786E+02  0.28342236313E+03  0.17728131211E+04  0.17977720391E+04  0.46999998093E+01 0.  1.
</event>
<event>
 5   0  0.9268670E-07  0.3384540E+04  0.7818609E-02  0.8141711E-01
        1   -1    0    0  501    0  0.00000000000E+00  0.00000000000E+00  0.11021938807E+04  0.11021938807E+04  0.50400001928E-02 0.  1.
       -1   -1    0    0    0  501  0.00000000000E+00  0.00000000000E+00 -0.25982525353E+04  0.25982525353E+04  0.50400001928E-02 0. -1.
    10030    2    1    2    0    0  0.00000000000E+00  0.00000000000E+00 -0.14960586546E+04  0.37004464160E+04  0.33845401726E+04 0.  0.
        3    1    3    3  502    0  0.14931844661E+04 -0.78815131378E+03 -0.87266838115E+03  0.19006137053E+04  0.10100000352E+00 0.  1.
       -3    1    3    3    0  502 -0.14931844661E+04  0.78815131378E+03 -0.62339027342E+03  0.17998327107E+04  0.10100000352E+00 0. -1.
</event>
<event>
 5   0  0.9268670E-07  0.3306991E+04  0.7818609E-02  0.8161119E-01
        1   -1    0    0  501    0  0.00000000000E+00  0.00000000000E+00  0.15977444634E+04  0.15977444634E+04  0.50400001928E-02 0.  1.
       -1   -1    0    0    0  501  0.00000000000E+00  0.00000000000E+00 -0.17111914661E+04  0.17111914661E+04  0.50400001928E-02 0. -1.
    10030    2    1    2    0    0  0.00000000000E+00  0.00000000000E+00 -0.11344700264E+03  0.33089359295E+04  0.33069905901E+04 0.  0.
        3    1    3    3  502    0 -0.10543371627E+04 -0.12587445331E+04  0.13828092804E+03  0.16477822300E+04  0.10100000352E+00 0.  1.
       -3    1    3    3    0  502  0.10543371627E+04  0.12587445331E+04 -0.25172793068E+03  0.16611536995E+04  0.10100000352E+00 0. -1.
</event>
<event>
 5   0  0.9295663E-07  0.3404142E+04  0.7818609E-02  0.8136890E-01
       -1   -1    0    0    0  501  0.00000000000E+00  0.00000000000E+00  0.22142065233E+04  0.22142065233E+04  0.50400001928E-02 0.  1.
        1   -1    0    0  501    0  0.00000000000E+00  0.00000000000E+00 -0.13083901675E+04  0.13083901675E+04  0.50400001928E-02 0. -1.
    10030    2    1    2    0    0  0.00000000000E+00  0.00000000000E+00  0.90581635586E+03  0.35225966908E+04  0.34041422085E+04 0.  0.
        4    1    3    3  502    0 -0.26676330158E+02 -0.12788286237E+04  0.16148937721E+04  0.20600965471E+04  0.12699999809E+01 0.  1.
       -4    1    3    3    0  502  0.26676330158E+02  0.12788286237E+04 -0.70907741620E+03  0.14625001437E+04  0.12699999809E+01 0. -1.
</event>
<event>
 5   0  0.2574803E-06  0.3306401E+04  0.7818609E-02  0.8161269E-01
       -2   -1    0    0    0  501  0.00000000000E+00  0.00000000000E+00  0.13603526243E+04  0.13603526243E+04  0.25500000920E-02 0.  1.
        2   -1    0    0  501    0  0.00000000000E+00  0.00000000000E+00 -0.20090908857E+04  0.20090908857E+04  0.25500000920E-02 0. -1.
    10030    2    1    2    0    0  0.00000000000E+00  0.00000000000E+00 -0.64873826135E+03  0.33694435100E+04  0.33064011002E+04 0.  0.
        4    1    3    3  502    0 -0.12032475447E+04 -0.24290149721E+03  0.80411316019E+03  0.14674485948E+04  0.12699999809E+01 0.  1.
       -4    1    3    3    0  502  0.12032475447E+04  0.24290149721E+03 -0.14528514215E+04  0.19019949151E+04  0.12699999809E+01 0. -1.
</event>
<event>
 5   0  0.2614212E-06  0.3354443E+04  0.7818609E-02  0.8149179E-01
       -2   -1    0    0    0  501  0.00000000000E+00  0.00000000000E+00  0.98667687203E+03  0.98667687203E+03  0.25500000920E-02 0. -1.
        2   -1    0    0  501    0  0.00000000000E+00  0.00000000000E+00 -0.28510562811E+04  0.28510562811E+04  0.25500000920E-02 0.  1.
    10030    2    1    2    0    0  0.00000000000E+00  0.00000000000E+00 -0.18643794090E+04  0.38377331531E+04  0.33544426025E+04 0.  0.
        2    1    3    3  502    0 -0.74675927961E+03  0.13163934741E+04 -0.10518103494E+03  0.15171039023E+04  0.25500000920E-02 0. -1.
       -2    1    3    3    0  502  0.74675927961E+03 -0.13163934741E+04 -0.17591983741E+04  0.23206292508E+04  0.25500000920E-02 0.  1.
</event>
<event>
 5   0  0.2574803E-06  0.3298542E+04  0.7818609E-02  0.8163266E-01
       -2   -1    0    0    0  501  0.00000000000E+00  0.00000000000E+00  0.17277962169E+04  0.17277962169E+04  0.25500000920E-02 0.  1.
        2   -1    0    0  501    0  0.00000000000E+00  0.00000000000E+00 -0.15743145736E+04  0.15743145736E+04  0.25500000920E-02 0. -1.
    10030    2    1    2    0    0  0.00000000000E+00  0.00000000000E+00  0.15348164332E+03  0.33021107905E+04  0.32985419594E+04 0.  0.
        4    1    3    3  502    0  0.12025922453E+04 -0.69580710051E+03 -0.81288117870E+03  0.16097058903E+04  0.12699999809E+01 0. -1.
       -4    1    3    3    0  502 -0.12025922453E+04  0.69580710051E+03  0.96636282202E+03  0.16924049002E+04  0.12699999809E+01 0.  1.
</event>
<event>
 5   0  0.2705859E-06  0.2691616E+04  0.7818609E-02  0.8337730E-01
       -2   -1    0    0    0  501  0.00000000000E+00  0.00000000000E+00  0.96881114875E+03  0.96881114876E+03  0.25500000920E-02 0.  1.
        2   -1    0    0  501    0  0.00000000000E+00  0.00000000000E+00 -0.18695074644E+04  0.18695074644E+04  0.25500000920E-02 0. -1.
    10030    2    1    2    0    0  0.00000000000E+00  0.00000000000E+00 -0.90069631564E+03  0.28383186132E+04  0.26916163725E+04 0.  0.
        1    1    3    3  502    0 -0.11380479681E+04  0.11765740257E+03 -0.11976356884E+04  0.16562993945E+04  0.50400001928E-02 0. -1.
       -1    1    3    3    0  502  0.11380479681E+04 -0.11765740257E+03  0.29693937278E+03  0.11820192186E+04  0.50400001928E-02 0.  1.
</event>
<event>
 5   0  0.2674551E-06  0.3286448E+04  0.7818609E-02  0.8166352E-01
        2   -1    0    0  501    0  0.00000000000E+00  0.00000000000E+00  0.22037605639E+04  0.22037605640E+04  0.25500000920E-02 0.  1.
       -2   -1    0    0    0  501  0.00000000000E+00  0.00000000000E+00 -0.12252626440E+04  0.12252626440E+04  0.25500000920E-02 0. -1.
    10030    2    1    2    0    0  0.00000000000E+00  0.00000000000E+00  0.97849791991E+03  0.34290232080E+04  0.32864482320E+04 0.  0.
        3    1    3    3  502    0  0.10019193376E+04  0.95251959829E+03  0.14160697446E+04  0.19789869822E+04  0.10100000352E+00 0.  1.
       -3    1    3    3    0  502 -0.10019193376E+04 -0.95251959829E+03 -0.43757182467E+03  0.14500362258E+04  0.10100000352E+00 0. -1.
</event>
<event>
 5   0  0.8845526E-07  0.2599583E+04  0.7818609E-02  0.8368343E-01
       -1   -1    0    0    0  501  0.00000000000E+00  0.00000000000E+00  0.80316017613E+03  0.80316017614E+03  0.50400001928E-02 0. -1.
        1   -1    0    0  501    0  0.00000000000E+00  0.00000000000E+00 -0.21035127435E+04  0.21035127435E+04  0.50400001928E-02 0.  1.
    10030    2    1    2    0    0  0.00000000000E+00  0.00000000000E+00 -0.13003525673E+04  0.29066729196E+04  0.25995827862E+04 0.  0.
        1    1    3    3  502    0  0.83433981254E+03 -0.25204736732E+03 -0.17283503632E+04  0.19356770847E+04  0.50400001928E-02 0.  1.
       -1    1    3    3    0  502 -0.83433981254E+03  0.25204736732E+03  0.42799779586E+03  0.97099583493E+03  0.50400001928E-02 0. -1.
</event>
<event>
 5   0  0.2614212E-06  0.3303514E+04  0.7818609E-02  0.8162002E-01
        2   -1    0    0  501    0  0.00000000000E+00  0.00000000000E+00  0.23151752699E+04  0.23151752699E+04  0.25500000920E-02 0. -1.
       -2   -1    0    0    0  501  0.00000000000E+00  0.00000000000E+00 -0.11784426194E+04  0.11784426194E+04  0.25500000920E-02 0.  1.
    10030    2    1    2    0    0  0.00000000000E+00  0.00000000000E+00  0.11367326505E+04  0.34936178894E+04  0.33035140136E+04 0.  0.
        2    1    3    3  502    0 -0.47753987712E+03 -0.49005644715E+03  0.21582422255E+04  0.22641133275E+04  0.25500000920E-02 0. -1.
       -2    1    3    3    0  502  0.47753987712E+03  0.49005644715E+03 -0.10215095751E+04  0.12295045619E+04  0.25500000920E-02 0.  1.
</event>
<event>
 5   0  0.8705956E-07  0.3316836E+04  0.7818609E-02  0.8158625E-01
       -1   -1    0    0    0  501  0.00000000000E+00  0.00000000000E+00  0.17165571843E+04  0.17165571843E+04  0.50400001928E-02 0.  1.
        1   -1    0    0  501    0  0.00000000000E+00  0.00000000000E+00 -0.16022477128E+04  0.16022477128E+04  0.50400001928E-02 0. -1.
    10030    2    1    2    0    0  0.00000000000E+00  0.00000000000E+00  0.11430947150E+03  0.33188048971E+04  0.33168357345E+04 0.  0.
        2    1    3    3  502    0 -0.45533466540E+03 -0.14979269692E+04  0.60450322548E+03  0.16782547519E+04  0.25500000920E-02 0.  1.
       -2    1    3    3    0  502  0.45533466540E+03  0.14979269692E+04 -0.49019375398E+03  0.16405501452E+04  0.25500000920E-02 0. -1.
</event>
<event>
 5   0  0.2614212E-06  0.3216300E+04  0.7818609E-02  0.8184526E-01
       -2   -1    0    0    0  501  0.00000000000E+00  0.00000000000E+00  0.11945264949E+04  0.11945264949E+04  0.25500000920E-02 0. -1.
        2   -1    0    0  501    0  0.00000000000E+00  0.00000000000E+00 -0.21649966478E+04  0.21649966478E+04  0.25500000920E-02 0.  1.
    10030    2    1    2    0    0  0.00000000000E+00  0.00000000000E+00 -0.97047015289E+03  0.33595231427E+04  0.32162996485E+04 0.  0.
        2    1    3    3  502    0 -0.58676377084E+03 -0.20869538475E+03 -0.20339256341E+04  0.21271339806E+04  0.25500000920E-02 0.  1.
       -2    1    3    3    0  502  0.58676377084E+03  0.20869538475E+03  0.10634554812E+04  0.12323891621E+04  0.25500000920E-02 0. -1.
</event>
<event>
 5   0  0.2574803E-06  0.2541317E+04  0.7818609E-02  0.8388412E-01
       -2   -1    0    0    0  501  0.00000000000E+00  0.00000000000E+00  0.10926248526E+04  0.10926248526E+04  0.25500000920E-02 0. -1.
        2   -1    0    0  501    0  0.00000000000E+00  0.00000000000E+00 -0.14777013911E+04  0.14777013911E+04  0.25500000920E-02 0.  1.
    10030    2    1    2    0    0  0.00000000000E+00  0.00000000000E+00 -0.38507653851E+03  0.25703262438E+04  0.25413171897E+04 0.  0.
        4    1    3    3  502    0  0.23595322457E+03  0.10693583809E+04 -0.84438747218E+03  0.13828206995E+04  0.12699999809E+01 0.  1.
       -4    1    3    3    0  502 -0.23595322457E+03 -0.10693583809E+04  0.45931093368E+03  0.11875055442E+04  0.12699999809E+01 0. -1.
</event>
<event>
 5   0  0.8845526E-07  0.2993363E+04  0.7818609E-02  0.8245629E-01
        1   -1    0    0  501    0  0.00000000000E+00  0.00000000000E+00  0.21910640775E+04  0.21910640775E+04  0.50400001928E-02 0.  1.
       -1   -1    0    0    0  501  0.00000000000E+00  0.00000000000E+00 -0.10223595487E+04  0.10223595487E+04  0.50400001928E-02 0. -1.
    10030    2    1    2    0    0  0.00000000000E+00  0.00000000000E+00  0.11687045287E+04  0.32134236262E+04  0.29933628457E+04 0.  0.
        1    1    3    3  502    0  0.27665064374E+03 -0.41057087148E+03  0.21006160544E+04  0.21581686281E+04  0.50400001928E-02 0.  1.
       -1    1    3    3    0  502 -0.27665064374E+03  0.41057087148E+03 -0.93191152572E+03  0.10552549981E+04  0.50400001928E-02 0. -1.
</event>
<event>
 5   0  0.9268670E-07  0.3566003E+04  0.7818609E-02  0.8098324E-01
       -1   -1    0    0    0  501  0.00000000000E+00  0.00000000000E+00  0.11019084833E+04  0.11019084833E+04  0.50400001928E-02 0.  1.
        1   -1    0    0  501    0  0.00000000000E+00  0.00000000000E+00 -0.28850804888E+04  0.28850804888E+04  0.50400001928E-02 0. -1.
    10030    2    1    2    0    0  0.00000000000E+00  0.00000000000E+00 -0.17831720055E+04  0.39869889721E+04  0.35660031776E+04 0.  0.
        3    1    3    3  502    0 -0.86486193285E+03  0.48493299124E+03 -0.25484023945E+04  0.27345019553E+04  0.10100000352E+00 0. -1.
       -3    1    3    3    0  502  0.86486193285E+03 -0.48493299124E+03  0.76523038904E+03  0.12524870169E+04  0.10100000352E+00 0.  1.
</event>
<event>
 5   0  0.2674551E-06  0.3229863E+04  0.7818609E-02  0.8180975E-01
        2   -1    0    0  501    0  0.00000000000E+00  0.00000000000E+00  0.18562258625E+04  0.18562258625E+04  0.25500000920E-02 0. -1.
       -2   -1    0    0    0  501  0.00000000000E+00  0.00000000000E+00 -0.14050038734E+04  0.14050038734E+04  0.25500000920E-02 0.  1.
    10030    2    1    2    0    0  0.00000000000E+00  0.00000000000E+00  0.45122198912E+03  0.32612297360E+04  0.32298634812E+04 0.  0.
        3    1    3    3  502    0  0.96629301528E+03  0.12903662289E+04  0.32265534009E+03  0.16440418713E+04  0.10100000352E+00 0. -1.
       -3    1    3    3    0  502 -0.96629301528E+03 -0.12903662289E+04  0.12856664903E+03  0.16171878646E+04  0.10100000352E+00 0.  1.
</event>
<event>
 5   0  0.9530268E-07  0.3220806E+04  0.7818609E-02  0.8183344E-01
        1   -1    0    0  501    0  0.00000000000E+00  0.00000000000E+00  0.96971212380E+03  0.96971212381E+03  0.50400001928E-02 0. -1.
       -1   -1    0    0    0  501  0.00000000000E+00  0.00000000000E+00 -0.26744003605E+04  0.26744003606E+04  0.50400001928E-02 0.  1.
    10030    2    1    2    0    0  0.00000000000E+00  0.00000000000E+00 -0.17046882367E+04  0.36441124844E+04  0.32208063919E+04 0.  0.
        5    1    3    3  502    0 -0.13027021780E+04  0.32253835655E+03 -0.18594505816E+04  0.22931730226E+04  0.46999998093E+01 0.  1.
       -5    1    3    3    0  502  0.13027021780E+04 -0.32253835655E+03  0.15476234488E+03  0.13509394618E+04  0.46999998093E+01 0. -1.
</event>
<event>
 5   0  0.9295663E-07  0.3278375E+04  0.7818609E-02  0.8168420E-01
        1   -1    0    0  501    0  0.00000000000E+00  0.00000000000E+00  0.17953072161E+04  0.17953072161E+04  0.50400001928E-02 0.  1.
       -1   -1    0    0    0  501  0.00000000000E+00  0.00000000000E+00 -0.14966441956E+04  0.14966441956E+04  0.50400001928E-02 0. -1.
    10030    2    1    2    0    0  0.00000000000E+00  0.00000000000E+00  0.29866302049E+03  0.32919514116E+04  0.32783752831E+04 0.  0.
        4    1    3    3  502    0 -0.10090649175E+04  0.76093813698E+03  0.11975392435E+04  0.17410745844E+04  0.12699999809E+01 0.  1.
       -4    1    3    3    0  502  0.10090649175E+04 -0.76093813698E+03 -0.89887622298E+03  0.15508768272E+04  0.12699999809E+01 0. -1.
</event>
<event>
 5   0  0.2574803E-06  0.2954759E+04  0.7818609E-02  0.8256769E-01
       -2   -1    0    0    0  501  0.00000000000E+00  0.00000000000E+00  0.16033506156E+04  0.16033506156E+04  0.25500000920E-02 0. -1.
        2   -1    0    0  501    0  0.00000000000E+00  0.00000000000E+00 -0.13613060234E+04  0.13613060234E+04  0.25500000920E-02 0.  1.
    10030    2    1    2    0    0  0.00000000000E+00  0.00000000000E+00  0.24204459222E+03  0.29646566390E+04  0.29547594492E+04 0.  0.
        4    1    3    3  502    0  0.51520136635E+03 -0.16108974408E+02 -0.12681576004E+04  0.13689109756E+04  0.12699999809E+01 0.  1.
       -4    1    3    3    0  502 -0.51520136635E+03  0.16108974408E+02  0.15102021926E+04  0.15957456634E+04  0.12699999809E+01 0. -1.
</event>
<event>
 5   0  0.2705859E-06  0.3268114E+04  0.7818609E-02  0.8171057E-01
       -2   -1    0    0    0  501  0.00000000000E+00  0.00000000000E+00  0.13043256851E+04  0.13043256851E+04  0.25500000920E-02 0.  1.
        2   -1    0    0  501    0  0.00000000000E+00  0.00000000000E+00 -0.20471435779E+04  0.20471435779E+04  0.25500000920E-02 0. -1.
    10030    2    1    2    0    0  0.00000000000E+00  0.00000000000E+00 -0.74281789283E+03  0.33514692630E+04  0.32681137983E+04 0.  0.
        1    1    3    3  502    0  0.10458371378E+04 -0.79258350953E+03  0.62717139020E+03  0.14544098085E+04  0.50400001928E-02 0.  1.
       -1    1    3    3    0  502 -0.10458371378E+04  0.79258350953E+03 -0.13699892830E+04  0.18970594545E+04  0.50400001928E-02 0. -1.
</event>
<event>
 5   0  0.8705956E-07  0.3342707E+04  0.7818609E-02  0.8152113E-01
        1   -1    0    0  501    0  0.00000000000E+00  0.00000000000E+00  0.18892393500E+04  0.18892393500E+04  0.50400001928E-02 0.  1.
       -1   -1    0    0    0  501  0.00000000000E+00  0.00000000000E+00 -0.14785967001E+04  0.14785967001E+04  0.50400001928E-02 0. -1.
    10030    2    1    2    0    0  0.00000000000E+00  0.00000000000E+00  0.41064264997E+03  0.33678360501E+04  0.33427073271E+04 0.  0.
        2    1    3    3  502    0 -0.30109385185E+03  0.13403350739E+04  0.11644586219E+04  0.18008663193E+04  0.25500000920E-02 0.  1.
       -2    1    3    3    0  502  0.30109385185E+03 -0.13403350739E+04 -0.75381597191E+03  0.15669697308E+04  0.25500000920E-02 0. -1.
</event>
<event>
 5   0  0.2614212E-06  0.2648862E+04  0.7818609E-02  0.8351791E-01
        2   -1    0    0  501    0  0.00000000000E+00  0.00000000000E+00  0.20084057801E+04  0.20084057801E+04  0.25500000920E-02 0. -1.
       -2   -1    0    0    0  501  0.00000000000E+00  0.00000000000E+00 -0.87338802836E+03  0.87338802837E+03  0.25500000920E-02 0.  1.
    10030    2    1    2    0    0  0.00000000000E+00  0.00000000000E+00  0.11350177517E+04  0.28817938084E+04  0.26488620685E+04 0.  0.
        2    1    3    3  502    0 -0.21702047490E+03  0.87616562883E+03 -0.48692191964E+03  0.10256008246E+04  0.25500000920E-02 0.  1.
       -2    1    3    3    0  502  0.21702047490E+03 -0.87616562883E+03  0.16219396713E+04  0.18561929838E+04  0.25500000920E-02 0. -1.
</event>
<event>
 5   0  0.2705859E-06  0.3290304E+04  0.7818609E-02  0.8165367E-01
       -2   -1    0    0    0  501  0.00000000000E+00  0.00000000000E+00  0.10627994607E+04  0.10627994608E+04  0.25500000920E-02 0.  1.
        2   -1    0    0  501    0  0.00000000000E+00  0.00000000000E+00 -0.25466002788E+04  0.25466002788E+04  0.25500000920E-02 0. -1.
    10030    2    1    2    0    0  0.00000000000E+00  0.00000000000E+00 -0.14838008180E+04  0.36093997395E+04  0.32903041823E+04 0.  0.
        1    1    3    3  502    0  0.33227257544E+03 -0.17270221723E+03 -0.24992257082E+04  0.25271249002E+04  0.50400001928E-02 0. -1.
       -1    1    3    3    0  502 -0.33227257544E+03  0.17270221723E+03  0.10154248902E+04  0.10822748394E+04  0.50400001928E-02 0.  1.
</event>
<event>
 5   0  0.2674551E-06  0.3322422E+04  0.7818609E-02  0.8157213E-01
        2   -1    0    0  501    0  0.00000000000E+00  0.00000000000E+00  0.18849030351E+04  0.18849030351E+04  0.25500000920E-02 0. -1.
       -2   -1    0    0    0  501  0.00000000000E+00  0.00000000000E+00 -0.14640656246E+04  0.14640656246E+04  0.25500000920E-02 0.  1.
    10030    2    1    2    0    0  0.00000000000E+00  0.00000000000E+00  0.42083741041E+03  0.33489686597E+04  0.33224218512E+04 0.  0.
        3    1    3    3  502    0  0.69787727687E+03  0.10784236912E+04  0.12722067856E+04  0.18079105251E+04  0.10100000352E+00 0. -1.
       -3    1    3    3    0  502 -0.69787727687E+03 -0.10784236912E+04 -0.85136937514E+03  0.15410581346E+04  0.10100000352E+00 0.  1.
</event>
<event>
 5   0  0.2614212E-06  0.3308231E+04  0.7818609E-02  0.8160804E-01
        2   -1    0    0  501    0  0.00000000000E+00  0.00000000000E+00  0.28806701096E+04  0.28806701096E+04  0.25500000920E-02 0.  1.
       -2   -1    0    0    0  501  0.00000000000E+00  0.00000000000E+00 -0.94981330058E+03  0.94981330059E+03  0.25500000920E-02 0. -1.
    10030    2    1    2    0    0  0.00000000000E+00  0.00000000000E+00  0.19308568090E+04  0.38304834102E+04  0.33082314216E+04 0.  0.
        2    1    3    3  502    0 -0.65311439631E+03  0.15152643704E+04  0.83082569447E+03  0.18473916373E+04  0.25500000920E-02 0.  1.
       -2    1    3    3    0  502  0.65311439631E+03 -0.15152643704E+04  0.11000311145E+04  0.19830917729E+04  0.25500000920E-02 0. -1.
</event>
<event>
 5   0  0.9530268E-07  0.3283958E+04  0.7818609E-02  0.8166989E-01
        1   -1    0    0  501    0  0.00000000000E+00  0.00000000000E+00  0.21440615231E+04  0.21440615231E+04  0.50400001928E-02 0.  1.
       -1   -1    0    0    0  501  0.00000000000E+00  0.00000000000E+00 -0.12574706662E+04  0.12574706662E+04  0.50400001928E-02 0. -1.
    10030    2    1    2    0    0  0.00000000000E+00  0.00000000000E+00  0.88659085689E+03  0.34015321893E+04  0.32839576561E+04 0.  0.
        5    1    3    3  502    0 -0.14272620072E+04 -0.58191055630E+03  0.10295777325E+04  0.18535773871E+04  0.46999998093E+01 0. -1.
       -5    1    3    3    0  502  0.14272620072E+04  0.58191055630E+03 -0.14298687557E+03  0.15479548021E+04  0.46999998093E+01 0.  1.
</event>
<event>
 5   0  0.2574803E-06  0.3296600E+04  0.7818609E-02  0.8163761E-01
        2   -1    0    0  501    0  0.00000000000E+00  0.00000000000E+00  0.27509093440E+04  0.27509093440E+04  0.25500000920E-02 0. -1.
       -2   -1    0    0    0  501  0.00000000000E+00  0.00000000000E+00 -0.98763462068E+03  0.98763462068E+03  0.25500000920E-02 0.  1.
    10030    2    1    2    0    0  0.00000000000E+00  0.00000000000E+00  0.17632747233E+04  0.37385439647E+04  0.32966002527E+04 0.  0.
        4    1    3    3  502    0 -0.58189981077E+02  0.16094065643E+04  0.48339619713E+03  0.16814425531E+04  0.12699999809E+01 0.  1.
       -4    1    3    3    0  502  0.58189981077E+02 -0.16094065643E+04  0.12798785262E+04  0.20571014116E+04  0.12699999809E+01 0. -1.
</event>
<event>
 5   0  0.9268670E-07  0.3218646E+04  0.7818609E-02  0.8183910E-01
        1   -1    0    0  501    0  0.00000000000E+00  0.00000000000E+00  0.96079718148E+03  0.96079718149E+03  0.50400001928E-02 0.  1.
       -1   -1    0    0    0  501  0.00000000000E+00  0.00000000000E+00 -0.26955950290E+04  0.26955950290E+04  0.50400001928E-02 0. -1.
    10030    2    1    2    0    0  0.00000000000E+00  0.00000000000E+00 -0.17347978475E+04  0.36563922105E+04  0.32186457440E+04 0.  0.
        3    1    3    3  502    0  0.30275176615E+03  0.13066025102E+04 -0.18777723896E+04  0.23075740310E+04  0.10100000352E+00 0. -1.
       -3    1    3    3    0  502 -0.30275176615E+03 -0.13066025102E+04  0.14297454203E+03  0.13488181795E+04  0.10100000352E+00 0.  1.
</event>
<event>
 5   0  0.9268670E-07  0.3146226E+04  0.7818609E-02  0.8203165E-01
        1   -1    0    0  501    0  0.00000000000E+00  0.00000000000E+00  0.17478723666E+04  0.17478723666E+04  0.50400001928E-02 0.  1.
       -1   -1    0    0    0  501  0.00000000000E+00  0.00000000000E+00 -0.14158264817E+04  0.14158264817E+04  0.50400001928E-02 0. -1.
    10030    2    1    2    0    0  0.00000000000E+00  0.00000000000E+00  0.33204588483E+03  0.31636988483E+04  0.31462256647E+04 0.  0.
        3    1    3    3  502    0  0.76758767148E+02  0.15415747089E+04  0.47158468880E+03  0.16139196449E+04  0.10100000352E+00 0.  1.
       -3    1    3    3    0  502 -0.76758767148E+02 -0.15415747089E+04 -0.13953880397E+03  0.15497792034E+04  0.10100000352E+00 0. -1.
</event>
<event>
 5   0  0.2674551E-06  0.3206864E+04  0.7818609E-02  0.8187007E-01
       -2   -1    0    0    0  501  0.00000000000E+00  0.00000000000E+00  0.11754824110E+04  0.11754824110E+04  0.25500000920E-02 0. -1.
        2   -1    0    0  501    0  0.00000000000E+00  0.00000000000E+00 -0.21871823272E+04  0.21871823272E+04  0.25500000920E-02 0.  1.
    10030    2    1    2    0    0  0.00000000000E+00  0.00000000000E+00 -0.10116999161E+04  0.33626647382E+04  0.32068641102E+04 0.  0.
        3    1    3    3  502    0  0.11816607239E+04 -0.80207692633E+03  0.25849827126E+03  0.14513686053E+04  0.10100000352E+00 0. -1.
       -3    1    3    3    0  502 -0.11816607239E+04  0.80207692633E+03 -0.12701981874E+04  0.19112961329E+04  0.10100000352E+00 0.  1.
</event>
<event>
 5   0  0.9268670E-07  0.3276508E+04  0.7818609E-02  0.8168899E-01
       -1   -1    0    0    0  501  0.00000000000E+00  0.00000000000E+00  0.10049328182E+04  0.10049328182E+04  0.50400001928E-02 0.  1.
        1   -1    0    0  501    0  0.00000000000E+00  0.00000000000E+00 -0.26707013373E+04  0.26707013373E+04  0.50400001928E-02 0. -1.
    10030    2    1    2    0    0  0.00000000000E+00  0.00000000000E+00 -0.16657685191E+04  0.36756341554E+04  0.32765075439E+04 0.  0.
        3    1    3    3  502    0 -0.41869069217E+03 -0.65637125556E+03  0.78414464159E+03  0.11049922850E+04  0.10100000352E+00 0.  1.
       -3    1    3    3    0  502  0.41869069217E+03  0.65637125556E+03 -0.24499131607E+04  0.25706418704E+04  0.10100000352E+00 0. -1.
</event>
<event>
 5   0  0.9295663E-07  0.2742562E+04  0.7818609E-02  0.8321326E-01
       -1   -1    0    0    0  501  0.00000000000E+00  0.00000000000E+00  0.12866059158E+04  0.12866059158E+04  0.50400001928E-02 0. -1.
        1   -1    0    0  501    0  0.00000000000E+00  0.00000000000E+00 -0.14615292522E+04  0.14615292522E+04  0.50400001928E-02 0.  1.
    10030    2    1    2    0    0  0.00000000000E+00  0.00000000000E+00 -0.17492333634E+03  0.27481351680E+04  0.27425624383E+04 0.  0.
        4    1    3    3  502    0  0.16759553424E+03  0.38062204877E+03  0.12218874409E+04  0.12907253535E+04  0.12699999809E+01 0. -1.
       -4    1    3    3    0  502 -0.16759553424E+03 -0.38062204877E+03 -0.13968107772E+04  0.14574098145E+04  0.12699999809E+01 0.  1.
</event>
<event>
 5   0  0.9530268E-07  0.3276198E+04  0.7818609E-02  0.8168978E-01
        1   -1    0    0  501    0  0.00000000000E+00  0.00000000000E+00  0.15134876531E+04  0.15134876531E+04  0.50400001928E-02 0. -1.
       -1   -1    0    0    0  501  0.00000000000E+00  0.00000000000E+00 -0.17729705539E+04  0.17729705539E+04  0.50400001928E-02 0.  1.
    10030    2    1    2    0    0  0.00000000000E+00  0.00000000000E+00 -0.25948290078E+03  0.32864582071E+04  0.32761984328E+04 0.  0.
        5    1    3    3  502    0 -0.11043029050E+04  0.74649431373E+03  0.82540014314E+03  0.15678157267E+04  0.46999998093E+01 0. -1.
       -5    1    3    3    0  502  0.11043029050E+04 -0.74649431373E+03 -0.10848830439E+04  0.17186424804E+04  0.46999998093E+01 0.  1.
</event>
<event>
 5   0  0.9295663E-07  0.3276183E+04  0.7818609E-02  0.8168982E-01
       -1   -1    0    0    0  501  0.00000000000E+00  0.00000000000E+00  0.16129490641E+04  0.16129490641E+04  0.50400001928E-02 0.  1.
        1   -1    0    0  501    0  0.00000000000E+00  0.00000000000E+00 -0.16636257273E+04  0.16636257273E+04  0.50400001928E-02 0. -1.
    10030    2    1    2    0    0  0.00000000000E+00  0.00000000000E+00 -0.50676663179E+02  0.32765747914E+04  0.32761828764E+04 0.  0.
        4    1    3    3  502    0 -0.79409593278E+03  0.49557091207E+03  0.13191301355E+04  0.16174933715E+04  0.12699999809E+01 0.  1.
       -4    1    3    3    0  502  0.79409593278E+03 -0.49557091207E+03 -0.13698067987E+04  0.16590814200E+04  0.12699999809E+01 0. -1.
</event>
<event>
 5   0  0.2674551E-06  0.3310160E+04  0.7818609E-02  0.8160315E-01
        2   -1    0    0  501    0  0.00000000000E+00  0.00000000000E+00  0.20152040646E+04  0.20152040646E+04  0.25500000920E-02 0. -1.
       -2   -1    0    0    0  501  0.00000000000E+00  0.00000000000E+00 -0.13593115586E+04  0.13593115586E+04  0.25500000920E-02 0.  1.
    10030    2    1    2    0    0  0.00000000000E+00  0.00000000000E+00  0.65589250604E+03  0.33745156232E+04  0.33101602245E+04 0.  0.
        3    1    3    3  502    0  0.13255357835E+04  0.91260662904E+03  0.72197625287E+03  0.17638440103E+04  0.10100000352E+00 0. -1.
       -3    1    3    3    0  502 -0.13255357835E+04 -0.91260662904E+03 -0.66083746830E+02  0.16106716129E+04  0.10100000352E+00 0.  1.
</event>
<event>
 5   0  0.8845526E-07  0.3065424E+04  0.7818609E-02  0.8225292E-01
       -1   -1    0    0    0  501  0.00000000000E+00  0.00000000000E+00  0.12570108621E+04  0.12570108621E+04  0.50400001928E-02 0. -1.
        1   -1    0    0  501    0  0.00000000000E+00  0.00000000000E+00 -0.18688827329E+04  0.18688827329E+04  0.50400001928E-02 0.  1.
    10030    2    1    2    0    0  0.00000000000E+00  0.00000000000E+00 -0.61187187082E+03  0.31258935950E+04  0.30654238828E+04 0.  0.
        1    1    3    3  502    0 -0.19007154962E+03  0.12728574748E+04 -0.11547701323E+04  0.17291001717E+04  0.50400001928E-02 0.  1.
       -1    1    3    3    0  502  0.19007154962E+03 -0.12728574748E+04  0.54289826144E+03  0.13967934234E+04  0.50400001928E-02 0. -1.
</event>
<event>
 5   0  0.2674551E-06  0.3271095E+04  0.7818609E-02  0.8170289E-01
        2   -1    0    0  501    0  0.00000000000E+00  0.00000000000E+00  0.18149911167E+04  0.18149911167E+04  0.25500000920E-02 0.  1.
       -2   -1    0    0    0  501  0.00000000000E+00  0.00000000000E+00 -0.14738453263E+04  0.14738453263E+04  0.25500000920E-02 0. -1.
    10030    2    1    2    0    0  0.00000000000E+00  0.00000000000E+00  0.34114579039E+03  0.32888364431E+04  0.32710953363E+04 0.  0.
        3    1    3    3  502    0  0.24955280386E+03 -0.17546696506E+03  0.17861327934E+04  0.18119976886E+04  0.10100000352E+00 0.  1.
       -3    1    3    3    0  502 -0.24955280386E+03  0.17546696506E+03 -0.14449870030E+04  0.14768387545E+04  0.10100000352E+00 0. -1.
</event>
<event>
 5   0  0.2574803E-06  0.3242453E+04  0.7818609E-02  0.8177695E-01
       -2   -1    0    0    0  501  0.00000000000E+00  0.00000000000E+00  0.10238595299E+04  0.10238595299E+04  0.25500000920E-02 0.  1.
        2   -1    0    0  501    0  0.00000000000E+00  0.00000000000E+00 -0.25671252799E+04  0.25671252799E+04  0.25500000920E-02 0. -1.
    10030    2    1    2    0    0  0.00000000000E+00  0.00000000000E+00 -0.15432657500E+04  0.35909848098E+04  0.32424531962E+04 0.  0.
        4    1    3    3  502    0  0.14458967891E+03  0.11445201666E+04  0.48990553425E+03  0.12533322115E+04  0.12699999809E+01 0.  1.
       -4    1    3    3    0  502 -0.14458967891E+03 -0.11445201666E+04 -0.20331712842E+04  0.23376525984E+04  0.12699999809E+01 0. -1.
</event>
<event>
 5   0  0.9295663E-07  0.3712717E+04  0.7818609E-02  0.8065149E-01
        1   -1    0    0  501    0  0.00000000000E+00  0.00000000000E+00  0.28644949918E+04  0.28644949918E+04  0.50400001928E-02 0. -1.
       -1   -1    0    0    0  501  0.00000000000E+00  0.00000000000E+00 -0.12030278145E+04  0.12030278145E+04  0.50400001928E-02 0.  1.
    10030    2    1    2    0    0  0.00000000000E+00  0.00000000000E+00  0.16614671773E+04  0.40675228063E+04  0.37127171449E+04 0.  0.
        4    1    3    3  502    0  0.12052196487E+04  0.14031139796E+04  0.10032017355E+04  0.21042097273E+04  0.12699999809E+01 0.  1.
       -4    1    3    3    0  502 -0.12052196487E+04 -0.14031139796E+04  0.65826544181E+03  0.19633130790E+04  0.12699999809E+01 0. -1.
</event>
<event>
 5   0  0.8845526E-07  0.3368270E+04  0.7818609E-02  0.8145738E-01
        1   -1    0    0  501    0  0.00000000000E+00  0.00000000000E+00  0.18245511490E+04  0.18245511490E+04  0.50400001928E-02 0.  1.
       -1   -1    0    0    0  501  0.00000000000E+00  0.00000000000E+00 -0.15545251794E+04  0.15545251794E+04  0.50400001928E-02 0. -1.
    10030    2    1    2    0    0  0.00000000000E+00  0.00000000000E+00  0.27002596958E+03  0.33790763284E+04  0.33682700023E+04 0.  0.
        1    1    3    3  502    0 -0.13501596855E+04  0.10034166750E+04  0.21610859616E+03  0.16960186100E+04  0.50400001928E-02 0.  1.
       -1    1    3    3    0  502  0.13501596855E+04 -0.10034166750E+04  0.53917373429E+02  0.16830577184E+04  0.50400001928E-02 0. -1.
</event>
<event>
 5   0  0.2614212E-06  0.3269024E+04  0.7818609E-02  0.8170822E-01
       -2   -1    0    0    0  501  0.00000000000E+00  0.00000000000E+00  0.12515926027E+04  0.12515926027E+04  0.25500000920E-02 0. -1.
        2   -1    0    0  501    0  0.00000000000E+00  0.00000000000E+00 -0.21345840460E+04  0.21345840460E+04  0.25500000920E-02 0.  1.
    10030    2    1    2    0    0  0.00000000000E+00  0.00000000000E+00 -0.88299144330E+03  0.33861766488E+04  0.32690240757E+04 0.  0.
        2    1    3    3  502    0 -0.31398964423E+03 -0.99123770646E+03 -0.17478370842E+04  0.20337345354E+04  0.25500000920E-02 0.  1.
       -2    1    3    3    0  502  0.31398964423E+03  0.99123770646E+03  0.86484564094E+03  0.13524421134E+04  0.25500000920E-02 0. -1.
</event>
<event>
 5   0  0.2674551E-06  0.3229630E+04  0.7818609E-02  0.8181036E-01
       -2   -1    0    0    0  501  0.00000000000E+00  0.00000000000E+00  0.96654059817E+03  0.96654059817E+03  0.25500000920E-02 0.  1.
        2   -1    0    0  501    0  0.00000000000E+00  0.00000000000E+00 -0.26978969217E+04  0.26978969217E+04  0.25500000920E-02 0. -1.
    10030    2    1    2    0    0  0.00000000000E+00  0.00000000000E+00 -0.17313563235E+04  0.36644375198E+04  0.32296296410E+04 0.  0.
        3    1    3    3  502    0 -0.46035904819E+03 -0.14633484866E+04 -0.14378603171E+04  0.21025607121E+04  0.10100000352E+00 0.  1.
       -3    1    3    3    0  502  0.46035904819E+03  0.14633484866E+04 -0.29349600643E+03  0.15618768077E+04  0.10100000352E+00 0. -1.
</event>
<event>
 5   0  0.9295663E-07  0.3281626E+04  0.7818609E-02  0.8167586E-01
        1   -1    0    0  501    0  0.00000000000E+00  0.00000000000E+00  0.16774947141E+04  0.16774947141E+04  0.50400001928E-02 0.  1.
       -1   -1    0    0    0  501  0.00000000000E+00  0.00000000000E+00 -0.16049337178E+04  0.16049337178E+04  0.50400001928E-02 0. -1.
    10030    2    1    2    0    0  0.00000000000E+00  0.00000000000E+00  0.72560996366E+02  0.32824284319E+04  0.32816263213E+04 0.  0.
        4    1    3    3  502    0  0.14710728200E+04  0.52978710292E+03  0.53393260749E+03  0.16522152579E+04  0.12699999809E+01 0.  1.
       -4    1    3    3    0  502 -0.14710728200E+04 -0.52978710292E+03 -0.46137161112E+03  0.16302131740E+04  0.12699999809E+01 0. -1.
</event>
<event>
 5   0  0.8705956E-07  0.2747114E+04  0.7818609E-02  0.8319878E-01
       -1   -1    0    0    0  501  0.00000000000E+00  0.00000000000E+00  0.14160448009E+04  0.14160448009E+04  0.50400001928E-02 0. -1.
        1   -1    0    0  501    0  0.00000000000E+00  0.00000000000E+00 -0.13323442928E+04  0.13323442928E+04  0.50400001928E-02 0.  1.
    10030    2    1    2    0    0  0.00000000000E+00  0.00000000000E+00  0.83700508050E+02  0.27483890937E+04  0.27471142742E+04 0.  0.
        2    1    3    3  502    0  0.14716157096E+02  0.13361228203E+04 -0.27644586118E+03  0.13645010334E+04  0.25500000920E-02 0.  1.
       -2    1    3    3    0  502 -0.14716157096E+02 -0.13361228203E+04  0.36014636923E+03  0.13838880603E+04  0.25500000920E-02 0. -1.
</event>
<event>
 5   0  0.8845526E-07  0.3350228E+04  0.7818609E-02  0.8150231E-01
        1   -1    0    0  501    0  0.00000000000E+00  0.00000000000E+00  0.17475206200E+04  0.17475206200E+04  0.50400001928E-02 0. -1.
       -1   -1    0    0    0  501  0.00000000000E+00  0.00000000000E+00 -0.16057070808E+04  0.16057070808E+04  0.50400001928E-02 0.  1.
    10030    2    1    2    0    0  0.00000000000E+00  0.00000000000E+00  0.14181353924E+03  0.33532277009E+04  0.33502275943E+04 0.  0.
        1    1    3    3  502    0 -0.56378828634E+03 -0.10070106681E+04  0.12861103547E+04  0.17280068176E+04  0.50400001928E-02 0. -1.
       -1    1    3    3    0  502  0.56378828634E+03  0.10070106681E+04 -0.11442968154E+04  0.16252208832E+04  0.50400001928E-02 0.  1.
</event>
<event>
 5   0  0.2614212E-06  0.3315690E+04  0.7818609E-02  0.8158914E-01
       -2   -1    0    0    0  501  0.00000000000E+00  0.00000000000E+00  0.21869104236E+04  0.21869104236E+04  0.25500000920E-02 0. -1.
        2   -1    0    0  501    0  0.00000000000E+00  0.00000000000E+00 -0.12567733608E+04  0.12567733608E+04  0.25500000920E-02 0.  1.
    10030    2    1    2    0    0  0.00000000000E+00  0.00000000000E+00  0.93013706277E+03  0.34436837843E+04  0.33156904335E+04 0.  0.
        2    1    3    3  502    0  0.69276037464E+03  0.11100544831E+04 -0.59222295545E+03  0.14362680533E+04  0.25500000920E-02 0.  1.
       -2    1    3    3    0  502 -0.69276037464E+03 -0.11100544831E+04  0.15223600182E+04  0.20074157310E+04  0.25500000920E-02 0. -1.
</event>
<event>
 5   0  0.9530268E-07  0.3287898E+04  0.7818609E-02  0.8165981E-01
        1   -1    0    0  501    0  0.00000000000E+00  0.00000000000E+00  0.20578924148E+04  0.20578924148E+04  0.50400001928E-02 0. -1.
       -1   -1    0    0    0  501  0.00000000000E+00  0.00000000000E+00 -0.13132703083E+04  0.13132703083E+04  0.50400001928E-02 0.  1.
    10030    2    1    2    0    0  0.00000000000E+00  0.00000000000E+00  0.74462210656E+03  0.33711627231E+04  0.32878984206E+04 0.  0.
        5    1    3    3  502    0 -0.77317915846E+03 -0.12400541062E+04 -0.39975672349E+03  0.15150471033E+04  0.46999998093E+01 0.  1.
       -5    1    3    3    0  502  0.77317915846E+03  0.12400541062E+04  0.11443788300E+04  0.18561156198E+04  0.46999998093E+01 0. -1.
</event>
<event>
 5   0  0.9268670E-07  0.3079948E+04  0.7818609E-02  0.8221263E-01
       -1   -1    0    0    0  501  0.00000000000E+00  0.00000000000E+00  0.16588881780E+04  0.16588881780E+04  0.50400001928E-02 0. -1.
        1   -1    0    0  501    0  0.00000000000E+00  0.00000000000E+00 -0.14295838694E+04  0.14295838694E+04  0.50400001928E-02 0.  1.
    10030    2    1    2    0    0  0.00000000000E+00  0.00000000000E+00  0.22930430865E+03  0.30884720474E+04  0.30799479089E+04 0.  0.
        3    1    3    3  502    0  0.11450224941E+04 -0.16888269538E+03  0.11332991696E+04  0.16198657027E+04  0.10100000352E+00 0. -1.
       -3    1    3    3    0  502 -0.11450224941E+04  0.16888269538E+03 -0.90399486098E+03  0.14686063447E+04  0.10100000352E+00 0.  1.
</event>
<event>
 5   0  0.2674551E-06  0.2489349E+04  0.7818609E-02  0.8406790E-01
        2   -1    0    0  501    0  0.00000000000E+00  0.00000000000E+00  0.57697672192E+03  0.57697672192E+03  0.25500000920E-02 0.  1.
       -2   -1    0    0    0  501  0.00000000000E+00  0.00000000000E+00 -0.26850556210E+04  0.26850556210E+04  0.25500000920E-02 0. -1.
    10030    2    1    2    0    0  0.00000000000E+00  0.00000000000E+00 -0.21080788991E+04  0.32620323429E+04  0.24893489835E+04 0.  0.
        3    1    3    3  502    0 -0.54041862400E+03 -0.69873019192E+03  0.95035231625E+02  0.88843000609E+03  0.10100000352E+00 0.  1.
       -3    1    3    3    0  502  0.54041862400E+03  0.69873019192E+03 -0.22031141307E+04  0.23736023368E+04  0.10100000352E+00 0. -1.
</event>
<event>
 5   0  0.2674551E-06  0.3051150E+04  0.7818609E-02  0.8229274E-01
        2   -1    0    0  501    0  0.00000000000E+00  0.00000000000E+00  0.14543162967E+04  0.14543162967E+04  0.25500000920E-02 0. -1.
       -2   -1    0    0    0  501  0.00000000000E+00  0.00000000000E+00 -0.16003251588E+04  0.16003251588E+04  0.25500000920E-02 0.  1.
    10030    2    1    2    0    0  0.00000000000E+00  0.00000000000E+00 -0.14600886213E+03  0.30546414555E+04  0.30511499199E+04 0.  0.
        3    1    3    3  502    0 -0.10245446145E+04  0.10814953405E+04  0.25608910212E+03  0.15115903800E+04  0.10100000352E+00 0.  1.
       -3    1    3    3    0  502  0.10245446145E+04 -0.10814953405E+04 -0.40209796424E+03  0.15430510755E+04  0.10100000352E+00 0. -1.
</event>
<event>
 5   0  0.8845526E-07  0.3379931E+04  0.7818609E-02  0.8142850E-01
       -1   -1    0    0    0  501  0.00000000000E+00  0.00000000000E+00  0.16878990586E+04  0.16878990586E+04  0.50400001928E-02 0.  1.
        1   -1    0    0  501    0  0.00000000000E+00  0.00000000000E+00 -0.16920341551E+04  0.16920341551E+04  0.50400001928E-02 0. -1.
    10030    2    1    2    0    0  0.00000000000E+00  0.00000000000E+00 -0.41350965140E+01  0.33799332138E+04  0.33799306843E+04 0.  0.
        1    1    3    3  502    0  0.62220843188E+03 -0.14396679350E+04 -0.63150885206E+03  0.16907366814E+04  0.50400001928E-02 0. -1.
       -1    1    3    3    0  502 -0.62220843188E+03  0.14396679350E+04  0.62737375555E+03  0.16891965323E+04  0.50400001928E-02 0.  1.
</event>
<event>
 5   0  0.2705859E-06  0.3283281E+04  0.7818609E-02  0.8167163E-01
        2   -1    0    0  501    0  0.00000000000E+00  0.00000000000E+00  0.29037046988E+04  0.29037046988E+04  0.25500000920E-02 0.  1.
       -2   -1    0    0    0  501  0.00000000000E+00  0.00000000000E+00 -0.92811888366E+03  0.92811888366E+03  0.25500000920E-02 0. -1.
    10030    2    1    2    0    0  0.00000000000E+00  0.00000000000E+00  0.19755858151E+04  0.38318235824E+04  0.32832807760E+04 0.  0.
        1    1    3    3  502    0  0.12004938926E+04 -0.37427157192E+03  0.22194368443E+04  0.25509144834E+04  0.50400001928E-02 0.  1.
       -1    1    3    3    0  502 -0.12004938926E+04  0.37427157192E+03 -0.24385102913E+03  0.12809090991E+04  0.50400001928E-02 0. -1.
</event>
<event>
 5   0  0.8705956E-07  0.3321486E+04  0.7818609E-02  0.8157450E-01
       -1   -1    0    0    0  501  0.00000000000E+00  0.00000000000E+00  0.14555796146E+04  0.14555796147E+04  0.50400001928E-02 0. -1.
        1   -1    0    0  501    0  0.00000000000E+00  0.00000000000E+00 -0.18948239881E+04  0.18948239881E+04  0.50400001928E-02 0.  1.
    10030    2    1    2    0    0  0.00000000000E+00  0.00000000000E+00 -0.43924437343E+03  0.33504036027E+04  0.33214859147E+04 0.  0.
        2    1    3    3  502    0 -0.14732080697E+04  0.75597305402E+03 -0.91116432975E+02  0.16583544492E+04  0.25500000920E-02 0. -1.
       -2    1    3    3    0  502  0.14732080697E+04 -0.75597305402E+03 -0.34812794045E+03  0.16920491535E+04  0.25500000920E-02 0.  1.
</event>
<event>
 5   0  0.8845526E-07  0.2972974E+04  0.7818609E-02  0.8251491E-01
        1   -1    0    0  501    0  0.00000000000E+00  0.00000000000E+00  0.24016089825E+04  0.24016089825E+04  0.50400001928E-02 0.  1.
       -1   -1    0    0    0  501  0.00000000000E+00  0.00000000000E+00 -0.92006794043E+03  0.92006794045E+03  0.50400001928E-02 0. -1.
    10030    2    1    2    0    0  0.00000000000E+00  0.00000000000E+00  0.14815410421E+04  0.33216769230E+04  0.29729738850E+04 0.  0.
        1    1    3    3  502    0  0.52433802304E+01  0.12318104972E+04  0.16703800118E+04  0.20754647619E+04  0.50400001928E-02 0.  1.
       -1    1    3    3    0  502 -0.52433802304E+01 -0.12318104972E+04 -0.18883896972E+03  0.12462121611E+04  0.50400001928E-02 0. -1.
</event>
<event>
 5   0  0.8705956E-07  0.3286286E+04  0.7818609E-02  0.8166394E-01
       -1   -1    0    0    0  501  0.00000000000E+00  0.00000000000E+00  0.17222297758E+04  0.17222297758E+04  0.50400001928E-02 0. -1.
        1   -1    0    0  501    0  0.00000000000E+00  0.00000000000E+00 -0.15676876163E+04  0.15676876163E+04  0.50400001928E-02 0.  1.
    10030    2    1    2    0    0  0.00000000000E+00  0.00000000000E+00  0.15454215953E+03  0.32899173921E+04  0.32862856187E+04 0.  0.
        2    1    3    3  502    0  0.77151962199E+03 -0.18573161250E+03  0.15176730018E+04  0.17126208277E+04  0.25500000920E-02 0. -1.
       -2    1    3    3    0  502 -0.77151962199E+03  0.18573161250E+03 -0.13631308423E+04  0.15772965644E+04  0.25500000920E-02 0.  1.
</event>
<event>
 5   0  0.2705859E-06  0.3255140E+04  0.7818609E-02  0.8174405E-01
       -2   -1    0    0    0  501  0.00000000000E+00  0.00000000000E+00  0.24182129468E+04  0.24182129468E+04  0.25500000920E-02 0.  1.
        2   -1    0    0  501    0  0.00000000000E+00  0.00000000000E+00 -0.10954303570E+04  0.10954303570E+04  0.25500000920E-02 0. -1.
    10030    2    1    2    0    0  0.00000000000E+00  0.00000000000E+00  0.13227825899E+04  0.35136433038E+04  0.32551398566E+04 0.  0.
        1    1    3    3  502    0  0.15821152989E+04 -0.12149743315E+03  0.10522724408E+04  0.19039768210E+04  0.50400001928E-02 0.  1.
       -1    1    3    3    0  502 -0.15821152989E+04  0.12149743315E+03  0.27051014909E+03  0.16096664828E+04  0.50400001928E-02 0. -1.
</event>
<event>
 5   0  0.9295663E-07  0.3294045E+04  0.7818609E-02  0.8164412E-01
       -1   -1    0    0    0  501  0.00000000000E+00  0.00000000000E+00  0.16122765731E+04  0.16122765731E+04  0.50400001928E-02 0. -1.
        1   -1    0    0  501    0  0.00000000000E+00  0.00000000000E+00 -0.16825172063E+04  0.16825172063E+04  0.50400001928E-02 0.  1.
    10030    2    1    2    0    0  0.00000000000E+00  0.00000000000E+00 -0.70240633212E+02  0.32947937794E+04  0.32940449757E+04 0.  0.
        4    1    3    3  502    0 -0.13744995228E+04 -0.64575004331E+03  0.60255061028E+03  0.16338025913E+04  0.12699999809E+01 0. -1.
       -4    1    3    3    0  502  0.13744995228E+04  0.64575004331E+03 -0.67279124350E+03  0.16609911880E+04  0.12699999809E+01 0.  1.
</event>
<event>
 5   0  0.8705956E-07  0.2865296E+04  0.7818609E-02  0.8283278E-01
        1   -1    0    0  501    0  0.00000000000E+00  0.00000000000E+00  0.14439249018E+04  0.14439249018E+04  0.50400001928E-02 0. -1.
       -1   -1    0    0    0  501  0.00000000000E+00  0.00000000000E+00 -0.14214592503E+04  0.14214592503E+04  0.50400001928E-02 0.  1.
    10030    2    1    2    0    0  0.00000000000E+00  0.00000000000E+00  0.22465651525E+02  0.28653841521E+04  0.28652960814E+04 0.  0.
        2    1    3    3  502    0  0.11874743096E+04 -0.75545364826E+03 -0.25649719490E+03  0.14305929756E+04  0.25500000920E-02 0.  1.
       -2    1    3    3    0  502 -0.11874743096E+04  0.75545364826E+03  0.27896284642E+03  0.14347911766E+04  0.25500000920E-02 0. -1.
</event>
<event>
 5   0  0.2614212E-06  0.3360422E+04  0.7818609E-02  0.8147689E-01
        2   -1    0    0  501    0  0.00000000000E+00  0.00000000000E+00  0.19010579290E+04  0.19010579290E+04  0.25500000920E-02 0.  1.
       -2   -1    0    0    0  501  0.00000000000E+00  0.00000000000E+00 -0.14850201017E+04  0.14850201017E+04  0.25500000920E-02 0. -1.
    10030    2    1    2    0    0  0.00000000000E+00  0.00000000000E+00  0.41603782733E+03  0.33860780307E+04  0.33604221396E+04 0.  0.
        2    1    3    3  502    0 -0.65450641325E+03  0.15145840749E+04  0.52787854489E+03  0.17323392633E+04  0.25500000920E-02 0. -1.
       -2    1    3    3    0  502  0.65450641325E+03 -0.15145840749E+04 -0.11184071757E+03  0.16537387675E+04  0.25500000920E-02 0.  1.
</event>
<event>
 5   0  0.9268670E-07  0.3286992E+04  0.7818609E-02  0.8166213E-01
       -1   -1    0    0    0  501  0.00000000000E+00  0.00000000000E+00  0.15687922515E+04  0.15687922515E+04  0.50400001928E-02 0. -1.
        1   -1    0    0  501    0  0.00000000000E+00  0.00000000000E+00 -0.17217568533E+04  0.17217568533E+04  0.50400001928E-02 0.  1.
    10030    2    1    2    0    0  0.00000000000E+00  0.00000000000E+00 -0.15296460177E+03  0.32905491048E+04  0.32869918225E+04 0.  0.
        3    1    3    3  502    0 -0.53054264030E+03 -0.87318376667E+03  0.12122155694E+04  0.15853680899E+04  0.10100000352E+00 0. -1.
       -3    1    3    3    0  502  0.53054264030E+03  0.87318376667E+03 -0.13651801712E+04  0.17051810149E+04  0.10100000352E+00 0.  1.
</event>
<event>
 5   0  0.2658600E-06  0.3894724E+04  0.7818609E-02  0.8026127E-01
       -2   -1    0    0    0  501  0.00000000000E+00  0.00000000000E+00  0.22773229029E+04  0.22773229029E+04  0.25500000920E-02 0.  1.
        2   -1    0    0  501    0  0.00000000000E+00  0.00000000000E+00 -0.16652091207E+04  0.16652091207E+04  0.25500000920E-02 0. -1.
    10030    2    1    2    0    0  0.00000000000E+00  0.00000000000E+00  0.61211378226E+03  0.39425320236E+04  0.38947240563E+04 0.  0.
        5    1    3    3  502    0  0.23098472652E+03  0.12568899712E+02  0.22633594599E+04  0.22751549520E+04  0.46999998093E+01 0.  1.
       -5    1    3    3    0  502 -0.23098472652E+03 -0.12568899712E+02 -0.16512456776E+04  0.16673770716E+04  0.46999998093E+01 0. -1.
</event>
<event>
 5   0  0.9268670E-07  0.3300653E+04  0.7818609E-02  0.8162729E-01
        1   -1    0    0  501    0  0.00000000000E+00  0.00000000000E+00  0.13713474049E+04  0.13713474049E+04  0.50400001928E-02 0. -1.
       -1   -1    0    0    0  501  0.00000000000E+00  0.00000000000E+00 -0.19860596879E+04  0.19860596879E+04  0.50400001928E-02 0.  1.
    10030    2    1    2    0    0  0.00000000000E+00  0.00000000000E+00 -0.61471228302E+03  0.33574070929E+04  0.33006531469E+04 0.  0.
        3    1    3    3  502    0 -0.47664406135E+03  0.63813144400E+03 -0.17776078068E+04  0.19478939463E+04  0.10100000352E+00 0.  1.
       -3    1    3    3    0  502  0.47664406135E+03 -0.63813144400E+03  0.11628955237E+04  0.14095131466E+04  0.10100000352E+00 0. -1.
</event>
<event>
 5   0  0.2614212E-06  0.3311130E+04  0.7818609E-02  0.8160069E-01
        2   -1    0    0  501    0  0.00000000000E+00  0.00000000000E+00  0.24315604680E+04  0.24315604680E+04  0.25500000920E-02 0. -1.
       -2   -1    0    0    0  501  0.00000000000E+00  0.00000000000E+00 -0.11272165705E+04  0.11272165705E+04  0.25500000920E-02 0.  1.
    10030    2    1    2    0    0  0.00000000000E+00  0.00000000000E+00  0.13043438975E+04  0.35587770386E+04  0.33111298687E+04 0.  0.
        2    1    3    3  502    0  0.15095840943E+04 -0.96282063900E+01  0.13826816783E+04  0.20471310324E+04  0.25500000920E-02 0. -1.
       -2    1    3    3    0  502 -0.15095840943E+04  0.96282063900E+01 -0.78337780747E+02  0.15116460062E+04  0.25500000920E-02 0.  1.
</event>
<event>
 5   0  0.2614212E-06  0.3281354E+04  0.7818609E-02  0.8167656E-01
        2   -1    0    0  501    0  0.00000000000E+00  0.00000000000E+00  0.28900935245E+04  0.28900935245E+04  0.25500000920E-02 0. -1.
       -2   -1    0    0    0  501  0.00000000000E+00  0.00000000000E+00 -0.93139571535E+03  0.93139571535E+03  0.25500000920E-02 0.  1.
    10030    2    1    2    0    0  0.00000000000E+00  0.00000000000E+00  0.19586978092E+04  0.38214892398E+04  0.32813538216E+04 0.  0.
        2    1    3    3  502    0 -0.16187879047E+04  0.26426153366E+03  0.93405949279E+03  0.18875316090E+04  0.25500000920E-02 0.  1.
       -2    1    3    3    0  502  0.16187879047E+04 -0.26426153366E+03  0.10246383164E+04  0.19339576309E+04  0.25500000920E-02 0. -1.
</event>
<event>
 5   0  0.8845526E-07  0.3255926E+04  0.7818609E-02  0.8174201E-01
        1   -1    0    0  501    0  0.00000000000E+00  0.00000000000E+00  0.21959833655E+04  0.21959833655E+04  0.50400001928E-02 0.  1.
       -1   -1    0    0    0  501  0.00000000000E+00  0.00000000000E+00 -0.12068689254E+04  0.12068689254E+04  0.50400001928E-02 0. -1.
    10030    2    1    2    0    0  0.00000000000E+00  0.00000000000E+00  0.98911444009E+03  0.34028522909E+04  0.32559263410E+04 0.  0.
        1    1    3    3  502    0  0.14080386515E+03  0.37679308575E+03 -0.11541150127E+04  0.12222030194E+04  0.50400001928E-02 0. -1.
       -1    1    3    3    0  502 -0.14080386515E+03 -0.37679308575E+03  0.21432294528E+04  0.21806492715E+04  0.50400001928E-02 0.  1.
</event>
<event>
 5   0  0.2674551E-06  0.3315965E+04  0.7818609E-02  0.8158845E-01
       -2   -1    0    0    0  501  0.00000000000E+00  0.00000000000E+00  0.11646984863E+04  0.11646984863E+04  0.25500000920E-02 0. -1.
        2   -1    0    0  501    0  0.00000000000E+00  0.00000000000E+00 -0.23601870294E+04  0.23601870294E+04  0.25500000920E-02 0.  1.
    10030    2    1    2    0    0  0.00000000000E+00  0.00000000000E+00 -0.11954885431E+04  0.35248855157E+04  0.33159651751E+04 0.  0.
        3    1    3    3  502    0 -0.81285768675E+03 -0.72040861857E+03  0.73384854876E+03  0.13108241298E+04  0.10100000352E+00 0. -1.
       -3    1    3    3    0  502  0.81285768675E+03  0.72040861857E+03 -0.19293370918E+04  0.22140613859E+04  0.10100000352E+00 0.  1.
</event>
<event>
 5   0  0.2614212E-06  0.3323401E+04  0.7818609E-02  0.8156966E-01
       -2   -1    0    0    0  501  0.00000000000E+00  0.00000000000E+00  0.12239314839E+04  0.12239314839E+04  0.25500000920E-02 0.  1.
        2   -1    0    0  501    0  0.00000000000E+00  0.00000000000E+00 -0.22560484880E+04  0.22560484880E+04  0.25500000920E-02 0. -1.
    10030    2    1    2    0    0  0.00000000000E+00  0.00000000000E+00 -0.10321170041E+04  0.34799799719E+04  0.33234011336E+04 0.  0.
        2    1    3    3  502    0 -0.34692146455E+02  0.70806819523E+03  0.10576409078E+04  0.12732511158E+04  0.25500000920E-02 0.  1.
       -2    1    3    3    0  502  0.34692146455E+02 -0.70806819523E+03 -0.20897579119E+04  0.22067288561E+04  0.25500000920E-02 0. -1.
</event>
<event>
 5   0  0.9268670E-07  0.3277718E+04  0.7818609E-02  0.8168588E-01
       -1   -1    0    0    0  501  0.00000000000E+00  0.00000000000E+00  0.14516058874E+04  0.14516058874E+04  0.50400001928E-02 0. -1.
        1   -1    0    0  501    0  0.00000000000E+00  0.00000000000E+00 -0.18502668103E+04  0.18502668103E+04  0.50400001928E-02 0.  1.
    10030    2    1    2    0    0  0.00000000000E+00  0.00000000000E+00 -0.39866092294E+03  0.33018726978E+04  0.32777176176E+04 0.  0.
        3    1    3    3  502    0 -0.16276002818E+04 -0.18459468095E+03 -0.25167793496E+03  0.16572566689E+04  0.10100000352E+00 0.  1.
       -3    1    3    3    0  502  0.16276002818E+04  0.18459468095E+03 -0.14698298799E+03  0.16446160289E+04  0.10100000352E+00 0. -1.
</event>
<event>
 5   0  0.9268670E-07  0.3172064E+04  0.7818609E-02  0.8196234E-01
        1   -1    0    0  501    0  0.00000000000E+00  0.00000000000E+00  0.15661750047E+04  0.15661750047E+04  0.50400001928E-02 0.  1.
       -1   -1    0    0    0  501  0.00000000000E+00  0.00000000000E+00 -0.16061403596E+04  0.16061403596E+04  0.50400001928E-02 0. -1.
    10030    2    1    2    0    0  0.00000000000E+00  0.00000000000E+00 -0.39965354844E+02  0.31723153643E+04  0.31720636092E+04 0.  0.
        3    1    3    3  502    0 -0.47981993956E+03  0.31102499027E+02  0.14915281373E+04  0.15671154183E+04  0.10100000352E+00 0.  1.
       -3    1    3    3    0  502  0.47981993956E+03 -0.31102499027E+02 -0.15314934921E+04  0.16051999460E+04  0.10100000352E+00 0. -1.
</event>
<event>
 5   0  0.9295663E-07  0.2930063E+04  0.7818609E-02  0.8263989E-01
       -1   -1    0    0    0  501  0.00000000000E+00  0.00000000000E+00  0.91629578838E+03  0.91629578839E+03  0.50400001928E-02 0. -1.
        1   -1    0    0  501    0  0.00000000000E+00  0.00000000000E+00 -0.23423843579E+04  0.23423843579E+04  0.50400001928E-02 0.  1.
    10030    2    1    2    0    0  0.00000000000E+00  0.00000000000E+00 -0.14260885695E+04  0.32586801463E+04  0.29300627447E+04 0.  0.
        4    1    3    3  502    0 -0.38503640424E+03  0.50190271797E+03 -0.21826685930E+04  0.22724883213E+04  0.12699999809E+01 0.  1.
       -4    1    3    3    0  502  0.38503640424E+03 -0.50190271797E+03  0.75658002344E+03  0.98619182498E+03  0.12699999809E+01 0. -1.
</event>
<event>
 5   0  0.2674551E-06  0.3305198E+04  0.7818609E-02  0.8161574E-01
        2   -1    0    0  501    0  0.00000000000E+00  0.00000000000E+00  0.10336602885E+04  0.10336602885E+04  0.25500000920E-02 0.  1.
       -2   -1    0    0    0  501  0.00000000000E+00  0.00000000000E+00 -0.26421486362E+04  0.26421486362E+04  0.25500000920E-02 0. -1.
    10030    2    1    2    0    0  0.00000000000E+00  0.00000000000E+00 -0.16084883477E+04  0.36758089247E+04  0.33051984035E+04 0.  0.
        3    1    3    3  502    0  0.89370621612E+03  0.80609943500E+03 -0.20637411215E+04  0.23890446891E+04  0.10100000352E+00 0. -1.
       -3    1    3    3    0  502 -0.89370621612E+03 -0.80609943500E+03  0.45525277376E+03  0.12867642356E+04  0.10100000352E+00 0.  1.
</event>
<event>
 5   0  0.2614212E-06  0.3085463E+04  0.7818609E-02  0.8219739E-01
        2   -1    0    0  501    0  0.00000000000E+00  0.00000000000E+00  0.32021506249E+04  0.32021506249E+04  0.25500000920E-02 0. -1.
       -2   -1    0    0    0  501  0.00000000000E+00  0.00000000000E+00 -0.74325701952E+03  0.74325701952E+03  0.25500000920E-02 0.  1.
    10030    2    1    2    0    0  0.00000000000E+00  0.00000000000E+00  0.24588936054E+04  0.39454076444E+04  0.30854632907E+04 0.  0.
        2    1    3    3  502    0 -0.15114201877E+04 -0.41953433362E+02  0.83767373965E+03  0.17285393743E+04  0.25500000920E-02 0.  1.
       -2    1    3    3    0  502  0.15114201877E+04  0.41953433362E+02  0.16212198658E+04  0.22168682702E+04  0.25500000920E-02 0. -1.
</event>
<event>
 5   0  0.2574803E-06  0.3147426E+04  0.7818609E-02  0.8202841E-01
       -2   -1    0    0    0  501  0.00000000000E+00  0.00000000000E+00  0.12850893954E+04  0.12850893954E+04  0.25500000920E-02 0.  1.
        2   -1    0    0  501    0  0.00000000000E+00  0.00000000000E+00 -0.19271599078E+04  0.19271599078E+04  0.25500000920E-02 0. -1.
    10030    2    1    2    0    0  0.00000000000E+00  0.00000000000E+00 -0.64207051242E+03  0.32122493032E+04  0.31474260981E+04 0.  0.
        4    1    3    3  502    0 -0.11122656513E+04  0.10769067746E+04 -0.32894400256E+02  0.15485305082E+04  0.12699999809E+01 0.  1.
       -4    1    3    3    0  502  0.11122656513E+04 -0.10769067746E+04 -0.60917611217E+03  0.16637187950E+04  0.12699999809E+01 0. -1.
</event>
<event>
 5   0  0.8705956E-07  0.3193560E+04  0.7818609E-02  0.8190520E-01
        1   -1    0    0  501    0  0.00000000000E+00  0.00000000000E+00  0.12737188435E+04  0.12737188435E+04  0.50400001928E-02 0. -1.
       -1   -1    0    0    0  501  0.00000000000E+00  0.00000000000E+00 -0.20017806678E+04  0.20017806678E+04  0.50400001928E-02 0.  1.
    10030    2    1    2    0    0  0.00000000000E+00  0.00000000000E+00 -0.72806182429E+03  0.32754995113E+04  0.31935596172E+04 0.  0.
        2    1    3    3  502    0 -0.10862137633E+04  0.11104934657E+03 -0.15590492873E+04  0.19033725272E+04  0.25500000920E-02 0.  1.
       -2    1    3    3    0  502  0.10862137633E+04 -0.11104934657E+03  0.83098746302E+03  0.13721269841E+04  0.25500000920E-02 0. -1.
</event>
<event>
 5   0  0.2705859E-06  0.3354879E+04  0.7818609E-02  0.8149070E-01
        2   -1    0    0  501    0  0.00000000000E+00  0.00000000000E+00  0.19426408114E+04  0.19426408114E+04  0.25500000920E-02 0.  1.
       -2   -1    0    0    0  501  0.00000000000E+00  0.00000000000E+00 -0.14484419748E+04  0.14484419748E+04  0.25500000920E-02 0. -1.
    10030    2    1    2    0    0  0.00000000000E+00  0.00000000000E+00  0.49419883651E+03  0.33910827862E+04  0.33548785332E+04 0.  0.
        1    1    3    3  502    0 -0.56374560399E+03  0.15776558972E+04  0.16255918613E+03  0.16832209377E+04  0.50400001928E-02 0.  1.
       -1    1    3    3    0  502  0.56374560399E+03 -0.15776558972E+04  0.33163965038E+03  0.17078618485E+04  0.50400001928E-02 0. -1.
</event>
<event>
 5   0  0.2614212E-06  0.3261001E+04  0.7818609E-02  0.8172890E-01
        2   -1    0    0  501    0  0.00000000000E+00  0.00000000000E+00  0.20730321058E+04  0.20730321058E+04  0.25500000920E-02 0. -1.
       -2   -1    0    0    0  501  0.00000000000E+00  0.00000000000E+00 -0.12824367203E+04  0.12824367203E+04  0.25500000920E-02 0.  1.
    10030    2    1    2    0    0  0.00000000000E+00  0.00000000000E+00  0.79059538548E+03  0.33554688261E+04  0.32610013768E+04 0.  0.
        2    1    3    3  502    0 -0.93822515336E+03 -0.10263381508E+04 -0.48077490171E+03  0.14713194569E+04  0.25500000920E-02 0.  1.
       -2    1    3    3    0  502  0.93822515336E+03  0.10263381508E+04  0.12713702872E+04  0.18841493692E+04  0.25500000920E-02 0. -1.
</event>
<event>
 5   0  0.8845526E-07  0.3302286E+04  0.7818609E-02  0.8162314E-01
       -1   -1    0    0    0  501  0.00000000000E+00  0.00000000000E+00  0.14960923051E+04  0.14960923051E+04  0.50400001928E-02 0.  1.
        1   -1    0    0  501    0  0.00000000000E+00  0.00000000000E+00 -0.18222632301E+04  0.18222632301E+04  0.50400001928E-02 0. -1.
    10030    2    1    2    0    0  0.00000000000E+00  0.00000000000E+00 -0.32617092498E+03  0.33183555352E+04  0.33022864784E+04 0.  0.
        1    1    3    3  502    0 -0.12984988871E+04 -0.97587987937E+03 -0.46089408551E+03  0.16884502530E+04  0.50400001928E-02 0.  1.
       -1    1    3    3    0  502  0.12984988871E+04  0.97587987937E+03  0.13472316054E+03  0.16299052822E+04  0.50400001928E-02 0. -1.
</event>
<event>
 5   0  0.9530268E-07  0.3281279E+04  0.7818609E-02  0.8167675E-01
        1   -1    0    0  501    0  0.00000000000E+00  0.00000000000E+00  0.22773943810E+04  0.22773943810E+04  0.50400001928E-02 0.  1.
       -1   -1    0    0    0  501  0.00000000000E+00  0.00000000000E+00 -0.11819198737E+04  0.11819198737E+04  0.50400001928E-02 0. -1.
    10030    2    1    2    0    0  0.00000000000E+00  0.00000000000E+00  0.10954745073E+04  0.34593142548E+04  0.32812788234E+04 0.  0.
        5    1    3    3  502    0  0.12224487382E+04  0.55781664799E+03 -0.44468590321E+03  0.14153826242E+04  0.46999998093E+01 0. -1.
       -5    1    3    3    0  502 -0.12224487382E+04 -0.55781664799E+03  0.15401604105E+04  0.20439316306E+04  0.46999998093E+01 0.  1.
</event>
<event>
 5   0  0.9295663E-07  0.3327185E+04  0.7818609E-02  0.8156012E-01
        1   -1    0    0  501    0  0.00000000000E+00  0.00000000000E+00  0.25325913422E+04  0.25325913422E+04  0.50400001928E-02 0.  1.
       -1   -1    0    0    0  501  0.00000000000E+00  0.00000000000E+00 -0.10927701641E+04  0.10927701641E+04  0.50400001928E-02 0. -1.
    10030    2    1    2    0    0  0.00000000000E+00  0.00000000000E+00  0.14398211781E+04  0.36253615063E+04  0.33271851506E+04 0.  0.
        4    1    3    3  502    0 -0.12810058257E+04  0.15586435781E+03 -0.42406867083E+03  0.13583465956E+04  0.12699999809E+01 0. -1.
       -4    1    3    3    0  502  0.12810058257E+04 -0.15586435781E+03  0.18638898489E+04  0.22670149107E+04  0.12699999809E+01 0.  1.
</event>
<event>
 5   0  0.9268670E-07  0.3398343E+04  0.7818609E-02  0.8138313E-01
       -1   -1    0    0    0  501  0.00000000000E+00  0.00000000000E+00  0.13216399636E+04  0.13216399636E+04  0.50400001928E-02 0. -1.
        1   -1    0    0  501    0  0.00000000000E+00  0.00000000000E+00 -0.21845460446E+04  0.21845460446E+04  0.50400001928E-02 0.  1.
    10030    2    1    2    0    0  0.00000000000E+00  0.00000000000E+00 -0.86290608098E+03  0.35061860082E+04  0.33983427460E+04 0.  0.
        3    1    3    3  502    0  0.37754883355E+03  0.25253488024E+03  0.12578414139E+04  0.13373414000E+04  0.10100000352E+00 0. -1.
       -3    1    3    3    0  502 -0.37754883355E+03 -0.25253488024E+03 -0.21207474948E+04  0.21688446082E+04  0.10100000352E+00 0.  1.
</event>
<event>
 5   0  0.2674551E-06  0.2957790E+04  0.7818609E-02  0.8255888E-01
        2   -1    0    0  501    0  0.00000000000E+00  0.00000000000E+00  0.16685949738E+04  0.16685949738E+04  0.25500000920E-02 0. -1.
       -2   -1    0    0    0  501  0.00000000000E+00  0.00000000000E+00 -0.13107616836E+04  0.13107616836E+04  0.25500000920E-02 0.  1.
    10030    2    1    2    0    0  0.00000000000E+00  0.00000000000E+00  0.35783329028E+03  0.29793566574E+04  0.29577899568E+04 0.  0.
        3    1    3    3  502    0  0.53158162218E+03  0.12241891049E+04  0.82067466434E+03  0.15667561713E+04  0.10100000352E+00 0. -1.
       -3    1    3    3    0  502 -0.53158162218E+03 -0.12241891049E+04 -0.46284137407E+03  0.14126004861E+04  0.10100000352E+00 0.  1.
</event>
<event>
 5   0  0.8705956E-07  0.3326225E+04  0.7818609E-02  0.8156254E-01
       -1   -1    0    0    0  501  0.00000000000E+00  0.00000000000E+00  0.13471438034E+04  0.13471438034E+04  0.50400001928E-02 0.  1.
        1   -1    0    0  501    0  0.00000000000E+00  0.00000000000E+00 -0.20531908612E+04  0.20531908612E+04  0.50400001928E-02 0. -1.
    10030    2    1    2    0    0  0.00000000000E+00  0.00000000000E+00 -0.70604705779E+03  0.34003346646E+04  0.33262250951E+04 0.  0.
        2    1    3    3  502    0  0.17348956658E+03 -0.13671729434E+04 -0.13047236634E+04  0.18977787871E+04  0.25500000920E-02 0. -1.
       -2    1    3    3    0  502 -0.17348956658E+03  0.13671729434E+04  0.59867660562E+03  0.15025558775E+04  0.25500000920E-02 0.  1.
</event>
<event>
 5   0  0.2705859E-06  0.3248477E+04  0.7818609E-02  0.8176131E-01
        2   -1    0    0  501    0  0.00000000000E+00  0.00000000000E+00  0.10484994684E+04  0.10484994684E+04  0.25500000920E-02 0.  1.
       -2   -1    0    0    0  501  0.00000000000E+00  0.00000000000E+00 -0.25161198143E+04  0.25161198143E+04  0.25500000920E-02 0. -1.
    10030    2    1    2    0    0  0.00000000000E+00  0.00000000000E+00 -0.14676203459E+04  0.35646192827E+04  0.32484767432E+04 0.  0.
        1    1    3    3  502    0 -0.58828069985E+03  0.10642296524E+04  0.44778075331E+03  0.12958265849E+04  0.50400001928E-02 0.  1.
       -1    1    3    3    0  502  0.58828069985E+03 -0.10642296524E+04 -0.19154010992E+04  0.22687926979E+04  0.50400001928E-02 0. -1.
</event>
<event>
 5   0  0.8705956E-07  0.3250160E+04  0.7818609E-02  0.8175694E-01
        1   -1    0    0  501    0  0.00000000000E+00  0.00000000000E+00  0.20634891649E+04  0.20634891649E+04  0.50400001928E-02 0. -1.
       -1   -1    0    0    0  501  0.00000000000E+00  0.00000000000E+00 -0.12798151514E+04  0.12798151514E+04  0.50400001928E-02 0.  1.
    10030    2    1    2    0    0  0.00000000000E+00  0.00000000000E+00  0.78367401349E+03  0.33433043163E+04  0.32501598103E+04 0.  0.
        2    1    3    3  502    0  0.58955663039E+03 -0.21977841245E+03 -0.11494370272E+04  0.13103759195E+04  0.25500000920E-02 0.  1.
       -2    1    3    3    0  502 -0.58955663039E+03  0.21977841245E+03  0.19331110407E+04  0.20329283968E+04  0.25500000920E-02 0. -1.
</event>
<event>
 5   0  0.9268670E-07  0.3355922E+04  0.7818609E-02  0.8148810E-01
       -1   -1    0    0    0  501  0.00000000000E+00  0.00000000000E+00  0.18538480163E+04  0.18538480163E+04  0.50400001928E-02 0.  1.
        1   -1    0    0  501    0  0.00000000000E+00  0.00000000000E+00 -0.15187614863E+04  0.15187614863E+04  0.50400001928E-02 0. -1.
    10030    2    1    2    0    0  0.00000000000E+00  0.00000000000E+00  0.33508652997E+03  0.33726095026E+04  0.33559219112E+04 0.  0.
        3    1    3    3  502    0 -0.15619921920E+04  0.58752709339E+03  0.34318436991E+03  0.17037556208E+04  0.10100000352E+00 0. -1.
       -3    1    3    3    0  502  0.15619921920E+04 -0.58752709339E+03 -0.80978399364E+01  0.16688538818E+04  0.10100000352E+00 0.  1.
</event>
<event>
 5   0  0.2574803E-06  0.3197852E+04  0.7818609E-02  0.8189385E-01
       -2   -1    0    0    0  501  0.00000000000E+00  0.00000000000E+00  0.10757352727E+04  0.10757352727E+04  0.25500000920E-02 0. -1.
        2   -1    0    0  501    0  0.00000000000E+00  0.00000000000E+00 -0.23765743750E+04  0.23765743750E+04  0.25500000920E-02 0.  1.
    10030    2    1    2    0    0  0.00000000000E+00  0.00000000000E+00 -0.13008391023E+04  0.34523096476E+04  0.31978523313E+04 0.  0.
        4    1    3    3  502    0  0.12034730946E+04  0.10412331170E+04 -0.48300112624E+03  0.16630711332E+04  0.12699999809E+01 0. -1.
       -4    1    3    3    0  502 -0.12034730946E+04 -0.10412331170E+04 -0.81783797605E+03  0.17892385144E+04  0.12699999809E+01 0.  1.
</event>
<event>
 5   0  0.9295663E-07  0.3189333E+04  0.7818609E-02  0.8191640E-01
        1   -1    0    0  501    0  0.00000000000E+00  0.00000000000E+00  0.16829473559E+04  0.16829473559E+04  0.50400001928E-02 0. -1.
       -1   -1    0    0    0  501  0.00000000000E+00  0.00000000000E+00 -0.15110167974E+04  0.15110167974E+04  0.50400001928E-02 0.  1.
    10030    2    1    2    0    0  0.00000000000E+00  0.00000000000E+00  0.17193055850E+03  0.31939641534E+04  0.31893332996E+04 0.  0.
        4    1    3    3  502    0 -0.42415850828E+03 -0.15150714969E+04 -0.17442770075E+03  0.15829651659E+04  0.12699999809E+01 0.  1.
       -4    1    3    3    0  502  0.42415850828E+03  0.15150714969E+04  0.34635825925E+03  0.16109989874E+04  0.12699999809E+01 0. -1.
</event>
<event>
 5   0  0.2614212E-06  0.3199850E+04  0.7818609E-02  0.8188857E-01
        2   -1    0    0  501    0  0.00000000000E+00  0.00000000000E+00  0.12864020058E+04  0.12864020058E+04  0.25500000920E-02 0.  1.
       -2   -1    0    0    0  501  0.00000000000E+00  0.00000000000E+00 -0.19898595403E+04  0.19898595403E+04  0.25500000920E-02 0. -1.
    10030    2    1    2    0    0  0.00000000000E+00  0.00000000000E+00 -0.70345753449E+03  0.32762615461E+04  0.31998495614E+04 0.  0.
        2    1    3    3  502    0  0.81911470144E+03 -0.12513286872E+04 -0.93361954675E+03  0.17630705702E+04  0.25500000920E-02 0. -1.
       -2    1    3    3    0  502 -0.81911470144E+03  0.12513286872E+04  0.23016201226E+03  0.15131909759E+04  0.25500000920E-02 0.  1.
</event>
<event>
 5   0  0.9530268E-07  0.3181733E+04  0.7818609E-02  0.8193658E-01
        1   -1    0    0  501    0  0.00000000000E+00  0.00000000000E+00  0.10040152030E+04  0.10040152030E+04  0.50400001928E-02 0.  1.
       -1   -1    0    0    0  501  0.00000000000E+00  0.00000000000E+00 -0.25207350390E+04  0.25207350390E+04  0.50400001928E-02 0. -1.
    10030    2    1    2    0    0  0.00000000000E+00  0.00000000000E+00 -0.15167198360E+04  0.35247502419E+04  0.31817330509E+04 0.  0.
        5    1    3    3  502    0 -0.49885104872E+03 -0.14794019801E+04 -0.41988573469E+03  0.16167277779E+04  0.46999998093E+01 0.  1.
       -5    1    3    3    0  502  0.49885104872E+03  0.14794019801E+04 -0.10968341013E+04  0.19080224641E+04  0.46999998093E+01 0. -1.
</event>
<event>
 5   0  0.2674551E-06  0.3208962E+04  0.7818609E-02  0.8186454E-01
        2   -1    0    0  501    0  0.00000000000E+00  0.00000000000E+00  0.17379878223E+04  0.17379878223E+04  0.25500000920E-02 0. -1.
       -2   -1    0    0    0  501  0.00000000000E+00  0.00000000000E+00 -0.14812300100E+04  0.14812300100E+04  0.25500000920E-02 0.  1.
    10030    2    1    2    0    0  0.00000000000E+00  0.00000000000E+00  0.25675781233E+03  0.32192178323E+04  0.32089622742E+04 0.  0.
        3    1    3    3  502    0  0.15825293854E+04  0.18523709160E+03 -0.61030415296E+02  0.15945020406E+04  0.10100000352E+00 0.  1.
       -3    1    3    3    0  502 -0.15825293854E+04 -0.18523709160E+03  0.31778822762E+03  0.16247157916E+04  0.10100000352E+00 0. -1.
</event>
<event>
 5   0  0.8705956E-07  0.3309004E+04  0.7818609E-02  0.8160608E-01
       -1   -1    0    0    0  501  0.00000000000E+00  0.00000000000E+00  0.20857239559E+04  0.20857239559E+04  0.50400001928E-02 0.  1.
        1   -1    0    0  501    0  0.00000000000E+00  0.00000000000E+00 -0.13124348680E+04  0.13124348680E+04  0.50400001928E-02 0. -1.
    10030    2    1    2    0    0  0.00000000000E+00  0.00000000000E+00  0.77328908793E+03  0.33981588239E+04  0.33090039860E+04 0.  0.
        2    1    3    3  502    0  0.60959272987E+03 -0.14311582493E+04  0.96535191701E+03  0.18307707542E+04  0.25500000920E-02 0.  1.
       -2    1    3    3    0  502 -0.60959272987E+03  0.14311582493E+04 -0.19206282908E+03  0.15673880697E+04  0.25500000920E-02 0. -1.
</event>
<event>
 5   0  0.2614212E-06  0.2549666E+04  0.7818609E-02  0.8385502E-01
       -2   -1    0    0    0  501  0.00000000000E+00  0.00000000000E+00  0.15360327844E+04  0.15360327844E+04  0.25500000920E-02 0. -1.
        2   -1    0    0  501    0  0.00000000000E+00  0.00000000000E+00 -0.10580495405E+04  0.10580495405E+04  0.25500000920E-02 0.  1.
    10030    2    1    2    0    0  0.00000000000E+00  0.00000000000E+00  0.47798324393E+03  0.25940823248E+04  0.25496656892E+04 0.  0.
        2    1    3    3  502    0 -0.82642829935E+03 -0.78132167300E+03 -0.34702098150E+03  0.11890630144E+04  0.25500000920E-02 0.  1.
       -2    1    3    3    0  502  0.82642829935E+03  0.78132167300E+03  0.82500422543E+03  0.14050193104E+04  0.25500000920E-02 0. -1.
</event>
<event>
 5   0  0.2705859E-06  0.3309210E+04  0.7818609E-02  0.8160556E-01
       -2   -1    0    0    0  501  0.00000000000E+00  0.00000000000E+00  0.27308461491E+04  0.27308461491E+04  0.25500000920E-02 0.  1.
        2   -1    0    0  501    0  0.00000000000E+00  0.00000000000E+00 -0.10025160918E+04  0.10025160918E+04  0.25500000920E-02 0. -1.
    10030    2    1    2    0    0  0.00000000000E+00  0.00000000000E+00  0.17283300574E+04  0.37333622409E+04  0.33092096994E+04 0.  0.
        1    1    3    3  502    0 -0.15706881154E+04  0.20776113058E+03  0.14022592161E+04  0.21157875017E+04  0.50400001928E-02 0.  1.
       -1    1    3    3    0  502  0.15706881154E+04 -0.20776113058E+03  0.32607084123E+03  0.16175747392E+04  0.50400001928E-02 0. -1.
</event>
<event>
 5   0  0.9268670E-07  0.3306484E+04  0.7818609E-02  0.8161248E-01
       -1   -1    0    0    0  501  0.00000000000E+00  0.00000000000E+00  0.27759806839E+04  0.27759806839E+04  0.50400001928E-02 0. -1.
        1   -1    0    0  501    0  0.00000000000E+00  0.00000000000E+00 -0.98459204088E+03  0.98459204089E+03  0.50400001928E-02 0.  1.
    10030    2    1    2    0    0  0.00000000000E+00  0.00000000000E+00  0.17913886430E+04  0.37605727248E+04  0.33064836228E+04 0.  0.
        3    1    3    3  502    0 -0.83622059602E+03 -0.94253471710E+03  0.21129976000E+04  0.24601616707E+04  0.10100000352E+00 0. -1.
       -3    1    3    3    0  502  0.83622059602E+03  0.94253471710E+03 -0.32160895701E+03  0.13004110541E+04  0.10100000352E+00 0.  1.
</event>
<event>
 5   0  0.9295663E-07  0.3094416E+04  0.7818609E-02  0.8217272E-01
        1   -1    0    0  501    0  0.00000000000E+00  0.00000000000E+00  0.25910109645E+04  0.25910109645E+04  0.50400001928E-02 0. -1.
       -1   -1    0    0    0  501  0.00000000000E+00  0.00000000000E+00 -0.92390688499E+03  0.92390688501E+03  0.50400001928E-02 0.  1.
    10030    2    1    2    0    0  0.00000000000E+00  0.00000000000E+00  0.16671040795E+04  0.35149178495E+04  0.30944161771E+04 0.  0.
        4    1    3    3  502    0  0.88516269625E+03 -0.52595983280E+03  0.21453479317E+04  0.23796357085E+04  0.12699999809E+01 0. -1.
       -4    1    3    3    0  502 -0.88516269625E+03  0.52595983280E+03 -0.47824385217E+03  0.11352821410E+04  0.12699999809E+01 0.  1.
</event>
<event>
 5   0  0.2614212E-06  0.3234262E+04  0.7818609E-02  0.8179827E-01
        2   -1    0    0  501    0  0.00000000000E+00  0.00000000000E+00  0.13859949025E+04  0.13859949025E+04  0.25500000920E-02 0.  1.
       -2   -1    0    0    0  501  0.00000000000E+00  0.00000000000E+00 -0.18868124727E+04  0.18868124727E+04  0.25500000920E-02 0. -1.
    10030    2    1    2    0    0  0.00000000000E+00  0.00000000000E+00 -0.50081757023E+03  0.32728073753E+04  0.32342618751E+04 0.  0.
        2    1    3    3  502    0 -0.14449097432E+04 -0.58316761696E+03  0.18748846600E+03  0.15693949663E+04  0.25500000920E-02 0.  1.
       -2    1    3    3    0  502  0.14449097432E+04  0.58316761696E+03 -0.68830603623E+03  0.17034124089E+04  0.25500000920E-02 0. -1.
</event>
<event>
 5   0  0.2574803E-06  0.3090783E+04  0.7818609E-02  0.8218272E-01
       -2   -1    0    0    0  501  0.00000000000E+00  0.00000000000E+00  0.16552648544E+04  0.16552648544E+04  0.25500000920E-02 0.  1.
        2   -1    0    0  501    0  0.00000000000E+00  0.00000000000E+00 -0.14428117350E+04  0.14428117350E+04  0.25500000920E-02 0. -1.
    10030    2    1    2    0    0  0.00000000000E+00  0.00000000000E+00  0.21245311937E+03  0.30980765894E+04  0.30907834323E+04 0.  0.
        4    1    3    3  502    0  0.11922232597E+04 -0.94547060231E+03  0.37690632206E+03  0.15676003793E+04  0.12699999809E+01 0.  1.
       -4    1    3    3    0  502 -0.11922232597E+04  0.94547060231E+03 -0.16445320269E+03  0.15304762100E+04  0.12699999809E+01 0. -1.
</event>
<event>
 5   0  0.2674551E-06  0.3316894E+04  0.7818609E-02  0.8158610E-01
        2   -1    0    0  501    0  0.00000000000E+00  0.00000000000E+00  0.25495223548E+04  0.25495223548E+04  0.25500000920E-02 0.  1.
       -2   -1    0    0    0  501  0.00000000000E+00  0.00000000000E+00 -0.10788085402E+04  0.10788085402E+04  0.25500000920E-02 0. -1.
    10030    2    1    2    0    0  0.00000000000E+00  0.00000000000E+00  0.14707138146E+04  0.36283308949E+04  0.33168940228E+04 0.  0.
        3    1    3    3  502    0 -0.50217777234E+03 -0.15127161447E+04  0.23412675166E+03  0.16109959639E+04  0.10100000352E+00 0. -1.
       -3    1    3    3    0  502  0.50217777234E+03  0.15127161447E+04  0.12365870629E+04  0.20173349310E+04  0.10100000352E+00 0.  1.
</event>
<event>
 5   0  0.2658600E-06  0.3287933E+04  0.7818609E-02  0.8165973E-01
       -2   -1    0    0    0  501  0.00000000000E+00  0.00000000000E+00  0.12697335941E+04  0.12697335941E+04  0.25500000920E-02 0. -1.
        2   -1    0    0  501    0  0.00000000000E+00  0.00000000000E+00 -0.21284985681E+04  0.21284985681E+04  0.25500000920E-02 0.  1.
    10030    2    1    2    0    0  0.00000000000E+00  0.00000000000E+00 -0.85876497397E+03  0.33982321622E+04  0.32879331726E+04 0.  0.
        5    1    3    3  502    0  0.32658047147E+03  0.14188200681E+04 -0.12184727162E+04  0.18985265445E+04  0.46999998093E+01 0.  1.
       -5    1    3    3    0  502 -0.32658047147E+03 -0.14188200681E+04  0.35970774219E+03  0.14997056177E+04  0.46999998093E+01 0. -1.
</event>
<event>
 5   0  0.9295663E-07  0.3324742E+04  0.7818609E-02  0.8156628E-01
       -1   -1    0    0    0  501  0.00000000000E+00  0.00000000000E+00  0.13722151234E+04  0.13722151234E+04  0.50400001928E-02 0.  1.
        1   -1    0    0  501    0  0.00000000000E+00  0.00000000000E+00 -0.20138809095E+04  0.20138809095E+04  0.50400001928E-02 0. -1.
    10030    2    1    2    0    0  0.00000000000E+00  0.00000000000E+00 -0.64166578614E+03  0.33860960329E+04  0.33247423002E+04 0.  0.
        4    1    3    3  502    0 -0.29852756571E+03  0.63532946275E+03 -0.18555293846E+04  0.19838732680E+04  0.12699999809E+01 0. -1.
       -4    1    3    3    0  502  0.29852756571E+03 -0.63532946275E+03  0.12138635984E+04  0.14022227648E+04  0.12699999809E+01 0.  1.
</event>
<event>
 5   0  0.9530268E-07  0.3389289E+04  0.7818609E-02  0.8140540E-01
       -1   -1    0    0    0  501  0.00000000000E+00  0.00000000000E+00  0.97893797929E+03  0.97893797931E+03  0.50400001928E-02 0.  1.
        1   -1    0    0  501    0  0.00000000000E+00  0.00000000000E+00 -0.29336070498E+04  0.29336070498E+04  0.50400001928E-02 0. -1.
    10030    2    1    2    0    0  0.00000000000E+00  0.00000000000E+00 -0.19546690705E+04  0.39125450291E+04  0.33892886318E+04 0.  0.
        5    1    3    3  502    0  0.14952146551E+03  0.15239203085E+04 -0.13922575880E+03  0.15375616011E+04  0.46999998093E+01 0.  1.
       -5    1    3    3    0  502 -0.14952146551E+03 -0.15239203085E+04 -0.18154433117E+04  0.23749834280E+04  0.46999998093E+01 0. -1.
</event>
<event>
 5   0  0.8845526E-07  0.3324378E+04  0.7818609E-02  0.8156720E-01
       -1   -1    0    0    0  501  0.00000000000E+00  0.00000000000E+00  0.18350176872E+04  0.18350176872E+04  0.50400001928E-02 0. -1.
        1   -1    0    0  501    0  0.00000000000E+00  0.00000000000E+00 -0.15056383691E+04  0.15056383691E+04  0.50400001928E-02 0.  1.
    10030    2    1    2    0    0  0.00000000000E+00  0.00000000000E+00  0.32937931812E+03  0.33406560563E+04  0.33243784609E+04 0.  0.
        1    1    3    3  502    0  0.32259514950E+03  0.13498047593E+04 -0.75457503104E+03  0.15796911078E+04  0.50400001928E-02 0.  1.
       -1    1    3    3    0  502 -0.32259514950E+03 -0.13498047593E+04  0.10839543492E+04  0.17609649485E+04  0.50400001928E-02 0. -1.
</event>
<event>
 5   0  0.2574803E-06  0.3216716E+04  0.7818609E-02  0.8184416E-01
       -2   -1    0    0    0  501  0.00000000000E+00  0.00000000000E+00  0.21476331911E+04  0.21476331911E+04  0.25500000920E-02 0.  1.
        2   -1    0    0  501    0  0.00000000000E+00  0.00000000000E+00 -0.12044961154E+04  0.12044961154E+04  0.25500000920E-02 0. -1.
    10030    2    1    2    0    0  0.00000000000E+00  0.00000000000E+00  0.94313707566E+03  0.33521293065E+04  0.32167162362E+04 0.  0.
        4    1    3    3  502    0  0.14865700918E+04  0.17039893968E+03  0.10862181372E+04  0.18489991593E+04  0.12699999809E+01 0.  1.
       -4    1    3    3    0  502 -0.14865700918E+04 -0.17039893968E+03 -0.14308106156E+03  0.15031301472E+04  0.12699999809E+01 0. -1.
</event>
<event>
 5   0  0.2574803E-06  0.3230510E+04  0.7818609E-02  0.8180806E-01
       -2   -1    0    0    0  501  0.00000000000E+00  0.00000000000E+00  0.13118488345E+04  0.13118488345E+04  0.25500000920E-02 0.  1.
        2   -1    0    0  501    0  0.00000000000E+00  0.00000000000E+00 -0.19888329172E+04  0.19888329172E+04  0.25500000920E-02 0. -1.
    10030    2    1    2    0    0  0.00000000000E+00  0.00000000000E+00 -0.67698408276E+03  0.33006817517E+04  0.32305096467E+04 0.  0.
        4    1    3    3  502    0  0.19542725781E+03 -0.11842100370E+04 -0.14429449699E+04  0.18768689416E+04  0.12699999809E+01 0. -1.
       -4    1    3    3    0  502 -0.19542725781E+03  0.11842100370E+04  0.76596088714E+03  0.14238128101E+04  0.12699999809E+01 0.  1.
</event>
<event>
 5   0  0.8520125E-07  0.2537294E+04  0.7818609E-02  0.8389819E-01
       -3   -1    0    0    0  501  0.00000000000E+00  0.00000000000E+00  0.12147888857E+04  0.12147888899E+04  0.10100000352E+00 0.  1.
        3   -1    0    0  501    0  0.00000000000E+00  0.00000000000E+00 -0.13248926161E+04  0.13248926199E+04  0.10100000352E+00 0. -1.
    10030    2    1    2    0    0  0.00000000000E+00  0.00000000000E+00 -0.11010373034E+03  0.25396815098E+04  0.25372937039E+04 0.  0.
        5    1    3    3  502    0  0.58980707036E+03  0.10064620585E+04 -0.55412362856E+03  0.12914771934E+04  0.46999998093E+01 0. -1.
       -5    1    3    3    0  502 -0.58980707036E+03 -0.10064620585E+04  0.44401989822E+03  0.12482043164E+04  0.46999998093E+01 0.  1.
</event>
<event>
 5   0  0.2614212E-06  0.3414788E+04  0.7818609E-02  0.8134286E-01
       -2   -1    0    0    0  501  0.00000000000E+00  0.00000000000E+00  0.15493973226E+04  0.15493973226E+04  0.25500000920E-02 0. -1.
        2   -1    0    0  501    0  0.00000000000E+00  0.00000000000E+00 -0.18815023635E+04  0.18815023635E+04  0.25500000920E-02 0.  1.
    10030    2    1    2    0    0  0.00000000000E+00  0.00000000000E+00 -0.33210504093E+03  0.34308996861E+04  0.34147882654E+04 0.  0.
        2    1    3    3  502    0 -0.43283941113E+03 -0.14165733287E+04 -0.10192734340E+04  0.17980401232E+04  0.25500000920E-02 0.  1.
       -2    1    3    3    0  502  0.43283941113E+03  0.14165733287E+04  0.68716839309E+03  0.16328595628E+04  0.25500000920E-02 0. -1.
</event>
<event>
 5   0  0.8705956E-07  0.3320852E+04  0.7818609E-02  0.8157610E-01
       -1   -1    0    0    0  501  0.00000000000E+00  0.00000000000E+00  0.12180819629E+04  0.12180819629E+04  0.50400001928E-02 0.  1.
        1   -1    0    0  501    0  0.00000000000E+00  0.00000000000E+00 -0.22634061178E+04  0.22634061179E+04  0.50400001928E-02 0. -1.
    10030    2    1    2    0    0  0.00000000000E+00  0.00000000000E+00 -0.10453241550E+04  0.34814880808E+04  0.33208517985E+04 0.  0.
        2    1    3    3  502    0  0.36439425528E+03 -0.20409758500E+03  0.11621129000E+04  0.12348867923E+04  0.25500000920E-02 0.  1.
       -2    1    3    3    0  502 -0.36439425528E+03  0.20409758500E+03 -0.22074370550E+04  0.22466012884E+04  0.25500000920E-02 0. -1.
</event>
<event>
 5   0  0.9268670E-07  0.3316177E+04  0.7818609E-02  0.8158791E-01
        1   -1    0    0  501    0  0.00000000000E+00  0.00000000000E+00  0.11640227563E+04  0.11640227563E+04  0.50400001928E-02 0. -1.
       -1   -1    0    0    0  501  0.00000000000E+00  0.00000000000E+00 -0.23618588685E+04  0.23618588685E+04  0.50400001928E-02 0.  1.
    10030    2    1    2    0    0  0.00000000000E+00  0.00000000000E+00 -0.11978361122E+04  0.35258816249E+04  0.33161769978E+04 0.  0.
        3    1    3    3  502    0 -0.13290580645E+04 -0.82995008717E+01  0.45513168324E+03  0.14048519779E+04  0.10100000352E+00 0. -1.
       -3    1    3    3    0  502  0.13290580645E+04  0.82995008717E+01 -0.16529677955E+04  0.21210296470E+04  0.10100000352E+00 0.  1.
</event>
<event>
 5   0  0.2658600E-06  0.3326819E+04  0.7818609E-02  0.8156105E-01
       -2   -1    0    0    0  501  0.00000000000E+00  0.00000000000E+00  0.11715704232E+04  0.11715704232E+04  0.25500000920E-02 0.  1.
        2   -1    0    0  501    0  0.00000000000E+00  0.00000000000E+00 -0.23617288208E+04  0.23617288208E+04  0.25500000920E-02 0. -1.
    10030    2    1    2    0    0  0.00000000000E+00  0.00000000000E+00 -0.11901583976E+04  0.35332992440E+04  0.33268192821E+04 0.  0.
        5    1    3    3  502    0  0.11141368828E+04  0.54193213619E+03 -0.17738846361E+04  0.21637190728E+04  0.46999998093E+01 0. -1.
       -5    1    3    3    0  502 -0.11141368828E+04 -0.54193213619E+03  0.58372623845E+03  0.13695801712E+04  0.46999998093E+01 0.  1.
</event>
<event>
 5   0  0.2705859E-06  0.3349700E+04  0.7818609E-02  0.8150363E-01
        2   -1    0    0  501    0  0.00000000000E+00  0.00000000000E+00  0.27581806709E+04  0.27581806709E+04  0.25500000920E-02 0.  1.
       -2   -1    0    0    0  501  0.00000000000E+00  0.00000000000E+00 -0.10170194383E+04  0.10170194383E+04  0.25500000920E-02 0. -1.
    10030    2    1    2    0    0  0.00000000000E+00  0.00000000000E+00  0.17411612326E+04  0.37752001092E+04  0.33497004981E+04 0.  0.
        1    1    3    3  502    0 -0.83947521918E+03  0.56066760337E+03 -0.63561577226E+03  0.11929267434E+04  0.50400001928E-02 0. -1.
       -1    1    3    3    0  502  0.83947521918E+03 -0.56066760337E+03  0.23767770049E+04  0.25822733659E+04  0.50400001928E-02 0.  1.
</event>
<event>
 5   0  0.9295663E-07  0.3189258E+04  0.7818609E-02  0.8191660E-01
       -1   -1    0    0    0  501  0.00000000000E+00  0.00000000000E+00  0.11450274066E+04  0.11450274067E+04  0.50400001928E-02 0. -1.
        1   -1    0    0  501    0  0.00000000000E+00  0.00000000000E+00 -0.22207688513E+04  0.22207688513E+04  0.50400001928E-02 0.  1.
    10030    2    1    2    0    0  0.00000000000E+00  0.00000000000E+00 -0.10757414447E+04  0.33657962580E+04  0.31892577184E+04 0.  0.
        4    1    3    3  502    0 -0.77315034166E+03 -0.12377808082E+04  0.14033435749E+03  0.14661371439E+04  0.12699999809E+01 0. -1.
       -4    1    3    3    0  502  0.77315034166E+03  0.12377808082E+04 -0.12160758021E+04  0.18996591140E+04  0.12699999809E+01 0.  1.
</event>
<event>
 5   0  0.9295663E-07  0.3271188E+04  0.7818609E-02  0.8170266E-01
       -1   -1    0    0    0  501  0.00000000000E+00  0.00000000000E+00  0.26534178155E+04  0.26534178155E+04  0.50400001928E-02 0.  1.
        1   -1    0    0  501    0  0.00000000000E+00  0.00000000000E+00 -0.10081968725E+04  0.10081968725E+04  0.50400001928E-02 0. -1.
    10030    2    1    2    0    0  0.00000000000E+00  0.00000000000E+00  0.16452209431E+04  0.36616146880E+04  0.32711878839E+04 0.  0.
        4    1    3    3  502    0 -0.13005265744E+04 -0.81927448594E+03  0.19678702785E+03  0.15496150494E+04  0.12699999809E+01 0. -1.
       -4    1    3    3    0  502  0.13005265744E+04  0.81927448594E+03  0.14484339152E+04  0.21119996386E+04  0.12699999809E+01 0.  1.
</event>
<event>
 5   0  0.9530268E-07  0.3312102E+04  0.7818609E-02  0.8159823E-01
        1   -1    0    0  501    0  0.00000000000E+00  0.00000000000E+00  0.19294004569E+04  0.19294004569E+04  0.50400001928E-02 0. -1.
       -1   -1    0    0    0  501  0.00000000000E+00  0.00000000000E+00 -0.14214281796E+04  0.14214281796E+04  0.50400001928E-02 0.  1.
    10030    2    1    2    0    0  0.00000000000E+00  0.00000000000E+00  0.50797227722E+03  0.33508286365E+04  0.33121015559E+04 0.  0.
        5    1    3    3  502    0 -0.14466304863E+04 -0.46532406574E+03  0.91987344631E+03  0.17763601823E+04  0.46999998093E+01 0. -1.
       -5    1    3    3    0  502  0.14466304863E+04  0.46532406574E+03 -0.41190116910E+03  0.15744684542E+04  0.46999998093E+01 0.  1.
</event>
<event>
 5   0  0.2574803E-06  0.3276652E+04  0.7818609E-02  0.8168862E-01
       -2   -1    0    0    0  501  0.00000000000E+00  0.00000000000E+00  0.94595946625E+03  0.94595946625E+03  0.25500000920E-02 0. -1.
        2   -1    0    0  501    0  0.00000000000E+00  0.00000000000E+00 -0.28374501606E+04  0.28374501606E+04  0.25500000920E-02 0.  1.
    10030    2    1    2    0    0  0.00000000000E+00  0.00000000000E+00 -0.18914906943E+04  0.37834096268E+04  0.32766524621E+04 0.  0.
        4    1    3    3  502    0  0.53640324872E+03 -0.15342456477E+04 -0.70778213114E+03  0.17727366727E+04  0.12699999809E+01 0. -1.
       -4    1    3    3    0  502 -0.53640324872E+03  0.15342456477E+04 -0.11837085632E+04  0.20106729541E+04  0.12699999809E+01 0.  1.
</event>
<event>
 5   0  0.9530268E-07  0.3308502E+04  0.7818609E-02  0.8160735E-01
       -1   -1    0    0    0  501  0.00000000000E+00  0.00000000000E+00  0.22428728672E+04  0.22428728672E+04  0.50400001928E-02 0. -1.
        1   -1    0    0  501    0  0.00000000000E+00  0.00000000000E+00 -0.12201077195E+04  0.12201077195E+04  0.50400001928E-02 0.  1.
    10030    2    1    2    0    0  0.00000000000E+00  0.00000000000E+00  0.10227651477E+04  0.34629805867E+04  0.33085020775E+04 0.  0.
        5    1    3    3  502    0  0.58812973166E+03 -0.18178727338E+03 -0.10957510098E+04  0.12568355340E+04  0.46999998093E+01 0.  1.
       -5    1    3    3    0  502 -0.58812973166E+03  0.18178727338E+03  0.21185161575E+04  0.22061450527E+04  0.46999998093E+01 0. -1.
</event>
<event>
 5   0  0.2674551E-06  0.3028144E+04  0.7818609E-02  0.8235740E-01
        2   -1    0    0  501    0  0.00000000000E+00  0.00000000000E+00  0.24670621317E+04  0.24670621317E+04  0.25500000920E-02 0.  1.
       -2   -1    0    0    0  501  0.00000000000E+00  0.00000000000E+00 -0.92920808292E+03  0.92920808293E+03  0.25500000920E-02 0. -1.
    10030    2    1    2    0    0  0.00000000000E+00  0.00000000000E+00  0.15378540487E+04  0.33962702146E+04  0.30281440348E+04 0.  0.
        3    1    3    3  502    0  0.88712752758E+03  0.53199291798E+02  0.21437467652E+04  0.23206627541E+04  0.10100000352E+00 0.  1.
       -3    1    3    3    0  502 -0.88712752758E+03 -0.53199291798E+02 -0.60589271650E+03  0.10756074604E+04  0.10100000352E+00 0. -1.
</event>
<event>
 5   0  0.2674551E-06  0.3308711E+04  0.7818609E-02  0.8160682E-01
        2   -1    0    0  501    0  0.00000000000E+00  0.00000000000E+00  0.21496162069E+04  0.21496162069E+04  0.25500000920E-02 0.  1.
       -2   -1    0    0    0  501  0.00000000000E+00  0.00000000000E+00 -0.12732001463E+04  0.12732001463E+04  0.25500000920E-02 0. -1.
    10030    2    1    2    0    0  0.00000000000E+00  0.00000000000E+00  0.87641606059E+03  0.34228163531E+04  0.33087107271E+04 0.  0.
        3    1    3    3  502    0 -0.98282665520E+03  0.12176980894E+04  0.99352087452E+03  0.18535966685E+04  0.10100000352E+00 0.  1.
       -3    1    3    3    0  502  0.98282665520E+03 -0.12176980894E+04 -0.11710481393E+03  0.15692196847E+04  0.10100000352E+00 0. -1.
</event>
<event>
 5   0  0.9530268E-07  0.3264181E+04  0.7818609E-02  0.8172070E-01
        1   -1    0    0  501    0  0.00000000000E+00  0.00000000000E+00  0.12845760173E+04  0.12845760173E+04  0.50400001928E-02 0.  1.
       -1   -1    0    0    0  501  0.00000000000E+00  0.00000000000E+00 -0.20736171698E+04  0.20736171698E+04  0.50400001928E-02 0. -1.
    10030    2    1    2    0    0  0.00000000000E+00  0.00000000000E+00 -0.78904115250E+03  0.33581931870E+04  0.32641806845E+04 0.  0.
        5    1    3    3  502    0 -0.74088868794E+03  0.48655956450E+03  0.10153653222E+04  0.13478297687E+04  0.46999998093E+01 0.  1.
       -5    1    3    3    0  502  0.74088868794E+03 -0.48655956450E+03 -0.18044064748E+04  0.20103634184E+04  0.46999998093E+01 0. -1.
</event>
<event>
 5   0  0.2674551E-06  0.3296712E+04  0.7818609E-02  0.8163733E-01
        2   -1    0    0  501    0  0.00000000000E+00  0.00000000000E+00  0.17640337117E+04  0.17640337117E+04  0.25500000920E-02 0. -1.
       -2   -1    0    0    0  501  0.00000000000E+00  0.00000000000E+00 -0.15402635175E+04  0.15402635175E+04  0.25500000920E-02 0.  1.
    10030    2    1    2    0    0  0.00000000000E+00  0.00000000000E+00  0.22377019420E+03  0.33042972292E+04  0.32967115553E+04 0.  0.
        3    1    3    3  502    0 -0.43344590890E+02 -0.98022706078E+03 -0.12156824803E+04  0.15622444583E+04  0.10100000352E+00 0.  1.
       -3    1    3    3    0  502  0.43344590890E+02  0.98022706078E+03  0.14394526745E+04  0.17420527709E+04  0.10100000352E+00 0. -1.
</event>
<event>
 5   0  0.2614212E-06  0.3276767E+04  0.7818609E-02  0.8168832E-01
        2   -1    0    0  501    0  0.00000000000E+00  0.00000000000E+00  0.18674018853E+04  0.18674018853E+04  0.25500000920E-02 0.  1.
       -2   -1    0    0    0  501  0.00000000000E+00  0.00000000000E+00 -0.14374523010E+04  0.14374523011E+04  0.25500000920E-02 0. -1.
    10030    2    1    2    0    0  0.00000000000E+00  0.00000000000E+00  0.42994958428E+03  0.33048541864E+04  0.32767673931E+04 0.  0.
        2    1    3    3  502    0  0.16727762899E+03 -0.11976409710E+04  0.13298799571E+04  0.17974722253E+04  0.25500000920E-02 0.  1.
       -2    1    3    3    0  502 -0.16727762899E+03  0.11976409710E+04 -0.89993037284E+03  0.15073819610E+04  0.25500000920E-02 0. -1.
</event>
<event>
 5   0  0.2705859E-06  0.3321145E+04  0.7818609E-02  0.8157536E-01
        2   -1    0    0  501    0  0.00000000000E+00  0.00000000000E+00  0.25226220642E+04  0.25226220642E+04  0.25500000920E-02 0. -1.
       -2   -1    0    0    0  501  0.00000000000E+00  0.00000000000E+00 -0.10931090584E+04  0.10931090584E+04  0.25500000920E-02 0.  1.
    10030    2    1    2    0    0  0.00000000000E+00  0.00000000000E+00  0.14295130058E+04  0.36157311226E+04  0.33211450009E+04 0.  0.
        1    1    3    3  502    0 -0.33268749389E+03  0.12968173045E+04  0.17842817954E+04  0.22307123560E+04  0.50400001928E-02 0. -1.
       -1    1    3    3    0  502  0.33268749389E+03 -0.12968173045E+04 -0.35476878958E+03  0.13850187666E+04  0.50400001928E-02 0.  1.
</event>
<event>
 5   0  0.8845526E-07  0.3510262E+04  0.7818609E-02  0.8111362E-01
        1   -1    0    0  501    0  0.00000000000E+00  0.00000000000E+00  0.24119962123E+04  0.24119962123E+04  0.50400001928E-02 0.  1.
       -1   -1    0    0    0  501  0.00000000000E+00  0.00000000000E+00 -0.12771513488E+04  0.12771513488E+04  0.50400001928E-02 0. -1.
    10030    2    1    2    0    0  0.00000000000E+00  0.00000000000E+00  0.11348448635E+04  0.36891475611E+04  0.35102616517E+04 0.  0.
        1    1    3    3  502    0 -0.12593208125E+04 -0.11074882204E+04  0.11115574983E+04  0.20119590302E+04  0.50400001928E-02 0.  1.
       -1    1    3    3    0  502  0.12593208125E+04  0.11074882204E+04  0.23287365244E+02  0.16771885310E+04  0.50400001928E-02 0. -1.
</event>
<event>
 5   0  0.2574803E-06  0.3209100E+04  0.7818609E-02  0.8186418E-01
        2   -1    0    0  501    0  0.00000000000E+00  0.00000000000E+00  0.18346220294E+04  0.18346220294E+04  0.25500000920E-02 0.  1.
       -2   -1    0    0    0  501  0.00000000000E+00  0.00000000000E+00 -0.14033299249E+04  0.14033299249E+04  0.25500000920E-02 0. -1.
    10030    2    1    2    0    0  0.00000000000E+00  0.00000000000E+00  0.43129210442E+03  0.32379519543E+04  0.32090995589E+04 0.  0.
        4    1    3    3  502    0  0.10724591015E+04 -0.11696784671E+04 -0.23682953514E+02  0.15870975824E+04  0.12699999809E+01 0. -1.
       -4    1    3    3    0  502 -0.10724591015E+04  0.11696784671E+04  0.45497505793E+03  0.16508543719E+04  0.12699999809E+01 0.  1.
</event>
<event>
 5   0  0.2574803E-06  0.3577172E+04  0.7818609E-02  0.8095741E-01
        2   -1    0    0  501    0  0.00000000000E+00  0.00000000000E+00  0.20902269712E+04  0.20902269712E+04  0.25500000920E-02 0. -1.
       -2   -1    0    0    0  501  0.00000000000E+00  0.00000000000E+00 -0.15304744959E+04  0.15304744959E+04  0.25500000920E-02 0.  1.
    10030    2    1    2    0    0  0.00000000000E+00  0.00000000000E+00  0.55975247535E+03  0.36207014671E+04  0.35771715475E+04 0.  0.
        4    1    3    3  502    0  0.11835717855E+04  0.61588516450E+03  0.14855391413E+04  0.19967435640E+04  0.12699999809E+01 0. -1.
       -4    1    3    3    0  502 -0.11835717855E+04 -0.61588516450E+03 -0.92578666593E+03  0.16239579031E+04  0.12699999809E+01 0.  1.
</event>
<event>
 5   0  0.2658600E-06  0.3296678E+04  0.7818609E-02  0.8163741E-01
       -2   -1    0    0    0  501  0.00000000000E+00  0.00000000000E+00  0.14176207224E+04  0.14176207224E+04  0.25500000920E-02 0. -1.
        2   -1    0    0  501    0  0.00000000000E+00  0.00000000000E+00 -0.19166065377E+04  0.19166065377E+04  0.25500000920E-02 0.  1.
    10030    2    1    2    0    0  0.00000000000E+00  0.00000000000E+00 -0.49898581528E+03  0.33342272601E+04  0.32966778093E+04 0.  0.
        5    1    3    3  502    0  0.15915231926E+04 -0.41909389711E+03 -0.15672419012E+03  0.16532302710E+04  0.46999998093E+01 0. -1.
       -5    1    3    3    0  502 -0.15915231926E+04  0.41909389711E+03 -0.34226162516E+03  0.16809969891E+04  0.46999998093E+01 0.  1.
</event>
<event>
 5   0  0.9295663E-07  0.3317629E+04  0.7818609E-02  0.8158424E-01
       -1   -1    0    0    0  501  0.00000000000E+00  0.00000000000E+00  0.19627817725E+04  0.19627817725E+04  0.50400001928E-02 0.  1.
        1   -1    0    0  501    0  0.00000000000E+00  0.00000000000E+00 -0.14019212209E+04  0.14019212210E+04  0.50400001928E-02 0. -1.
    10030    2    1    2    0    0  0.00000000000E+00  0.00000000000E+00  0.56086055153E+03  0.33647029934E+04  0.33176289238E+04 0.  0.
        4    1    3    3  502    0  0.94867181113E+03  0.13564172962E+04  0.39068209445E+03  0.17007293137E+04  0.12699999809E+01 0.  1.
       -4    1    3    3    0  502 -0.94867181113E+03 -0.13564172962E+04  0.17017845708E+03  0.16639736797E+04  0.12699999809E+01 0. -1.
</event>
<event>
 5   0  0.8705956E-07  0.3196172E+04  0.7818609E-02  0.8189829E-01
        1   -1    0    0  501    0  0.00000000000E+00  0.00000000000E+00  0.25139399234E+04  0.25139399234E+04  0.50400001928E-02 0.  1.
       -1   -1    0    0    0  501  0.00000000000E+00  0.00000000000E+00 -0.10158872019E+04  0.10158872019E+04  0.50400001928E-02 0. -1.
    10030    2    1    2    0    0  0.00000000000E+00  0.00000000000E+00  0.14980527215E+04  0.35298271253E+04  0.31961723323E+04 0.  0.
        2    1    3    3  502    0  0.12637836016E+04  0.45264718590E+03  0.17066309754E+04  0.21713193576E+04  0.25500000920E-02 0.  1.
       -2    1    3    3    0  502 -0.12637836016E+04 -0.45264718590E+03 -0.20857825390E+03  0.13585077676E+04  0.25500000920E-02 0. -1.
</event>
<event>
 5   0  0.2674551E-06  0.3381828E+04  0.7818609E-02  0.8142381E-01
        2   -1    0    0  501    0  0.00000000000E+00  0.00000000000E+00  0.18376472424E+04  0.18376472424E+04  0.25500000920E-02 0.  1.
       -2   -1    0    0    0  501  0.00000000000E+00  0.00000000000E+00 -0.15558968697E+04  0.15558968697E+04  0.25500000920E-02 0. -1.
    10030    2    1    2    0    0  0.00000000000E+00  0.00000000000E+00  0.28175037273E+03  0.33935441121E+04  0.33818276668E+04 0.  0.
        3    1    3    3  502    0 -0.14245445278E+04  0.14866724478E+03  0.10427439341E+04  0.17716500737E+04  0.10100000352E+00 0.  1.
       -3    1    3    3    0  502  0.14245445278E+04 -0.14866724478E+03 -0.76099356133E+03  0.16218940384E+04  0.10100000352E+00 0. -1.
</event>
<event>
 5   0  0.2574803E-06  0.3330016E+04  0.7818609E-02  0.8155300E-01
        2   -1    0    0  501    0  0.00000000000E+00  0.00000000000E+00  0.29411045892E+04  0.29411045892E+04  0.25500000920E-02 0. -1.
       -2   -1    0    0    0  501  0.00000000000E+00  0.00000000000E+00 -0.94258833764E+03  0.94258833765E+03  0.25500000920E-02 0.  1.
    10030    2    1    2    0    0  0.00000000000E+00  0.00000000000E+00  0.19985162515E+04  0.38836929268E+04  0.33300155468E+04 0.  0.
        4    1    3    3  502    0  0.54769829659E+03  0.13235660754E+04  0.19891782468E+04  0.24512511684E+04  0.12699999809E+01 0. -1.
       -4    1    3    3    0  502 -0.54769829659E+03 -0.13235660754E+04  0.93380047058E+01  0.14324417584E+04  0.12699999809E+01 0.  1.
</event>
<event>
 5   0  0.2574803E-06  0.3120862E+04  0.7818609E-02  0.8210036E-01
        2   -1    0    0  501    0  0.00000000000E+00  0.00000000000E+00  0.14109435284E+04  0.14109435284E+04  0.25500000920E-02 0. -1.
       -2   -1    0    0    0  501  0.00000000000E+00  0.00000000000E+00 -0.17257562655E+04  0.17257562655E+04  0.25500000920E-02 0.  1.
    10030    2    1    2    0    0  0.00000000000E+00  0.00000000000E+00 -0.31481273709E+03  0.31366997940E+04  0.31208618262E+04 0.  0.
        4    1    3    3  502    0  0.12545876277E+04 -0.75596853365E+03  0.38334304311E+03  0.15140779508E+04  0.12699999809E+01 0. -1.
       -4    1    3    3    0  502 -0.12545876277E+04  0.75596853365E+03 -0.69815578020E+03  0.16226218431E+04  0.12699999809E+01 0.  1.
</event>
<event>
 5   0  0.9268670E-07  0.3288748E+04  0.7818609E-02  0.8165764E-01
       -1   -1    0    0    0  501  0.00000000000E+00  0.00000000000E+00  0.13631463544E+04  0.13631463544E+04  0.50400001928E-02 0.  1.
        1   -1    0    0  501    0  0.00000000000E+00  0.00000000000E+00 -0.19836214804E+04  0.19836214804E+04  0.50400001928E-02 0. -1.
    10030    2    1    2    0    0  0.00000000000E+00  0.00000000000E+00 -0.62047512598E+03  0.33467678349E+04  0.32887483270E+04 0.  0.
        3    1    3    3  502    0 -0.72210567146E+03 -0.11878996176E+04 -0.12040401295E+04  0.18390907389E+04  0.10100000352E+00 0. -1.
       -3    1    3    3    0  502  0.72210567146E+03  0.11878996176E+04  0.58356500350E+03  0.15076770960E+04  0.10100000352E+00 0.  1.
</event>
<event>
 5   0  0.8845526E-07  0.3275718E+04  0.7818609E-02  0.8169102E-01
        1   -1    0    0  501    0  0.00000000000E+00  0.00000000000E+00  0.18145020352E+04  0.18145020353E+04  0.50400001928E-02 0.  1.
       -1   -1    0    0    0  501  0.00000000000E+00  0.00000000000E+00 -0.14784124777E+04  0.14784124777E+04  0.50400001928E-02 0. -1.
    10030    2    1    2    0    0  0.00000000000E+00  0.00000000000E+00  0.33608955754E+03  0.32929145130E+04  0.32757182112E+04 0.  0.
        1    1    3    3  502    0  0.14536529357E+04 -0.24222194679E+03  0.88650233553E+03  0.17197862425E+04  0.50400001928E-02 0. -1.
       -1    1    3    3    0  502 -0.14536529357E+04  0.24222194679E+03 -0.55041277799E+03  0.15731282704E+04  0.50400001928E-02 0.  1.
</event>
<event>
 5   0  0.9295663E-07  0.3307266E+04  0.7818609E-02  0.8161049E-01
       -1   -1    0    0    0  501  0.00000000000E+00  0.00000000000E+00  0.18393558239E+04  0.18393558240E+04  0.50400001928E-02 0.  1.
        1   -1    0    0  501    0  0.00000000000E+00  0.00000000000E+00 -0.14866627646E+04  0.14866627646E+04  0.50400001928E-02 0. -1.
    10030    2    1    2    0    0  0.00000000000E+00  0.00000000000E+00  0.35269305934E+03  0.33260185886E+04  0.33072658281E+04 0.  0.
        4    1    3    3  502    0 -0.53489945928E+03 -0.10019966406E+03  0.17467199980E+04  0.18295326639E+04  0.12699999809E+01 0.  1.
       -4    1    3    3    0  502  0.53489945928E+03  0.10019966406E+03 -0.13940269386E+04  0.14964859246E+04  0.12699999809E+01 0. -1.
</event>
<event>
 5   0  0.2705859E-06  0.3281664E+04  0.7818609E-02  0.8167577E-01
        2   -1    0    0  501    0  0.00000000000E+00  0.00000000000E+00  0.13682195245E+04  0.13682195245E+04  0.25500000920E-02 0. -1.
       -2   -1    0    0    0  501  0.00000000000E+00  0.00000000000E+00 -0.19677609355E+04  0.19677609355E+04  0.25500000920E-02 0.  1.
    10030    2    1    2    0    0  0.00000000000E+00  0.00000000000E+00 -0.59954141099E+03  0.33359804599E+04  0.32816635607E+04 0.  0.
        1    1    3    3  502    0  0.33719041267E+03  0.14447445263E+04 -0.10123326596E+04  0.17960516513E+04  0.50400001928E-02 0.  1.
       -1    1    3    3    0  502 -0.33719041267E+03 -0.14447445263E+04  0.41279124862E+03  0.15399288086E+04  0.50400001928E-02 0. -1.
</event>
<event>
 5   0  0.2574803E-06  0.2827836E+04  0.7818609E-02  0.8294678E-01
       -2   -1    0    0    0  501  0.00000000000E+00  0.00000000000E+00  0.13972830685E+04  0.13972830685E+04  0.25500000920E-02 0. -1.
        2   -1    0    0  501    0  0.00000000000E+00  0.00000000000E+00 -0.14307507842E+04  0.14307507842E+04  0.25500000920E-02 0.  1.
    10030    2    1    2    0    0  0.00000000000E+00  0.00000000000E+00 -0.33467715651E+02  0.28280338527E+04  0.28278358128E+04 0.  0.
        4    1    3    3  502    0 -0.30015441728E+03 -0.11904700018E+04 -0.71810367969E+03  0.14223171261E+04  0.12699999809E+01 0.  1.
       -4    1    3    3    0  502  0.30015441728E+03  0.11904700018E+04  0.68463596404E+03  0.14057167266E+04  0.12699999809E+01 0. -1.
</event>
<event>
 5   0  0.9530268E-07  0.3260172E+04  0.7818609E-02  0.8173104E-01
        1   -1    0    0  501    0  0.00000000000E+00  0.00000000000E+00  0.20145969811E+04  0.20145969811E+04  0.50400001928E-02 0.  1.
       -1   -1    0    0    0  501  0.00000000000E+00  0.00000000000E+00 -0.13189640711E+04  0.13189640711E+04  0.50400001928E-02 0. -1.
    10030    2    1    2    0    0  0.00000000000E+00  0.00000000000E+00  0.69563291007E+03  0.33335610522E+04  0.32601724101E+04 0.  0.
        5    1    3    3  502    0 -0.40562475198E+03 -0.12482483019E+03  0.19571086500E+04  0.20026005682E+04  0.46999998093E+01 0.  1.
       -5    1    3    3    0  502  0.40562475198E+03  0.12482483019E+03 -0.12614757399E+04  0.13309604841E+04  0.46999998093E+01 0. -1.
</event>
<event>
 5   0  0.2705859E-06  0.3294988E+04  0.7818609E-02  0.8164172E-01
        2   -1    0    0  501    0  0.00000000000E+00  0.00000000000E+00  0.17700333161E+04  0.17700333161E+04  0.25500000920E-02 0.  1.
       -2   -1    0    0    0  501  0.00000000000E+00  0.00000000000E+00 -0.15334383864E+04  0.15334383864E+04  0.25500000920E-02 0. -1.
    10030    2    1    2    0    0  0.00000000000E+00  0.00000000000E+00  0.23659492969E+03  0.33034717025E+04  0.32949883351E+04 0.  0.
        1    1    3    3  502    0 -0.12181486163E+04 -0.80408327191E+03 -0.64773848923E+03  0.15968722898E+04  0.50400001928E-02 0. -1.
       -1    1    3    3    0  502  0.12181486163E+04  0.80408327191E+03  0.88433341892E+03  0.17065994127E+04  0.50400001928E-02 0.  1.
</event>
<event>
 5   0  0.9268670E-07  0.3222760E+04  0.7818609E-02  0.8182832E-01
       -1   -1    0    0    0  501  0.00000000000E+00  0.00000000000E+00  0.15387392265E+04  0.15387392265E+04  0.50400001928E-02 0.  1.
        1   -1    0    0  501    0  0.00000000000E+00  0.00000000000E+00 -0.16874500470E+04  0.16874500470E+04  0.50400001928E-02 0. -1.
    10030    2    1    2    0    0  0.00000000000E+00  0.00000000000E+00 -0.14871082051E+03  0.32261892735E+04  0.32227600470E+04 0.  0.
        3    1    3    3  502    0  0.98706374564E+03  0.12288406979E+04  0.26096559587E+03  0.15976380539E+04  0.10100000352E+00 0.  1.
       -3    1    3    3    0  502 -0.98706374564E+03 -0.12288406979E+04 -0.40967641637E+03  0.16285512197E+04  0.10100000352E+00 0. -1.
</event>
<event>
 5   0  0.8520125E-07  0.3293736E+04  0.7818609E-02  0.8164491E-01
        3   -1    0    0  501    0  0.00000000000E+00  0.00000000000E+00  0.29247613945E+04  0.29247613962E+04  0.10100000352E+00 0. -1.
       -3   -1    0    0    0  501  0.00000000000E+00  0.00000000000E+00 -0.92731471149E+03  0.92731471699E+03  0.10100000352E+00 0.  1.
    10030    2    1    2    0    0  0.00000000000E+00  0.00000000000E+00  0.19974466830E+04  0.38520761132E+04  0.32937360445E+04 0.  0.
        1    1    3    3  502    0  0.13547501132E+04 -0.21691771231E+03  0.20640572446E+04  0.24784538471E+04  0.50400001928E-02 0. -1.
       -1    1    3    3    0  502 -0.13547501132E+04  0.21691771231E+03 -0.66610561566E+02  0.13736222662E+04  0.50400001928E-02 0.  1.
</event>
<event>
 5   0  0.9530268E-07  0.3293234E+04  0.7818609E-02  0.8164619E-01
        1   -1    0    0  501    0  0.00000000000E+00  0.00000000000E+00  0.22269795227E+04  0.22269795227E+04  0.50400001928E-02 0. -1.
       -1   -1    0    0    0  501  0.00000000000E+00  0.00000000000E+00 -0.12175000425E+04  0.12175000425E+04  0.50400001928E-02 0.  1.
    10030    2    1    2    0    0  0.00000000000E+00  0.00000000000E+00  0.10094794802E+04  0.34444795652E+04  0.32932340722E+04 0.  0.
        5    1    3    3  502    0 -0.43213188789E+03 -0.10408327183E+04  0.17603978460E+04  0.20902376377E+04  0.46999998093E+01 0.  1.
       -5    1    3    3    0  502  0.43213188789E+03  0.10408327183E+04 -0.75091836582E+03  0.13542419275E+04  0.46999998093E+01 0. -1.
</event>
<event>
 5   0  0.8520125E-07  0.3275351E+04  0.7818609E-02  0.8169196E-01
       -4   -1    0    0    0  501  0.00000000000E+00  0.00000000000E+00  0.24093610776E+04  0.24093614123E+04  0.12699999809E+01 0. -1.
        4   -1    0    0  501    0  0.00000000000E+00  0.00000000000E+00 -0.11131496222E+04  0.11131503467E+04  0.12699999809E+01 0.  1.
    10030    2    1    2    0    0  0.00000000000E+00  0.00000000000E+00  0.12962114554E+04  0.35225117590E+04  0.32753511193E+04 0.  0.
        2    1    3    3  502    0 -0.68355071549E+03 -0.15110459432E+03  0.22403351903E+04  0.23471633825E+04  0.25500000920E-02 0. -1.
       -2    1    3    3    0  502  0.68355071549E+03  0.15110459432E+03 -0.94412373498E+03  0.11753483765E+04  0.25500000920E-02 0.  1.
</event>
<event>
 5   0  0.2658600E-06  0.3222412E+04  0.7818609E-02  0.8182923E-01
        2   -1    0    0  501    0  0.00000000000E+00  0.00000000000E+00  0.17169298876E+04  0.17169298876E+04  0.25500000920E-02 0.  1.
       -2   -1    0    0    0  501  0.00000000000E+00  0.00000000000E+00 -0.15119921074E+04  0.15119921074E+04  0.25500000920E-02 0. -1.
    10030    2    1    2    0    0  0.00000000000E+00  0.00000000000E+00  0.20493778025E+03  0.32289219950E+04  0.32224117918E+04 0.  0.
        5    1    3    3  502    0  0.66338611127E+03  0.14562222486E+04 -0.85788240828E+02  0.16025124281E+04  0.46999998093E+01 0. -1.
       -5    1    3    3    0  502 -0.66338611127E+03 -0.14562222486E+04  0.29072602108E+03  0.16264095669E+04  0.46999998093E+01 0.  1.
</event>
<event>
 5   0  0.2574803E-06  0.3308930E+04  0.7818609E-02  0.8160627E-01
       -2   -1    0    0    0  501  0.00000000000E+00  0.00000000000E+00  0.17895991600E+04  0.17895991600E+04  0.25500000920E-02 0.  1.
        2   -1    0    0  501    0  0.00000000000E+00  0.00000000000E+00 -0.15295353787E+04  0.15295353787E+04  0.25500000920E-02 0. -1.
    10030    2    1    2    0    0  0.00000000000E+00  0.00000000000E+00  0.26006378133E+03  0.33191345387E+04  0.33089304792E+04 0.  0.
        4    1    3    3  502    0  0.18976977036E+03 -0.78605132773E+03 -0.13178056366E+04  0.15461250158E+04  0.12699999809E+01 0. -1.
       -4    1    3    3    0  502 -0.18976977036E+03  0.78605132773E+03  0.15778694179E+04  0.17730095230E+04  0.12699999809E+01 0.  1.
</event>
<event>
 5   0  0.8845526E-07  0.2533646E+04  0.7818609E-02  0.8391096E-01
        1   -1    0    0  501    0  0.00000000000E+00  0.00000000000E+00  0.73311123433E+03  0.73311123435E+03  0.50400001928E-02 0.  1.
       -1   -1    0    0    0  501  0.00000000000E+00  0.00000000000E+00 -0.21890818980E+04  0.21890818980E+04  0.50400001928E-02 0. -1.
    10030    2    1    2    0    0  0.00000000000E+00  0.00000000000E+00 -0.14559706636E+04  0.29221931323E+04  0.25336460150E+04 0.  0.
        1    1    3    3  502    0 -0.48787919883E+03  0.31428958239E+03 -0.20267451732E+04  0.21081982951E+04  0.50400001928E-02 0. -1.
       -1    1    3    3    0  502  0.48787919883E+03 -0.31428958239E+03  0.57077450958E+03  0.81399483724E+03  0.50400001928E-02 0.  1.
</event>
<event>
 5   0  0.2658600E-06  0.3290048E+04  0.7818609E-02  0.8165432E-01
       -2   -1    0    0    0  501  0.00000000000E+00  0.00000000000E+00  0.21243078629E+04  0.21243078629E+04  0.25500000920E-02 0.  1.
        2   -1    0    0  501    0  0.00000000000E+00  0.00000000000E+00 -0.12738757656E+04  0.12738757656E+04  0.25500000920E-02 0. -1.
    10030    2    1    2    0    0  0.00000000000E+00  0.00000000000E+00  0.85043209729E+03  0.33981836284E+04  0.32900482094E+04 0.  0.
        5    1    3    3  502    0 -0.35722091701E+03 -0.12665339183E+04  0.14447599333E+04  0.19542436656E+04  0.46999998093E+01 0.  1.
       -5    1    3    3    0  502  0.35722091701E+03  0.12665339183E+04 -0.59432783599E+03  0.14439399628E+04  0.46999998093E+01 0. -1.
</event>
<event>
 5   0  0.9530268E-07  0.3313560E+04  0.7818609E-02  0.8159453E-01
        1   -1    0    0  501    0  0.00000000000E+00  0.00000000000E+00  0.31105372185E+04  0.31105372185E+04  0.50400001928E-02 0. -1.
       -1   -1    0    0    0  501  0.00000000000E+00  0.00000000000E+00 -0.88245870296E+03  0.88245870297E+03  0.50400001928E-02 0.  1.
    10030    2    1    2    0    0  0.00000000000E+00  0.00000000000E+00  0.22280785155E+04  0.39929959214E+04  0.33135604050E+04 0.  0.
        5    1    3    3  502    0 -0.80625464515E+03 -0.38871827863E+03 -0.56601840783E+03  0.10590313409E+04  0.46999998093E+01 0.  1.
       -5    1    3    3    0  502  0.80625464515E+03  0.38871827863E+03  0.27940969233E+04  0.29339645806E+04  0.46999998093E+01 0. -1.
</event>
<event>
 5   0  0.2674551E-06  0.3313120E+04  0.7818609E-02  0.8159565E-01
       -2   -1    0    0    0  501  0.00000000000E+00  0.00000000000E+00  0.14993389041E+04  0.14993389041E+04  0.25500000920E-02 0.  1.
        2   -1    0    0  501    0  0.00000000000E+00  0.00000000000E+00 -0.18302677816E+04  0.18302677816E+04  0.25500000920E-02 0. -1.
    10030    2    1    2    0    0  0.00000000000E+00  0.00000000000E+00 -0.33092887743E+03  0.33296066857E+04  0.33131203962E+04 0.  0.
        3    1    3    3  502    0  0.21719869786E+02 -0.61423951158E+03  0.13805107691E+04  0.15111492064E+04  0.10100000352E+00 0.  1.
       -3    1    3    3    0  502 -0.21719869786E+02  0.61423951158E+03 -0.17114396465E+04  0.18184574793E+04  0.10100000352E+00 0. -1.
</event>
<event>
 5   0  0.2658600E-06  0.3256501E+04  0.7818609E-02  0.8174053E-01
        2   -1    0    0  501    0  0.00000000000E+00  0.00000000000E+00  0.16221715514E+04  0.16221715514E+04  0.25500000920E-02 0.  1.
       -2   -1    0    0    0  501  0.00000000000E+00  0.00000000000E+00 -0.16343525977E+04  0.16343525977E+04  0.25500000920E-02 0. -1.
    10030    2    1    2    0    0  0.00000000000E+00  0.00000000000E+00 -0.12181046386E+02  0.32565241491E+04  0.32565013674E+04 0.  0.
        5    1    3    3  502    0  0.72072600413E+03  0.17601741437E+03  0.14433160756E+04  0.16228405612E+04  0.46999998093E+01 0.  1.
       -5    1    3    3    0  502 -0.72072600413E+03 -0.17601741437E+03 -0.14554971220E+04  0.16336835879E+04  0.46999998093E+01 0. -1.
</event>
<event>
 5   0  0.9295663E-07  0.3297198E+04  0.7818609E-02  0.8163609E-01
        1   -1    0    0  501    0  0.00000000000E+00  0.00000000000E+00  0.15557693050E+04  0.15557693050E+04  0.50400001928E-02 0.  1.
       -1   -1    0    0    0  501  0.00000000000E+00  0.00000000000E+00 -0.17469673565E+04  0.17469673565E+04  0.50400001928E-02 0. -1.
    10030    2    1    2    0    0  0.00000000000E+00  0.00000000000E+00 -0.19119805144E+03  0.33027366615E+04  0.32971977133E+04 0.  0.
        4    1    3    3  502    0  0.61082999324E+03 -0.72110333978E+03  0.12575119369E+04  0.15730356612E+04  0.12699999809E+01 0.  1.
       -4    1    3    3    0  502 -0.61082999324E+03  0.72110333978E+03 -0.14487099883E+04  0.17297010003E+04  0.12699999809E+01 0. -1.
</event>
<event>
 5   0  0.2674551E-06  0.3314741E+04  0.7818609E-02  0.8159155E-01
       -2   -1    0    0    0  501  0.00000000000E+00  0.00000000000E+00  0.17324702967E+04  0.17324702967E+04  0.25500000920E-02 0.  1.
        2   -1    0    0  501    0  0.00000000000E+00  0.00000000000E+00 -0.15855264610E+04  0.15855264611E+04  0.25500000920E-02 0. -1.
    10030    2    1    2    0    0  0.00000000000E+00  0.00000000000E+00  0.14694383565E+03  0.33179967578E+04  0.33147413162E+04 0.  0.
        3    1    3    3  502    0  0.10841153461E+04  0.10055910945E+04  0.82277770469E+03  0.16921828195E+04  0.10100000352E+00 0. -1.
       -3    1    3    3    0  502 -0.10841153461E+04 -0.10055910945E+04 -0.67583386903E+03  0.16258139383E+04  0.10100000352E+00 0.  1.
</event>
<event>
 5   0  0.2614212E-06  0.3278681E+04  0.7818609E-02  0.8168341E-01
        2   -1    0    0  501    0  0.00000000000E+00  0.00000000000E+00  0.24071094885E+04  0.24071094885E+04  0.25500000920E-02 0. -1.
       -2   -1    0    0    0  501  0.00000000000E+00  0.00000000000E+00 -0.11164583200E+04  0.11164583200E+04  0.25500000920E-02 0.  1.
    10030    2    1    2    0    0  0.00000000000E+00  0.00000000000E+00  0.12906511685E+04  0.35235678085E+04  0.32786810858E+04 0.  0.
        2    1    3    3  502    0 -0.16243297827E+04 -0.18593064952E+03  0.51627333406E+03  0.17145132268E+04  0.25500000920E-02 0.  1.
       -2    1    3    3    0  502  0.16243297827E+04  0.18593064952E+03  0.77437783445E+03  0.18090545817E+04  0.25500000920E-02 0. -1.
</event>
<event>
 5   0  0.2574803E-06  0.3304656E+04  0.7818609E-02  0.8161712E-01
       -2   -1    0    0    0  501  0.00000000000E+00  0.00000000000E+00  0.14814384202E+04  0.14814384202E+04  0.25500000920E-02 0.  1.
        2   -1    0    0  501    0  0.00000000000E+00  0.00000000000E+00 -0.18429304061E+04  0.18429304061E+04  0.25500000920E-02 0. -1.
    10030    2    1    2    0    0  0.00000000000E+00  0.00000000000E+00 -0.36149198585E+03  0.33243688263E+04  0.33046560544E+04 0.  0.
        4    1    3    3  502    0 -0.10788922108E+04  0.19994847671E+03  0.10620173860E+04  0.15270462786E+04  0.12699999809E+01 0.  1.
       -4    1    3    3    0  502  0.10788922108E+04 -0.19994847671E+03 -0.14235093719E+04  0.17973225477E+04  0.12699999809E+01 0. -1.
</event>
<event>
 5   0  0.2658600E-06  0.3298620E+04  0.7818609E-02  0.8163247E-01
        2   -1    0    0  501    0  0.00000000000E+00  0.00000000000E+00  0.21462422375E+04  0.21462422375E+04  0.25500000920E-02 0.  1.
       -2   -1    0    0    0  501  0.00000000000E+00  0.00000000000E+00 -0.12674350988E+04  0.12674350988E+04  0.25500000920E-02 0. -1.
    10030    2    1    2    0    0  0.00000000000E+00  0.00000000000E+00  0.87880713868E+03  0.34136773363E+04  0.32986195552E+04 0.  0.
        5    1    3    3  502    0  0.13094792060E+04  0.30658863025E+03  0.14274128354E+04  0.19611888924E+04  0.46999998093E+01 0.  1.
       -5    1    3    3    0  502 -0.13094792060E+04 -0.30658863025E+03 -0.54860569670E+03  0.14524884439E+04  0.46999998093E+01 0. -1.
</event>
<event>
 5   0  0.2705859E-06  0.3264642E+04  0.7818609E-02  0.8171951E-01
        2   -1    0    0  501    0  0.00000000000E+00  0.00000000000E+00  0.23630029264E+04  0.23630029264E+04  0.25500000920E-02 0. -1.
       -2   -1    0    0    0  501  0.00000000000E+00  0.00000000000E+00 -0.11275785045E+04  0.11275785045E+04  0.25500000920E-02 0.  1.
    10030    2    1    2    0    0  0.00000000000E+00  0.00000000000E+00  0.12354244219E+04  0.34905814309E+04  0.32646416685E+04 0.  0.
        1    1    3    3  502    0  0.36438651297E+03 -0.15604326660E+04  0.28514951392E+03  0.16275865204E+04  0.50400001928E-02 0. -1.
       -1    1    3    3    0  502 -0.36438651297E+03  0.15604326660E+04  0.95027490794E+03  0.18629949105E+04  0.50400001928E-02 0.  1.
</event>
<event>
 5   0  0.2705859E-06  0.3321550E+04  0.7818609E-02  0.8157434E-01
       -2   -1    0    0    0  501  0.00000000000E+00  0.00000000000E+00  0.11623167445E+04  0.11623167445E+04  0.25500000920E-02 0. -1.
        2   -1    0    0  501    0  0.00000000000E+00  0.00000000000E+00 -0.23729965019E+04  0.23729965019E+04  0.25500000920E-02 0.  1.
    10030    2    1    2    0    0  0.00000000000E+00  0.00000000000E+00 -0.12106797574E+04  0.35353132465E+04  0.33215499809E+04 0.  0.
        1    1    3    3  502    0 -0.13309356117E+04  0.98086513204E+03 -0.43810525933E+03  0.17103865727E+04  0.50400001928E-02 0. -1.
       -1    1    3    3    0  502  0.13309356117E+04 -0.98086513204E+03 -0.77257449805E+03  0.18249266738E+04  0.50400001928E-02 0.  1.
</event>
<event>
 5   0  0.8845526E-07  0.3268486E+04  0.7818609E-02  0.8170961E-01
       -1   -1    0    0    0  501  0.00000000000E+00  0.00000000000E+00  0.12663773265E+04  0.12663773265E+04  0.50400001928E-02 0. -1.
        1   -1    0    0  501    0  0.00000000000E+00  0.00000000000E+00 -0.21089685448E+04  0.21089685448E+04  0.50400001928E-02 0.  1.
    10030    2    1    2    0    0  0.00000000000E+00  0.00000000000E+00 -0.84259121831E+03  0.33753458713E+04  0.32684858558E+04 0.  0.
        1    1    3    3  502    0  0.11943597442E+04 -0.15888093254E+03  0.71889009244E+03  0.14030471533E+04  0.50400001928E-02 0. -1.
       -1    1    3    3    0  502 -0.11943597442E+04  0.15888093254E+03 -0.15614813108E+04  0.19722987180E+04  0.50400001928E-02 0.  1.
</event>
<event>
 5   0  0.8705956E-07  0.3274679E+04  0.7818609E-02  0.8169368E-01
       -1   -1    0    0    0  501  0.00000000000E+00  0.00000000000E+00  0.15089707882E+04  0.15089707882E+04  0.50400001928E-02 0.  1.
        1   -1    0    0  501    0  0.00000000000E+00  0.00000000000E+00 -0.17766282387E+04  0.17766282387E+04  0.50400001928E-02 0. -1.
    10030    2    1    2    0    0  0.00000000000E+00  0.00000000000E+00 -0.26765745058E+03  0.32855990269E+04  0.32746786796E+04 0.  0.
        2    1    3    3  502    0 -0.44977412768E+03  0.11546701514E+04 -0.12075939314E+04  0.17302725299E+04  0.25500000920E-02 0. -1.
       -2    1    3    3    0  502  0.44977412768E+03 -0.11546701514E+04  0.93993648081E+03  0.15553264971E+04  0.25500000920E-02 0.  1.
</event>
<event>
 5   0  0.2705859E-06  0.3361553E+04  0.7818609E-02  0.8147407E-01
       -2   -1    0    0    0  501  0.00000000000E+00  0.00000000000E+00  0.29639945039E+04  0.29639945039E+04  0.25500000920E-02 0.  1.
        2   -1    0    0  501    0  0.00000000000E+00  0.00000000000E+00 -0.95310896133E+03  0.95310896133E+03  0.25500000920E-02 0. -1.
    10030    2    1    2    0    0  0.00000000000E+00  0.00000000000E+00  0.20108855426E+04  0.39171034652E+04  0.33615530476E+04 0.  0.
        1    1    3    3  502    0 -0.52958429383E+03  0.62350699029E+03 -0.70547139815E+03  0.10802362634E+04  0.50400001928E-02 0. -1.
       -1    1    3    3    0  502  0.52958429383E+03 -0.62350699029E+03  0.27163569407E+04  0.28368672018E+04  0.50400001928E-02 0.  1.
</event>
<event>
 5   0  0.9530268E-07  0.3230134E+04  0.7818609E-02  0.8180904E-01
        1   -1    0    0  501    0  0.00000000000E+00  0.00000000000E+00  0.23704479576E+04  0.23704479576E+04  0.50400001928E-02 0.  1.
       -1   -1    0    0    0  501  0.00000000000E+00  0.00000000000E+00 -0.11004002733E+04  0.11004002733E+04  0.50400001928E-02 0. -1.
    10030    2    1    2    0    0  0.00000000000E+00  0.00000000000E+00  0.12700476843E+04  0.34708482309E+04  0.32301341027E+04 0.  0.
        5    1    3    3  502    0 -0.67624222492E+03  0.15415458127E+03 -0.93221353385E+03  0.11619429179E+04  0.46999998093E+01 0. -1.
       -5    1    3    3    0  502  0.67624222492E+03 -0.15415458127E+03  0.22022612181E+04  0.23089053130E+04  0.46999998093E+01 0.  1.
</event>
<event>
 5   0  0.2658600E-06  0.3246220E+04  0.7818609E-02  0.8176716E-01
        2   -1    0    0  501    0  0.00000000000E+00  0.00000000000E+00  0.16523566716E+04  0.16523566716E+04  0.25500000920E-02 0.  1.
       -2   -1    0    0    0  501  0.00000000000E+00  0.00000000000E+00 -0.15943807113E+04  0.15943807113E+04  0.25500000920E-02 0. -1.
    10030    2    1    2    0    0  0.00000000000E+00  0.00000000000E+00  0.57975960268E+02  0.32467373830E+04  0.32462197125E+04 0.  0.
        5    1    3    3  502    0  0.12657391876E+04  0.87444644933E+03  0.54647867728E+03  0.16326093588E+04  0.46999998093E+01 0. -1.
       -5    1    3    3    0  502 -0.12657391876E+04 -0.87444644933E+03 -0.48850271701E+03  0.16141280241E+04  0.46999998093E+01 0.  1.
</event>
<event>
 5   0  0.9268670E-07  0.3351198E+04  0.7818609E-02  0.8149989E-01
       -1   -1    0    0    0  501  0.00000000000E+00  0.00000000000E+00  0.17487569694E+04  0.17487569694E+04  0.50400001928E-02 0. -1.
        1   -1    0    0  501    0  0.00000000000E+00  0.00000000000E+00 -0.16055016109E+04  0.16055016109E+04  0.50400001928E-02 0.  1.
    10030    2    1    2    0    0  0.00000000000E+00  0.00000000000E+00  0.14325535848E+03  0.33542585803E+04  0.33511980732E+04 0.  0.
        3    1    3    3  502    0 -0.64063106718E+03 -0.10568316144E+02 -0.14780473283E+04  0.16109449923E+04  0.10100000352E+00 0.  1.
       -3    1    3    3    0  502  0.64063106718E+03  0.10568316144E+02  0.16213026868E+04  0.17433135879E+04  0.10100000352E+00 0. -1.
</event>
<event>
 5   0  0.2614212E-06  0.3258468E+04  0.7818609E-02  0.8173544E-01
        2   -1    0    0  501    0  0.00000000000E+00  0.00000000000E+00  0.24755382469E+04  0.24755382469E+04  0.25500000920E-02 0.  1.
       -2   -1    0    0    0  501  0.00000000000E+00  0.00000000000E+00 -0.10722529466E+04  0.10722529466E+04  0.25500000920E-02 0. -1.
    10030    2    1    2    0    0  0.00000000000E+00  0.00000000000E+00  0.14032853002E+04  0.35477911935E+04  0.32584678484E+04 0.  0.
        2    1    3    3  502    0  0.83471426330E+03  0.29489464698E+03  0.21908178846E+04  0.23629205991E+04  0.25500000920E-02 0.  1.
       -2    1    3    3    0  502 -0.83471426330E+03 -0.29489464698E+03 -0.78753258432E+03  0.11848705944E+04  0.25500000920E-02 0. -1.
</event>
<event>
 5   0  0.9295663E-07  0.3332652E+04  0.7818609E-02  0.8154636E-01
        1   -1    0    0  501    0  0.00000000000E+00  0.00000000000E+00  0.19751825194E+04  0.19751825194E+04  0.50400001928E-02 0.  1.
       -1   -1    0    0    0  501  0.00000000000E+00  0.00000000000E+00 -0.14057651361E+04  0.14057651361E+04  0.50400001928E-02 0. -1.
    10030    2    1    2    0    0  0.00000000000E+00  0.00000000000E+00  0.56941738333E+03  0.33809476555E+04  0.33326522310E+04 0.  0.
        4    1    3    3  502    0  0.84579460086E+03 -0.14258920156E+04  0.11463510455E+03  0.16618301258E+04  0.12699999809E+01 0. -1.
       -4    1    3    3    0  502 -0.84579460086E+03  0.14258920156E+04  0.45478227878E+03  0.17191175297E+04  0.12699999809E+01 0.  1.
</event>
<event>
 5   0  0.9530268E-07  0.3260620E+04  0.7818609E-02  0.8172989E-01
       -1   -1    0    0    0  501  0.00000000000E+00  0.00000000000E+00  0.12439585780E+04  0.12439585781E+04  0.50400001928E-02 0. -1.
        1   -1    0    0  501    0  0.00000000000E+00  0.00000000000E+00 -0.21366552928E+04  0.21366552928E+04  0.50400001928E-02 0.  1.
    10030    2    1    2    0    0  0.00000000000E+00  0.00000000000E+00 -0.89269671478E+03  0.33806138709E+04  0.32606199900E+04 0.  0.
        5    1    3    3  502    0 -0.34815113937E+03  0.15924756862E+04 -0.41890615906E+03  0.16830604526E+04  0.46999998093E+01 0. -1.
       -5    1    3    3    0  502  0.34815113937E+03 -0.15924756862E+04 -0.47379055572E+03  0.16975534182E+04  0.46999998093E+01 0.  1.
</event>
<event>
 5   0  0.8845526E-07  0.3302910E+04  0.7818609E-02  0.8162155E-01
       -1   -1    0    0    0  501  0.00000000000E+00  0.00000000000E+00  0.13700153986E+04  0.13700153986E+04  0.50400001928E-02 0.  1.
        1   -1    0    0  501    0  0.00000000000E+00  0.00000000000E+00 -0.19907103022E+04  0.19907103022E+04  0.50400001928E-02 0. -1.
    10030    2    1    2    0    0  0.00000000000E+00  0.00000000000E+00 -0.62069490359E+03  0.33607257008E+04  0.33029100915E+04 0.  0.
        1    1    3    3  502    0  0.19787887587E+03 -0.16149966471E+04 -0.22673286423E+02  0.16272320970E+04  0.50400001928E-02 0.  1.
       -1    1    3    3    0  502 -0.19787887587E+03  0.16149966471E+04 -0.59802161717E+03  0.17334936038E+04  0.50400001928E-02 0. -1.
</event>
<event>
 5   0  0.8705956E-07  0.3265482E+04  0.7818609E-02  0.8171735E-01
        1   -1    0    0  501    0  0.00000000000E+00  0.00000000000E+00  0.21988278181E+04  0.21988278181E+04  0.50400001928E-02 0.  1.
       -1   -1    0    0    0  501  0.00000000000E+00  0.00000000000E+00 -0.12123925299E+04  0.12123925299E+04  0.50400001928E-02 0. -1.
    10030    2    1    2    0    0  0.00000000000E+00  0.00000000000E+00  0.98643528826E+03  0.34112203480E+04  0.32654815395E+04 0.  0.
        2    1    3    3  502    0 -0.95085055709E+02 -0.37738312167E+03 -0.11632321476E+04  0.12266084206E+04  0.25500000920E-02 0. -1.
       -2    1    3    3    0  502  0.95085055709E+02  0.37738312167E+03  0.21496674359E+04  0.21846119274E+04  0.25500000920E-02 0.  1.
</event>
<event>
 5   0  0.2674551E-06  0.3230723E+04  0.7818609E-02  0.8180750E-01
       -2   -1    0    0    0  501  0.00000000000E+00  0.00000000000E+00  0.15596578364E+04  0.15596578364E+04  0.25500000920E-02 0.  1.
        2   -1    0    0  501    0  0.00000000000E+00  0.00000000000E+00 -0.16730548362E+04  0.16730548362E+04  0.25500000920E-02 0. -1.
    10030    2    1    2    0    0  0.00000000000E+00  0.00000000000E+00 -0.11339699974E+03  0.32327126726E+04  0.32307231921E+04 0.  0.
        3    1    3    3  502    0 -0.61057707414E+03  0.14655123434E+04 -0.35497984398E+03  0.16268194405E+04  0.10100000352E+00 0. -1.
       -3    1    3    3    0  502  0.61057707414E+03 -0.14655123434E+04  0.24158284424E+03  0.16058932321E+04  0.10100000352E+00 0.  1.
</event>
<event>
 5   0  0.2705859E-06  0.3212080E+04  0.7818609E-02  0.8185634E-01
       -2   -1    0    0    0  501  0.00000000000E+00  0.00000000000E+00  0.14644648804E+04  0.14644648804E+04  0.25500000920E-02 0. -1.
        2   -1    0    0  501    0  0.00000000000E+00  0.00000000000E+00 -0.17613020112E+04  0.17613020112E+04  0.25500000920E-02 0.  1.
    10030    2    1    2    0    0  0.00000000000E+00  0.00000000000E+00 -0.29683713081E+03  0.32257668917E+04  0.32120802850E+04 0.  0.
        1    1    3    3  502    0 -0.30250614291E+03  0.80277972965E+03  0.12150852013E+04  0.14874129579E+04  0.50400001928E-02 0. -1.
       -1    1    3    3    0  502  0.30250614291E+03 -0.80277972965E+03 -0.15119223321E+04  0.17383539338E+04  0.50400001928E-02 0.  1.
</event>
<event>
 5   0  0.8705956E-07  0.3300321E+04  0.7818609E-02  0.8162814E-01
        1   -1    0    0  501    0  0.00000000000E+00  0.00000000000E+00  0.14079710985E+04  0.14079710985E+04  0.50400001928E-02 0.  1.
       -1   -1    0    0    0  501  0.00000000000E+00  0.00000000000E+00 -0.19340091715E+04  0.19340091715E+04  0.50400001928E-02 0. -1.
    10030    2    1    2    0    0  0.00000000000E+00  0.00000000000E+00 -0.52603807293E+03  0.33419802700E+04  0.33003206012E+04 0.  0.
        2    1    3    3  502    0 -0.13437155647E+04  0.26649631891E+03 -0.11946525973E+04  0.18176321506E+04  0.25500000920E-02 0.  1.
       -2    1    3    3    0  502  0.13437155647E+04 -0.26649631891E+03  0.66861452437E+03  0.15243481194E+04  0.25500000920E-02 0. -1.
</event>
<event>
 5   0  0.9295663E-07  0.3322410E+04  0.7818609E-02  0.8157216E-01
       -1   -1    0    0    0  501  0.00000000000E+00  0.00000000000E+00  0.13501171232E+04  0.13501171233E+04  0.50400001928E-02 0. -1.
        1   -1    0    0  501    0  0.00000000000E+00  0.00000000000E+00 -0.20439729290E+04  0.20439729290E+04  0.50400001928E-02 0.  1.
    10030    2    1    2    0    0  0.00000000000E+00  0.00000000000E+00 -0.69385580579E+03  0.33940900523E+04  0.33224104809E+04 0.  0.
        4    1    3    3  502    0 -0.14848834374E+04 -0.53683839079E+03  0.18047272633E+03  0.15892282084E+04  0.12699999809E+01 0. -1.
       -4    1    3    3    0  502  0.14848834374E+04  0.53683839079E+03 -0.87432853212E+03  0.18048618439E+04  0.12699999809E+01 0.  1.
</event>
<event>
 5   0  0.9268670E-07  0.2480750E+04  0.7818609E-02  0.8409876E-01
       -1   -1    0    0    0  501  0.00000000000E+00  0.00000000000E+00  0.86492668080E+03  0.86492668081E+03  0.50400001928E-02 0. -1.
        1   -1    0    0  501    0  0.00000000000E+00  0.00000000000E+00 -0.17787981773E+04  0.17787981773E+04  0.50400001928E-02 0.  1.
    10030    2    1    2    0    0  0.00000000000E+00  0.00000000000E+00 -0.91387149649E+03  0.26437248581E+04  0.24807498893E+04 0.  0.
        3    1    3    3  502    0 -0.10000046644E+03  0.10977720124E+04  0.14913186948E+03  0.11123595683E+04  0.10100000352E+00 0.  1.
       -3    1    3    3    0  502  0.10000046644E+03 -0.10977720124E+04 -0.10630033660E+04  0.15313652898E+04  0.10100000352E+00 0. -1.
</event>
<event>
 5   0  0.9295663E-07  0.3281009E+04  0.7818609E-02  0.8167745E-01
       -1   -1    0    0    0  501  0.00000000000E+00  0.00000000000E+00  0.11516251692E+04  0.11516251692E+04  0.50400001928E-02 0. -1.
        1   -1    0    0  501    0  0.00000000000E+00  0.00000000000E+00 -0.23369186209E+04  0.23369186209E+04  0.50400001928E-02 0.  1.
    10030    2    1    2    0    0  0.00000000000E+00  0.00000000000E+00 -0.11852934517E+04  0.34885437901E+04  0.32810085658E+04 0.  0.
        4    1    3    3  502    0 -0.16843139907E+03 -0.14437399590E+04 -0.14013476272E+04  0.20190420973E+04  0.12699999809E+01 0.  1.
       -4    1    3    3    0  502  0.16843139907E+03  0.14437399590E+04  0.21605417552E+03  0.14695016928E+04  0.12699999809E+01 0. -1.
</event>
<event>
 5   0  0.2614212E-06  0.3309921E+04  0.7818609E-02  0.8160376E-01
        2   -1    0    0  501    0  0.00000000000E+00  0.00000000000E+00  0.15320462244E+04  0.15320462244E+04  0.25500000920E-02 0. -1.
       -2   -1    0    0    0  501  0.00000000000E+00  0.00000000000E+00 -0.17877359575E+04  0.17877359575E+04  0.25500000920E-02 0.  1.
    10030    2    1    2    0    0  0.00000000000E+00  0.00000000000E+00 -0.25568973307E+03  0.33197821819E+04  0.33099209199E+04 0.  0.
        2    1    3    3  502    0  0.42419526546E+03 -0.35538945110E+03  0.14364976939E+04  0.15394053754E+04  0.25500000920E-02 0. -1.
       -2    1    3    3    0  502 -0.42419526546E+03  0.35538945110E+03 -0.16921874270E+04  0.17803768065E+04  0.25500000920E-02 0.  1.
</event>
<event>
 5   0  0.2705859E-06  0.3325509E+04  0.7818609E-02  0.8156435E-01
       -2   -1    0    0    0  501  0.00000000000E+00  0.00000000000E+00  0.10863851224E+04  0.10863851225E+04  0.25500000920E-02 0. -1.
        2   -1    0    0  501    0  0.00000000000E+00  0.00000000000E+00 -0.25449096578E+04  0.25449096578E+04  0.25500000920E-02 0.  1.
    10030    2    1    2    0    0  0.00000000000E+00  0.00000000000E+00 -0.14585245354E+04  0.36312947803E+04  0.33255086770E+04 0.  0.
        1    1    3    3  502    0 -0.19920756602E+03 -0.65962981299E+03  0.92314489596E+03  0.11519512331E+04  0.50400001928E-02 0. -1.
       -1    1    3    3    0  502  0.19920756602E+03  0.65962981299E+03 -0.23816694314E+04  0.24793435472E+04  0.50400001928E-02 0.  1.
</event>
<event>
 5   0  0.8845526E-07  0.3307658E+04  0.7818609E-02  0.8160949E-01
        1   -1    0    0  501    0  0.00000000000E+00  0.00000000000E+00  0.16459318717E+04  0.16459318717E+04  0.50400001928E-02 0. -1.
       -1   -1    0    0    0  501  0.00000000000E+00  0.00000000000E+00 -0.16617644228E+04  0.16617644228E+04  0.50400001928E-02 0.  1.
    10030    2    1    2    0    0  0.00000000000E+00  0.00000000000E+00 -0.15832551100E+02  0.33076962945E+04  0.33076584024E+04 0.  0.
        1    1    3    3  502    0 -0.14136427030E+04  0.56723329775E+03 -0.65213768909E+03  0.16569317642E+04  0.50400001928E-02 0.  1.
       -1    1    3    3    0  502  0.14136427030E+04 -0.56723329775E+03  0.63630513799E+03  0.16507645303E+04  0.50400001928E-02 0. -1.
</event>
<event>
 5   0  0.2614212E-06  0.3207816E+04  0.7818609E-02  0.8186756E-01
       -2   -1    0    0    0  501  0.00000000000E+00  0.00000000000E+00  0.11999635057E+04  0.11999635057E+04  0.25500000920E-02 0. -1.
        2   -1    0    0  501    0  0.00000000000E+00  0.00000000000E+00 -0.21438324716E+04  0.21438324716E+04  0.25500000920E-02 0.  1.
    10030    2    1    2    0    0  0.00000000000E+00  0.00000000000E+00 -0.94386896590E+03  0.33437959772E+04  0.32078159100E+04 0.  0.
        2    1    3    3  502    0 -0.89047925200E+03  0.13281602893E+04 -0.34191671897E+03  0.16351972649E+04  0.25500000920E-02 0.  1.
       -2    1    3    3    0  502  0.89047925200E+03 -0.13281602893E+04 -0.60195224693E+03  0.17085987124E+04  0.25500000920E-02 0. -1.
</event>
<event>
 5   0  0.9268670E-07  0.3308356E+04  0.7818609E-02  0.8160773E-01
       -1   -1    0    0    0  501  0.00000000000E+00  0.00000000000E+00  0.18082196927E+04  0.18082196927E+04  0.50400001928E-02 0.  1.
        1   -1    0    0  501    0  0.00000000000E+00  0.00000000000E+00 -0.15132587480E+04  0.15132587480E+04  0.50400001928E-02 0. -1.
    10030    2    1    2    0    0  0.00000000000E+00  0.00000000000E+00  0.29496094465E+03  0.33214784407E+04  0.33083556449E+04 0.  0.
        3    1    3    3  502    0  0.37508303508E+03 -0.70686512003E+03 -0.13060047019E+04  0.15316637596E+04  0.10100000352E+00 0. -1.
       -3    1    3    3    0  502 -0.37508303508E+03  0.70686512003E+03  0.16009656465E+04  0.17898146811E+04  0.10100000352E+00 0.  1.
</event>
<event>
 5   0  0.2705859E-06  0.3340847E+04  0.7818609E-02  0.8152579E-01
        2   -1    0    0  501    0  0.00000000000E+00  0.00000000000E+00  0.23638329454E+04  0.23638329454E+04  0.25500000920E-02 0. -1.
       -2   -1    0    0    0  501  0.00000000000E+00  0.00000000000E+00 -0.11804198718E+04  0.11804198718E+04  0.25500000920E-02 0.  1.
    10030    2    1    2    0    0  0.00000000000E+00  0.00000000000E+00  0.11834130736E+04  0.35442528172E+04  0.33408474268E+04 0.  0.
        1    1    3    3  502    0  0.13045019373E+04  0.71105469259E+03 -0.21831970507E+03  0.15016616043E+04  0.50400001928E-02 0.  1.
       -1    1    3    3    0  502 -0.13045019373E+04 -0.71105469259E+03  0.14017327787E+04  0.20425912129E+04  0.50400001928E-02 0. -1.
</event>
<event>
 5   0  0.9268670E-07  0.3309559E+04  0.7818609E-02  0.8160467E-01
       -1   -1    0    0    0  501  0.00000000000E+00  0.00000000000E+00  0.13824184531E+04  0.13824184531E+04  0.50400001928E-02 0. -1.
        1   -1    0    0  501    0  0.00000000000E+00  0.00000000000E+00 -0.19808001044E+04  0.19808001044E+04  0.50400001928E-02 0.  1.
    10030    2    1    2    0    0  0.00000000000E+00  0.00000000000E+00 -0.59838165135E+03  0.33632185575E+04  0.33095586511E+04 0.  0.
        3    1    3    3  502    0  0.42022592481E+03 -0.10815981826E+03 -0.19219558161E+04  0.19703305670E+04  0.10100000352E+00 0.  1.
       -3    1    3    3    0  502 -0.42022592481E+03  0.10815981826E+03  0.13235741648E+04  0.13928879905E+04  0.10100000352E+00 0. -1.
</event>
<event>
 5   0  0.2658600E-06  0.3280507E+04  0.7818609E-02  0.8167873E-01
        2   -1    0    0  501    0  0.00000000000E+00  0.00000000000E+00  0.21768169121E+04  0.21768169121E+04  0.25500000920E-02 0.  1.
       -2   -1    0    0    0  501  0.00000000000E+00  0.00000000000E+00 -0.12359473949E+04  0.12359473949E+04  0.25500000920E-02 0. -1.
    10030    2    1    2    0    0  0.00000000000E+00  0.00000000000E+00  0.94086951717E+03  0.34127643070E+04  0.32805067851E+04 0.  0.
        5    1    3    3  502    0 -0.20280663732E+03  0.40926492274E+03 -0.11684449010E+04  0.12545572470E+04  0.46999998093E+01 0. -1.
       -5    1    3    3    0  502  0.20280663732E+03 -0.40926492274E+03  0.21093144182E+04  0.21582070600E+04  0.46999998093E+01 0.  1.
</event>
<event>
 5   0  0.2705859E-06  0.3341400E+04  0.7818609E-02  0.8152440E-01
       -2   -1    0    0    0  501  0.00000000000E+00  0.00000000000E+00  0.14826031638E+04  0.14826031638E+04  0.25500000920E-02 0.  1.
        2   -1    0    0  501    0  0.00000000000E+00  0.00000000000E+00 -0.18826604778E+04  0.18826604778E+04  0.25500000920E-02 0. -1.
    10030    2    1    2    0    0  0.00000000000E+00  0.00000000000E+00 -0.40005731401E+03  0.33652636416E+04  0.33413999346E+04 0.  0.
        1    1    3    3  502    0 -0.10550194770E+04  0.10782412283E+04  0.52313013156E+03  0.15966638274E+04  0.50400001928E-02 0.  1.
       -1    1    3    3    0  502  0.10550194770E+04 -0.10782412283E+04 -0.92318744557E+03  0.17685998142E+04  0.50400001928E-02 0. -1.
</event>
<event>
 5   0  0.8705956E-07  0.2514197E+04  0.7818609E-02  0.8397945E-01
        1   -1    0    0  501    0  0.00000000000E+00  0.00000000000E+00  0.85524812119E+03  0.85524812121E+03  0.50400001928E-02 0. -1.
       -1   -1    0    0    0  501  0.00000000000E+00  0.00000000000E+00 -0.18477640327E+04  0.18477640327E+04  0.50400001928E-02 0.  1.
    10030    2    1    2    0    0  0.00000000000E+00  0.00000000000E+00 -0.99251591149E+03  0.27030121539E+04  0.25141970626E+04 0.  0.
        2    1    3    3  502    0  0.10775243058E+04  0.29590713856E+03  0.12290704167E+03  0.11241555965E+04  0.25500000920E-02 0. -1.
       -2    1    3    3    0  502 -0.10775243058E+04 -0.29590713856E+03 -0.11154229532E+04  0.15788565574E+04  0.25500000920E-02 0.  1.
</event>
<event>
 5   0  0.2614212E-06  0.3264156E+04  0.7818609E-02  0.8172076E-01
        2   -1    0    0  501    0  0.00000000000E+00  0.00000000000E+00  0.21268365341E+04  0.21268365341E+04  0.25500000920E-02 0.  1.
       -2   -1    0    0    0  501  0.00000000000E+00  0.00000000000E+00 -0.12524132682E+04  0.12524132682E+04  0.25500000920E-02 0. -1.
    10030    2    1    2    0    0  0.00000000000E+00  0.00000000000E+00  0.87442326595E+03  0.33792498023E+04  0.32641558140E+04 0.  0.
        2    1    3    3  502    0  0.14986285657E+04 -0.14451729134E+02 -0.23177929721E+03  0.15165151080E+04  0.25500000920E-02 0. -1.
       -2    1    3    3    0  502 -0.14986285657E+04  0.14451729134E+02  0.11062025632E+04  0.18627346942E+04  0.25500000920E-02 0.  1.
</event>
<event>
 5   0  0.2705859E-06  0.3193246E+04  0.7818609E-02  0.8190603E-01
       -2   -1    0    0    0  501  0.00000000000E+00  0.00000000000E+00  0.12125612594E+04  0.12125612594E+04  0.25500000920E-02 0. -1.
        2   -1    0    0  501    0  0.00000000000E+00  0.00000000000E+00 -0.21023305608E+04  0.21023305608E+04  0.25500000920E-02 0.  1.
    10030    2    1    2    0    0  0.00000000000E+00  0.00000000000E+00 -0.88976930137E+03  0.33148918202E+04  0.31932457422E+04 0.  0.
        1    1    3    3  502    0  0.75014014744E+03 -0.11424207321E+04 -0.13017809644E+04  0.18874504097E+04  0.50400001928E-02 0.  1.
       -1    1    3    3    0  502 -0.75014014744E+03  0.11424207321E+04  0.41201166299E+03  0.14274414105E+04  0.50400001928E-02 0. -1.
</event>
<event>
 5   0  0.8705956E-07  0.3298132E+04  0.7818609E-02  0.8163371E-01
        1   -1    0    0  501    0  0.00000000000E+00  0.00000000000E+00  0.18738089093E+04  0.18738089093E+04  0.50400001928E-02 0.  1.
       -1   -1    0    0    0  501  0.00000000000E+00  0.00000000000E+00 -0.14512782206E+04  0.14512782206E+04  0.50400001928E-02 0. -1.
    10030    2    1    2    0    0  0.00000000000E+00  0.00000000000E+00  0.42253068872E+03  0.33250871299E+04  0.32981316284E+04 0.  0.
        2    1    3    3  502    0 -0.70503584684E+03 -0.14688552479E+04 -0.45387008818E+02  0.16299298344E+04  0.25500000920E-02 0. -1.
       -2    1    3    3    0  502  0.70503584684E+03  0.14688552479E+04  0.46791769754E+03  0.16951572954E+04  0.25500000920E-02 0.  1.
</event>
<event>
 5   0  0.9295663E-07  0.3258256E+04  0.7818609E-02  0.8173599E-01
        1   -1    0    0  501    0  0.00000000000E+00  0.00000000000E+00  0.28983446649E+04  0.28983446649E+04  0.50400001928E-02 0. -1.
       -1   -1    0    0    0  501  0.00000000000E+00  0.00000000000E+00 -0.91571499325E+03  0.91571499326E+03  0.50400001928E-02 0.  1.
    10030    2    1    2    0    0  0.00000000000E+00  0.00000000000E+00  0.19826296717E+04  0.38140596582E+04  0.32582557698E+04 0.  0.
        4    1    3    3  502    0  0.97895436402E+03  0.46324691919E+03 -0.43329350177E+03  0.11664879882E+04  0.12699999809E+01 0.  1.
       -4    1    3    3    0  502 -0.97895436402E+03 -0.46324691919E+03  0.24159231734E+04  0.26475716700E+04  0.12699999809E+01 0. -1.
</event>
<event>
 5   0  0.2658600E-06  0.3268962E+04  0.7818609E-02  0.8170838E-01
        2   -1    0    0  501    0  0.00000000000E+00  0.00000000000E+00  0.20213225226E+04  0.20213225226E+04  0.25500000920E-02 0.  1.
       -2   -1    0    0    0  501  0.00000000000E+00  0.00000000000E+00 -0.13216734292E+04  0.13216734292E+04  0.25500000920E-02 0. -1.
    10030    2    1    2    0    0  0.00000000000E+00  0.00000000000E+00  0.69964909335E+03  0.33429959518E+04  0.32689620799E+04 0.  0.
        5    1    3    3  502    0 -0.65002971504E+03  0.53134715383E+03 -0.10843042414E+04  0.13713519629E+04  0.46999998093E+01 0. -1.
       -5    1    3    3    0  502  0.65002971504E+03 -0.53134715383E+03  0.17839533348E+04  0.19716439889E+04  0.46999998093E+01 0.  1.
</event>
<event>
 5   0  0.9530268E-07  0.3300926E+04  0.7818609E-02  0.8162660E-01
       -1   -1    0    0    0  501  0.00000000000E+00  0.00000000000E+00  0.13642638327E+04  0.13642638327E+04  0.50400001928E-02 0.  1.
        1   -1    0    0  501    0  0.00000000000E+00  0.00000000000E+00 -0.19967024241E+04  0.19967024242E+04  0.50400001928E-02 0. -1.
    10030    2    1    2    0    0  0.00000000000E+00  0.00000000000E+00 -0.63243859149E+03  0.33609662568E+04  0.33009264771E+04 0.  0.
        5    1    3    3  502    0 -0.97714133352E+03 -0.13157174805E+04 -0.11750511038E+03  0.16430907508E+04  0.46999998093E+01 0. -1.
       -5    1    3    3    0  502  0.97714133352E+03  0.13157174805E+04 -0.51493348112E+03  0.17178755060E+04  0.46999998093E+01 0.  1.
</event>
<event>
 5   0  0.9268670E-07  0.3340497E+04  0.7818609E-02  0.8152667E-01
       -1   -1    0    0    0  501  0.00000000000E+00  0.00000000000E+00  0.11304881034E+04  0.11304881034E+04  0.50400001928E-02 0.  1.
        1   -1    0    0  501    0  0.00000000000E+00  0.00000000000E+00 -0.24677214086E+04  0.24677214086E+04  0.50400001928E-02 0. -1.
    10030    2    1    2    0    0  0.00000000000E+00  0.00000000000E+00 -0.13372333052E+04  0.35982095120E+04  0.33404967864E+04 0.  0.
        3    1    3    3  502    0  0.34615720051E+03  0.11344924679E+04  0.59804334445E+03  0.13283650926E+04  0.10100000352E+00 0.  1.
       -3    1    3    3    0  502 -0.34615720051E+03 -0.11344924679E+04 -0.19352766496E+04  0.22698444194E+04  0.10100000352E+00 0. -1.
</event>
<event>
 5   0  0.2674551E-06  0.3215796E+04  0.7818609E-02  0.8184658E-01
        2   -1    0    0  501    0  0.00000000000E+00  0.00000000000E+00  0.18526896193E+04  0.18526896193E+04  0.25500000920E-02 0. -1.
       -2   -1    0    0    0  501  0.00000000000E+00  0.00000000000E+00 -0.13954503807E+04  0.13954503807E+04  0.25500000920E-02 0.  1.
    10030    2    1    2    0    0  0.00000000000E+00  0.00000000000E+00  0.45723923866E+03  0.32481400000E+04  0.32157962837E+04 0.  0.
        3    1    3    3  502    0 -0.26483309532E+03 -0.73637727096E+03  0.16473637277E+04  0.18237859839E+04  0.10100000352E+00 0. -1.
       -3    1    3    3    0  502  0.26483309532E+03  0.73637727096E+03 -0.11901244891E+04  0.14243540161E+04  0.10100000352E+00 0.  1.
</event>
<event>
 5   0  0.2658600E-06  0.2666113E+04  0.7818609E-02  0.8346085E-01
       -2   -1    0    0    0  501  0.00000000000E+00  0.00000000000E+00  0.14984656005E+04  0.14984656005E+04  0.25500000920E-02 0.  1.
        2   -1    0    0  501    0  0.00000000000E+00  0.00000000000E+00 -0.11859059684E+04  0.11859059684E+04  0.25500000920E-02 0. -1.
    10030    2    1    2    0    0  0.00000000000E+00  0.00000000000E+00  0.31255963210E+03  0.26843715689E+04  0.26661127501E+04 0.  0.
        5    1    3    3  502    0 -0.11118916241E+04 -0.69037872454E+03 -0.98616841067E+02  0.13125064337E+04  0.46999998093E+01 0. -1.
       -5    1    3    3    0  502  0.11118916241E+04  0.69037872454E+03  0.41117647317E+03  0.13718651352E+04  0.46999998093E+01 0.  1.
</event>
<event>
 5   0  0.9530268E-07  0.3250271E+04  0.7818609E-02  0.8175666E-01
        1   -1    0    0  501    0  0.00000000000E+00  0.00000000000E+00  0.15156455249E+04  0.15156455249E+04  0.50400001928E-02 0.  1.
       -1   -1    0    0    0  501  0.00000000000E+00  0.00000000000E+00 -0.17425345627E+04  0.17425345627E+04  0.50400001928E-02 0. -1.
    10030    2    1    2    0    0  0.00000000000E+00  0.00000000000E+00 -0.22688903788E+03  0.32581800876E+04  0.32502705807E+04 0.  0.
        5    1    3    3  502    0 -0.46432865097E+03  0.69497457557E+03 -0.15105548401E+04  0.17263802512E+04  0.46999998093E+01 0. -1.
       -5    1    3    3    0  502  0.46432865097E+03 -0.69497457557E+03  0.12836658023E+04  0.15317998364E+04  0.46999998093E+01 0.  1.
</event>
<event>
 5   0  0.8705956E-07  0.3267170E+04  0.7818609E-02  0.8171300E-01
        1   -1    0    0  501    0  0.00000000000E+00  0.00000000000E+00  0.27636833839E+04  0.27636833839E+04  0.50400001928E-02 0. -1.
       -1   -1    0    0    0  501  0.00000000000E+00  0.00000000000E+00 -0.96559517780E+03  0.96559517782E+03  0.50400001928E-02 0.  1.
    10030    2    1    2    0    0  0.00000000000E+00  0.00000000000E+00  0.17980882061E+04  0.37292785617E+04  0.32671696304E+04 0.  0.
        2    1    3    3  502    0 -0.42161186328E+03 -0.15780861491E+04  0.92423068174E+03  0.18767831015E+04  0.25500000920E-02 0.  1.
       -2    1    3    3    0  502  0.42161186328E+03  0.15780861491E+04  0.87385752437E+03  0.18524954602E+04  0.25500000920E-02 0. -1.
</event>
<event>
 5   0  0.2574803E-06  0.3251433E+04  0.7818609E-02  0.8175364E-01
        2   -1    0    0  501    0  0.00000000000E+00  0.00000000000E+00  0.16793999588E+04  0.16793999588E+04  0.25500000920E-02 0.  1.
       -2   -1    0    0    0  501  0.00000000000E+00  0.00000000000E+00 -0.15737488728E+04  0.15737488728E+04  0.25500000920E-02 0. -1.
    10030    2    1    2    0    0  0.00000000000E+00  0.00000000000E+00  0.10565108601E+03  0.32531488315E+04  0.32514327870E+04 0.  0.
        4    1    3    3  502    0  0.52509031751E+02  0.50061629270E+02 -0.15721279311E+04  0.15738015154E+04  0.12699999809E+01 0. -1.
       -4    1    3    3    0  502 -0.52509031751E+02 -0.50061629270E+02  0.16777790171E+04  0.16793473162E+04  0.12699999809E+01 0.  1.
</event>
<event>
 5   0  0.2658600E-06  0.3278374E+04  0.7818609E-02  0.8168420E-01
       -2   -1    0    0    0  501  0.00000000000E+00  0.00000000000E+00  0.91025663649E+03  0.91025663650E+03  0.25500000920E-02 0. -1.
        2   -1    0    0  501    0  0.00000000000E+00  0.00000000000E+00 -0.29518417487E+04  0.29518417487E+04  0.25500000920E-02 0.  1.
    10030    2    1    2    0    0  0.00000000000E+00  0.00000000000E+00 -0.20415851122E+04  0.38620983852E+04  0.32783737076E+04 0.  0.
        5    1    3    3  502    0 -0.11819948267E+04 -0.13188408390E+03  0.30806299577E+03  0.12285886542E+04  0.46999998093E+01 0. -1.
       -5    1    3    3    0  502  0.11819948267E+04  0.13188408390E+03 -0.23496481080E+04  0.26335097310E+04  0.46999998093E+01 0.  1.
</event>
<event>
 5   0  0.8845526E-07  0.3265719E+04  0.7818609E-02  0.8171673E-01
        1   -1    0    0  501    0  0.00000000000E+00  0.00000000000E+00  0.18177365072E+04  0.18177365072E+04  0.50400001928E-02 0. -1.
       -1   -1    0    0    0  501  0.00000000000E+00  0.00000000000E+00 -0.14667862209E+04  0.14667862209E+04  0.50400001928E-02 0.  1.
    10030    2    1    2    0    0  0.00000000000E+00  0.00000000000E+00  0.35095028625E+03  0.32845227281E+04  0.32657194380E+04 0.  0.
        1    1    3    3  502    0  0.13474294747E+04  0.55331841304E+03 -0.56667828995E+03  0.15629624883E+04  0.50400001928E-02 0.  1.
       -1    1    3    3    0  502 -0.13474294747E+04 -0.55331841304E+03  0.91762857620E+03  0.17215602398E+04  0.50400001928E-02 0. -1.
</event>
<event>
 5   0  0.2614212E-06  0.3020180E+04  0.7818609E-02  0.8237992E-01
        2   -1    0    0  501    0  0.00000000000E+00  0.00000000000E+00  0.21682228229E+04  0.21682228229E+04  0.25500000920E-02 0.  1.
       -2   -1    0    0    0  501  0.00000000000E+00  0.00000000000E+00 -0.10517238263E+04  0.10517238263E+04  0.25500000920E-02 0. -1.
    10030    2    1    2    0    0  0.00000000000E+00  0.00000000000E+00  0.11164989966E+04  0.32199466492E+04  0.30201798646E+04 0.  0.
        2    1    3    3  502    0 -0.94801207006E+03  0.73825390854E+03 -0.41692316183E+03  0.12718375059E+04  0.25500000920E-02 0. -1.
       -2    1    3    3    0  502  0.94801207006E+03 -0.73825390854E+03  0.15334221585E+04  0.19481091434E+04  0.25500000920E-02 0.  1.
</event>
<event>
 5   0  0.8705956E-07  0.3246814E+04  0.7818609E-02  0.8176562E-01
       -1   -1    0    0    0  501  0.00000000000E+00  0.00000000000E+00  0.15927555859E+04  0.15927555859E+04  0.50400001928E-02 0. -1.
        1   -1    0    0  501    0  0.00000000000E+00  0.00000000000E+00 -0.16546478460E+04  0.16546478461E+04  0.50400001928E-02 0.  1.
    10030    2    1    2    0    0  0.00000000000E+00  0.00000000000E+00 -0.61892260172E+02  0.32474034319E+04  0.32468135761E+04 0.  0.
        2    1    3    3  502    0  0.73070438182E+03 -0.68055640776E+03 -0.13111644810E+04  0.16481013968E+04  0.25500000920E-02 0.  1.
       -2    1    3    3    0  502 -0.73070438182E+03  0.68055640776E+03  0.12492722209E+04  0.15993020351E+04  0.25500000920E-02 0. -1.
</event>
<event>
 5   0  0.2705859E-06  0.3337477E+04  0.7818609E-02  0.8153424E-01
       -2   -1    0    0    0  501  0.00000000000E+00  0.00000000000E+00  0.15297158023E+04  0.15297158023E+04  0.25500000920E-02 0.  1.
        2   -1    0    0  501    0  0.00000000000E+00  0.00000000000E+00 -0.18203961928E+04  0.18203961928E+04  0.25500000920E-02 0. -1.
    10030    2    1    2    0    0  0.00000000000E+00  0.00000000000E+00 -0.29068039046E+03  0.33501119951E+04  0.33374773842E+04 0.  0.
        1    1    3    3  502    0 -0.62882868989E+03 -0.44819264907E+03  0.13395796890E+04  0.15462134119E+04  0.50400001928E-02 0.  1.
       -1    1    3    3    0  502  0.62882868989E+03  0.44819264907E+03 -0.16302600794E+04  0.18038985832E+04  0.50400001928E-02 0. -1.
</event>
<event>
 5   0  0.9268670E-07  0.3300075E+04  0.7818609E-02  0.8162876E-01
        1   -1    0    0  501    0  0.00000000000E+00  0.00000000000E+00  0.15982876309E+04  0.15982876309E+04  0.50400001928E-02 0.  1.
       -1   -1    0    0    0  501  0.00000000000E+00  0.00000000000E+00 -0.17034626217E+04  0.17034626217E+04  0.50400001928E-02 0. -1.
    10030    2    1    2    0    0  0.00000000000E+00  0.00000000000E+00 -0.10517499079E+03  0.33017502526E+04  0.33000746888E+04 0.  0.
        3    1    3    3  502    0 -0.12992463747E+03 -0.10355317407E+04  0.12261133834E+04  0.16101429864E+04  0.10100000352E+00 0.  1.
       -3    1    3    3    0  502  0.12992463747E+03  0.10355317407E+04 -0.13312883742E+04  0.16916072662E+04  0.10100000352E+00 0. -1.
</event>
<event>
 5   0  0.9268670E-07  0.3344249E+04  0.7818609E-02  0.8151727E-01
       -1   -1    0    0    0  501  0.00000000000E+00  0.00000000000E+00  0.16963867137E+04  0.16963867137E+04  0.50400001928E-02 0.  1.
        1   -1    0    0  501    0  0.00000000000E+00  0.00000000000E+00 -0.16482090485E+04  0.16482090485E+04  0.50400001928E-02 0. -1.
    10030    2    1    2    0    0  0.00000000000E+00  0.00000000000E+00  0.48177665221E+02  0.33445957621E+04  0.33442487534E+04 0.  0.
        3    1    3    3  502    0  0.48012051972E+03 -0.11954445888E+04  0.10902184149E+04  0.16876550835E+04  0.10100000352E+00 0.  1.
       -3    1    3    3    0  502 -0.48012051972E+03  0.11954445888E+04 -0.10420407497E+04  0.16569406787E+04  0.10100000352E+00 0. -1.
</event>
<event>
 5   0  0.2574803E-06  0.3330636E+04  0.7818609E-02  0.8155143E-01
       -2   -1    0    0    0  501  0.00000000000E+00  0.00000000000E+00  0.18131987865E+04  0.18131987865E+04  0.25500000920E-02 0.  1.
        2   -1    0    0  501    0  0.00000000000E+00  0.00000000000E+00 -0.15294983541E+04  0.15294983541E+04  0.25500000920E-02 0. -1.
    10030    2    1    2    0    0  0.00000000000E+00  0.00000000000E+00  0.28370043236E+03  0.33426971406E+04  0.33306363113E+04 0.  0.
        4    1    3    3  502    0 -0.12096260699E+04  0.64509454031E+03  0.10907583847E+04  0.17518840320E+04  0.12699999809E+01 0. -1.
       -4    1    3    3    0  502  0.12096260699E+04 -0.64509454031E+03 -0.80705795238E+03  0.15908131085E+04  0.12699999809E+01 0.  1.
</event>
<event>
 5   0  0.2705859E-06  0.3199272E+04  0.7818609E-02  0.8189010E-01
        2   -1    0    0  501    0  0.00000000000E+00  0.00000000000E+00  0.18286842763E+04  0.18286842763E+04  0.25500000920E-02 0.  1.
       -2   -1    0    0    0  501  0.00000000000E+00  0.00000000000E+00 -0.13992764351E+04  0.13992764351E+04  0.25500000920E-02 0. -1.
    10030    2    1    2    0    0  0.00000000000E+00  0.00000000000E+00  0.42940784119E+03  0.32279607114E+04  0.31992716765E+04 0.  0.
        1    1    3    3  502    0 -0.12633648318E+04  0.98002772426E+03  0.26298463310E+03  0.16204030226E+04  0.50400001928E-02 0. -1.
       -1    1    3    3    0  502  0.12633648318E+04 -0.98002772426E+03  0.16642320809E+03  0.16075576888E+04  0.50400001928E-02 0.  1.
</event>
<event>
 5   0  0.8705956E-07  0.3270757E+04  0.7818609E-02  0.8170376E-01
       -1   -1    0    0    0  501  0.00000000000E+00  0.00000000000E+00  0.17514306687E+04  0.17514306687E+04  0.50400001928E-02 0.  1.
        1   -1    0    0  501    0  0.00000000000E+00  0.00000000000E+00 -0.15270159862E+04  0.15270159862E+04  0.50400001928E-02 0. -1.
    10030    2    1    2    0    0  0.00000000000E+00  0.00000000000E+00  0.22441468245E+03  0.32784466549E+04  0.32707568726E+04 0.  0.
        2    1    3    3  502    0  0.26962091824E+03  0.13259835129E+04 -0.80839354827E+03  0.15762067900E+04  0.25500000920E-02 0. -1.
       -2    1    3    3    0  502 -0.26962091824E+03 -0.13259835129E+04  0.10328082307E+04  0.17022398649E+04  0.25500000920E-02 0.  1.
</event>
<event>
 5   0  0.9295663E-07  0.3345066E+04  0.7818609E-02  0.8151522E-01
        1   -1    0    0  501    0  0.00000000000E+00  0.00000000000E+00  0.21933088415E+04  0.21933088415E+04  0.50400001928E-02 0. -1.
       -1   -1    0    0    0  501  0.00000000000E+00  0.00000000000E+00 -0.12754094189E+04  0.12754094189E+04  0.50400001928E-02 0.  1.
    10030    2    1    2    0    0  0.00000000000E+00  0.00000000000E+00  0.91789942268E+03  0.34687182604E+04  0.33450660711E+04 0.  0.
        4    1    3    3  502    0 -0.16002023590E+04  0.11938895085E+03  0.94804562243E+03  0.18637847049E+04  0.12699999809E+01 0. -1.
       -4    1    3    3    0  502  0.16002023590E+04 -0.11938895085E+03 -0.30146199747E+02  0.16049335555E+04  0.12699999809E+01 0.  1.
</event>
<event>
 5   0  0.9530268E-07  0.3253240E+04  0.7818609E-02  0.8174896E-01
        1   -1    0    0  501    0  0.00000000000E+00  0.00000000000E+00  0.14761649501E+04  0.14761649501E+04  0.50400001928E-02 0.  1.
       -1   -1    0    0    0  501  0.00000000000E+00  0.00000000000E+00 -0.17924096885E+04  0.17924096886E+04  0.50400001928E-02 0. -1.
    10030    2    1    2    0    0  0.00000000000E+00  0.00000000000E+00 -0.31624473847E+03  0.32685746386E+04  0.32532398365E+04 0.  0.
        5    1    3    3  502    0 -0.41697878364E+03 -0.34005569466E+03  0.13841576992E+04  0.14850669371E+04  0.46999998093E+01 0.  1.
       -5    1    3    3    0  502  0.41697878364E+03  0.34005569466E+03 -0.17004024377E+04  0.17835077015E+04  0.46999998093E+01 0. -1.
</event>
<event>
 5   0  0.2614212E-06  0.3309232E+04  0.7818609E-02  0.8160550E-01
        2   -1    0    0  501    0  0.00000000000E+00  0.00000000000E+00  0.26256138812E+04  0.26256138812E+04  0.25500000920E-02 0.  1.
       -2   -1    0    0    0  501  0.00000000000E+00  0.00000000000E+00 -0.10427100281E+04  0.10427100281E+04  0.25500000920E-02 0. -1.
    10030    2    1    2    0    0  0.00000000000E+00  0.00000000000E+00  0.15829038531E+04  0.36683239094E+04  0.33092318891E+04 0.  0.
        2    1    3    3  502    0  0.45854009411E+03  0.45146556906E+03  0.24812237004E+04  0.25633086489E+04  0.25500000920E-02 0.  1.
       -2    1    3    3    0  502 -0.45854009411E+03 -0.45146556906E+03 -0.89831984729E+03  0.11050152605E+04  0.25500000920E-02 0. -1.
</event>
<event>
 5   0  0.9295663E-07  0.3259855E+04  0.7818609E-02  0.8173186E-01
        1   -1    0    0  501    0  0.00000000000E+00  0.00000000000E+00  0.14916710093E+04  0.14916710093E+04  0.50400001928E-02 0.  1.
       -1   -1    0    0    0  501  0.00000000000E+00  0.00000000000E+00 -0.17809987769E+04  0.17809987769E+04  0.50400001928E-02 0. -1.
    10030    2    1    2    0    0  0.00000000000E+00  0.00000000000E+00 -0.28932776760E+03  0.32726697862E+04  0.32598553606E+04 0.  0.
        4    1    3    3  502    0 -0.75527216882E+03 -0.81588697070E+03 -0.13412194946E+04  0.17421190957E+04  0.12699999809E+01 0. -1.
       -4    1    3    3    0  502  0.75527216882E+03  0.81588697070E+03  0.10518917270E+04  0.15305506905E+04  0.12699999809E+01 0.  1.
</event>
<event>
 5   0  0.2658600E-06  0.3301448E+04  0.7818609E-02  0.8162527E-01
        2   -1    0    0  501    0  0.00000000000E+00  0.00000000000E+00  0.22779806867E+04  0.22779806867E+04  0.25500000920E-02 0.  1.
       -2   -1    0    0    0  501  0.00000000000E+00  0.00000000000E+00 -0.11961865126E+04  0.11961865126E+04  0.25500000920E-02 0. -1.
    10030    2    1    2    0    0  0.00000000000E+00  0.00000000000E+00  0.10817941741E+04  0.34741671993E+04  0.33014480298E+04 0.  0.
        5    1    3    3  502    0 -0.15865427224E+04  0.44915301035E+03  0.62248686422E+03  0.17624892122E+04  0.46999998093E+01 0.  1.
       -5    1    3    3    0  502  0.15865427224E+04 -0.44915301035E+03  0.45930730986E+03  0.17116779872E+04  0.46999998093E+01 0. -1.
</event>
<event>
 5   0  0.9530268E-07  0.3335177E+04  0.7818609E-02  0.8154002E-01
        1   -1    0    0  501    0  0.00000000000E+00  0.00000000000E+00  0.25343316528E+04  0.25343316528E+04  0.50400001928E-02 0.  1.
       -1   -1    0    0    0  501  0.00000000000E+00  0.00000000000E+00 -0.10972720908E+04  0.10972720908E+04  0.50400001928E-02 0. -1.
    10030    2    1    2    0    0  0.00000000000E+00  0.00000000000E+00  0.14370595619E+04  0.36316037436E+04  0.33351769917E+04 0.  0.
        5    1    3    3  502    0  0.38678016579E+03  0.68311172180E+03 -0.88348777319E+03  0.11818685445E+04  0.46999998093E+01 0. -1.
       -5    1    3    3    0  502 -0.38678016579E+03 -0.68311172180E+03  0.23205473351E+04  0.24497351991E+04  0.46999998093E+01 0.  1.
</event>
<event>
 5   0  0.8845526E-07  0.3242764E+04  0.7818609E-02  0.8177614E-01
        1   -1    0    0  501    0  0.00000000000E+00  0.00000000000E+00  0.29796231695E+04  0.29796231695E+04  0.50400001928E-02 0. -1.
       -1   -1    0    0    0  501  0.00000000000E+00  0.00000000000E+00 -0.88228572577E+03  0.88228572579E+03  0.50400001928E-02 0.  1.
    10030    2    1    2    0    0  0.00000000000E+00  0.00000000000E+00  0.20973374438E+04  0.38619088953E+04  0.32427636304E+04 0.  0.
        1    1    3    3  502    0  0.63432238116E+03  0.53235717336E+03 -0.61143574580E+03  0.10293797718E+04  0.50400001928E-02 0.  1.
       -1    1    3    3    0  502 -0.63432238116E+03 -0.53235717336E+03  0.27087731895E+04  0.28325291235E+04  0.50400001928E-02 0. -1.
</event>
<event>
 5   0  0.2614212E-06  0.3199586E+04  0.7818609E-02  0.8188926E-01
        2   -1    0    0  501    0  0.00000000000E+00  0.00000000000E+00  0.21360290928E+04  0.21360290928E+04  0.25500000920E-02 0.  1.
       -2   -1    0    0    0  501  0.00000000000E+00  0.00000000000E+00 -0.11981756078E+04  0.11981756078E+04  0.25500000920E-02 0. -1.
    10030    2    1    2    0    0  0.00000000000E+00  0.00000000000E+00  0.93785348494E+03  0.33342047006E+04  0.31995861961E+04 0.  0.
        2    1    3    3  502    0  0.82017262491E+03 -0.13416255423E+04  0.77575636759E+03  0.17534081590E+04  0.25500000920E-02 0.  1.
       -2    1    3    3    0  502 -0.82017262491E+03  0.13416255423E+04  0.16209711735E+03  0.15807965416E+04  0.25500000920E-02 0. -1.
</event>
<event>
 5   0  0.9530268E-07  0.2921828E+04  0.7818609E-02  0.8266413E-01
       -1   -1    0    0    0  501  0.00000000000E+00  0.00000000000E+00  0.24327145251E+04  0.24327145251E+04  0.50400001928E-02 0. -1.
        1   -1    0    0  501    0  0.00000000000E+00  0.00000000000E+00 -0.87732000717E+03  0.87732000718E+03  0.50400001928E-02 0.  1.
    10030    2    1    2    0    0  0.00000000000E+00  0.00000000000E+00  0.15553945179E+04  0.33100345323E+04  0.29218275956E+04 0.  0.
        5    1    3    3  502    0 -0.56034317041E+03  0.71880983460E+03 -0.51574172854E+03  0.10472266553E+04  0.46999998093E+01 0.  1.
       -5    1    3    3    0  502  0.56034317041E+03 -0.71880983460E+03  0.20711362465E+04  0.22628078770E+04  0.46999998093E+01 0. -1.
</event>
<event>
 5   0  0.2705859E-06  0.3279371E+04  0.7818609E-02  0.8168164E-01
       -2   -1    0    0    0  501  0.00000000000E+00  0.00000000000E+00  0.16825879040E+04  0.16825879040E+04  0.25500000920E-02 0. -1.
        2   -1    0    0  501    0  0.00000000000E+00  0.00000000000E+00 -0.15978770571E+04  0.15978770571E+04  0.25500000920E-02 0.  1.
    10030    2    1    2    0    0  0.00000000000E+00  0.00000000000E+00  0.84710846869E+02  0.32804649611E+04  0.32793710424E+04 0.  0.
        1    1    3    3  502    0 -0.13708174103E+04 -0.64371904584E+03  0.67109832080E+03  0.16564683934E+04  0.50400001928E-02 0. -1.
       -1    1    3    3    0  502  0.13708174103E+04  0.64371904584E+03 -0.58638747393E+03  0.16239965677E+04  0.50400001928E-02 0.  1.
</event>
<event>
 5   0  0.8845526E-07  0.3304386E+04  0.7818609E-02  0.8161780E-01
        1   -1    0    0  501    0  0.00000000000E+00  0.00000000000E+00  0.16425414063E+04  0.16425414063E+04  0.50400001928E-02 0. -1.
       -1   -1    0    0    0  501  0.00000000000E+00  0.00000000000E+00 -0.16619017467E+04  0.16619017467E+04  0.50400001928E-02 0.  1.
    10030    2    1    2    0    0  0.00000000000E+00  0.00000000000E+00 -0.19360340386E+02  0.33044431530E+04  0.33043864375E+04 0.  0.
        1    1    3    3  502    0 -0.13376321800E+04 -0.80948099910E+03 -0.54375215622E+03  0.16553506409E+04  0.50400001928E-02 0.  1.
       -1    1    3    3    0  502  0.13376321800E+04  0.80948099910E+03  0.52439181583E+03  0.16490925121E+04  0.50400001928E-02 0. -1.
</event>
<event>
 5   0  0.8705956E-07  0.3300139E+04  0.7818609E-02  0.8162860E-01
        1   -1    0    0  501    0  0.00000000000E+00  0.00000000000E+00  0.24110800913E+04  0.24110800913E+04  0.50400001928E-02 0. -1.
       -1   -1    0    0    0  501  0.00000000000E+00  0.00000000000E+00 -0.11292571014E+04  0.11292571014E+04  0.50400001928E-02 0.  1.
    10030    2    1    2    0    0  0.00000000000E+00  0.00000000000E+00  0.12818229898E+04  0.35403371927E+04  0.33001389760E+04 0.  0.
        2    1    3    3  502    0 -0.55779094976E+03  0.13485707879E+04 -0.18517098803E+03  0.14710751879E+04  0.25500000920E-02 0.  1.
       -2    1    3    3    0  502  0.55779094976E+03 -0.13485707879E+04  0.14669939779E+04  0.20692620048E+04  0.25500000920E-02 0. -1.
</event>
<event>
 5   0  0.2574803E-06  0.3285258E+04  0.7818609E-02  0.8166657E-01
       -2   -1    0    0    0  501  0.00000000000E+00  0.00000000000E+00  0.14112499966E+04  0.14112499966E+04  0.25500000920E-02 0.  1.
        2   -1    0    0  501    0  0.00000000000E+00  0.00000000000E+00 -0.19119429306E+04  0.19119429306E+04  0.25500000920E-02 0. -1.
    10030    2    1    2    0    0  0.00000000000E+00  0.00000000000E+00 -0.50069293404E+03  0.33231929272E+04  0.32852576485E+04 0.  0.
        4    1    3    3  502    0  0.68917874756E+03 -0.14820195719E+04 -0.84506767037E+02  0.16366100220E+04  0.12699999809E+01 0.  1.
       -4    1    3    3    0  502 -0.68917874756E+03  0.14820195719E+04 -0.41618616701E+03  0.16865829052E+04  0.12699999809E+01 0. -1.
</event>
<event>
 5   0  0.2614212E-06  0.3359260E+04  0.7818609E-02  0.8147978E-01
        2   -1    0    0  501    0  0.00000000000E+00  0.00000000000E+00  0.15956448623E+04  0.15956448623E+04  0.25500000920E-02 0. -1.
       -2   -1    0    0    0  501  0.00000000000E+00  0.00000000000E+00 -0.17680359608E+04  0.17680359608E+04  0.25500000920E-02 0.  1.
    10030    2    1    2    0    0  0.00000000000E+00  0.00000000000E+00 -0.17239109854E+03  0.33636808232E+04  0.33592603337E+04 0.  0.
        2    1    3    3  502    0 -0.10933271022E+04 -0.78197387925E+03 -0.10946505252E+04  0.17335244655E+04  0.25500000920E-02 0.  1.
       -2    1    3    3    0  502  0.10933271022E+04  0.78197387925E+03  0.92225942670E+03  0.16301563576E+04  0.25500000920E-02 0. -1.
</event>
<event>
 5   0  0.2574803E-06  0.2966478E+04  0.7818609E-02  0.8253369E-01
        2   -1    0    0  501    0  0.00000000000E+00  0.00000000000E+00  0.26972779767E+04  0.26972779767E+04  0.25500000920E-02 0. -1.
       -2   -1    0    0    0  501  0.00000000000E+00  0.00000000000E+00 -0.81563635951E+03  0.81563635951E+03  0.25500000920E-02 0.  1.
    10030    2    1    2    0    0  0.00000000000E+00  0.00000000000E+00  0.18816416172E+04  0.35129143363E+04  0.29664780394E+04 0.  0.
        4    1    3    3  502    0  0.43700771323E+03 -0.85398053804E+03 -0.39881557366E+03  0.10389003684E+04  0.12699999809E+01 0.  1.
       -4    1    3    3    0  502 -0.43700771323E+03  0.85398053804E+03  0.22804571909E+04  0.24740139679E+04  0.12699999809E+01 0. -1.
</event>
<event>
 5   0  0.8705956E-07  0.3391526E+04  0.7818609E-02  0.8139989E-01
        1   -1    0    0  501    0  0.00000000000E+00  0.00000000000E+00  0.28214463382E+04  0.28214463382E+04  0.50400001928E-02 0. -1.
       -1   -1    0    0    0  501  0.00000000000E+00  0.00000000000E+00 -0.10191977856E+04  0.10191977856E+04  0.50400001928E-02 0.  1.
    10030    2    1    2    0    0  0.00000000000E+00  0.00000000000E+00  0.18022485526E+04  0.38406441238E+04  0.33915258278E+04 0.  0.
        2    1    3    3  502    0 -0.29919155781E+03  0.12473998709E+04 -0.35484019130E+03  0.13309521357E+04  0.25500000920E-02 0.  1.
       -2    1    3    3    0  502  0.29919155781E+03 -0.12473998709E+04  0.21570887440E+04  0.25096919882E+04  0.25500000920E-02 0. -1.
</event>
<event>
 5   0  0.2705859E-06  0.3317825E+04  0.7818609E-02  0.8158375E-01
       -2   -1    0    0    0  501  0.00000000000E+00  0.00000000000E+00  0.11962510282E+04  0.11962510282E+04  0.25500000920E-02 0. -1.
        2   -1    0    0  501    0  0.00000000000E+00  0.00000000000E+00 -0.23005120976E+04  0.23005120976E+04  0.25500000920E-02 0.  1.
    10030    2    1    2    0    0  0.00000000000E+00  0.00000000000E+00 -0.11042610694E+04  0.34967631258E+04  0.33178245657E+04 0.  0.
        1    1    3    3  502    0  0.12551090030E+04  0.84179305343E+02 -0.16919404748E+04  0.21083280900E+04  0.50400001928E-02 0.  1.
       -1    1    3    3    0  502 -0.12551090030E+04 -0.84179305343E+02  0.58767940540E+03  0.13884350357E+04  0.50400001928E-02 0. -1.
</event>
<event>
 5   0  0.9295663E-07  0.3083190E+04  0.7818609E-02  0.8220366E-01
        1   -1    0    0  501    0  0.00000000000E+00  0.00000000000E+00  0.27287093767E+04  0.27287093767E+04  0.50400001928E-02 0.  1.
       -1   -1    0    0    0  501  0.00000000000E+00  0.00000000000E+00 -0.87093024280E+03  0.87093024281E+03  0.50400001928E-02 0. -1.
    10030    2    1    2    0    0  0.00000000000E+00  0.00000000000E+00  0.18577791339E+04  0.35996396195E+04  0.30831902439E+04 0.  0.
        4    1    3    3  502    0  0.74859345176E+03  0.10616076124E+04  0.18980670160E+04  0.23000136714E+04  0.12699999809E+01 0.  1.
       -4    1    3    3    0  502 -0.74859345176E+03 -0.10616076124E+04 -0.40287882081E+02  0.12996259481E+04  0.12699999809E+01 0. -1.
</event>
<event>
 5   0  0.8705956E-07  0.3236765E+04  0.7818609E-02  0.8179175E-01
        1   -1    0    0  501    0  0.00000000000E+00  0.00000000000E+00  0.16121966502E+04  0.16121966502E+04  0.50400001928E-02 0. -1.
       -1   -1    0    0    0  501  0.00000000000E+00  0.00000000000E+00 -0.16245917548E+04  0.16245917548E+04  0.50400001928E-02 0.  1.
    10030    2    1    2    0    0  0.00000000000E+00  0.00000000000E+00 -0.12395104612E+02  0.32367884049E+04  0.32367646717E+04 0.  0.
        2    1    3    3  502    0 -0.10571531637E+04  0.92286578037E+03 -0.81237176149E+03  0.16214814026E+04  0.25500000920E-02 0.  1.
       -2    1    3    3    0  502  0.10571531637E+04 -0.92286578037E+03  0.79997665688E+03  0.16153070023E+04  0.25500000920E-02 0. -1.
</event>
<event>
 5   0  0.8845526E-07  0.3285152E+04  0.7818609E-02  0.8166684E-01
        1   -1    0    0  501    0  0.00000000000E+00  0.00000000000E+00  0.17485832016E+04  0.17485832016E+04  0.50400001928E-02 0. -1.
       -1   -1    0    0    0  501  0.00000000000E+00  0.00000000000E+00 -0.15429957454E+04  0.15429957454E+04  0.50400001928E-02 0.  1.
    10030    2    1    2    0    0  0.00000000000E+00  0.00000000000E+00  0.20558745615E+03  0.32915789470E+04  0.32851523195E+04 0.  0.
        1    1    3    3  502    0  0.50810210694E+03 -0.76708305493E+03  0.14661437570E+04  0.17309424256E+04  0.50400001928E-02 0. -1.
       -1    1    3    3    0  502 -0.50810210694E+03  0.76708305493E+03 -0.12605563009E+04  0.15606365214E+04  0.50400001928E-02 0.  1.
</event>
<event>
 5   0  0.2705859E-06  0.2839400E+04  0.7818609E-02  0.8291140E-01
        2   -1    0    0  501    0  0.00000000000E+00  0.00000000000E+00  0.15945968581E+04  0.15945968581E+04  0.25500000920E-02 0.  1.
       -2   -1    0    0    0  501  0.00000000000E+00  0.00000000000E+00 -0.12639857022E+04  0.12639857022E+04  0.25500000920E-02 0. -1.
    10030    2    1    2    0    0  0.00000000000E+00  0.00000000000E+00  0.33061115598E+03  0.28585825603E+04  0.28393996756E+04 0.  0.
        1    1    3    3  502    0 -0.13916709625E+04 -0.25435227057E+03  0.45740923431E+02  0.14154629552E+04  0.50400001928E-02 0. -1.
       -1    1    3    3    0  502  0.13916709625E+04  0.25435227057E+03  0.28487023255E+03  0.14431196051E+04  0.50400001928E-02 0.  1.
</event>
<event>
 5   0  0.9268670E-07  0.3325625E+04  0.7818609E-02  0.8156406E-01
        1   -1    0    0  501    0  0.00000000000E+00  0.00000000000E+00  0.13440343954E+04  0.13440343954E+04  0.50400001928E-02 0.  1.
       -1   -1    0    0    0  501  0.00000000000E+00  0.00000000000E+00 -0.20571979320E+04  0.20571979320E+04  0.50400001928E-02 0. -1.
    10030    2    1    2    0    0  0.00000000000E+00  0.00000000000E+00 -0.71316353662E+03  0.34012323274E+04  0.33256246203E+04 0.  0.
        3    1    3    3  502    0 -0.69026442178E+03  0.11393223488E+04 -0.13744082197E+04  0.19140319618E+04  0.10100000352E+00 0. -1.
       -3    1    3    3    0  502  0.69026442178E+03 -0.11393223488E+04  0.66124468304E+03  0.14872003656E+04  0.10100000352E+00 0.  1.
</event>
<event>
 5   0  0.9530268E-07  0.3310796E+04  0.7818609E-02  0.8160154E-01
        1   -1    0    0  501    0  0.00000000000E+00  0.00000000000E+00  0.15570380472E+04  0.15570380472E+04  0.50400001928E-02 0. -1.
       -1   -1    0    0    0  501  0.00000000000E+00  0.00000000000E+00 -0.17599715328E+04  0.17599715328E+04  0.50400001928E-02 0.  1.
    10030    2    1    2    0    0  0.00000000000E+00  0.00000000000E+00 -0.20293348561E+03  0.33170095800E+04  0.33107960605E+04 0.  0.
        5    1    3    3  502    0 -0.16293235849E+04  0.17129258796E+03  0.13622110590E+03  0.16439631306E+04  0.46999998093E+01 0. -1.
       -5    1    3    3    0  502  0.16293235849E+04 -0.17129258796E+03 -0.33915459151E+03  0.16730464494E+04  0.46999998093E+01 0.  1.
</event>
<event>
 5   0  0.9268670E-07  0.3301848E+04  0.7818609E-02  0.8162425E-01
       -1   -1    0    0    0  501  0.00000000000E+00  0.00000000000E+00  0.75257187794E+03  0.75257187796E+03  0.50400001928E-02 0.  1.
        1   -1    0    0  501    0  0.00000000000E+00  0.00000000000E+00 -0.36216485609E+04  0.36216485609E+04  0.50400001928E-02 0. -1.
    10030    2    1    2    0    0  0.00000000000E+00  0.00000000000E+00 -0.28690766830E+04  0.43742204389E+04  0.33018484876E+04 0.  0.
        3    1    3    3  502    0 -0.18551299982E+03  0.37502585022E+03 -0.35502450120E+04  0.35748145570E+04  0.10100000352E+00 0. -1.
       -3    1    3    3    0  502  0.18551299982E+03 -0.37502585022E+03  0.68116832899E+03  0.79940588192E+03  0.10100000352E+00 0.  1.
</event>
<event>
 5   0  0.2614212E-06  0.2971926E+04  0.7818609E-02  0.8251793E-01
       -2   -1    0    0    0  501  0.00000000000E+00  0.00000000000E+00  0.10880058229E+04  0.10880058229E+04  0.25500000920E-02 0. -1.
        2   -1    0    0  501    0  0.00000000000E+00  0.00000000000E+00 -0.20294799578E+04  0.20294799578E+04  0.25500000920E-02 0.  1.
    10030    2    1    2    0    0  0.00000000000E+00  0.00000000000E+00 -0.94147413496E+03  0.31174857807E+04  0.29719259826E+04 0.  0.
        2    1    3    3  502    0 -0.24797249930E+03  0.92508365193E+03  0.72104993169E+03  0.11988257286E+04  0.25500000920E-02 0. -1.
       -2    1    3    3    0  502  0.24797249930E+03 -0.92508365193E+03 -0.16625240667E+04  0.19186600521E+04  0.25500000920E-02 0.  1.
</event>
<event>
 5   0  0.2614212E-06  0.3222781E+04  0.7818609E-02  0.8182827E-01
       -2   -1    0    0    0  501  0.00000000000E+00  0.00000000000E+00  0.20183636908E+04  0.20183636908E+04  0.25500000920E-02 0. -1.
        2   -1    0    0  501    0  0.00000000000E+00  0.00000000000E+00 -0.12864771052E+04  0.12864771052E+04  0.25500000920E-02 0.  1.
    10030    2    1    2    0    0  0.00000000000E+00  0.00000000000E+00  0.73188658553E+03  0.33048407960E+04  0.32227805871E+04 0.  0.
        2    1    3    3  502    0  0.95849943584E+03 -0.74678671290E+03  0.14512718081E+04  0.18927761156E+04  0.25500000920E-02 0. -1.
       -2    1    3    3    0  502 -0.95849943584E+03  0.74678671290E+03 -0.71938522254E+03  0.14120646803E+04  0.25500000920E-02 0.  1.
</event>
<event>
 5   0  0.2574803E-06  0.3187835E+04  0.7818609E-02  0.8192037E-01
        2   -1    0    0  501    0  0.00000000000E+00  0.00000000000E+00  0.18207920071E+04  0.18207920071E+04  0.25500000920E-02 0.  1.
       -2   -1    0    0    0  501  0.00000000000E+00  0.00000000000E+00 -0.13953120998E+04  0.13953120998E+04  0.25500000920E-02 0. -1.
    10030    2    1    2    0    0  0.00000000000E+00  0.00000000000E+00  0.42547990727E+03  0.32161041069E+04  0.31878350765E+04 0.  0.
        4    1    3    3  502    0 -0.14283077427E+04 -0.70657496669E+03  0.17692423353E+03  0.16033137525E+04  0.12699999809E+01 0.  1.
       -4    1    3    3    0  502  0.14283077427E+04  0.70657496669E+03  0.24855567375E+03  0.16127903544E+04  0.12699999809E+01 0. -1.
</event>
<event>
 5   0  0.9268670E-07  0.3298620E+04  0.7818609E-02  0.8163247E-01
       -1   -1    0    0    0  501  0.00000000000E+00  0.00000000000E+00  0.32505494530E+04  0.32505494530E+04  0.50400001928E-02 0.  1.
        1   -1    0    0  501    0  0.00000000000E+00  0.00000000000E+00 -0.83685048338E+03  0.83685048340E+03  0.50400001928E-02 0. -1.
    10030    2    1    2    0    0  0.00000000000E+00  0.00000000000E+00  0.24136989697E+04  0.40873999364E+04  0.32986202455E+04 0.  0.
        3    1    3    3  502    0  0.68799497217E+03  0.11593503275E+04  0.23842088733E+04  0.27389564117E+04  0.10100000352E+00 0.  1.
       -3    1    3    3    0  502 -0.68799497217E+03 -0.11593503275E+04  0.29490096409E+02  0.13484435248E+04  0.10100000352E+00 0. -1.
</event>
<event>
 5   0  0.9295663E-07  0.3318700E+04  0.7818609E-02  0.8158154E-01
       -1   -1    0    0    0  501  0.00000000000E+00  0.00000000000E+00  0.15155814002E+04  0.15155814002E+04  0.50400001928E-02 0.  1.
        1   -1    0    0  501    0  0.00000000000E+00  0.00000000000E+00 -0.18167561132E+04  0.18167561132E+04  0.50400001928E-02 0. -1.
    10030    2    1    2    0    0  0.00000000000E+00  0.00000000000E+00 -0.30117471300E+03  0.33323375133E+04  0.33186996090E+04 0.  0.
        4    1    3    3  502    0  0.10997793707E+04  0.85239137413E+03 -0.10583791483E+04  0.17482144472E+04  0.12699999809E+01 0. -1.
       -4    1    3    3    0  502 -0.10997793707E+04 -0.85239137413E+03  0.75720443529E+03  0.15841230661E+04  0.12699999809E+01 0.  1.
</event>
<event>
 5   0  0.2658600E-06  0.3317777E+04  0.7818609E-02  0.8158387E-01
       -2   -1    0    0    0  501  0.00000000000E+00  0.00000000000E+00  0.10329742825E+04  0.10329742825E+04  0.25500000920E-02 0. -1.
        2   -1    0    0  501    0  0.00000000000E+00  0.00000000000E+00 -0.26640649908E+04  0.26640649908E+04  0.25500000920E-02 0.  1.
    10030    2    1    2    0    0  0.00000000000E+00  0.00000000000E+00 -0.16310907083E+04  0.36970392733E+04  0.33177767390E+04 0.  0.
        5    1    3    3  502    0 -0.55074915955E+03 -0.13516441427E+04 -0.16941026645E+04  0.22361288990E+04  0.46999998093E+01 0.  1.
       -5    1    3    3    0  502  0.55074915955E+03  0.13516441427E+04  0.63011956212E+02  0.14609103743E+04  0.46999998093E+01 0. -1.
</event>
<event>
 5   0  0.9530268E-07  0.3107445E+04  0.7818609E-02  0.8213698E-01
        1   -1    0    0  501    0  0.00000000000E+00  0.00000000000E+00  0.20246725949E+04  0.20246725949E+04  0.50400001928E-02 0. -1.
       -1   -1    0    0    0  501  0.00000000000E+00  0.00000000000E+00 -0.11923177961E+04  0.11923177962E+04  0.50400001928E-02 0.  1.
    10030    2    1    2    0    0  0.00000000000E+00  0.00000000000E+00  0.83235479871E+03  0.32169903910E+04  0.31074447163E+04 0.  0.
        5    1    3    3  502    0  0.12022164034E+04  0.73203905204E+03 -0.26490998125E+03  0.14322726146E+04  0.46999998093E+01 0.  1.
       -5    1    3    3    0  502 -0.12022164034E+04 -0.73203905204E+03  0.10972647800E+04  0.17847177765E+04  0.46999998093E+01 0. -1.
</event>
<event>
 5   0  0.8705956E-07  0.2598939E+04  0.7818609E-02  0.8368562E-01
       -1   -1    0    0    0  501  0.00000000000E+00  0.00000000000E+00  0.10423344072E+04  0.10423344072E+04  0.50400001928E-02 0. -1.
        1   -1    0    0  501    0  0.00000000000E+00  0.00000000000E+00 -0.16200376206E+04  0.16200376206E+04  0.50400001928E-02 0.  1.
    10030    2    1    2    0    0  0.00000000000E+00  0.00000000000E+00 -0.57770321344E+03  0.26623720278E+04  0.25989389780E+04 0.  0.
        2    1    3    3  502    0  0.34631276811E+03  0.96977061555E+03  0.52310563706E+03  0.11550009038E+04  0.25500000920E-02 0. -1.
       -2    1    3    3    0  502 -0.34631276811E+03 -0.96977061555E+03 -0.11008088505E+04  0.15073711240E+04  0.25500000920E-02 0.  1.
</event>
<event>
 5   0  0.2674551E-06  0.3384834E+04  0.7818609E-02  0.8141639E-01
        2   -1    0    0  501    0  0.00000000000E+00  0.00000000000E+00  0.21758015289E+04  0.21758015289E+04  0.25500000920E-02 0.  1.
       -2   -1    0    0    0  501  0.00000000000E+00  0.00000000000E+00 -0.13164228823E+04  0.13164228823E+04  0.25500000920E-02 0. -1.
    10030    2    1    2    0    0  0.00000000000E+00  0.00000000000E+00  0.85937864652E+03  0.34922244112E+04  0.33848337744E+04 0.  0.
        3    1    3    3  502    0  0.14483796636E+04  0.72637360439E+03 -0.74542007235E+02  0.16220292180E+04  0.10100000352E+00 0. -1.
       -3    1    3    3    0  502 -0.14483796636E+04 -0.72637360439E+03  0.93392065376E+03  0.18701951932E+04  0.10100000352E+00 0.  1.
</event>
<event>
 5   0  0.9268670E-07  0.3268781E+04  0.7818609E-02  0.8170885E-01
        1   -1    0    0  501    0  0.00000000000E+00  0.00000000000E+00  0.24908092185E+04  0.24908092185E+04  0.50400001928E-02 0.  1.
       -1   -1    0    0    0  501  0.00000000000E+00  0.00000000000E+00 -0.10724356123E+04  0.10724356123E+04  0.50400001928E-02 0. -1.
    10030    2    1    2    0    0  0.00000000000E+00  0.00000000000E+00  0.14183736062E+04  0.35632448307E+04  0.32687811241E+04 0.  0.
        3    1    3    3  502    0  0.12200297782E+04  0.77430811179E+03 -0.12328801882E+03  0.14502502051E+04  0.10100000352E+00 0. -1.
       -3    1    3    3    0  502 -0.12200297782E+04 -0.77430811179E+03  0.15416616250E+04  0.21129946256E+04  0.10100000352E+00 0.  1.
</event>
<event>
 5   0  0.9268670E-07  0.3100878E+04  0.7818609E-02  0.8215497E-01
       -1   -1    0    0    0  501  0.00000000000E+00  0.00000000000E+00  0.12481625973E+04  0.12481625973E+04  0.50400001928E-02 0.  1.
        1   -1    0    0  501    0  0.00000000000E+00  0.00000000000E+00 -0.19259194606E+04  0.19259194606E+04  0.50400001928E-02 0. -1.
    10030    2    1    2    0    0  0.00000000000E+00  0.00000000000E+00 -0.67775686326E+03  0.31740820580E+04  0.31008777056E+04 0.  0.
        3    1    3    3  502    0  0.26409800209E+03 -0.15130159049E+04 -0.12199014792E+03  0.15407292071E+04  0.10100000352E+00 0.  1.
       -3    1    3    3    0  502 -0.26409800209E+03  0.15130159049E+04 -0.55576671534E+03  0.16333528508E+04  0.10100000352E+00 0. -1.
</event>
<event>
 5   0  0.9268670E-07  0.3280374E+04  0.7818609E-02  0.8167907E-01
        1   -1    0    0  501    0  0.00000000000E+00  0.00000000000E+00  0.14403757497E+04  0.14403757498E+04  0.50400001928E-02 0.  1.
       -1   -1    0    0    0  501  0.00000000000E+00  0.00000000000E+00 -0.18677158641E+04  0.18677158641E+04  0.50400001928E-02 0. -1.
    10030    2    1    2    0    0  0.00000000000E+00  0.00000000000E+00 -0.42734011431E+03  0.33080916138E+04  0.32803735385E+04 0.  0.
        3    1    3    3  502    0  0.74877981764E+03 -0.11048189545E+04 -0.11750968478E+04  0.17782431638E+04  0.10100000352E+00 0. -1.
       -3    1    3    3    0  502 -0.74877981764E+03  0.11048189545E+04  0.74775673350E+03  0.15298484501E+04  0.10100000352E+00 0.  1.
</event>
<event>
 5   0  0.8705956E-07  0.3291796E+04  0.7818609E-02  0.8164986E-01
        1   -1    0    0  501    0  0.00000000000E+00  0.00000000000E+00  0.18400440012E+04  0.18400440012E+04  0.50400001928E-02 0. -1.
       -1   -1    0    0    0  501  0.00000000000E+00  0.00000000000E+00 -0.14722367531E+04  0.14722367531E+04  0.50400001928E-02 0.  1.
    10030    2    1    2    0    0  0.00000000000E+00  0.00000000000E+00  0.36780724814E+03  0.33122807543E+04  0.32917961090E+04 0.  0.
        2    1    3    3  502    0 -0.15267861428E+04 -0.59513598671E+03  0.33886730564E+03  0.16733480867E+04  0.25500000920E-02 0. -1.
       -2    1    3    3    0  502  0.15267861428E+04  0.59513598671E+03  0.28939942498E+02  0.16389326676E+04  0.25500000920E-02 0.  1.
</event>
<event>
 5   0  0.9295663E-07  0.3276156E+04  0.7818609E-02  0.8168989E-01
       -1   -1    0    0    0  501  0.00000000000E+00  0.00000000000E+00  0.85364335423E+03  0.85364335425E+03  0.50400001928E-02 0. -1.
        1   -1    0    0  501    0  0.00000000000E+00  0.00000000000E+00 -0.31433504611E+04  0.31433504611E+04  0.50400001928E-02 0.  1.
    10030    2    1    2    0    0  0.00000000000E+00  0.00000000000E+00 -0.22897071069E+04  0.39969938154E+04  0.32761564256E+04 0.  0.
        4    1    3    3  502    0  0.47637830494E+03  0.15639416948E+04 -0.12695632038E+04  0.20699377420E+04  0.12699999809E+01 0.  1.
       -4    1    3    3    0  502 -0.47637830494E+03 -0.15639416948E+04 -0.10201439031E+04  0.19270560734E+04  0.12699999809E+01 0. -1.
</event>
<event>
 5   0  0.9295663E-07  0.3274055E+04  0.7818609E-02  0.8169529E-01
       -1   -1    0    0    0  501  0.00000000000E+00  0.00000000000E+00  0.12449393645E+04  0.12449393645E+04  0.50400001928E-02 0.  1.
        1   -1    0    0  501    0  0.00000000000E+00  0.00000000000E+00 -0.21526017884E+04  0.21526017884E+04  0.50400001928E-02 0. -1.
    10030    2    1    2    0    0  0.00000000000E+00  0.00000000000E+00 -0.90766242394E+03  0.33975411529E+04  0.32740547964E+04 0.  0.
        4    1    3    3  502    0  0.26082403417E+03  0.13751060558E+04  0.42725759256E+03  0.14633852893E+04  0.12699999809E+01 0.  1.
       -4    1    3    3    0  502 -0.26082403417E+03 -0.13751060558E+04 -0.13349200165E+04  0.19341558637E+04  0.12699999809E+01 0. -1.
</event>
<event>
 5   0  0.2674551E-06  0.3226083E+04  0.7818609E-02  0.8181963E-01
       -2   -1    0    0    0  501  0.00000000000E+00  0.00000000000E+00  0.14382726819E+04  0.14382726819E+04  0.25500000920E-02 0. -1.
        2   -1    0    0  501    0  0.00000000000E+00  0.00000000000E+00 -0.18090469434E+04  0.18090469434E+04  0.25500000920E-02 0.  1.
    10030    2    1    2    0    0  0.00000000000E+00  0.00000000000E+00 -0.37077426151E+03  0.32473196254E+04  0.32260829494E+04 0.  0.
        3    1    3    3  502    0 -0.48736267972E+03  0.11137478837E+04 -0.12525292016E+04  0.17455045520E+04  0.10100000352E+00 0.  1.
       -3    1    3    3    0  502  0.48736267972E+03 -0.11137478837E+04  0.88175494006E+03  0.15018150734E+04  0.10100000352E+00 0. -1.
</event>
<event>
 5   0  0.2574803E-06  0.3302161E+04  0.7818609E-02  0.8162346E-01
        2   -1    0    0  501    0  0.00000000000E+00  0.00000000000E+00  0.17614452578E+04  0.17614452578E+04  0.25500000920E-02 0.  1.
       -2   -1    0    0    0  501  0.00000000000E+00  0.00000000000E+00 -0.15476303817E+04  0.15476303817E+04  0.25500000920E-02 0. -1.
    10030    2    1    2    0    0  0.00000000000E+00  0.00000000000E+00  0.21381487604E+03  0.33090756395E+04  0.33021606240E+04 0.  0.
        4    1    3    3  502    0  0.16326089388E+04 -0.14044343526E+03  0.30963847292E+03  0.16676372215E+04  0.12699999809E+01 0.  1.
       -4    1    3    3    0  502 -0.16326089388E+04  0.14044343526E+03 -0.95823596879E+02  0.16414384180E+04  0.12699999809E+01 0. -1.
</event>
<event>
 5   0  0.2574803E-06  0.3264400E+04  0.7818609E-02  0.8172013E-01
       -2   -1    0    0    0  501  0.00000000000E+00  0.00000000000E+00  0.10005620462E+04  0.10005620462E+04  0.25500000920E-02 0. -1.
        2   -1    0    0  501    0  0.00000000000E+00  0.00000000000E+00 -0.26625807042E+04  0.26625807042E+04  0.25500000920E-02 0.  1.
    10030    2    1    2    0    0  0.00000000000E+00  0.00000000000E+00 -0.16620186580E+04  0.36631427504E+04  0.32644002191E+04 0.  0.
        4    1    3    3  502    0 -0.95992138555E+03  0.31540495546E+03  0.60742007599E+03  0.11789360093E+04  0.12699999809E+01 0. -1.
       -4    1    3    3    0  502  0.95992138555E+03 -0.31540495546E+03 -0.22694387340E+04  0.24842067411E+04  0.12699999809E+01 0.  1.
</event>
<event>
 5   0  0.9530268E-07  0.3276709E+04  0.7818609E-02  0.8168847E-01
        1   -1    0    0  501    0  0.00000000000E+00  0.00000000000E+00  0.19371815696E+04  0.19371815696E+04  0.50400001928E-02 0.  1.
       -1   -1    0    0    0  501  0.00000000000E+00  0.00000000000E+00 -0.13856243462E+04  0.13856243462E+04  0.50400001928E-02 0. -1.
    10030    2    1    2    0    0  0.00000000000E+00  0.00000000000E+00  0.55155722341E+03  0.33228059158E+04  0.32767092919E+04 0.  0.
        5    1    3    3  502    0 -0.78929254647E+03 -0.14315463900E+04  0.38628906167E+03  0.16797467428E+04  0.46999998093E+01 0. -1.
       -5    1    3    3    0  502  0.78929254647E+03  0.14315463900E+04  0.16526816174E+03  0.16430591730E+04  0.46999998093E+01 0.  1.
</event>
<event>
 5   0  0.9268670E-07  0.3261076E+04  0.7818609E-02  0.8172871E-01
        1   -1    0    0  501    0  0.00000000000E+00  0.00000000000E+00  0.13718690148E+04  0.13718690148E+04  0.50400001928E-02 0. -1.
       -1   -1    0    0    0  501  0.00000000000E+00  0.00000000000E+00 -0.19379794379E+04  0.19379794379E+04  0.50400001928E-02 0.  1.
    10030    2    1    2    0    0  0.00000000000E+00  0.00000000000E+00 -0.56611042313E+03  0.33098484527E+04  0.32610758607E+04 0.  0.
        3    1    3    3  502    0 -0.10748942537E+04  0.10935456978E+04  0.27968647346E+03  0.15586739182E+04  0.10100000352E+00 0. -1.
       -3    1    3    3    0  502  0.10748942537E+04 -0.10935456978E+04 -0.84579689659E+03  0.17511745345E+04  0.10100000352E+00 0.  1.
</event>
<event>
 5   0  0.2574803E-06  0.3343118E+04  0.7818609E-02  0.8152010E-01
        2   -1    0    0  501    0  0.00000000000E+00  0.00000000000E+00  0.21786750769E+04  0.21786750769E+04  0.25500000920E-02 0.  1.
       -2   -1    0    0    0  501  0.00000000000E+00  0.00000000000E+00 -0.12824811130E+04  0.12824811130E+04  0.25500000920E-02 0. -1.
    10030    2    1    2    0    0  0.00000000000E+00  0.00000000000E+00  0.89619396394E+03  0.34611561898E+04  0.33431180879E+04 0.  0.
        4    1    3    3  502    0 -0.16137163644E+04 -0.26571109892E+03  0.90315923079E+02  0.16379381770E+04  0.12699999809E+01 0. -1.
       -4    1    3    3    0  502  0.16137163644E+04  0.26571109892E+03  0.80587804086E+03  0.18232180129E+04  0.12699999809E+01 0.  1.
</event>
<event>
 5   0  0.2658600E-06  0.3343334E+04  0.7818609E-02  0.8151956E-01
       -2   -1    0    0    0  501  0.00000000000E+00  0.00000000000E+00  0.18567838901E+04  0.18567838901E+04  0.25500000920E-02 0.  1.
        2   -1    0    0  501    0  0.00000000000E+00  0.00000000000E+00 -0.15050059470E+04  0.15050059470E+04  0.25500000920E-02 0. -1.
    10030    2    1    2    0    0  0.00000000000E+00  0.00000000000E+00  0.35177794311E+03  0.33617898372E+04  0.33433341424E+04 0.  0.
        5    1    3    3  502    0 -0.51844716267E+03  0.15783313849E+04 -0.10962771315E+02  0.16613427381E+04  0.46999998093E+01 0. -1.
       -5    1    3    3    0  502  0.51844716267E+03 -0.15783313849E+04  0.36274071442E+03  0.17004470991E+04  0.46999998093E+01 0.  1.
</event>
<event>
 5   0  0.9530268E-07  0.3253024E+04  0.7818609E-02  0.8174952E-01
       -1   -1    0    0    0  501  0.00000000000E+00  0.00000000000E+00  0.99830499145E+03  0.99830499147E+03  0.50400001928E-02 0.  1.
        1   -1    0    0  501    0  0.00000000000E+00  0.00000000000E+00 -0.26500335465E+04  0.26500335465E+04  0.50400001928E-02 0. -1.
    10030    2    1    2    0    0  0.00000000000E+00  0.00000000000E+00 -0.16517285551E+04  0.36483385380E+04  0.32530242649E+04 0.  0.
        5    1    3    3  502    0  0.66217381970E+03  0.59265500123E+03  0.70196229008E+03  0.11324695425E+04  0.46999998093E+01 0.  1.
       -5    1    3    3    0  502 -0.66217381970E+03 -0.59265500123E+03 -0.23536908452E+04  0.25158689955E+04  0.46999998093E+01 0. -1.
</event>
<event>
 5   0  0.9268670E-07  0.3268306E+04  0.7818609E-02  0.8171007E-01
        1   -1    0    0  501    0  0.00000000000E+00  0.00000000000E+00  0.11267268610E+04  0.11267268611E+04  0.50400001928E-02 0. -1.
       -1   -1    0    0    0  501  0.00000000000E+00  0.00000000000E+00 -0.23701011061E+04  0.23701011061E+04  0.50400001928E-02 0.  1.
    10030    2    1    2    0    0  0.00000000000E+00  0.00000000000E+00 -0.12433742451E+04  0.34968279672E+04  0.32683063380E+04 0.  0.
        3    1    3    3  502    0  0.37051265024E+03  0.33970782148E+02 -0.23241800957E+04  0.23537728789E+04  0.10100000352E+00 0.  1.
       -3    1    3    3    0  502 -0.37051265024E+03 -0.33970782148E+02  0.10808058506E+04  0.11430550883E+04  0.10100000352E+00 0. -1.
</event>
<event>
 5   0  0.2614212E-06  0.3289263E+04  0.7818609E-02  0.8165633E-01
        2   -1    0    0  501    0  0.00000000000E+00  0.00000000000E+00  0.16287810193E+04  0.16287810193E+04  0.25500000920E-02 0.  1.
       -2   -1    0    0    0  501  0.00000000000E+00  0.00000000000E+00 -0.16606361011E+04  0.16606361011E+04  0.25500000920E-02 0. -1.
    10030    2    1    2    0    0  0.00000000000E+00  0.00000000000E+00 -0.31855081811E+02  0.32894171205E+04  0.32892628728E+04 0.  0.
        2    1    3    3  502    0  0.10237253140E+04  0.89810829798E+03 -0.93803397144E+03  0.16536383416E+04  0.25500000920E-02 0. -1.
       -2    1    3    3    0  502 -0.10237253140E+04 -0.89810829798E+03  0.90617888963E+03  0.16357787789E+04  0.25500000920E-02 0.  1.
</event>
<event>
 5   0  0.2658600E-06  0.3657132E+04  0.7818609E-02  0.8077529E-01
       -2   -1    0    0    0  501  0.00000000000E+00  0.00000000000E+00  0.15824231479E+04  0.15824231479E+04  0.25500000920E-02 0. -1.
        2   -1    0    0  501    0  0.00000000000E+00  0.00000000000E+00 -0.21129956228E+04  0.21129956228E+04  0.25500000920E-02 0.  1.
    10030    2    1    2    0    0  0.00000000000E+00  0.00000000000E+00 -0.53057247489E+03  0.36954187707E+04  0.36571317640E+04 0.  0.
        5    1    3    3  502    0  0.87748062789E+02  0.39263801208E+03  0.15371388475E+04  0.15889248747E+04  0.46999998093E+01 0. -1.
       -5    1    3    3    0  502 -0.87748062789E+02 -0.39263801208E+03 -0.20677113224E+04  0.21064938960E+04  0.46999998093E+01 0.  1.
</event>
<event>
 5   0  0.2705859E-06  0.3460444E+04  0.7818609E-02  0.8123229E-01
        2   -1    0    0  501    0  0.00000000000E+00  0.00000000000E+00  0.12199881704E+04  0.12199881704E+04  0.25500000920E-02 0.  1.
       -2   -1    0    0    0  501  0.00000000000E+00  0.00000000000E+00 -0.24538495571E+04  0.24538495571E+04  0.25500000920E-02 0. -1.
    10030    2    1    2    0    0  0.00000000000E+00  0.00000000000E+00 -0.12338613867E+04  0.36738377276E+04  0.34604435737E+04 0.  0.
        1    1    3    3  502    0  0.45954260965E+02 -0.58482240283E+03 -0.23450483454E+04  0.24173085818E+04  0.50400001928E-02 0. -1.
       -1    1    3    3    0  502 -0.45954260965E+02  0.58482240283E+03  0.11111869587E+04  0.12565291458E+04  0.50400001928E-02 0.  1.
</event>
<event>
 5   0  0.2574803E-06  0.3264307E+04  0.7818609E-02  0.8172037E-01
        2   -1    0    0  501    0  0.00000000000E+00  0.00000000000E+00  0.24597005229E+04  0.24597005229E+04  0.25500000920E-02 0.  1.
       -2   -1    0    0    0  501  0.00000000000E+00  0.00000000000E+00 -0.10830282560E+04  0.10830282560E+04  0.25500000920E-02 0. -1.
    10030    2    1    2    0    0  0.00000000000E+00  0.00000000000E+00  0.13766722668E+04  0.35427287789E+04  0.32643070735E+04 0.  0.
        4    1    3    3  502    0 -0.93743298462E+02 -0.62872019911E+03 -0.94316126231E+03  0.11373793010E+04  0.12699999809E+01 0. -1.
       -4    1    3    3    0  502  0.93743298462E+02  0.62872019911E+03  0.23198335291E+04  0.24053494779E+04  0.12699999809E+01 0.  1.
</event>
<event>
 5   0  0.2658600E-06  0.3320350E+04  0.7818609E-02  0.8157737E-01
        2   -1    0    0  501    0  0.00000000000E+00  0.00000000000E+00  0.15325961277E+04  0.15325961277E+04  0.25500000920E-02 0.  1.
       -2   -1    0    0    0  501  0.00000000000E+00  0.00000000000E+00 -0.17983734755E+04  0.17983734755E+04  0.25500000920E-02 0. -1.
    10030    2    1    2    0    0  0.00000000000E+00  0.00000000000E+00 -0.26577734776E+03  0.33309696032E+04  0.33203495146E+04 0.  0.
        5    1    3    3  502    0 -0.12870116389E+04 -0.52804160301E+03  0.77606188181E+03  0.15929598324E+04  0.46999998093E+01 0.  1.
       -5    1    3    3    0  502  0.12870116389E+04  0.52804160301E+03 -0.10418392296E+04  0.17380097708E+04  0.46999998093E+01 0. -1.
</event>
<event>
 5   0  0.2674551E-06  0.3167572E+04  0.7818609E-02  0.8197434E-01
        2   -1    0    0  501    0  0.00000000000E+00  0.00000000000E+00  0.15486129084E+04  0.15486129084E+04  0.25500000920E-02 0.  1.
       -2   -1    0    0    0  501  0.00000000000E+00  0.00000000000E+00 -0.16197575680E+04  0.16197575680E+04  0.25500000920E-02 0. -1.
    10030    2    1    2    0    0  0.00000000000E+00  0.00000000000E+00 -0.71144659538E+02  0.31683704764E+04  0.31675716114E+04 0.  0.
        3    1    3    3  502    0  0.43908383801E+03  0.13888932538E+04  0.58632266633E+03  0.15702208019E+04  0.10100000352E+00 0.  1.
       -3    1    3    3    0  502 -0.43908383801E+03 -0.13888932538E+04 -0.65746732587E+03  0.15981496745E+04  0.10100000352E+00 0. -1.
</event>
<event>
 5   0  0.9295663E-07  0.3375859E+04  0.7818609E-02  0.8143857E-01
       -1   -1    0    0    0  501  0.00000000000E+00  0.00000000000E+00  0.22859366585E+04  0.22859366585E+04  0.50400001928E-02 0.  1.
        1   -1    0    0  501    0  0.00000000000E+00  0.00000000000E+00 -0.12463626321E+04  0.12463626321E+04  0.50400001928E-02 0. -1.
    10030    2    1    2    0    0  0.00000000000E+00  0.00000000000E+00  0.10395740264E+04  0.35322992907E+04  0.33758590199E+04 0.  0.
        4    1    3    3  502    0  0.63441681777E+03 -0.13073448800E+04 -0.37876888999E+03  0.15016999763E+04  0.12699999809E+01 0. -1.
       -4    1    3    3    0  502 -0.63441681777E+03  0.13073448800E+04  0.14183429164E+04  0.20305993143E+04  0.12699999809E+01 0.  1.
</event>
<event>
 5   0  0.2658600E-06  0.3284848E+04  0.7818609E-02  0.8166762E-01
        2   -1    0    0  501    0  0.00000000000E+00  0.00000000000E+00  0.20309181798E+04  0.20309181798E+04  0.25500000920E-02 0.  1.
       -2   -1    0    0    0  501  0.00000000000E+00  0.00000000000E+00 -0.13282447820E+04  0.13282447820E+04  0.25500000920E-02 0. -1.
    10030    2    1    2    0    0  0.00000000000E+00  0.00000000000E+00  0.70267339780E+03  0.33591629617E+04  0.32848479264E+04 0.  0.
        5    1    3    3  502    0 -0.88077725126E+03 -0.13814312285E+04  0.23289949501E+03  0.16548066565E+04  0.46999998093E+01 0. -1.
       -5    1    3    3    0  502  0.88077725126E+03  0.13814312285E+04  0.46977390280E+03  0.17043563053E+04  0.46999998093E+01 0.  1.
</event>
<event>
 5   0  0.9530268E-07  0.3180292E+04  0.7818609E-02  0.8194041E-01
       -1   -1    0    0    0  501  0.00000000000E+00  0.00000000000E+00  0.19575314594E+04  0.19575314594E+04  0.50400001928E-02 0. -1.
        1   -1    0    0  501    0  0.00000000000E+00  0.00000000000E+00 -0.12917106160E+04  0.12917106160E+04  0.50400001928E-02 0.  1.
    10030    2    1    2    0    0  0.00000000000E+00  0.00000000000E+00  0.66582084334E+03  0.32492420754E+04  0.31802919157E+04 0.  0.
        5    1    3    3  502    0  0.14423797778E+04 -0.66520743029E+03  0.40924115595E+03  0.16402624066E+04  0.46999998093E+01 0. -1.
       -5    1    3    3    0  502 -0.14423797778E+04  0.66520743029E+03  0.25657968739E+03  0.16089796688E+04  0.46999998093E+01 0.  1.
</event>
<event>
 5   0  0.9530268E-07  0.3315039E+04  0.7818609E-02  0.8159079E-01
        1   -1    0    0  501    0  0.00000000000E+00  0.00000000000E+00  0.21003981483E+04  0.21003981483E+04  0.50400001928E-02 0. -1.
       -1   -1    0    0    0  501  0.00000000000E+00  0.00000000000E+00 -0.13080235573E+04  0.13080235573E+04  0.50400001928E-02 0.  1.
    10030    2    1    2    0    0  0.00000000000E+00  0.00000000000E+00  0.79237459107E+03  0.34084217056E+04  0.33150386168E+04 0.  0.
        5    1    3    3  502    0 -0.15478995121E+04  0.50546886671E+03  0.71451577770E+03  0.17782144306E+04  0.46999998093E+01 0. -1.
       -5    1    3    3    0  502  0.15478995121E+04 -0.50546886671E+03  0.77858813364E+02  0.16302072750E+04  0.46999998093E+01 0.  1.
</event>
<event>
 5   0  0.9530268E-07  0.3545837E+04  0.7818609E-02  0.8103012E-01
        1   -1    0    0  501    0  0.00000000000E+00  0.00000000000E+00  0.14847112242E+04  0.14847112242E+04  0.50400001928E-02 0. -1.
       -1   -1    0    0    0  501  0.00000000000E+00  0.00000000000E+00 -0.21170712517E+04  0.21170712517E+04  0.50400001928E-02 0.  1.
    10030    2    1    2    0    0  0.00000000000E+00  0.00000000000E+00 -0.63236002749E+03  0.36017824758E+04  0.35458366853E+04 0.  0.
        5    1    3    3  502    0 -0.86298365597E+02 -0.67189773902E+03 -0.19804208290E+04  0.20930797237E+04  0.46999998093E+01 0.  1.
       -5    1    3    3    0  502  0.86298365597E+02  0.67189773902E+03  0.13480608016E+04  0.15087027521E+04  0.46999998093E+01 0. -1.
</event>
<event>
 5   0  0.8845526E-07  0.3228579E+04  0.7818609E-02  0.8181310E-01
        1   -1    0    0  501    0  0.00000000000E+00  0.00000000000E+00  0.15346701467E+04  0.15346701467E+04  0.50400001928E-02 0.  1.
       -1   -1    0    0    0  501  0.00000000000E+00  0.00000000000E+00 -0.16980393876E+04  0.16980393876E+04  0.50400001928E-02 0. -1.
    10030    2    1    2    0    0  0.00000000000E+00  0.00000000000E+00 -0.16336924088E+03  0.32327095343E+04  0.32285788553E+04 0.  0.
        1    1    3    3  502    0  0.28535673007E+03 -0.15534584168E+04  0.25231199515E+03  0.15994758076E+04  0.50400001928E-02 0. -1.
       -1    1    3    3    0  502 -0.28535673007E+03  0.15534584168E+04 -0.41568123603E+03  0.16332337267E+04  0.50400001928E-02 0.  1.
</event>
<event>
 5   0  0.2674551E-06  0.3256272E+04  0.7818609E-02  0.8174112E-01
        2   -1    0    0  501    0  0.00000000000E+00  0.00000000000E+00  0.21111255205E+04  0.21111255205E+04  0.25500000920E-02 0. -1.
       -2   -1    0    0    0  501  0.00000000000E+00  0.00000000000E+00 -0.12556461903E+04  0.12556461903E+04  0.25500000920E-02 0.  1.
    10030    2    1    2    0    0  0.00000000000E+00  0.00000000000E+00  0.85547933019E+03  0.33667717108E+04  0.32562719278E+04 0.  0.
        3    1    3    3  502    0  0.84475379373E+03 -0.13205039983E+04  0.88253794739E+03  0.17989477536E+04  0.10100000352E+00 0.  1.
       -3    1    3    3    0  502 -0.84475379373E+03  0.13205039983E+04 -0.27058617203E+02  0.15678239571E+04  0.10100000352E+00 0. -1.
</event>
<event>
 5   0  0.8520125E-07  0.3073432E+04  0.7818609E-02  0.8223067E-01
        4   -1    0    0  501    0  0.00000000000E+00  0.00000000000E+00  0.13362732629E+04  0.13362738664E+04  0.12699999809E+01 0.  1.
       -4   -1    0    0    0  501  0.00000000000E+00  0.00000000000E+00 -0.17672239140E+04  0.17672243704E+04  0.12699999809E+01 0. -1.
    10030    2    1    2    0    0  0.00000000000E+00  0.00000000000E+00 -0.43095065111E+03  0.31034982368E+04  0.30734317696E+04 0.  0.
        5    1    3    3  502    0 -0.66438880674E+03 -0.12437390626E+03  0.11780951444E+04  0.13582384232E+04  0.46999998093E+01 0.  1.
       -5    1    3    3    0  502  0.66438880674E+03  0.12437390626E+03 -0.16090457955E+04  0.17452598136E+04  0.46999998093E+01 0. -1.
</event>
<event>
 5   0  0.9295663E-07  0.3281731E+04  0.7818609E-02  0.8167560E-01
        1   -1    0    0  501    0  0.00000000000E+00  0.00000000000E+00  0.27025335596E+04  0.27025335597E+04  0.50400001928E-02 0.  1.
       -1   -1    0    0    0  501  0.00000000000E+00  0.00000000000E+00 -0.99626497948E+03  0.99626497950E+03  0.50400001928E-02 0. -1.
    10030    2    1    2    0    0  0.00000000000E+00  0.00000000000E+00  0.17062685802E+04  0.36987985391E+04  0.32817309709E+04 0.  0.
        4    1    3    3  502    0  0.76786174597E+03 -0.12978304509E+04  0.12403627419E+03  0.15130638290E+04  0.12699999809E+01 0. -1.
       -4    1    3    3    0  502 -0.76786174597E+03  0.12978304509E+04  0.15822323060E+04  0.21857347102E+04  0.12699999809E+01 0.  1.
</event>
<event>
 5   0  0.2614212E-06  0.3377290E+04  0.7818609E-02  0.8143503E-01
        2   -1    0    0  501    0  0.00000000000E+00  0.00000000000E+00  0.15593796586E+04  0.15593796586E+04  0.25500000920E-02 0.  1.
       -2   -1    0    0    0  501  0.00000000000E+00  0.00000000000E+00 -0.18286253218E+04  0.18286253218E+04  0.25500000920E-02 0. -1.
    10030    2    1    2    0    0  0.00000000000E+00  0.00000000000E+00 -0.26924566320E+03  0.33880049805E+04  0.33772895228E+04 0.  0.
        2    1    3    3  502    0 -0.78689058493E+03  0.56365739163E+03 -0.15227090421E+04  0.18043140732E+04  0.25500000920E-02 0. -1.
       -2    1    3    3    0  502  0.78689058493E+03 -0.56365739163E+03  0.12534633789E+04  0.15836909073E+04  0.25500000920E-02 0.  1.
</event>
<event>
 5   0  0.2614212E-06  0.3469570E+04  0.7818609E-02  0.8121040E-01
        2   -1    0    0  501    0  0.00000000000E+00  0.00000000000E+00  0.20451818425E+04  0.20451818425E+04  0.25500000920E-02 0. -1.
       -2   -1    0    0    0  501  0.00000000000E+00  0.00000000000E+00 -0.14714971293E+04  0.14714971293E+04  0.25500000920E-02 0.  1.
    10030    2    1    2    0    0  0.00000000000E+00  0.00000000000E+00  0.57368471323E+03  0.35166789718E+04  0.34695701233E+04 0.  0.
        2    1    3    3  502    0  0.15431000392E+04  0.48580725942E+03  0.92169551773E+03  0.18619046838E+04  0.25500000920E-02 0. -1.
       -2    1    3    3    0  502 -0.15431000392E+04 -0.48580725942E+03 -0.34801080450E+03  0.16547742880E+04  0.25500000920E-02 0.  1.
</event>
<event>
 5   0  0.8845526E-07  0.3332393E+04  0.7818609E-02  0.8154702E-01
       -1   -1    0    0    0  501  0.00000000000E+00  0.00000000000E+00  0.20532554966E+04  0.20532554966E+04  0.50400001928E-02 0. -1.
        1   -1    0    0  501    0  0.00000000000E+00  0.00000000000E+00 -0.13521016917E+04  0.13521016917E+04  0.50400001928E-02 0.  1.
    10030    2    1    2    0    0  0.00000000000E+00  0.00000000000E+00  0.70115380489E+03  0.34053571883E+04  0.33323926722E+04 0.  0.
        1    1    3    3  502    0 -0.23345308135E+03 -0.94141039532E+02  0.20337127892E+04  0.20492317062E+04  0.50400001928E-02 0. -1.
       -1    1    3    3    0  502  0.23345308135E+03  0.94141039532E+02 -0.13325589843E+04  0.13561254821E+04  0.50400001928E-02 0.  1.
</event>
<event>
 5   0  0.2658600E-06  0.3307272E+04  0.7818609E-02  0.8161048E-01
       -2   -1    0    0    0  501  0.00000000000E+00  0.00000000000E+00  0.12068877500E+04  0.12068877500E+04  0.25500000920E-02 0.  1.
        2   -1    0    0  501    0  0.00000000000E+00  0.00000000000E+00 -0.22657546739E+04  0.22657546739E+04  0.25500000920E-02 0. -1.
    10030    2    1    2    0    0  0.00000000000E+00  0.00000000000E+00 -0.10588669240E+04  0.34726424239E+04  0.33072717218E+04 0.  0.
        5    1    3    3  502    0 -0.71290161904E+03 -0.51901892178E+03  0.93939912354E+03  0.12884495190E+04  0.46999998093E+01 0.  1.
       -5    1    3    3    0  502  0.71290161904E+03  0.51901892178E+03 -0.19982660475E+04  0.21841929050E+04  0.46999998093E+01 0. -1.
</event>
<event>
 5   0  0.9268670E-07  0.3356938E+04  0.7818609E-02  0.8148557E-01
       -1   -1    0    0    0  501  0.00000000000E+00  0.00000000000E+00  0.15584876606E+04  0.15584876606E+04  0.50400001928E-02 0. -1.
        1   -1    0    0  501    0  0.00000000000E+00  0.00000000000E+00 -0.18076874774E+04  0.18076874774E+04  0.50400001928E-02 0.  1.
    10030    2    1    2    0    0  0.00000000000E+00  0.00000000000E+00 -0.24919981683E+03  0.33661751380E+04  0.33569382644E+04 0.  0.
        3    1    3    3  502    0 -0.15309591005E+04 -0.25020792014E+03  0.51811523570E+03  0.16355070096E+04  0.10100000352E+00 0. -1.
       -3    1    3    3    0  502  0.15309591005E+04  0.25020792014E+03 -0.76731505253E+03  0.17306681284E+04  0.10100000352E+00 0.  1.
</event>
<event>
 5   0  0.2574803E-06  0.3311441E+04  0.7818609E-02  0.8159990E-01
        2   -1    0    0  501    0  0.00000000000E+00  0.00000000000E+00  0.16286558123E+04  0.16286558123E+04  0.25500000920E-02 0.  1.
       -2   -1    0    0    0  501  0.00000000000E+00  0.00000000000E+00 -0.16832350714E+04  0.16832350714E+04  0.25500000920E-02 0. -1.
    10030    2    1    2    0    0  0.00000000000E+00  0.00000000000E+00 -0.54579259043E+02  0.33118908837E+04  0.33114411259E+04 0.  0.
        4    1    3    3  502    0 -0.59569496430E+03  0.29280417321E+02  0.15174910114E+04  0.16304877847E+04  0.12699999809E+01 0.  1.
       -4    1    3    3    0  502  0.59569496430E+03 -0.29280417321E+02 -0.15720702705E+04  0.16814030991E+04  0.12699999809E+01 0. -1.
</event>
<event>
 5   0  0.8705956E-07  0.3298412E+04  0.7818609E-02  0.8163299E-01
        1   -1    0    0  501    0  0.00000000000E+00  0.00000000000E+00  0.26355133322E+04  0.26355133322E+04  0.50400001928E-02 0. -1.
       -1   -1    0    0    0  501  0.00000000000E+00  0.00000000000E+00 -0.10320118723E+04  0.10320118723E+04  0.50400001928E-02 0.  1.
    10030    2    1    2    0    0  0.00000000000E+00  0.00000000000E+00  0.16035014599E+04  0.36675252045E+04  0.32984123748E+04 0.  0.
        2    1    3    3  502    0 -0.76532303936E+03  0.14600550727E+04  0.85623275792E+03  0.18575830279E+04  0.25500000920E-02 0. -1.
       -2    1    3    3    0  502  0.76532303936E+03 -0.14600550727E+04  0.74726870194E+03  0.18099421766E+04  0.25500000920E-02 0.  1.
</event>
<event>
 5   0  0.8845526E-07  0.3090177E+04  0.7818609E-02  0.8218439E-01
        1   -1    0    0  501    0  0.00000000000E+00  0.00000000000E+00  0.14032727414E+04  0.14032727414E+04  0.50400001928E-02 0.  1.
       -1   -1    0    0    0  501  0.00000000000E+00  0.00000000000E+00 -0.17012364316E+04  0.17012364316E+04  0.50400001928E-02 0. -1.
    10030    2    1    2    0    0  0.00000000000E+00  0.00000000000E+00 -0.29796369020E+03  0.31045091730E+04  0.30901771543E+04 0.  0.
        1    1    3    3  502    0  0.11079404494E+04 -0.10063974149E+04  0.23611163125E+03  0.15152941954E+04  0.50400001928E-02 0.  1.
       -1    1    3    3    0  502 -0.11079404494E+04  0.10063974149E+04 -0.53407532145E+03  0.15892149776E+04  0.50400001928E-02 0. -1.
</event>
<event>
 5   0  0.8845526E-07  0.3381693E+04  0.7818609E-02  0.8142414E-01
        1   -1    0    0  501    0  0.00000000000E+00  0.00000000000E+00  0.23225479867E+04  0.23225479867E+04  0.50400001928E-02 0. -1.
       -1   -1    0    0    0  501  0.00000000000E+00  0.00000000000E+00 -0.12309591722E+04  0.12309591722E+04  0.50400001928E-02 0.  1.
    10030    2    1    2    0    0  0.00000000000E+00  0.00000000000E+00  0.10915888146E+04  0.35535071589E+04  0.33816929175E+04 0.  0.
        1    1    3    3  502    0  0.12802968276E+04  0.53724029871E+03 -0.46820709182E+03  0.14652661827E+04  0.50400001928E-02 0.  1.
       -1    1    3    3    0  502 -0.12802968276E+04 -0.53724029871E+03  0.15597959064E+04  0.20882409762E+04  0.50400001928E-02 0. -1.
</event>
<event>
 5   0  0.9268670E-07  0.3298743E+04  0.7818609E-02  0.8163215E-01
        1   -1    0    0  501    0  0.00000000000E+00  0.00000000000E+00  0.14388689974E+04  0.14388689975E+04  0.50400001928E-02 0.  1.
       -1   -1    0    0    0  501  0.00000000000E+00  0.00000000000E+00 -0.18906695718E+04  0.18906695718E+04  0.50400001928E-02 0. -1.
    10030    2    1    2    0    0  0.00000000000E+00  0.00000000000E+00 -0.45180057433E+03  0.33295385692E+04  0.32987426885E+04 0.  0.
        3    1    3    3  502    0  0.99516588373E+03 -0.12839652464E+04  0.62253868495E+02  0.16256683070E+04  0.10100000352E+00 0.  1.
       -3    1    3    3    0  502 -0.99516588373E+03  0.12839652464E+04 -0.51405444283E+03  0.17038702622E+04  0.10100000352E+00 0. -1.
</event>
<event>
 5   0  0.2574803E-06  0.3236954E+04  0.7818609E-02  0.8179125E-01
        2   -1    0    0  501    0  0.00000000000E+00  0.00000000000E+00  0.19342709295E+04  0.19342709295E+04  0.25500000920E-02 0. -1.
       -2   -1    0    0    0  501  0.00000000000E+00  0.00000000000E+00 -0.13542404445E+04  0.13542404446E+04  0.25500000920E-02 0.  1.
    10030    2    1    2    0    0  0.00000000000E+00  0.00000000000E+00  0.58003048492E+03  0.32885113740E+04  0.32369540765E+04 0.  0.
        4    1    3    3  502    0 -0.15126475443E+04  0.48429889063E+03  0.60612764859E+03  0.17000118670E+04  0.12699999809E+01 0.  1.
       -4    1    3    3    0  502  0.15126475443E+04 -0.48429889063E+03 -0.26097163679E+02  0.15884995070E+04  0.12699999809E+01 0. -1.
</event>
<event>
 5   0  0.2705859E-06  0.3259303E+04  0.7818609E-02  0.8173329E-01
       -2   -1    0    0    0  501  0.00000000000E+00  0.00000000000E+00  0.13096080180E+04  0.13096080180E+04  0.25500000920E-02 0.  1.
        2   -1    0    0  501    0  0.00000000000E+00  0.00000000000E+00 -0.20279079163E+04  0.20279079163E+04  0.25500000920E-02 0. -1.
    10030    2    1    2    0    0  0.00000000000E+00  0.00000000000E+00 -0.71829989822E+03  0.33375159343E+04  0.32593032795E+04 0.  0.
        1    1    3    3  502    0 -0.14828590264E+04  0.30124962671E+03 -0.97876718434E+03  0.18021119363E+04  0.50400001928E-02 0. -1.
       -1    1    3    3    0  502  0.14828590264E+04 -0.30124962671E+03  0.26046728612E+03  0.15354039980E+04  0.50400001928E-02 0.  1.
</event>
<event>
 5   0  0.8705956E-07  0.3323847E+04  0.7818609E-02  0.8156854E-01
        1   -1    0    0  501    0  0.00000000000E+00  0.00000000000E+00  0.23098161458E+04  0.23098161458E+04  0.50400001928E-02 0. -1.
       -1   -1    0    0    0  501  0.00000000000E+00  0.00000000000E+00 -0.11957614675E+04  0.11957614675E+04  0.50400001928E-02 0.  1.
    10030    2    1    2    0    0  0.00000000000E+00  0.00000000000E+00  0.11140546783E+04  0.35055776133E+04  0.33238466536E+04 0.  0.
        2    1    3    3  502    0 -0.15494331003E+04  0.43948003639E+03  0.98944855891E+03  0.18902100639E+04  0.25500000920E-02 0.  1.
       -2    1    3    3    0  502  0.15494331003E+04 -0.43948003639E+03  0.12460611936E+03  0.16153675495E+04  0.25500000920E-02 0. -1.
</event>
<event>
 5   0  0.8705956E-07  0.3217656E+04  0.7818609E-02  0.8184170E-01
        1   -1    0    0  501    0  0.00000000000E+00  0.00000000000E+00  0.15202189776E+04  0.15202189776E+04  0.50400001928E-02 0. -1.
       -1   -1    0    0    0  501  0.00000000000E+00  0.00000000000E+00 -0.17026020951E+04  0.17026020951E+04  0.50400001928E-02 0.  1.
    10030    2    1    2    0    0  0.00000000000E+00  0.00000000000E+00 -0.18238311752E+03  0.32228210728E+04  0.32176563001E+04 0.  0.
        2    1    3    3  502    0 -0.12434130703E+03  0.73528624708E+03  0.13366566845E+04  0.15306069770E+04  0.25500000920E-02 0. -1.
       -2    1    3    3    0  502  0.12434130703E+03 -0.73528624708E+03 -0.15190398020E+04  0.16922140958E+04  0.25500000920E-02 0.  1.
</event>
<event>
 5   0  0.8520125E-07  0.3246715E+04  0.7818609E-02  0.8176588E-01
        3   -1    0    0  501    0  0.00000000000E+00  0.00000000000E+00  0.17704390254E+04  0.17704390283E+04  0.10100000352E+00 0. -1.
       -3   -1    0    0    0  501  0.00000000000E+00  0.00000000000E+00 -0.14884952434E+04  0.14884952469E+04  0.10100000352E+00 0.  1.
    10030    2    1    2    0    0  0.00000000000E+00  0.00000000000E+00  0.28194378196E+03  0.32589342752E+04  0.32467153114E+04 0.  0.
        3    1    3    3  502    0 -0.11379528009E+02 -0.58938679456E+03 -0.13772626968E+04  0.14981184311E+04  0.10100000352E+00 0.  1.
       -3    1    3    3    0  502  0.11379528009E+02  0.58938679456E+03  0.16592064788E+04  0.17608158441E+04  0.10100000352E+00 0. -1.
</event>
<event>
 5   0  0.2574803E-06  0.3855322E+04  0.7818609E-02  0.8034386E-01
       -2   -1    0    0    0  501  0.00000000000E+00  0.00000000000E+00  0.14028934141E+04  0.14028934141E+04  0.25500000920E-02 0.  1.
        2   -1    0    0  501    0  0.00000000000E+00  0.00000000000E+00 -0.26487233036E+04  0.26487233036E+04  0.25500000920E-02 0. -1.
    10030    2    1    2    0    0  0.00000000000E+00  0.00000000000E+00 -0.12458298894E+04  0.40516167177E+04  0.38553217652E+04 0.  0.
        4    1    3    3  502    0  0.11292428576E+04  0.15059250945E+04 -0.10598670901E+04  0.21601665869E+04  0.12699999809E+01 0. -1.
       -4    1    3    3    0  502 -0.11292428576E+04 -0.15059250945E+04 -0.18596279939E+03  0.18914501308E+04  0.12699999809E+01 0.  1.
</event>
<event>
 5   0  0.9268670E-07  0.3305046E+04  0.7818609E-02  0.8161613E-01
       -1   -1    0    0    0  501  0.00000000000E+00  0.00000000000E+00  0.24494092296E+04  0.24494092296E+04  0.50400001928E-02 0.  1.
        1   -1    0    0  501    0  0.00000000000E+00  0.00000000000E+00 -0.11148940717E+04  0.11148940717E+04  0.50400001928E-02 0. -1.
    10030    2    1    2    0    0  0.00000000000E+00  0.00000000000E+00  0.13345151579E+04  0.35643033014E+04  0.33050457361E+04 0.  0.
        3    1    3    3  502    0 -0.10182160089E+04 -0.25037731519E+03 -0.71018859367E+03  0.12664203447E+04  0.10100000352E+00 0. -1.
       -3    1    3    3    0  502  0.10182160089E+04  0.25037731519E+03  0.20447037515E+04  0.22978829567E+04  0.10100000352E+00 0.  1.
</event>
<event>
 5   0  0.2574803E-06  0.3332185E+04  0.7818609E-02  0.8154754E-01
       -2   -1    0    0    0  501  0.00000000000E+00  0.00000000000E+00  0.19438257559E+04  0.19438257559E+04  0.25500000920E-02 0. -1.
        2   -1    0    0  501    0  0.00000000000E+00  0.00000000000E+00 -0.14280413916E+04  0.14280413916E+04  0.25500000920E-02 0.  1.
    10030    2    1    2    0    0  0.00000000000E+00  0.00000000000E+00  0.51578436427E+03  0.33718671476E+04  0.33321846513E+04 0.  0.
        4    1    3    3  502    0 -0.29304968257E+03  0.16365260638E+04  0.14812758448E+03  0.16691432138E+04  0.12699999809E+01 0.  1.
       -4    1    3    3    0  502  0.29304968257E+03 -0.16365260638E+04  0.36765677980E+03  0.17027239338E+04  0.12699999809E+01 0. -1.
</event>
<event>
 5   0  0.9268670E-07  0.3285044E+04  0.7818609E-02  0.8166711E-01
        1   -1    0    0  501    0  0.00000000000E+00  0.00000000000E+00  0.20557663182E+04  0.20557663182E+04  0.50400001928E-02 0. -1.
       -1   -1    0    0    0  501  0.00000000000E+00  0.00000000000E+00 -0.13123472692E+04  0.13123472692E+04  0.50400001928E-02 0.  1.
    10030    2    1    2    0    0  0.00000000000E+00  0.00000000000E+00  0.74341904903E+03  0.33681135874E+04  0.32850444830E+04 0.  0.
        3    1    3    3  502    0  0.15436328871E+04  0.55420884338E+03  0.46300827966E+03  0.17042084994E+04  0.10100000352E+00 0. -1.
       -3    1    3    3    0  502 -0.15436328871E+04 -0.55420884338E+03  0.28041076937E+03  0.16639050880E+04  0.10100000352E+00 0.  1.
</event>
<event>
 5   0  0.9268670E-07  0.3302730E+04  0.7818609E-02  0.8162201E-01
       -1   -1    0    0    0  501  0.00000000000E+00  0.00000000000E+00  0.20181828896E+04  0.20181828896E+04  0.50400001928E-02 0. -1.
        1   -1    0    0  501    0  0.00000000000E+00  0.00000000000E+00 -0.13512183063E+04  0.13512183063E+04  0.50400001928E-02 0.  1.
    10030    2    1    2    0    0  0.00000000000E+00  0.00000000000E+00  0.66696458324E+03  0.33694011959E+04  0.33027295778E+04 0.  0.
        3    1    3    3  502    0  0.55455142310E+03  0.93054343023E+03 -0.93810080322E+03  0.14329938882E+04  0.10100000352E+00 0.  1.
       -3    1    3    3    0  502 -0.55455142310E+03 -0.93054343023E+03  0.16050653865E+04  0.19364073077E+04  0.10100000352E+00 0. -1.
</event>
<event>
 5   0  0.2574803E-06  0.3290795E+04  0.7818609E-02  0.8165242E-01
        2   -1    0    0  501    0  0.00000000000E+00  0.00000000000E+00  0.15556783017E+04  0.15556783017E+04  0.25500000920E-02 0. -1.
       -2   -1    0    0    0  501  0.00000000000E+00  0.00000000000E+00 -0.17402909014E+04  0.17402909014E+04  0.25500000920E-02 0.  1.
    10030    2    1    2    0    0  0.00000000000E+00  0.00000000000E+00 -0.18461259973E+03  0.32959692031E+04  0.32907949155E+04 0.  0.
        4    1    3    3  502    0 -0.12205355681E+04 -0.42153571827E+03 -0.11136801759E+04  0.17051934148E+04  0.12699999809E+01 0.  1.
       -4    1    3    3    0  502  0.12205355681E+04  0.42153571827E+03  0.92906757614E+03  0.15907757883E+04  0.12699999809E+01 0. -1.
</event>
<event>
 5   0  0.2705859E-06  0.3247918E+04  0.7818609E-02  0.8176276E-01
       -2   -1    0    0    0  501  0.00000000000E+00  0.00000000000E+00  0.14574403788E+04  0.14574403788E+04  0.25500000920E-02 0. -1.
        2   -1    0    0  501    0  0.00000000000E+00  0.00000000000E+00 -0.18095026020E+04  0.18095026020E+04  0.25500000920E-02 0.  1.
    10030    2    1    2    0    0  0.00000000000E+00  0.00000000000E+00 -0.35206222321E+03  0.32669429807E+04  0.32479175837E+04 0.  0.
        1    1    3    3  502    0  0.13325192846E+04  0.91699844271E+03 -0.31144404171E+02  0.16178577693E+04  0.50400001928E-02 0.  1.
       -1    1    3    3    0  502 -0.13325192846E+04 -0.91699844271E+03 -0.32091781904E+03  0.16490852114E+04  0.50400001928E-02 0. -1.
</event>
<event>
 5   0  0.2614212E-06  0.3294497E+04  0.7818609E-02  0.8164297E-01
        2   -1    0    0  501    0  0.00000000000E+00  0.00000000000E+00  0.24994160813E+04  0.24994160813E+04  0.25500000920E-02 0.  1.
       -2   -1    0    0    0  501  0.00000000000E+00  0.00000000000E+00 -0.10856245136E+04  0.10856245136E+04  0.25500000920E-02 0. -1.
    10030    2    1    2    0    0  0.00000000000E+00  0.00000000000E+00  0.14137915677E+04  0.35850405949E+04  0.32944968463E+04 0.  0.
        2    1    3    3  502    0  0.13054542229E+04 -0.87261626356E+03  0.12485453294E+04  0.20061244506E+04  0.25500000920E-02 0.  1.
       -2    1    3    3    0  502 -0.13054542229E+04  0.87261626356E+03  0.16524623833E+03  0.15789161444E+04  0.25500000920E-02 0. -1.
</event>
<event>
 5   0  0.2574803E-06  0.3300228E+04  0.7818609E-02  0.8162837E-01
        2   -1    0    0  501    0  0.00000000000E+00  0.00000000000E+00  0.17558948815E+04  0.17558948815E+04  0.25500000920E-02 0.  1.
       -2   -1    0    0    0  501  0.00000000000E+00  0.00000000000E+00 -0.15507058908E+04  0.15507058908E+04  0.25500000920E-02 0. -1.
    10030    2    1    2    0    0  0.00000000000E+00  0.00000000000E+00  0.20518899061E+03  0.33066007723E+04  0.33002281960E+04 0.  0.
        4    1    3    3  502    0 -0.14875186886E+03 -0.13674681147E+04 -0.81063616710E+03  0.15966304430E+04  0.12699999809E+01 0. -1.
       -4    1    3    3    0  502  0.14875186886E+03  0.13674681147E+04  0.10158251577E+04  0.17099703293E+04  0.12699999809E+01 0.  1.
</event>
<event>
 5   0  0.8845526E-07  0.2533334E+04  0.7818609E-02  0.8391206E-01
       -1   -1    0    0    0  501  0.00000000000E+00  0.00000000000E+00  0.85150853037E+03  0.85150853038E+03  0.50400001928E-02 0. -1.
        1   -1    0    0  501    0  0.00000000000E+00  0.00000000000E+00 -0.18842384115E+04  0.18842384115E+04  0.50400001928E-02 0.  1.
    10030    2    1    2    0    0  0.00000000000E+00  0.00000000000E+00 -0.10327298811E+04  0.27357469419E+04  0.25333338356E+04 0.  0.
        1    1    3    3  502    0 -0.11815228959E+03 -0.34609642809E+03 -0.18259867422E+04  0.18622487170E+04  0.50400001928E-02 0.  1.
       -1    1    3    3    0  502  0.11815228959E+03  0.34609642809E+03  0.79325686114E+03  0.87349822487E+03  0.50400001928E-02 0. -1.
</event>
<event>
 5   0  0.9268670E-07  0.3216011E+04  0.7818609E-02  0.8184601E-01
       -1   -1    0    0    0  501  0.00000000000E+00  0.00000000000E+00  0.20391296478E+04  0.20391296478E+04  0.50400001928E-02 0.  1.
        1   -1    0    0  501    0  0.00000000000E+00  0.00000000000E+00 -0.12680321916E+04  0.12680321916E+04  0.50400001928E-02 0. -1.
    10030    2    1    2    0    0  0.00000000000E+00  0.00000000000E+00  0.77109745619E+03  0.33071618394E+04  0.32160112165E+04 0.  0.
        3    1    3    3  502    0 -0.29115562307E+03  0.30944144066E+03 -0.12092634992E+04  0.12817346928E+04  0.10100000352E+00 0. -1.
       -3    1    3    3    0  502  0.29115562307E+03 -0.30944144066E+03  0.19803609554E+04  0.20254271466E+04  0.10100000352E+00 0.  1.
</event>
<event>
 5   0  0.2614212E-06  0.3255905E+04  0.7818609E-02  0.8174207E-01
        2   -1    0    0  501    0  0.00000000000E+00  0.00000000000E+00  0.18856002120E+04  0.18856002120E+04  0.25500000920E-02 0.  1.
       -2   -1    0    0    0  501  0.00000000000E+00  0.00000000000E+00 -0.14055098489E+04  0.14055098489E+04  0.25500000920E-02 0. -1.
    10030    2    1    2    0    0  0.00000000000E+00  0.00000000000E+00  0.48009036307E+03  0.32911100609E+04  0.32559052007E+04 0.  0.
        2    1    3    3  502    0  0.79831977817E+03  0.22965221393E+03  0.16552460437E+04  0.18519973199E+04  0.25500000920E-02 0.  1.
       -2    1    3    3    0  502 -0.79831977817E+03 -0.22965221393E+03 -0.11751556806E+04  0.14391127410E+04  0.25500000920E-02 0. -1.
</event>
<event>
 5   0  0.8705956E-07  0.3224774E+04  0.7818609E-02  0.8182305E-01
        1   -1    0    0  501    0  0.00000000000E+00  0.00000000000E+00  0.28922758296E+04  0.28922758296E+04  0.50400001928E-02 0.  1.
       -1   -1    0    0    0  501  0.00000000000E+00  0.00000000000E+00 -0.89887420445E+03  0.89887420446E+03  0.50400001928E-02 0. -1.
    10030    2    1    2    0    0  0.00000000000E+00  0.00000000000E+00  0.19934016251E+04  0.37911500340E+04  0.32247741846E+04 0.  0.
        2    1    3    3  502    0 -0.62130029018E+03  0.14750876473E+04  0.76784610298E+03  0.17752423090E+04  0.25500000920E-02 0.  1.
       -2    1    3    3    0  502  0.62130029018E+03 -0.14750876473E+04  0.12255555222E+04  0.20159077250E+04  0.25500000920E-02 0. -1.
</event>
<event>
 5   0  0.9295663E-07  0.3298428E+04  0.7818609E-02  0.8163296E-01
        1   -1    0    0  501    0  0.00000000000E+00  0.00000000000E+00  0.20282436015E+04  0.20282436015E+04  0.50400001928E-02 0.  1.
       -1   -1    0    0    0  501  0.00000000000E+00  0.00000000000E+00 -0.13410157765E+04  0.13410157766E+04  0.50400001928E-02 0. -1.
    10030    2    1    2    0    0  0.00000000000E+00  0.00000000000E+00  0.68722782498E+03  0.33692593781E+04  0.32984279094E+04 0.  0.
        4    1    3    3  502    0  0.13025696204E+04 -0.29662805722E+03 -0.64422581159E+03  0.14831400236E+04  0.12699999809E+01 0. -1.
       -4    1    3    3    0  502 -0.13025696204E+04  0.29662805722E+03  0.13314536366E+04  0.18861193545E+04  0.12699999809E+01 0.  1.
</event>
<event>
 5   0  0.9295663E-07  0.3323627E+04  0.7818609E-02  0.8156910E-01
        1   -1    0    0  501    0  0.00000000000E+00  0.00000000000E+00  0.24866171874E+04  0.24866171874E+04  0.50400001928E-02 0.  1.
       -1   -1    0    0    0  501  0.00000000000E+00  0.00000000000E+00 -0.11105944801E+04  0.11105944801E+04  0.50400001928E-02 0. -1.
    10030    2    1    2    0    0  0.00000000000E+00  0.00000000000E+00  0.13760227073E+04  0.35972116675E+04  0.33236265268E+04 0.  0.
        4    1    3    3  502    0 -0.48521269234E+03  0.58616416403E+03 -0.91096132772E+03  0.11869591137E+04  0.12699999809E+01 0. -1.
       -4    1    3    3    0  502  0.48521269234E+03 -0.58616416403E+03  0.22869840350E+04  0.24102525538E+04  0.12699999809E+01 0.  1.
</event>
<event>
 5   0  0.2614212E-06  0.3405800E+04  0.7818609E-02  0.8136484E-01
        2   -1    0    0  501    0  0.00000000000E+00  0.00000000000E+00  0.20869918651E+04  0.20869918651E+04  0.25500000920E-02 0. -1.
       -2   -1    0    0    0  501  0.00000000000E+00  0.00000000000E+00 -0.13894966874E+04  0.13894966874E+04  0.25500000920E-02 0.  1.
    10030    2    1    2    0    0  0.00000000000E+00  0.00000000000E+00  0.69749517768E+03  0.34764885525E+04  0.34057999255E+04 0.  0.
        2    1    3    3  502    0  0.11699312766E+04  0.12076872167E+04  0.73672145892E+02  0.16830553142E+04  0.25500000920E-02 0. -1.
       -2    1    3    3    0  502 -0.11699312766E+04 -0.12076872167E+04  0.62382303179E+03  0.17934332384E+04  0.25500000920E-02 0.  1.
</event>
<event>
 5   0  0.8845526E-07  0.2723501E+04  0.7818609E-02  0.8327420E-01
       -1   -1    0    0    0  501  0.00000000000E+00  0.00000000000E+00  0.12100469524E+04  0.12100469525E+04  0.50400001928E-02 0. -1.
        1   -1    0    0  501    0  0.00000000000E+00  0.00000000000E+00 -0.15324727872E+04  0.15324727872E+04  0.50400001928E-02 0.  1.
    10030    2    1    2    0    0  0.00000000000E+00  0.00000000000E+00 -0.32242583475E+03  0.27425197397E+04  0.27235007075E+04 0.  0.
        1    1    3    3  502    0  0.33448225565E+03  0.11049159940E+04  0.56608163125E+03  0.12857550880E+04  0.50400001928E-02 0. -1.
       -1    1    3    3    0  502 -0.33448225565E+03 -0.11049159940E+04 -0.88850746600E+03  0.14567646516E+04  0.50400001928E-02 0.  1.
</event>
<event>
 5   0  0.2614212E-06  0.3291337E+04  0.7818609E-02  0.8165103E-01
       -2   -1    0    0    0  501  0.00000000000E+00  0.00000000000E+00  0.11432594550E+04  0.11432594550E+04  0.25500000920E-02 0. -1.
        2   -1    0    0  501    0  0.00000000000E+00  0.00000000000E+00 -0.23688634109E+04  0.23688634109E+04  0.25500000920E-02 0.  1.
    10030    2    1    2    0    0  0.00000000000E+00  0.00000000000E+00 -0.12256039559E+04  0.35121228660E+04  0.32913374134E+04 0.  0.
        2    1    3    3  502    0 -0.25040228831E+03  0.78329897336E+03 -0.21338944225E+04  0.22868677255E+04  0.25500000920E-02 0.  1.
       -2    1    3    3    0  502  0.25040228831E+03 -0.78329897336E+03  0.90829046655E+03  0.12252551405E+04  0.25500000920E-02 0. -1.
</event>
<event>
 5   0  0.2614212E-06  0.3291730E+04  0.7818609E-02  0.8165003E-01
        2   -1    0    0  501    0  0.00000000000E+00  0.00000000000E+00  0.19806265118E+04  0.19806265118E+04  0.25500000920E-02 0. -1.
       -2   -1    0    0    0  501  0.00000000000E+00  0.00000000000E+00 -0.13676843345E+04  0.13676843346E+04  0.25500000920E-02 0.  1.
    10030    2    1    2    0    0  0.00000000000E+00  0.00000000000E+00  0.61294217721E+03  0.33483108463E+04  0.32917301546E+04 0.  0.
        2    1    3    3  502    0  0.44976939716E+03  0.21197476406E+03 -0.12894607790E+04  0.13820039478E+04  0.25500000920E-02 0.  1.
       -2    1    3    3    0  502 -0.44976939716E+03 -0.21197476406E+03  0.19024029562E+04  0.19663068985E+04  0.25500000920E-02 0. -1.
</event>
<event>
 5   0  0.2614212E-06  0.3294053E+04  0.7818609E-02  0.8164410E-01
        2   -1    0    0  501    0  0.00000000000E+00  0.00000000000E+00  0.16738624438E+04  0.16738624438E+04  0.25500000920E-02 0.  1.
       -2   -1    0    0    0  501  0.00000000000E+00  0.00000000000E+00 -0.16206203516E+04  0.16206203516E+04  0.25500000920E-02 0. -1.
    10030    2    1    2    0    0  0.00000000000E+00  0.00000000000E+00  0.53242092219E+02  0.32944827954E+04  0.32940525450E+04 0.  0.
        2    1    3    3  502    0  0.40063645427E+03 -0.60506613962E+03 -0.14521122107E+04  0.16233436094E+04  0.25500000920E-02 0. -1.
       -2    1    3    3    0  502 -0.40063645427E+03  0.60506613962E+03  0.15053543029E+04  0.16711391860E+04  0.25500000920E-02 0.  1.
</event>
<event>
 5   0  0.2705859E-06  0.3255631E+04  0.7818609E-02  0.8174278E-01
        2   -1    0    0  501    0  0.00000000000E+00  0.00000000000E+00  0.18584513105E+04  0.18584513105E+04  0.25500000920E-02 0. -1.
       -2   -1    0    0    0  501  0.00000000000E+00  0.00000000000E+00 -0.14258018890E+04  0.14258018890E+04  0.25500000920E-02 0.  1.
    10030    2    1    2    0    0  0.00000000000E+00  0.00000000000E+00  0.43264942154E+03  0.32842531995E+04  0.32556310535E+04 0.  0.
        1    1    3    3  502    0 -0.83774465603E+03 -0.71289672250E+03 -0.99411822675E+03  0.14826695163E+04  0.50400001928E-02 0.  1.
       -1    1    3    3    0  502  0.83774465603E+03  0.71289672250E+03  0.14267676483E+04  0.18015836833E+04  0.50400001928E-02 0. -1.
</event>
<event>
 5   0  0.8705956E-07  0.3329856E+04  0.7818609E-02  0.8155340E-01
       -1   -1    0    0    0  501  0.00000000000E+00  0.00000000000E+00  0.11891509892E+04  0.11891509892E+04  0.50400001928E-02 0.  1.
        1   -1    0    0  501    0  0.00000000000E+00  0.00000000000E+00 -0.23310620966E+04  0.23310620966E+04  0.50400001928E-02 0. -1.
    10030    2    1    2    0    0  0.00000000000E+00  0.00000000000E+00 -0.11419111074E+04  0.35202130858E+04  0.33298557315E+04 0.  0.
        2    1    3    3  502    0  0.95285974469E+03 -0.29684058376E+03 -0.19797781445E+04  0.22171101747E+04  0.25500000920E-02 0. -1.
       -2    1    3    3    0  502 -0.95285974469E+03  0.29684058376E+03  0.83786703709E+03  0.13031029112E+04  0.25500000920E-02 0.  1.
</event>
<event>
 5   0  0.2574803E-06  0.3298356E+04  0.7818609E-02  0.8163314E-01
        2   -1    0    0  501    0  0.00000000000E+00  0.00000000000E+00  0.14307786340E+04  0.14307786340E+04  0.25500000920E-02 0.  1.
       -2   -1    0    0    0  501  0.00000000000E+00  0.00000000000E+00 -0.19009149380E+04  0.19009149380E+04  0.25500000920E-02 0. -1.
    10030    2    1    2    0    0  0.00000000000E+00  0.00000000000E+00 -0.47013630398E+03  0.33316935719E+04  0.32983562441E+04 0.  0.
        4    1    3    3  502    0 -0.13605820477E+04 -0.37726406351E+03  0.62576323344E+03  0.15443746046E+04  0.12699999809E+01 0.  1.
       -4    1    3    3    0  502  0.13605820477E+04  0.37726406351E+03 -0.10958995374E+04  0.17873189674E+04  0.12699999809E+01 0. -1.
</event>
<event>
 5   0  0.2658600E-06  0.3247620E+04  0.7818609E-02  0.8176353E-01
        2   -1    0    0  501    0  0.00000000000E+00  0.00000000000E+00  0.19309957179E+04  0.19309957179E+04  0.25500000920E-02 0.  1.
       -2   -1    0    0    0  501  0.00000000000E+00  0.00000000000E+00 -0.13654916358E+04  0.13654916358E+04  0.25500000920E-02 0. -1.
    10030    2    1    2    0    0  0.00000000000E+00  0.00000000000E+00  0.56550408207E+03  0.32964873537E+04  0.32476197448E+04 0.  0.
        5    1    3    3  502    0  0.10201664642E+04  0.27726114166E+03  0.15338252340E+04  0.18628621242E+04  0.46999998093E+01 0.  1.
       -5    1    3    3    0  502 -0.10201664642E+04 -0.27726114166E+03 -0.96832115194E+03  0.14336252295E+04  0.46999998093E+01 0. -1.
</event>
<event>
 5   0  0.9530268E-07  0.3267286E+04  0.7818609E-02  0.8171270E-01
       -1   -1    0    0    0  501  0.00000000000E+00  0.00000000000E+00  0.23330230117E+04  0.23330230117E+04  0.50400001928E-02 0. -1.
        1   -1    0    0  501    0  0.00000000000E+00  0.00000000000E+00 -0.11439193523E+04  0.11439193523E+04  0.50400001928E-02 0.  1.
    10030    2    1    2    0    0  0.00000000000E+00  0.00000000000E+00  0.11891036594E+04  0.34769423640E+04  0.32672864413E+04 0.  0.
        5    1    3    3  502    0  0.61231419911E+03  0.80905158544E+03  0.19570507928E+04  0.22044416622E+04  0.46999998093E+01 0. -1.
       -5    1    3    3    0  502 -0.61231419911E+03 -0.80905158544E+03 -0.76794713341E+03  0.12725007018E+04  0.46999998093E+01 0.  1.
</event>
<event>
 5   0  0.2658600E-06  0.3282819E+04  0.7818609E-02  0.8167281E-01
        2   -1    0    0  501    0  0.00000000000E+00  0.00000000000E+00  0.25605191624E+04  0.25605191624E+04  0.25500000920E-02 0. -1.
       -2   -1    0    0    0  501  0.00000000000E+00  0.00000000000E+00 -0.10522182710E+04  0.10522182710E+04  0.25500000920E-02 0.  1.
    10030    2    1    2    0    0  0.00000000000E+00  0.00000000000E+00  0.15083008914E+04  0.36127374334E+04  0.32828189386E+04 0.  0.
        5    1    3    3  502    0 -0.10413467067E+04  0.82320961952E+03  0.18166451154E+04  0.22499552455E+04  0.46999998093E+01 0. -1.
       -5    1    3    3    0  502  0.10413467067E+04 -0.82320961952E+03 -0.30834422403E+03  0.13627821879E+04  0.46999998093E+01 0.  1.
</event>
<event>
 5   0  0.9530268E-07  0.3099881E+04  0.7818609E-02  0.8215771E-01
       -1   -1    0    0    0  501  0.00000000000E+00  0.00000000000E+00  0.20724398299E+04  0.20724398299E+04  0.50400001928E-02 0. -1.
        1   -1    0    0  501    0  0.00000000000E+00  0.00000000000E+00 -0.11591726311E+04  0.11591726311E+04  0.50400001928E-02 0.  1.
    10030    2    1    2    0    0  0.00000000000E+00  0.00000000000E+00  0.91326719882E+03  0.32316124610E+04  0.30998809851E+04 0.  0.
        5    1    3    3  502    0 -0.91614400452E+03  0.83527268237E+02 -0.84377131941E+03  0.12483063610E+04  0.46999998093E+01 0.  1.
       -5    1    3    3    0  502  0.91614400452E+03 -0.83527268237E+02  0.17570385182E+04  0.19833061000E+04  0.46999998093E+01 0. -1.
</event>
<event>
 5   0  0.2658600E-06  0.3306697E+04  0.7818609E-02  0.8161193E-01
        2   -1    0    0  501    0  0.00000000000E+00  0.00000000000E+00  0.23232709563E+04  0.23232709563E+04  0.25500000920E-02 0.  1.
       -2   -1    0    0    0  501  0.00000000000E+00  0.00000000000E+00 -0.11766002628E+04  0.11766002628E+04  0.25500000920E-02 0. -1.
    10030    2    1    2    0    0  0.00000000000E+00  0.00000000000E+00  0.11466706935E+04  0.34998712191E+04  0.33066969729E+04 0.  0.
        5    1    3    3  502    0  0.16024342160E+03  0.79306431152E+03 -0.95273842608E+03  0.12499446207E+04  0.46999998093E+01 0. -1.
       -5    1    3    3    0  502 -0.16024342160E+03 -0.79306431152E+03  0.20994091196E+04  0.22499265983E+04  0.46999998093E+01 0.  1.
</event>
<event>
 5   0  0.2614212E-06  0.3288719E+04  0.7818609E-02  0.8165772E-01
       -2   -1    0    0    0  501  0.00000000000E+00  0.00000000000E+00  0.15902577998E+04  0.15902577998E+04  0.25500000920E-02 0.  1.
        2   -1    0    0  501    0  0.00000000000E+00  0.00000000000E+00 -0.17003022194E+04  0.17003022194E+04  0.25500000920E-02 0. -1.
    10030    2    1    2    0    0  0.00000000000E+00  0.00000000000E+00 -0.11004441965E+03  0.32905600192E+04  0.32887194264E+04 0.  0.
        2    1    3    3  502    0 -0.11031272614E+04  0.56749621972E+03  0.10249229366E+04  0.16091639879E+04  0.25500000920E-02 0.  1.
       -2    1    3    3    0  502  0.11031272614E+04 -0.56749621972E+03 -0.11349673562E+04  0.16813960312E+04  0.25500000920E-02 0. -1.
</event>
<event>
 5   0  0.8845526E-07  0.2993760E+04  0.7818609E-02  0.8245515E-01
        1   -1    0    0  501    0  0.00000000000E+00  0.00000000000E+00  0.12702512948E+04  0.12702512948E+04  0.50400001928E-02 0.  1.
       -1   -1    0    0    0  501  0.00000000000E+00  0.00000000000E+00 -0.17639421924E+04  0.17639421924E+04  0.50400001928E-02 0. -1.
    10030    2    1    2    0    0  0.00000000000E+00  0.00000000000E+00 -0.49369089753E+03  0.30341934872E+04  0.29937600798E+04 0.  0.
        1    1    3    3  502    0 -0.46546262023E+03  0.99755443166E+03 -0.12748819818E+04  0.16843676447E+04  0.50400001928E-02 0. -1.
       -1    1    3    3    0  502  0.46546262023E+03 -0.99755443166E+03  0.78119108427E+03  0.13498258425E+04  0.50400001928E-02 0.  1.
</event>
<event>
 5   0  0.9268670E-07  0.3234635E+04  0.7818609E-02  0.8179730E-01
       -1   -1    0    0    0  501  0.00000000000E+00  0.00000000000E+00  0.22667945205E+04  0.22667945205E+04  0.50400001928E-02 0.  1.
        1   -1    0    0  501    0  0.00000000000E+00  0.00000000000E+00 -0.11539271978E+04  0.11539271978E+04  0.50400001928E-02 0. -1.
    10030    2    1    2    0    0  0.00000000000E+00  0.00000000000E+00  0.11128673226E+04  0.34207217183E+04  0.32346349711E+04 0.  0.
        3    1    3    3  502    0 -0.83684530074E+03  0.77354902087E+03  0.17700737709E+04  0.21051957889E+04  0.10100000352E+00 0.  1.
       -3    1    3    3    0  502  0.83684530074E+03 -0.77354902087E+03 -0.65720644825E+03  0.13155259294E+04  0.10100000352E+00 0. -1.
</event>
<event>
 5   0  0.2574803E-06  0.2759716E+04  0.7818609E-02  0.8315885E-01
       -2   -1    0    0    0  501  0.00000000000E+00  0.00000000000E+00  0.11846199630E+04  0.11846199631E+04  0.25500000920E-02 0. -1.
        2   -1    0    0  501    0  0.00000000000E+00  0.00000000000E+00 -0.16072732575E+04  0.16072732575E+04  0.25500000920E-02 0.  1.
    10030    2    1    2    0    0  0.00000000000E+00  0.00000000000E+00 -0.42265329441E+03  0.27918932205E+04  0.27597159179E+04 0.  0.
        4    1    3    3  502    0  0.55910332442E+03 -0.41791311756E+03  0.99282819063E+03  0.12136545350E+04  0.12699999809E+01 0. -1.
       -4    1    3    3    0  502 -0.55910332442E+03  0.41791311756E+03 -0.14154814850E+04  0.15782386856E+04  0.12699999809E+01 0.  1.
</event>
<event>
 5   0  0.2574803E-06  0.3210958E+04  0.7818609E-02  0.8185929E-01
       -2   -1    0    0    0  501  0.00000000000E+00  0.00000000000E+00  0.24599009548E+04  0.24599009548E+04  0.25500000920E-02 0.  1.
        2   -1    0    0  501    0  0.00000000000E+00  0.00000000000E+00 -0.10478318870E+04  0.10478318870E+04  0.25500000920E-02 0. -1.
    10030    2    1    2    0    0  0.00000000000E+00  0.00000000000E+00  0.14120690678E+04  0.35077328418E+04  0.32109579003E+04 0.  0.
        4    1    3    3  502    0  0.88841539572E+03  0.22389927323E+03 -0.73420691310E+03  0.11740844110E+04  0.12699999809E+01 0. -1.
       -4    1    3    3    0  502 -0.88841539572E+03 -0.22389927323E+03  0.21462759809E+04  0.23336484309E+04  0.12699999809E+01 0.  1.
</event>
<event>
 5   0  0.2705859E-06  0.3386929E+04  0.7818609E-02  0.8141122E-01
        2   -1    0    0  501    0  0.00000000000E+00  0.00000000000E+00  0.21869191080E+04  0.21869191080E+04  0.25500000920E-02 0. -1.
       -2   -1    0    0    0  501  0.00000000000E+00  0.00000000000E+00 -0.13113523626E+04  0.13113523626E+04  0.25500000920E-02 0.  1.
    10030    2    1    2    0    0  0.00000000000E+00  0.00000000000E+00  0.87556674538E+03  0.34982714707E+04  0.33869287204E+04 0.  0.
        1    1    3    3  502    0 -0.11733339089E+04 -0.10909207341E+04  0.10044549653E+04  0.18909654379E+04  0.50400001928E-02 0. -1.
       -1    1    3    3    0  502  0.11733339089E+04  0.10909207341E+04 -0.12888821988E+03  0.16073060328E+04  0.50400001928E-02 0.  1.
</event>
<event>
 5   0  0.2658600E-06  0.3344761E+04  0.7818609E-02  0.8151598E-01
       -2   -1    0    0    0  501  0.00000000000E+00  0.00000000000E+00  0.93525173405E+03  0.93525173405E+03  0.25500000920E-02 0.  1.
        2   -1    0    0  501    0  0.00000000000E+00  0.00000000000E+00 -0.29904851859E+04  0.29904851859E+04  0.25500000920E-02 0. -1.
    10030    2    1    2    0    0  0.00000000000E+00  0.00000000000E+00 -0.20552334518E+04  0.39257369199E+04  0.33447609516E+04 0.  0.
        5    1    3    3  502    0 -0.72204096425E+03  0.77405780550E+03  0.49200436629E+03  0.11673041706E+04  0.46999998093E+01 0.  1.
       -5    1    3    3    0  502  0.72204096425E+03 -0.77405780550E+03 -0.25472378181E+04  0.27584327493E+04  0.46999998093E+01 0. -1.
</event>
<event>
 5   0  0.9268670E-07  0.3393559E+04  0.7818609E-02  0.8139489E-01
       -1   -1    0    0    0  501  0.00000000000E+00  0.00000000000E+00  0.14776955048E+04  0.14776955048E+04  0.50400001928E-02 0. -1.
        1   -1    0    0  501    0  0.00000000000E+00  0.00000000000E+00 -0.19483453768E+04  0.19483453768E+04  0.50400001928E-02 0.  1.
    10030    2    1    2    0    0  0.00000000000E+00  0.00000000000E+00 -0.47064987201E+03  0.34260408817E+04  0.33935593145E+04 0.  0.
        3    1    3    3  502    0 -0.14316208184E+04 -0.27844847309E+02  0.68374437034E+03  0.15867639639E+04  0.10100000352E+00 0. -1.
       -3    1    3    3    0  502  0.14316208184E+04  0.27844847309E+02 -0.11543942424E+04  0.18392769177E+04  0.10100000352E+00 0.  1.
</event>
<event>
 5   0  0.8845526E-07  0.3182026E+04  0.7818609E-02  0.8193580E-01
        1   -1    0    0  501    0  0.00000000000E+00  0.00000000000E+00  0.17211500675E+04  0.17211500675E+04  0.50400001928E-02 0.  1.
       -1   -1    0    0    0  501  0.00000000000E+00  0.00000000000E+00 -0.14707156097E+04  0.14707156098E+04  0.50400001928E-02 0. -1.
    10030    2    1    2    0    0  0.00000000000E+00  0.00000000000E+00  0.25043445771E+03  0.31918656772E+04  0.31820259402E+04 0.  0.
        1    1    3    3  502    0  0.20282595164E+03  0.15715590679E+04 -0.18003838085E+02  0.15846956833E+04  0.50400001928E-02 0.  1.
       -1    1    3    3    0  502 -0.20282595164E+03 -0.15715590679E+04  0.26843829580E+03  0.16071699939E+04  0.50400001928E-02 0. -1.
</event>
<event>
 5   0  0.2614212E-06  0.3322399E+04  0.7818609E-02  0.8157219E-01
        2   -1    0    0  501    0  0.00000000000E+00  0.00000000000E+00  0.25049180846E+04  0.25049180846E+04  0.25500000920E-02 0.  1.
       -2   -1    0    0    0  501  0.00000000000E+00  0.00000000000E+00 -0.11016664745E+04  0.11016664745E+04  0.25500000920E-02 0. -1.
    10030    2    1    2    0    0  0.00000000000E+00  0.00000000000E+00  0.14032516100E+04  0.36065845591E+04  0.33223992988E+04 0.  0.
        2    1    3    3  502    0 -0.15376326734E+04  0.38091095423E+03  0.12445858601E+04  0.20145474322E+04  0.25500000920E-02 0.  1.
       -2    1    3    3    0  502  0.15376326734E+04 -0.38091095423E+03  0.15866574995E+03  0.15920371269E+04  0.25500000920E-02 0. -1.
</event>
<event>
 5   0  0.9530268E-07  0.3326929E+04  0.7818609E-02  0.8156077E-01
        1   -1    0    0  501    0  0.00000000000E+00  0.00000000000E+00  0.14358672260E+04  0.14358672260E+04  0.50400001928E-02 0. -1.
       -1   -1    0    0    0  501  0.00000000000E+00  0.00000000000E+00 -0.19271382622E+04  0.19271382622E+04  0.50400001928E-02 0.  1.
    10030    2    1    2    0    0  0.00000000000E+00  0.00000000000E+00 -0.49127103627E+03  0.33630054882E+04  0.33269293174E+04 0.  0.
        5    1    3    3  502    0  0.10916433276E+04 -0.82643933964E+03 -0.12005513801E+04  0.18209977603E+04  0.46999998093E+01 0.  1.
       -5    1    3    3    0  502 -0.10916433276E+04  0.82643933964E+03  0.70928034384E+03  0.15420077279E+04  0.46999998093E+01 0. -1.
</event>
<event>
 5   0  0.9268670E-07  0.3278229E+04  0.7818609E-02  0.8168457E-01
       -1   -1    0    0    0  501  0.00000000000E+00  0.00000000000E+00  0.32303185184E+04  0.32303185184E+04  0.50400001928E-02 0. -1.
        1   -1    0    0  501    0  0.00000000000E+00  0.00000000000E+00 -0.83171270818E+03  0.83171270819E+03  0.50400001928E-02 0.  1.
    10030    2    1    2    0    0  0.00000000000E+00  0.00000000000E+00  0.23986058102E+04  0.40620312266E+04  0.32782293777E+04 0.  0.
        3    1    3    3  502    0  0.10074007420E+04  0.12140892546E+04  0.64818086698E+03  0.17055812557E+04  0.10100000352E+00 0. -1.
       -3    1    3    3    0  502 -0.10074007420E+04 -0.12140892546E+04  0.17504249432E+04  0.23564499709E+04  0.10100000352E+00 0.  1.
</event>
<event>
 5   0  0.8705956E-07  0.3342377E+04  0.7818609E-02  0.8152195E-01
       -1   -1    0    0    0  501  0.00000000000E+00  0.00000000000E+00  0.22444312780E+04  0.22444312780E+04  0.50400001928E-02 0.  1.
        1   -1    0    0  501    0  0.00000000000E+00  0.00000000000E+00 -0.12443560058E+04  0.12443560059E+04  0.50400001928E-02 0. -1.
    10030    2    1    2    0    0  0.00000000000E+00  0.00000000000E+00  0.10000752721E+04  0.34887872838E+04  0.33423773219E+04 0.  0.
        2    1    3    3  502    0  0.40464505878E+03  0.25280045099E+02  0.21923190273E+04  0.22294930863E+04  0.25500000920E-02 0.  1.
       -2    1    3    3    0  502 -0.40464505878E+03 -0.25280045099E+02 -0.11922437552E+04  0.12592941976E+04  0.25500000920E-02 0. -1.
</event>
<event>
 5   0  0.2614212E-06  0.3334087E+04  0.7818609E-02  0.8154276E-01
        2   -1    0    0  501    0  0.00000000000E+00  0.00000000000E+00  0.13860025761E+04  0.13860025761E+04  0.25500000920E-02 0. -1.
       -2   -1    0    0    0  501  0.00000000000E+00  0.00000000000E+00 -0.20050716952E+04  0.20050716952E+04  0.25500000920E-02 0.  1.
    10030    2    1    2    0    0  0.00000000000E+00  0.00000000000E+00 -0.61906911912E+03  0.33910742712E+04  0.33340873022E+04 0.  0.
        2    1    3    3  502    0  0.76650759931E+03 -0.64912639734E+03 -0.16627395695E+04  0.19425760874E+04  0.25500000920E-02 0.  1.
       -2    1    3    3    0  502 -0.76650759931E+03  0.64912639734E+03  0.10436704504E+04  0.14484981838E+04  0.25500000920E-02 0. -1.
</event>
<event>
 5   0  0.2674551E-06  0.3332737E+04  0.7818609E-02  0.8154615E-01
       -2   -1    0    0    0  501  0.00000000000E+00  0.00000000000E+00  0.12664027752E+04  0.12664027752E+04  0.25500000920E-02 0. -1.
        2   -1    0    0  501    0  0.00000000000E+00  0.00000000000E+00 -0.21926541696E+04  0.21926541696E+04  0.25500000920E-02 0.  1.
    10030    2    1    2    0    0  0.00000000000E+00  0.00000000000E+00 -0.92625139436E+03  0.34590569448E+04  0.33327366085E+04 0.  0.
        3    1    3    3  502    0 -0.12382977493E+03  0.80044244671E+03 -0.19745993320E+04  0.21342643828E+04  0.10100000352E+00 0.  1.
       -3    1    3    3    0  502  0.12382977493E+03 -0.80044244671E+03  0.10483479376E+04  0.13247925620E+04  0.10100000352E+00 0. -1.
</event>
<event>
 5   0  0.9530268E-07  0.3342056E+04  0.7818609E-02  0.8152276E-01
        1   -1    0    0  501    0  0.00000000000E+00  0.00000000000E+00  0.15355206732E+04  0.15355206732E+04  0.50400001928E-02 0.  1.
       -1   -1    0    0    0  501  0.00000000000E+00  0.00000000000E+00 -0.18184939558E+04  0.18184939558E+04  0.50400001928E-02 0. -1.
    10030    2    1    2    0    0  0.00000000000E+00  0.00000000000E+00 -0.28297328262E+03  0.33540146290E+04  0.33420562911E+04 0.  0.
        5    1    3    3  502    0  0.31510685675E+02  0.12158288760E+04  0.10085106497E+04  0.15799837340E+04  0.46999998093E+01 0.  1.
       -5    1    3    3    0  502 -0.31510685675E+02 -0.12158288760E+04 -0.12914839323E+04  0.17740308950E+04  0.46999998093E+01 0. -1.
</event>
<event>
 5   0  0.8845526E-07  0.3271705E+04  0.7818609E-02  0.8170133E-01
        1   -1    0    0  501    0  0.00000000000E+00  0.00000000000E+00  0.19788175280E+04  0.19788175280E+04  0.50400001928E-02 0. -1.
       -1   -1    0    0    0  501  0.00000000000E+00  0.00000000000E+00 -0.13523296213E+04  0.13523296213E+04  0.50400001928E-02 0.  1.
    10030    2    1    2    0    0  0.00000000000E+00  0.00000000000E+00  0.62648790670E+03  0.33311471494E+04  0.32717050958E+04 0.  0.
        1    1    3    3  502    0  0.12639328658E+04 -0.21031255255E+03  0.13487047731E+04  0.18603123996E+04  0.50400001928E-02 0. -1.
       -1    1    3    3    0  502 -0.12639328658E+04  0.21031255255E+03 -0.72221686639E+03  0.14708347498E+04  0.50400001928E-02 0.  1.
</event>
<event>
 5   0  0.9530268E-07  0.3321616E+04  0.7818609E-02  0.8157417E-01
        1   -1    0    0  501    0  0.00000000000E+00  0.00000000000E+00  0.13148772836E+04  0.13148772836E+04  0.50400001928E-02 0. -1.
       -1   -1    0    0    0  501  0.00000000000E+00  0.00000000000E+00 -0.20977490920E+04  0.20977490920E+04  0.50400001928E-02 0.  1.
    10030    2    1    2    0    0  0.00000000000E+00  0.00000000000E+00 -0.78287180837E+03  0.34126263756E+04  0.33216156477E+04 0.  0.
        5    1    3    3  502    0  0.57852396387E+03  0.11285441915E+04  0.71030750750E+03  0.14535683039E+04  0.46999998093E+01 0. -1.
       -5    1    3    3    0  502 -0.57852396387E+03 -0.11285441915E+04 -0.14931793159E+04  0.19590580717E+04  0.46999998093E+01 0.  1.
</event>
<event>
 5   0  0.2658600E-06  0.3249765E+04  0.7818609E-02  0.8175797E-01
       -2   -1    0    0    0  501  0.00000000000E+00  0.00000000000E+00  0.18543176701E+04  0.18543176701E+04  0.25500000920E-02 0.  1.
        2   -1    0    0  501    0  0.00000000000E+00  0.00000000000E+00 -0.14238354480E+04  0.14238354480E+04  0.25500000920E-02 0. -1.
    10030    2    1    2    0    0  0.00000000000E+00  0.00000000000E+00  0.43048222211E+03  0.32781531182E+04  0.32497650565E+04 0.  0.
        5    1    3    3  502    0 -0.67581495731E+03 -0.23503463413E+03  0.16868384713E+04  0.18323245493E+04  0.46999998093E+01 0.  1.
       -5    1    3    3    0  502  0.67581495731E+03  0.23503463413E+03 -0.12563562492E+04  0.14458285689E+04  0.46999998093E+01 0. -1.
</event>
<event>
 5   0  0.2614212E-06  0.3324558E+04  0.7818609E-02  0.8156675E-01
       -2   -1    0    0    0  501  0.00000000000E+00  0.00000000000E+00  0.18471884987E+04  0.18471884987E+04  0.25500000920E-02 0. -1.
        2   -1    0    0  501    0  0.00000000000E+00  0.00000000000E+00 -0.14958792130E+04  0.14958792130E+04  0.25500000920E-02 0.  1.
    10030    2    1    2    0    0  0.00000000000E+00  0.00000000000E+00  0.35130928569E+03  0.33430677117E+04  0.33245576413E+04 0.  0.
        2    1    3    3  502    0  0.83565426324E+03  0.44068587138E+03 -0.11996769992E+04  0.15270058898E+04  0.25500000920E-02 0.  1.
       -2    1    3    3    0  502 -0.83565426324E+03 -0.44068587138E+03  0.15509862849E+04  0.18160618219E+04  0.25500000920E-02 0. -1.
</event>
<event>
 5   0  0.2614212E-06  0.3266339E+04  0.7818609E-02  0.8171514E-01
       -2   -1    0    0    0  501  0.00000000000E+00  0.00000000000E+00  0.17849445513E+04  0.17849445513E+04  0.25500000920E-02 0.  1.
        2   -1    0    0  501    0  0.00000000000E+00  0.00000000000E+00 -0.14943002160E+04  0.14943002161E+04  0.25500000920E-02 0. -1.
    10030    2    1    2    0    0  0.00000000000E+00  0.00000000000E+00  0.29064433525E+03  0.32792447674E+04  0.32663392528E+04 0.  0.
        2    1    3    3  502    0 -0.88561846121E+03 -0.46912773024E+03 -0.11492851441E+04  0.15248794144E+04  0.25500000920E-02 0. -1.
       -2    1    3    3    0  502  0.88561846121E+03  0.46912773024E+03  0.14399294793E+04  0.17543653529E+04  0.25500000920E-02 0.  1.
</event>
<event>
 5   0  0.2658600E-06  0.3363695E+04  0.7818609E-02  0.8146875E-01
       -2   -1    0    0    0  501  0.00000000000E+00  0.00000000000E+00  0.19307011466E+04  0.19307011466E+04  0.25500000920E-02 0.  1.
        2   -1    0    0  501    0  0.00000000000E+00  0.00000000000E+00 -0.14650692680E+04  0.14650692680E+04  0.25500000920E-02 0. -1.
    10030    2    1    2    0    0  0.00000000000E+00  0.00000000000E+00  0.46563187859E+03  0.33957704147E+04  0.33636949420E+04 0.  0.
        5    1    3    3  502    0  0.68870346042E+03  0.59769762047E+03 -0.11938242010E+04  0.15022626983E+04  0.46999998093E+01 0. -1.
       -5    1    3    3    0  502 -0.68870346042E+03 -0.59769762047E+03  0.16594560796E+04  0.18935077164E+04  0.46999998093E+01 0.  1.
</event>
<event>
 5   0  0.2705859E-06  0.3345564E+04  0.7818609E-02  0.8151397E-01
       -2   -1    0    0    0  501  0.00000000000E+00  0.00000000000E+00  0.15412193358E+04  0.15412193358E+04  0.25500000920E-02 0.  1.
        2   -1    0    0  501    0  0.00000000000E+00  0.00000000000E+00 -0.18155751099E+04  0.18155751099E+04  0.25500000920E-02 0. -1.
    10030    2    1    2    0    0  0.00000000000E+00  0.00000000000E+00 -0.27435577409E+03  0.33567944457E+04  0.33455639077E+04 0.  0.
        1    1    3    3  502    0 -0.30634084708E+03 -0.38711528684E+03 -0.17408222946E+04  0.18094654518E+04  0.50400001928E-02 0. -1.
       -1    1    3    3    0  502  0.30634084708E+03  0.38711528684E+03  0.14664665205E+04  0.15473289940E+04  0.50400001928E-02 0.  1.
</event>
<event>
 5   0  0.2614212E-06  0.3286161E+04  0.7818609E-02  0.8166426E-01
       -2   -1    0    0    0  501  0.00000000000E+00  0.00000000000E+00  0.20267913314E+04  0.20267913314E+04  0.25500000920E-02 0.  1.
        2   -1    0    0  501    0  0.00000000000E+00  0.00000000000E+00 -0.13320136829E+04  0.13320136829E+04  0.25500000920E-02 0. -1.
    10030    2    1    2    0    0  0.00000000000E+00  0.00000000000E+00  0.69477764848E+03  0.33588050143E+04  0.32861611561E+04 0.  0.
        2    1    3    3  502    0  0.36531960485E+03 -0.13438143517E+04  0.12386853882E+04  0.18637695449E+04  0.25500000920E-02 0.  1.
       -2    1    3    3    0  502 -0.36531960485E+03  0.13438143517E+04 -0.54390773968E+03  0.14950354695E+04  0.25500000920E-02 0. -1.
</event>
<event>
 5   0  0.2705859E-06  0.3213009E+04  0.7818609E-02  0.8185390E-01
       -2   -1    0    0    0  501  0.00000000000E+00  0.00000000000E+00  0.20389805524E+04  0.20389805524E+04  0.25500000920E-02 0. -1.
        2   -1    0    0  501    0  0.00000000000E+00  0.00000000000E+00 -0.12657580252E+04  0.12657580252E+04  0.25500000920E-02 0.  1.
    10030    2    1    2    0    0  0.00000000000E+00  0.00000000000E+00  0.77322252714E+03  0.33047385776E+04  0.32130085574E+04 0.  0.
        1    1    3    3  502    0  0.31560375254E+03 -0.43412543830E+03  0.19440355010E+04  0.20167658897E+04  0.50400001928E-02 0. -1.
       -1    1    3    3    0  502 -0.31560375254E+03  0.43412543830E+03 -0.11708129739E+04  0.12879726878E+04  0.50400001928E-02 0.  1.
</event>
<event>
 5   0  0.9295663E-07  0.3308995E+04  0.7818609E-02  0.8160610E-01
        1   -1    0    0  501    0  0.00000000000E+00  0.00000000000E+00  0.10129097852E+04  0.10129097853E+04  0.50400001928E-02 0. -1.
       -1   -1    0    0    0  501  0.00000000000E+00  0.00000000000E+00 -0.27024740418E+04  0.27024740418E+04  0.50400001928E-02 0.  1.
    10030    2    1    2    0    0  0.00000000000E+00  0.00000000000E+00 -0.16895642565E+04  0.37153838270E+04  0.33089952562E+04 0.  0.
        4    1    3    3  502    0  0.30537444174E+02 -0.42426580225E+03 -0.26400291756E+04  0.26740773488E+04  0.12699999809E+01 0.  1.
       -4    1    3    3    0  502 -0.30537444174E+02  0.42426580225E+03  0.95046491903E+03  0.10413064783E+04  0.12699999809E+01 0. -1.
</event>
<event>
 5   0  0.9295663E-07  0.3335736E+04  0.7818609E-02  0.8153861E-01
       -1   -1    0    0    0  501  0.00000000000E+00  0.00000000000E+00  0.87965628237E+03  0.87965628238E+03  0.50400001928E-02 0. -1.
        1   -1    0    0  501    0  0.00000000000E+00  0.00000000000E+00 -0.31623524921E+04  0.31623524921E+04  0.50400001928E-02 0.  1.
    10030    2    1    2    0    0  0.00000000000E+00  0.00000000000E+00 -0.22826962097E+04  0.40420087745E+04  0.33357357430E+04 0.  0.
        4    1    3    3  502    0  0.56405773465E+03  0.93447166824E+03  0.38676852766E+03  0.11580111975E+04  0.12699999809E+01 0. -1.
       -4    1    3    3    0  502 -0.56405773465E+03 -0.93447166824E+03 -0.26694647374E+04  0.28839975769E+04  0.12699999809E+01 0.  1.
</event>
<event>
 5   0  0.9295663E-07  0.3360191E+04  0.7818609E-02  0.8147746E-01
       -1   -1    0    0    0  501  0.00000000000E+00  0.00000000000E+00  0.15549953842E+04  0.15549953842E+04  0.50400001928E-02 0. -1.
        1   -1    0    0  501    0  0.00000000000E+00  0.00000000000E+00 -0.18152598225E+04  0.18152598225E+04  0.50400001928E-02 0.  1.
    10030    2    1    2    0    0  0.00000000000E+00  0.00000000000E+00 -0.26026443836E+03  0.33702552067E+04  0.33601908548E+04 0.  0.
        4    1    3    3  502    0 -0.13794501589E+03  0.13613536888E+04  0.84767559793E+03  0.16096174159E+04  0.12699999809E+01 0. -1.
       -4    1    3    3    0  502  0.13794501589E+03 -0.13613536888E+04 -0.11079400363E+04  0.17606377908E+04  0.12699999809E+01 0.  1.
</event>
<event>
 5   0  0.2574803E-06  0.3196961E+04  0.7818609E-02  0.8189620E-01
        2   -1    0    0  501    0  0.00000000000E+00  0.00000000000E+00  0.17467293775E+04  0.17467293775E+04  0.25500000920E-02 0.  1.
       -2   -1    0    0    0  501  0.00000000000E+00  0.00000000000E+00 -0.14628134540E+04  0.14628134540E+04  0.25500000920E-02 0. -1.
    10030    2    1    2    0    0  0.00000000000E+00  0.00000000000E+00  0.28391592350E+03  0.32095428314E+04  0.31969605777E+04 0.  0.
        4    1    3    3  502    0 -0.14502932148E+04  0.46593011744E+03 -0.34440338374E+03  0.15617479268E+04  0.12699999809E+01 0.  1.
       -4    1    3    3    0  502  0.14502932148E+04 -0.46593011744E+03  0.62831930725E+03  0.16477949047E+04  0.12699999809E+01 0. -1.
</event>
<event>
 5   0  0.9530268E-07  0.3278357E+04  0.7818609E-02  0.8168424E-01
        1   -1    0    0  501    0  0.00000000000E+00  0.00000000000E+00  0.18167497253E+04  0.18167497253E+04  0.50400001928E-02 0.  1.
       -1   -1    0    0    0  501  0.00000000000E+00  0.00000000000E+00 -0.14789628992E+04  0.14789628992E+04  0.50400001928E-02 0. -1.
    10030    2    1    2    0    0  0.00000000000E+00  0.00000000000E+00  0.33778682617E+03  0.32957126245E+04  0.32783565644E+04 0.  0.
        5    1    3    3  502    0 -0.21771858749E+03 -0.15586828299E+04  0.62956587499E+03  0.16950719243E+04  0.46999998093E+01 0.  1.
       -5    1    3    3    0  502  0.21771858749E+03  0.15586828299E+04 -0.29177904882E+03  0.16006407002E+04  0.46999998093E+01 0. -1.
</event>
<event>
 5   0  0.8705956E-07  0.3301766E+04  0.7818609E-02  0.8162446E-01
        1   -1    0    0  501    0  0.00000000000E+00  0.00000000000E+00  0.10262998653E+04  0.10262998653E+04  0.50400001928E-02 0. -1.
       -1   -1    0    0    0  501  0.00000000000E+00  0.00000000000E+00 -0.26555737665E+04  0.26555737665E+04  0.50400001928E-02 0.  1.
    10030    2    1    2    0    0  0.00000000000E+00  0.00000000000E+00 -0.16292739012E+04  0.36818736319E+04  0.33017661934E+04 0.  0.
        2    1    3    3  502    0  0.87477367740E+03  0.20209750952E+03  0.73025750487E+03  0.11573022135E+04  0.25500000920E-02 0. -1.
       -2    1    3    3    0  502 -0.87477367740E+03 -0.20209750952E+03 -0.23595314061E+04  0.25245714184E+04  0.25500000920E-02 0.  1.
</event>
<event>
 5   0  0.9295663E-07  0.3215977E+04  0.7818609E-02  0.8184610E-01
       -1   -1    0    0    0  501  0.00000000000E+00  0.00000000000E+00  0.13375494801E+04  0.13375494801E+04  0.50400001928E-02 0.  1.
        1   -1    0    0  501    0  0.00000000000E+00  0.00000000000E+00 -0.19331073405E+04  0.19331073405E+04  0.50400001928E-02 0. -1.
    10030    2    1    2    0    0  0.00000000000E+00  0.00000000000E+00 -0.59555786040E+03  0.32706568206E+04  0.32159768148E+04 0.  0.
        4    1    3    3  502    0  0.11074128513E+04 -0.66081010142E+03 -0.12746266905E+04  0.18132038017E+04  0.12699999809E+01 0. -1.
       -4    1    3    3    0  502 -0.11074128513E+04  0.66081010142E+03  0.67906883014E+03  0.14574530189E+04  0.12699999809E+01 0.  1.
</event>
<event>
 5   0  0.9295663E-07  0.3301877E+04  0.7818609E-02  0.8162418E-01
        1   -1    0    0  501    0  0.00000000000E+00  0.00000000000E+00  0.21421311925E+04  0.21421311925E+04  0.50400001928E-02 0. -1.
       -1   -1    0    0    0  501  0.00000000000E+00  0.00000000000E+00 -0.12723770150E+04  0.12723770150E+04  0.50400001928E-02 0.  1.
    10030    2    1    2    0    0  0.00000000000E+00  0.00000000000E+00  0.86975417745E+03  0.34145082075E+04  0.33018773402E+04 0.  0.
        4    1    3    3  502    0  0.37317056381E+03 -0.13600136179E+04  0.13224695645E+04  0.19333444268E+04  0.12699999809E+01 0. -1.
       -4    1    3    3    0  502 -0.37317056381E+03  0.13600136179E+04 -0.45271538705E+03  0.14811637807E+04  0.12699999809E+01 0.  1.
</event>
<event>
 5   0  0.2674551E-06  0.3284217E+04  0.7818609E-02  0.8166923E-01
        2   -1    0    0  501    0  0.00000000000E+00  0.00000000000E+00  0.15513110273E+04  0.15513110273E+04  0.25500000920E-02 0. -1.
       -2   -1    0    0    0  501  0.00000000000E+00  0.00000000000E+00 -0.17382200957E+04  0.17382200957E+04  0.25500000920E-02 0.  1.
    10030    2    1    2    0    0  0.00000000000E+00  0.00000000000E+00 -0.18690906842E+03  0.32895311230E+04  0.32842168031E+04 0.  0.
        3    1    3    3  502    0 -0.11995196888E+04  0.10102542937E+04  0.39422013136E+03  0.16170561969E+04  0.10100000352E+00 0. -1.
       -3    1    3    3    0  502  0.11995196888E+04 -0.10102542937E+04 -0.58112919978E+03  0.16724749262E+04  0.10100000352E+00 0.  1.
</event>
<event>
 5   0  0.8705956E-07  0.3410904E+04  0.7818609E-02  0.8135235E-01
       -1   -1    0    0    0  501  0.00000000000E+00  0.00000000000E+00  0.15709497716E+04  0.15709497716E+04  0.50400001928E-02 0.  1.
        1   -1    0    0  501    0  0.00000000000E+00  0.00000000000E+00 -0.18514705905E+04  0.18514705905E+04  0.50400001928E-02 0. -1.
    10030    2    1    2    0    0  0.00000000000E+00  0.00000000000E+00 -0.28052081887E+03  0.34224203621E+04  0.34109044555E+04 0.  0.
        2    1    3    3  502    0  0.34085605313E+03  0.16226199751E+04  0.26044848765E+03  0.16783658264E+04  0.25500000920E-02 0.  1.
       -2    1    3    3    0  502 -0.34085605313E+03 -0.16226199751E+04 -0.54096930652E+03  0.17440545356E+04  0.25500000920E-02 0. -1.
</event>
<event>
 5   0  0.2674551E-06  0.3203757E+04  0.7818609E-02  0.8187826E-01
       -2   -1    0    0    0  501  0.00000000000E+00  0.00000000000E+00  0.13712392891E+04  0.13712392891E+04  0.25500000920E-02 0. -1.
        2   -1    0    0  501    0  0.00000000000E+00  0.00000000000E+00 -0.18713104060E+04  0.18713104060E+04  0.25500000920E-02 0.  1.
    10030    2    1    2    0    0  0.00000000000E+00  0.00000000000E+00 -0.50007111694E+03  0.32425496951E+04  0.32037567640E+04 0.  0.
        3    1    3    3  502    0 -0.22235497167E+03  0.98754303587E+03 -0.15065720682E+04  0.18150598855E+04  0.10100000352E+00 0.  1.
       -3    1    3    3    0  502  0.22235497167E+03 -0.98754303587E+03  0.10065009513E+04  0.14274898095E+04  0.10100000352E+00 0. -1.
</event>
<event>
 5   0  0.8520125E-07  0.3417024E+04  0.7818609E-02  0.8133741E-01
       -3   -1    0    0    0  501  0.00000000000E+00  0.00000000000E+00  0.13558431659E+04  0.13558431697E+04  0.10100000352E+00 0.  1.
        3   -1    0    0  501    0  0.00000000000E+00  0.00000000000E+00 -0.21529138887E+04  0.21529138911E+04  0.10100000352E+00 0. -1.
    10030    2    1    2    0    0  0.00000000000E+00  0.00000000000E+00 -0.79707072279E+03  0.35087570607E+04  0.34170241987E+04 0.  0.
        2    1    3    3  502    0  0.61246560973E+03 -0.78285255773E+03 -0.18254599812E+04  0.20785274579E+04  0.25500000920E-02 0. -1.
       -2    1    3    3    0  502 -0.61246560973E+03  0.78285255773E+03  0.10283892584E+04  0.14302296029E+04  0.25500000920E-02 0.  1.
</event>
<event>
 5   0  0.2674551E-06  0.3342568E+04  0.7818609E-02  0.8152148E-01
        2   -1    0    0  501    0  0.00000000000E+00  0.00000000000E+00  0.25183149435E+04  0.25183149435E+04  0.25500000920E-02 0.  1.
       -2   -1    0    0    0  501  0.00000000000E+00  0.00000000000E+00 -0.11091502146E+04  0.11091502146E+04  0.25500000920E-02 0. -1.
    10030    2    1    2    0    0  0.00000000000E+00  0.00000000000E+00  0.14091647289E+04  0.36274651581E+04  0.33425676119E+04 0.  0.
        3    1    3    3  502    0 -0.98148378738E+03 -0.12702029036E+04  0.19967047614E+03  0.16175889930E+04  0.10100000352E+00 0. -1.
       -3    1    3    3    0  502  0.98148378738E+03  0.12702029036E+04  0.12094942528E+04  0.20098761651E+04  0.10100000352E+00 0.  1.
</event>
<event>
 5   0  0.9268670E-07  0.3300382E+04  0.7818609E-02  0.8162798E-01
       -1   -1    0    0    0  501  0.00000000000E+00  0.00000000000E+00  0.14479649977E+04  0.14479649977E+04  0.50400001928E-02 0.  1.
        1   -1    0    0  501    0  0.00000000000E+00  0.00000000000E+00 -0.18806608348E+04  0.18806608349E+04  0.50400001928E-02 0. -1.
    10030    2    1    2    0    0  0.00000000000E+00  0.00000000000E+00 -0.43269583719E+03  0.33286258325E+04  0.33003824393E+04 0.  0.
        3    1    3    3  502    0 -0.44891557476E+03 -0.50145502720E+03  0.13032471155E+04  0.14667772128E+04  0.10100000352E+00 0.  1.
       -3    1    3    3    0  502  0.44891557476E+03  0.50145502720E+03 -0.17359429527E+04  0.18618486198E+04  0.10100000352E+00 0. -1.
</event>
<event>
 5   0  0.9530268E-07  0.3436311E+04  0.7818609E-02  0.8129051E-01
       -1   -1    0    0    0  501  0.00000000000E+00  0.00000000000E+00  0.15222871286E+04  0.15222871286E+04  0.50400001928E-02 0. -1.
        1   -1    0    0  501    0  0.00000000000E+00  0.00000000000E+00 -0.19392258624E+04  0.19392258624E+04  0.50400001928E-02 0.  1.
    10030    2    1    2    0    0  0.00000000000E+00  0.00000000000E+00 -0.41693873376E+03  0.34615129910E+04  0.34363111442E+04 0.  0.
        5    1    3    3  502    0  0.11310992468E+04 -0.81255133692E+03 -0.12220352343E+04  0.18528403561E+04  0.46999998093E+01 0.  1.
       -5    1    3    3    0  502 -0.11310992468E+04  0.81255133692E+03  0.80509650057E+03  0.16086726350E+04  0.46999998093E+01 0. -1.
</event>
<event>
 5   0  0.2658600E-06  0.3219000E+04  0.7818609E-02  0.8183817E-01
        2   -1    0    0  501    0  0.00000000000E+00  0.00000000000E+00  0.20254939969E+04  0.20254939969E+04  0.25500000920E-02 0.  1.
       -2   -1    0    0    0  501  0.00000000000E+00  0.00000000000E+00 -0.12789423275E+04  0.12789423275E+04  0.25500000920E-02 0. -1.
    10030    2    1    2    0    0  0.00000000000E+00  0.00000000000E+00  0.74655166937E+03  0.33044363244E+04  0.32189998489E+04 0.  0.
        5    1    3    3  502    0 -0.10236399052E+04  0.85828655179E+03  0.12948638127E+04  0.18604270596E+04  0.46999998093E+01 0.  1.
       -5    1    3    3    0  502  0.10236399052E+04 -0.85828655179E+03 -0.54831214334E+03  0.14440092649E+04  0.46999998093E+01 0. -1.
</event>
<event>
 5   0  0.9268670E-07  0.3324014E+04  0.7818609E-02  0.8156812E-01
       -1   -1    0    0    0  501  0.00000000000E+00  0.00000000000E+00  0.18891116990E+04  0.18891116990E+04  0.50400001928E-02 0.  1.
        1   -1    0    0  501    0  0.00000000000E+00  0.00000000000E+00 -0.14622046862E+04  0.14622046862E+04  0.50400001928E-02 0. -1.
    10030    2    1    2    0    0  0.00000000000E+00  0.00000000000E+00  0.42690701276E+03  0.33513163852E+04  0.33240144278E+04 0.  0.
        3    1    3    3  502    0  0.36305389881E+03 -0.11447128878E+04 -0.94493614424E+03  0.15280968738E+04  0.10100000352E+00 0. -1.
       -3    1    3    3    0  502 -0.36305389881E+03  0.11447128878E+04  0.13718431570E+04  0.18232195113E+04  0.10100000352E+00 0.  1.
</event>
<event>
 5   0  0.8705956E-07  0.3325424E+04  0.7818609E-02  0.8156456E-01
       -1   -1    0    0    0  501  0.00000000000E+00  0.00000000000E+00  0.14677422017E+04  0.14677422017E+04  0.50400001928E-02 0.  1.
        1   -1    0    0  501    0  0.00000000000E+00  0.00000000000E+00 -0.18835804189E+04  0.18835804189E+04  0.50400001928E-02 0. -1.
    10030    2    1    2    0    0  0.00000000000E+00  0.00000000000E+00 -0.41583821714E+03  0.33513226206E+04  0.33254235647E+04 0.  0.
        2    1    3    3  502    0 -0.21737840840E+03 -0.15390879537E+04 -0.80291146473E+03  0.17494890460E+04  0.25500000920E-02 0. -1.
       -2    1    3    3    0  502  0.21737840840E+03  0.15390879537E+04  0.38707324759E+03  0.16018335746E+04  0.25500000920E-02 0.  1.
</event>
<event>
 5   0  0.2614212E-06  0.3208887E+04  0.7818609E-02  0.8186474E-01
       -2   -1    0    0    0  501  0.00000000000E+00  0.00000000000E+00  0.10602855246E+04  0.10602855246E+04  0.25500000920E-02 0. -1.
        2   -1    0    0  501    0  0.00000000000E+00  0.00000000000E+00 -0.24278727230E+04  0.24278727230E+04  0.25500000920E-02 0.  1.
    10030    2    1    2    0    0  0.00000000000E+00  0.00000000000E+00 -0.13675871984E+04  0.34881582476E+04  0.32088866005E+04 0.  0.
        2    1    3    3  502    0 -0.37625053025E+03 -0.67339719356E+03 -0.22130762257E+04  0.23436583843E+04  0.25500000920E-02 0.  1.
       -2    1    3    3    0  502  0.37625053025E+03  0.67339719356E+03  0.84548902722E+03  0.11444998632E+04  0.25500000920E-02 0. -1.
</event>
<event>
 5   0  0.2614212E-06  0.3070909E+04  0.7818609E-02  0.8223767E-01
        2   -1    0    0  501    0  0.00000000000E+00  0.00000000000E+00  0.25196288572E+04  0.25196288572E+04  0.25500000920E-02 0.  1.
       -2   -1    0    0    0  501  0.00000000000E+00  0.00000000000E+00 -0.93570124982E+03  0.93570124983E+03  0.25500000920E-02 0. -1.
    10030    2    1    2    0    0  0.00000000000E+00  0.00000000000E+00  0.15839276074E+04  0.34553301070E+04  0.30709085761E+04 0.  0.
        2    1    3    3  502    0  0.61014639454E+03 -0.47441050951E+03 -0.70087539634E+03  0.10433457124E+04  0.25500000920E-02 0. -1.
       -2    1    3    3    0  502 -0.61014639454E+03  0.47441050951E+03  0.22848030037E+04  0.24119843946E+04  0.25500000920E-02 0.  1.
</event>
<event>
 5   0  0.2574803E-06  0.3280061E+04  0.7818609E-02  0.8167987E-01
       -2   -1    0    0    0  501  0.00000000000E+00  0.00000000000E+00  0.10511735719E+04  0.10511735719E+04  0.25500000920E-02 0.  1.
        2   -1    0    0  501    0  0.00000000000E+00  0.00000000000E+00 -0.25587595467E+04  0.25587595467E+04  0.25500000920E-02 0. -1.
    10030    2    1    2    0    0  0.00000000000E+00  0.00000000000E+00 -0.15075859748E+04  0.36099331186E+04  0.32800612265E+04 0.  0.
        4    1    3    3  502    0  0.48051678352E+03  0.15984897380E+03  0.96297116457E+03  0.10880088007E+04  0.12699999809E+01 0.  1.
       -4    1    3    3    0  502 -0.48051678352E+03 -0.15984897380E+03 -0.24705571393E+04  0.25219243179E+04  0.12699999809E+01 0. -1.
</event>
<event>
 5   0  0.2705859E-06  0.3243229E+04  0.7818609E-02  0.8177493E-01
        2   -1    0    0  501    0  0.00000000000E+00  0.00000000000E+00  0.19791936103E+04  0.19791936103E+04  0.25500000920E-02 0.  1.
       -2   -1    0    0    0  501  0.00000000000E+00  0.00000000000E+00 -0.13286388309E+04  0.13286388309E+04  0.25500000920E-02 0. -1.
    10030    2    1    2    0    0  0.00000000000E+00  0.00000000000E+00  0.65055477942E+03  0.33078324412E+04  0.32432289371E+04 0.  0.
        1    1    3    3  502    0  0.92308667344E+03  0.82324286757E+03 -0.74433357254E+03  0.14435547419E+04  0.50400001928E-02 0. -1.
       -1    1    3    3    0  502 -0.92308667344E+03 -0.82324286757E+03  0.13948883520E+04  0.18642776993E+04  0.50400001928E-02 0.  1.
</event>
<event>
 5   0  0.8705956E-07  0.3300032E+04  0.7818609E-02  0.8162887E-01
       -1   -1    0    0    0  501  0.00000000000E+00  0.00000000000E+00  0.95668555585E+03  0.95668555586E+03  0.50400001928E-02 0. -1.
        1   -1    0    0  501    0  0.00000000000E+00  0.00000000000E+00 -0.28458181866E+04  0.28458181866E+04  0.50400001928E-02 0.  1.
    10030    2    1    2    0    0  0.00000000000E+00  0.00000000000E+00 -0.18891326307E+04  0.38025037425E+04  0.33000322142E+04 0.  0.
        2    1    3    3  502    0 -0.14117145088E+04 -0.41740775362E+03 -0.85851490279E+02  0.14746313321E+04  0.25500000920E-02 0. -1.
       -2    1    3    3    0  502  0.14117145088E+04  0.41740775362E+03 -0.18032811405E+04  0.23278724103E+04  0.25500000920E-02 0.  1.
</event>
<event>
 5   0  0.2614212E-06  0.3549154E+04  0.7818609E-02  0.8102239E-01
       -2   -1    0    0    0  501  0.00000000000E+00  0.00000000000E+00  0.13812599669E+04  0.13812599669E+04  0.25500000920E-02 0.  1.
        2   -1    0    0  501    0  0.00000000000E+00  0.00000000000E+00 -0.22798915110E+04  0.22798915110E+04  0.25500000920E-02 0. -1.
    10030    2    1    2    0    0  0.00000000000E+00  0.00000000000E+00 -0.89863154411E+03  0.36611514778E+04  0.35491536303E+04 0.  0.
        2    1    3    3  502    0 -0.13052837262E+04  0.85215154994E+03 -0.13241307894E+04  0.20452995422E+04  0.25500000920E-02 0. -1.
       -2    1    3    3    0  502  0.13052837262E+04 -0.85215154994E+03  0.42549924530E+03  0.16158519356E+04  0.25500000920E-02 0.  1.
</event>
<event>
 5   0  0.2674551E-06  0.3248791E+04  0.7818609E-02  0.8176049E-01
        2   -1    0    0  501    0  0.00000000000E+00  0.00000000000E+00  0.29166911026E+04  0.29166911026E+04  0.25500000920E-02 0.  1.
       -2   -1    0    0    0  501  0.00000000000E+00  0.00000000000E+00 -0.90467583210E+03  0.90467583211E+03  0.25500000920E-02 0. -1.
    10030    2    1    2    0    0  0.00000000000E+00  0.00000000000E+00  0.20120152705E+04  0.38213669347E+04  0.32487905136E+04 0.  0.
        3    1    3    3  502    0  0.12582524402E+04  0.98876353129E+03  0.13341086165E+04  0.20834342646E+04  0.10100000352E+00 0.  1.
       -3    1    3    3    0  502 -0.12582524402E+04 -0.98876353129E+03  0.67790665405E+03  0.17379326701E+04  0.10100000352E+00 0. -1.
</event>
<event>
 5   0  0.9268670E-07  0.3303210E+04  0.7818609E-02  0.8162079E-01
        1   -1    0    0  501    0  0.00000000000E+00  0.00000000000E+00  0.22916403043E+04  0.22916403043E+04  0.50400001928E-02 0.  1.
       -1   -1    0    0    0  501  0.00000000000E+00  0.00000000000E+00 -0.11903261432E+04  0.11903261432E+04  0.50400001928E-02 0. -1.
    10030    2    1    2    0    0  0.00000000000E+00  0.00000000000E+00  0.11013141612E+04  0.34819664475E+04  0.33032101750E+04 0.  0.
        3    1    3    3  502    0 -0.14966653000E+03 -0.28421135397E+03 -0.11570833295E+04  0.12008405413E+04  0.10100000352E+00 0. -1.
       -3    1    3    3    0  502  0.14966653000E+03  0.28421135397E+03  0.22583974907E+04  0.22811259062E+04  0.10100000352E+00 0.  1.
</event>
<event>
 5   0  0.2658600E-06  0.3267015E+04  0.7818609E-02  0.8171339E-01
        2   -1    0    0  501    0  0.00000000000E+00  0.00000000000E+00  0.11268460518E+04  0.11268460518E+04  0.25500000920E-02 0.  1.
       -2   -1    0    0    0  501  0.00000000000E+00  0.00000000000E+00 -0.23679787765E+04  0.23679787765E+04  0.25500000920E-02 0. -1.
    10030    2    1    2    0    0  0.00000000000E+00  0.00000000000E+00 -0.12411327246E+04  0.34948248283E+04  0.32670154791E+04 0.  0.
        5    1    3    3  502    0  0.14572326309E+04  0.41283784235E+03 -0.12750833509E+04  0.19798539508E+04  0.46999998093E+01 0. -1.
       -5    1    3    3    0  502 -0.14572326309E+04 -0.41283784235E+03  0.33950626245E+02  0.15149708775E+04  0.46999998093E+01 0.  1.
</event>
<event>
 5   0  0.9295663E-07  0.3309128E+04  0.7818609E-02  0.8160577E-01
       -1   -1    0    0    0  501  0.00000000000E+00  0.00000000000E+00  0.19540225825E+04  0.19540225825E+04  0.50400001928E-02 0.  1.
        1   -1    0    0  501    0  0.00000000000E+00  0.00000000000E+00 -0.14009980178E+04  0.14009980178E+04  0.50400001928E-02 0. -1.
    10030    2    1    2    0    0  0.00000000000E+00  0.00000000000E+00  0.55302456469E+03  0.33550206003E+04  0.33091278397E+04 0.  0.
        4    1    3    3  502    0 -0.12266187296E+03 -0.82257007769E+03  0.17267032413E+04  0.19165524162E+04  0.12699999809E+01 0.  1.
       -4    1    3    3    0  502  0.12266187296E+03  0.82257007769E+03 -0.11736786766E+04  0.14384681841E+04  0.12699999809E+01 0. -1.
</event>
<event>
 5   0  0.2705859E-06  0.3249755E+04  0.7818609E-02  0.8175799E-01
       -2   -1    0    0    0  501  0.00000000000E+00  0.00000000000E+00  0.14094800677E+04  0.14094800677E+04  0.25500000920E-02 0. -1.
        2   -1    0    0  501    0  0.00000000000E+00  0.00000000000E+00 -0.18731922115E+04  0.18731922115E+04  0.25500000920E-02 0.  1.
    10030    2    1    2    0    0  0.00000000000E+00  0.00000000000E+00 -0.46371214375E+03  0.32826722792E+04  0.32497551200E+04 0.  0.
        1    1    3    3  502    0  0.14053030931E+04 -0.66208362538E+02  0.58937750750E+03  0.15253282194E+04  0.50400001928E-02 0. -1.
       -1    1    3    3    0  502 -0.14053030931E+04  0.66208362538E+02 -0.10530896513E+04  0.17573440597E+04  0.50400001928E-02 0.  1.
</event>
<event>
 5   0  0.2614212E-06  0.3125303E+04  0.7818609E-02  0.8208828E-01
       -2   -1    0    0    0  501  0.00000000000E+00  0.00000000000E+00  0.11095297240E+04  0.11095297240E+04  0.25500000920E-02 0.  1.
        2   -1    0    0  501    0  0.00000000000E+00  0.00000000000E+00 -0.22008235628E+04  0.22008235628E+04  0.25500000920E-02 0. -1.
    10030    2    1    2    0    0  0.00000000000E+00  0.00000000000E+00 -0.10912938388E+04  0.33103532868E+04  0.31253026479E+04 0.  0.
        2    1    3    3  502    0 -0.10956055133E+04 -0.10862969537E+04 -0.80829405783E+03  0.17417611192E+04  0.25500000920E-02 0. -1.
       -2    1    3    3    0  502  0.10956055133E+04  0.10862969537E+04 -0.28299978094E+03  0.15685921676E+04  0.25500000920E-02 0.  1.
</event>
<event>
 5   0  0.9530268E-07  0.3303184E+04  0.7818609E-02  0.8162086E-01
       -1   -1    0    0    0  501  0.00000000000E+00  0.00000000000E+00  0.20375382313E+04  0.20375382313E+04  0.50400001928E-02 0. -1.
        1   -1    0    0  501    0  0.00000000000E+00  0.00000000000E+00 -0.13387510891E+04  0.13387510891E+04  0.50400001928E-02 0.  1.
    10030    2    1    2    0    0  0.00000000000E+00  0.00000000000E+00  0.69878714225E+03  0.33762893204E+04  0.33031842372E+04 0.  0.
        5    1    3    3  502    0 -0.15225768648E+04  0.13283681976E+03  0.98922556931E+03  0.18205700335E+04  0.46999998093E+01 0. -1.
       -5    1    3    3    0  502  0.15225768648E+04 -0.13283681976E+03 -0.29043842706E+03  0.15557192869E+04  0.46999998093E+01 0.  1.
</event>
<event>
 5   0  0.2574803E-06  0.3302073E+04  0.7818609E-02  0.8162368E-01
       -2   -1    0    0    0  501  0.00000000000E+00  0.00000000000E+00  0.13544053137E+04  0.13544053137E+04  0.25500000920E-02 0.  1.
        2   -1    0    0  501    0  0.00000000000E+00  0.00000000000E+00 -0.20126340571E+04  0.20126340571E+04  0.25500000920E-02 0. -1.
    10030    2    1    2    0    0  0.00000000000E+00  0.00000000000E+00 -0.65822874335E+03  0.33670393708E+04  0.33020734465E+04 0.  0.
        4    1    3    3  502    0 -0.68672436340E+03 -0.13995533380E+04 -0.88348414180E+03  0.17918944553E+04  0.12699999809E+01 0. -1.
       -4    1    3    3    0  502  0.68672436340E+03  0.13995533380E+04  0.22525539846E+03  0.15751449155E+04  0.12699999809E+01 0.  1.
</event>
<event>
 5   0  0.2658600E-06  0.3278245E+04  0.7818609E-02  0.8168453E-01
        2   -1    0    0  501    0  0.00000000000E+00  0.00000000000E+00  0.24703374141E+04  0.24703374141E+04  0.25500000920E-02 0. -1.
       -2   -1    0    0    0  501  0.00000000000E+00  0.00000000000E+00 -0.10875930655E+04  0.10875930655E+04  0.25500000920E-02 0.  1.
    10030    2    1    2    0    0  0.00000000000E+00  0.00000000000E+00  0.13827443486E+04  0.35579304796E+04  0.32782445552E+04 0.  0.
        5    1    3    3  502    0  0.36244525096E+03 -0.13279258952E+02 -0.10434896558E+04  0.11047332938E+04  0.46999998093E+01 0.  1.
       -5    1    3    3    0  502 -0.36244525096E+03  0.13279258952E+02  0.24262340044E+04  0.24531971858E+04  0.46999998093E+01 0. -1.
</event>
<event>
 5   0  0.9295663E-07  0.3301496E+04  0.7818609E-02  0.8162515E-01
        1   -1    0    0  501    0  0.00000000000E+00  0.00000000000E+00  0.18794626405E+04  0.18794626405E+04  0.50400001928E-02 0. -1.
       -1   -1    0    0    0  501  0.00000000000E+00  0.00000000000E+00 -0.14498660252E+04  0.14498660252E+04  0.50400001928E-02 0.  1.
    10030    2    1    2    0    0  0.00000000000E+00  0.00000000000E+00  0.42959661535E+03  0.33293286657E+04  0.33014960415E+04 0.  0.
        4    1    3    3  502    0 -0.10777733474E+04  0.11427689029E+04 -0.29687575303E+03  0.15986409790E+04  0.12699999809E+01 0. -1.
       -4    1    3    3    0  502  0.10777733474E+04 -0.11427689029E+04  0.72647236839E+03  0.17306876867E+04  0.12699999809E+01 0.  1.
</event>
<event>
 5   0  0.2674551E-06  0.3243922E+04  0.7818609E-02  0.8177313E-01
       -2   -1    0    0    0  501  0.00000000000E+00  0.00000000000E+00  0.28855145315E+04  0.28855145315E+04  0.25500000920E-02 0.  1.
        2   -1    0    0  501    0  0.00000000000E+00  0.00000000000E+00 -0.91171189931E+03  0.91171189931E+03  0.25500000920E-02 0. -1.
    10030    2    1    2    0    0  0.00000000000E+00  0.00000000000E+00  0.19738026322E+04  0.37972264308E+04  0.32439222765E+04 0.  0.
        3    1    3    3  502    0  0.67475463094E+03 -0.23621625251E+03  0.26911374583E+04  0.27844771071E+04  0.10100000352E+00 0.  1.
       -3    1    3    3    0  502 -0.67475463094E+03  0.23621625251E+03 -0.71733482609E+03  0.10127493238E+04  0.10100000352E+00 0. -1.
</event>
<event>
 5   0  0.8520125E-07  0.3333103E+04  0.7818609E-02  0.8154523E-01
       -3   -1    0    0    0  501  0.00000000000E+00  0.00000000000E+00  0.10682727901E+04  0.10682727949E+04  0.10100000352E+00 0. -1.
        3   -1    0    0  501    0  0.00000000000E+00  0.00000000000E+00 -0.25998914068E+04  0.25998914088E+04  0.10100000352E+00 0.  1.
    10030    2    1    2    0    0  0.00000000000E+00  0.00000000000E+00 -0.15316186167E+04  0.36681642036E+04  0.33331026144E+04 0.  0.
        1    1    3    3  502    0  0.38701596290E+03 -0.13207011952E+04  0.26854424851E+03  0.14021943574E+04  0.50400001928E-02 0. -1.
       -1    1    3    3    0  502 -0.38701596290E+03  0.13207011952E+04 -0.18001628652E+04  0.22659698462E+04  0.50400001928E-02 0.  1.
</event>
<event>
 5   0  0.9268670E-07  0.3311833E+04  0.7818609E-02  0.8159891E-01
       -1   -1    0    0    0  501  0.00000000000E+00  0.00000000000E+00  0.12110927514E+04  0.12110927514E+04  0.50400001928E-02 0.  1.
        1   -1    0    0  501    0  0.00000000000E+00  0.00000000000E+00 -0.22641207737E+04  0.22641207737E+04  0.50400001928E-02 0. -1.
    10030    2    1    2    0    0  0.00000000000E+00  0.00000000000E+00 -0.10530280223E+04  0.34752135251E+04  0.33118334845E+04 0.  0.
        3    1    3    3  502    0 -0.11077289743E+04 -0.22603268204E+03 -0.17961218506E+04  0.21223119390E+04  0.10100000352E+00 0. -1.
       -3    1    3    3    0  502  0.11077289743E+04  0.22603268204E+03  0.74309382829E+03  0.13529015861E+04  0.10100000352E+00 0.  1.
</event>
<event>
 5   0  0.9268670E-07  0.2498013E+04  0.7818609E-02  0.8403694E-01
        1   -1    0    0  501    0  0.00000000000E+00  0.00000000000E+00  0.25962827187E+04  0.25962827187E+04  0.50400001928E-02 0.  1.
       -1   -1    0    0    0  501  0.00000000000E+00  0.00000000000E+00 -0.60086552839E+03  0.60086552841E+03  0.50400001928E-02 0. -1.
    10030    2    1    2    0    0  0.00000000000E+00  0.00000000000E+00  0.19954171903E+04  0.31971482471E+04  0.24980126402E+04 0.  0.
        3    1    3    3  502    0  0.79465857425E+03  0.21046704531E+03  0.22012270858E+04  0.23497189875E+04  0.10100000352E+00 0.  1.
       -3    1    3    3    0  502 -0.79465857425E+03 -0.21046704531E+03 -0.20580989547E+03  0.84742925963E+03  0.10100000352E+00 0. -1.
</event>
<event>
 5   0  0.8845526E-07  0.3189410E+04  0.7818609E-02  0.8191620E-01
       -1   -1    0    0    0  501  0.00000000000E+00  0.00000000000E+00  0.98438283685E+03  0.98438283686E+03  0.50400001928E-02 0. -1.
        1   -1    0    0  501    0  0.00000000000E+00  0.00000000000E+00 -0.25834297026E+04  0.25834297026E+04  0.50400001928E-02 0.  1.
    10030    2    1    2    0    0  0.00000000000E+00  0.00000000000E+00 -0.15990468658E+04  0.35678125395E+04  0.31894098887E+04 0.  0.
        1    1    3    3  502    0  0.70611688799E+02 -0.52539641771E+03  0.88293138737E+03  0.10298520482E+04  0.50400001928E-02 0. -1.
       -1    1    3    3    0  502 -0.70611688799E+02  0.52539641771E+03 -0.24819782531E+04  0.25379604913E+04  0.50400001928E-02 0.  1.
</event>
<event>
 5   0  0.2674551E-06  0.3318118E+04  0.7818609E-02  0.8158301E-01
       -2   -1    0    0    0  501  0.00000000000E+00  0.00000000000E+00  0.96175016886E+03  0.96175016887E+03  0.25500000920E-02 0.  1.
        2   -1    0    0  501    0  0.00000000000E+00  0.00000000000E+00 -0.28619451308E+04  0.28619451308E+04  0.25500000920E-02 0. -1.
    10030    2    1    2    0    0  0.00000000000E+00  0.00000000000E+00 -0.19001949620E+04  0.38236952997E+04  0.33181176669E+04 0.  0.
        3    1    3    3  502    0  0.65555878265E+03  0.37928467615E+03  0.75091052868E+03  0.10665274564E+04  0.10100000352E+00 0.  1.
       -3    1    3    3    0  502 -0.65555878265E+03 -0.37928467615E+03 -0.26511054907E+04  0.27571678432E+04  0.10100000352E+00 0. -1.
</event>
<event>
 5   0  0.2674551E-06  0.3274779E+04  0.7818609E-02  0.8169343E-01
       -2   -1    0    0    0  501  0.00000000000E+00  0.00000000000E+00  0.13509529734E+04  0.13509529734E+04  0.25500000920E-02 0.  1.
        2   -1    0    0  501    0  0.00000000000E+00  0.00000000000E+00 -0.19845578668E+04  0.19845578668E+04  0.25500000920E-02 0. -1.
    10030    2    1    2    0    0  0.00000000000E+00  0.00000000000E+00 -0.63360489334E+03  0.33355108402E+04  0.32747789855E+04 0.  0.
        3    1    3    3  502    0 -0.55948190813E+03 -0.12781125710E+04  0.55609303451E+03  0.15019424833E+04  0.10100000352E+00 0.  1.
       -3    1    3    3    0  502  0.55948190813E+03  0.12781125710E+04 -0.11896979279E+04  0.18335683569E+04  0.10100000352E+00 0. -1.
</event>
<event>
 5   0  0.2658600E-06  0.3295808E+04  0.7818609E-02  0.8163963E-01
        2   -1    0    0  501    0  0.00000000000E+00  0.00000000000E+00  0.13728762714E+04  0.13728762714E+04  0.25500000920E-02 0.  1.
       -2   -1    0    0    0  501  0.00000000000E+00  0.00000000000E+00 -0.19780281682E+04  0.19780281682E+04  0.25500000920E-02 0. -1.
    10030    2    1    2    0    0  0.00000000000E+00  0.00000000000E+00 -0.60515189685E+03  0.33509044396E+04  0.32958082082E+04 0.  0.
        5    1    3    3  502    0  0.46352146857E+03 -0.40579493217E+02  0.13046948771E+04  0.13851893948E+04  0.46999998093E+01 0.  1.
       -5    1    3    3    0  502 -0.46352146857E+03  0.40579493217E+02 -0.19098467740E+04  0.19657150448E+04  0.46999998093E+01 0. -1.
</event>
<event>
 5   0  0.8705956E-07  0.3164355E+04  0.7818609E-02  0.8198295E-01
       -1   -1    0    0    0  501  0.00000000000E+00  0.00000000000E+00  0.19861658912E+04  0.19861658912E+04  0.50400001928E-02 0. -1.
        1   -1    0    0  501    0  0.00000000000E+00  0.00000000000E+00 -0.12603607495E+04  0.12603607495E+04  0.50400001928E-02 0.  1.
    10030    2    1    2    0    0  0.00000000000E+00  0.00000000000E+00  0.72580514173E+03  0.32465266407E+04  0.31643549303E+04 0.  0.
        2    1    3    3  502    0  0.15126154822E+04  0.11210521159E+02  0.83879495424E+03  0.17296555287E+04  0.25500000920E-02 0. -1.
       -2    1    3    3    0  502 -0.15126154822E+04 -0.11210521159E+02 -0.11298981252E+03  0.15168711120E+04  0.25500000920E-02 0.  1.
</event>
<event>
 5   0  0.9295663E-07  0.3315991E+04  0.7818609E-02  0.8158838E-01
        1   -1    0    0  501    0  0.00000000000E+00  0.00000000000E+00  0.16146471177E+04  0.16146471177E+04  0.50400001928E-02 0.  1.
       -1   -1    0    0    0  501  0.00000000000E+00  0.00000000000E+00 -0.17025077727E+04  0.17025077727E+04  0.50400001928E-02 0. -1.
    10030    2    1    2    0    0  0.00000000000E+00  0.00000000000E+00 -0.87860654951E+02  0.33171548904E+04  0.33159911146E+04 0.  0.
        4    1    3    3  502    0  0.28877950503E+03  0.33335915477E+03  0.15548876850E+04  0.16162299509E+04  0.12699999809E+01 0.  1.
       -4    1    3    3    0  502 -0.28877950503E+03 -0.33335915477E+03 -0.16427483399E+04  0.17009249395E+04  0.12699999809E+01 0. -1.
</event>
<event>
 5   0  0.2614212E-06  0.3291930E+04  0.7818609E-02  0.8164952E-01
        2   -1    0    0  501    0  0.00000000000E+00  0.00000000000E+00  0.23330143863E+04  0.23330143863E+04  0.25500000920E-02 0. -1.
       -2   -1    0    0    0  501  0.00000000000E+00  0.00000000000E+00 -0.11612444889E+04  0.11612444889E+04  0.25500000920E-02 0.  1.
    10030    2    1    2    0    0  0.00000000000E+00  0.00000000000E+00  0.11717698974E+04  0.34942588752E+04  0.32919295853E+04 0.  0.
        2    1    3    3  502    0  0.13347002677E+04  0.68197657709E+03 -0.13613039201E+03  0.15050077541E+04  0.25500000920E-02 0.  1.
       -2    1    3    3    0  502 -0.13347002677E+04 -0.68197657709E+03  0.13079002894E+04  0.19892511212E+04  0.25500000920E-02 0. -1.
</event>
<event>
 5   0  0.2674551E-06  0.3447731E+04  0.7818609E-02  0.8126290E-01
        2   -1    0    0  501    0  0.00000000000E+00  0.00000000000E+00  0.17750620265E+04  0.17750620265E+04  0.25500000920E-02 0.  1.
       -2   -1    0    0    0  501  0.00000000000E+00  0.00000000000E+00 -0.16741455993E+04  0.16741455993E+04  0.25500000920E-02 0. -1.
    10030    2    1    2    0    0  0.00000000000E+00  0.00000000000E+00  0.10091642722E+03  0.34492076257E+04  0.34477310104E+04 0.  0.
        3    1    3    3  502    0 -0.59702929856E+01 -0.83741201935E+03 -0.14569776651E+04  0.16804994679E+04  0.10100000352E+00 0. -1.
       -3    1    3    3    0  502  0.59702929856E+01  0.83741201935E+03  0.15578940924E+04  0.17687081579E+04  0.10100000352E+00 0.  1.
</event>
<event>
 5   0  0.8845526E-07  0.3407238E+04  0.7818609E-02  0.8136132E-01
        1   -1    0    0  501    0  0.00000000000E+00  0.00000000000E+00  0.21062170617E+04  0.21062170617E+04  0.50400001928E-02 0.  1.
       -1   -1    0    0    0  501  0.00000000000E+00  0.00000000000E+00 -0.13779766934E+04  0.13779766934E+04  0.50400001928E-02 0. -1.
    10030    2    1    2    0    0  0.00000000000E+00  0.00000000000E+00  0.72824036826E+03  0.34841937551E+04  0.34072381909E+04 0.  0.
        1    1    3    3  502    0  0.10437460136E+04 -0.82641318671E+03  0.14511215603E+04  0.19692938528E+04  0.50400001928E-02 0.  1.
       -1    1    3    3    0  502 -0.10437460136E+04  0.82641318671E+03 -0.72288119203E+03  0.15148999023E+04  0.50400001928E-02 0. -1.
</event>
<event>
 5   0  0.2658600E-06  0.3338013E+04  0.7818609E-02  0.8153290E-01
        2   -1    0    0  501    0  0.00000000000E+00  0.00000000000E+00  0.19121539839E+04  0.19121539839E+04  0.25500000920E-02 0.  1.
       -2   -1    0    0    0  501  0.00000000000E+00  0.00000000000E+00 -0.14567775347E+04  0.14567775347E+04  0.25500000920E-02 0. -1.
    10030    2    1    2    0    0  0.00000000000E+00  0.00000000000E+00  0.45537644924E+03  0.33689315186E+04  0.33380131615E+04 0.  0.
        5    1    3    3  502    0  0.12198428895E+04  0.58080344034E+03  0.12166684422E+04  0.18181456211E+04  0.46999998093E+01 0.  1.
       -5    1    3    3    0  502 -0.12198428895E+04 -0.58080344034E+03 -0.76129199298E+03  0.15507858975E+04  0.46999998093E+01 0. -1.
</event>
<event>
 5   0  0.9295663E-07  0.3295605E+04  0.7818609E-02  0.8164015E-01
        1   -1    0    0  501    0  0.00000000000E+00  0.00000000000E+00  0.16024689579E+04  0.16024689579E+04  0.50400001928E-02 0.  1.
       -1   -1    0    0    0  501  0.00000000000E+00  0.00000000000E+00 -0.16944186693E+04  0.16944186693E+04  0.50400001928E-02 0. -1.
    10030    2    1    2    0    0  0.00000000000E+00  0.00000000000E+00 -0.91949711403E+02  0.32968876273E+04  0.32956051459E+04 0.  0.
        4    1    3    3  502    0  0.16111414327E+04  0.22267186091E+03  0.21849941573E+03  0.16410676651E+04  0.12699999809E+01 0. -1.
       -4    1    3    3    0  502 -0.16111414327E+04 -0.22267186091E+03 -0.31044912713E+03  0.16558199622E+04  0.12699999809E+01 0.  1.
</event>
<event>
 5   0  0.9530268E-07  0.3213840E+04  0.7818609E-02  0.8185172E-01
       -1   -1    0    0    0  501  0.00000000000E+00  0.00000000000E+00  0.10146565069E+04  0.10146565069E+04  0.50400001928E-02 0.  1.
        1   -1    0    0  501    0  0.00000000000E+00  0.00000000000E+00 -0.25448927855E+04  0.25448927855E+04  0.50400001928E-02 0. -1.
    10030    2    1    2    0    0  0.00000000000E+00  0.00000000000E+00 -0.15302362787E+04  0.35595492924E+04  0.32138400857E+04 0.  0.
        5    1    3    3  502    0  0.36932794078E+03 -0.24495734017E+03  0.94562328233E+03  0.10443336193E+04  0.46999998093E+01 0.  1.
       -5    1    3    3    0  502 -0.36932794078E+03  0.24495734017E+03 -0.24758595610E+04  0.25152156731E+04  0.46999998093E+01 0. -1.
</event>
<event>
 5   0  0.2614212E-06  0.3310893E+04  0.7818609E-02  0.8160129E-01
        2   -1    0    0  501    0  0.00000000000E+00  0.00000000000E+00  0.16934421866E+04  0.16934421866E+04  0.25500000920E-02 0.  1.
       -2   -1    0    0    0  501  0.00000000000E+00  0.00000000000E+00 -0.16183029500E+04  0.16183029500E+04  0.25500000920E-02 0. -1.
    10030    2    1    2    0    0  0.00000000000E+00  0.00000000000E+00  0.75139236570E+02  0.33117451366E+04  0.33108926206E+04 0.  0.
        2    1    3    3  502    0 -0.76097994242E+03  0.94126029027E+03  0.11672146892E+04  0.16815027617E+04  0.25500000920E-02 0.  1.
       -2    1    3    3    0  502  0.76097994242E+03 -0.94126029027E+03 -0.10920754527E+04  0.16302423750E+04  0.25500000920E-02 0. -1.
</event>
<event>
 5   0  0.8845526E-07  0.3302143E+04  0.7818609E-02  0.8162350E-01
       -1   -1    0    0    0  501  0.00000000000E+00  0.00000000000E+00  0.20132164285E+04  0.20132164285E+04  0.50400001928E-02 0. -1.
        1   -1    0    0  501    0  0.00000000000E+00  0.00000000000E+00 -0.13540701896E+04  0.13540701896E+04  0.50400001928E-02 0.  1.
    10030    2    1    2    0    0  0.00000000000E+00  0.00000000000E+00  0.65914623887E+03  0.33672866182E+04  0.33021425476E+04 0.  0.
        1    1    3    3  502    0 -0.10989725621E+04 -0.11541645200E+03  0.15805488007E+04  0.19285217553E+04  0.50400001928E-02 0. -1.
       -1    1    3    3    0  502  0.10989725621E+04  0.11541645200E+03 -0.92140256178E+03  0.14387648628E+04  0.50400001928E-02 0.  1.
</event>
<event>
 5   0  0.8705956E-07  0.3421727E+04  0.7818609E-02  0.8132594E-01
        1   -1    0    0  501    0  0.00000000000E+00  0.00000000000E+00  0.16678889182E+04  0.16678889182E+04  0.50400001928E-02 0. -1.
       -1   -1    0    0    0  501  0.00000000000E+00  0.00000000000E+00 -0.17549449620E+04  0.17549449620E+04  0.50400001928E-02 0.  1.
    10030    2    1    2    0    0  0.00000000000E+00  0.00000000000E+00 -0.87056043781E+02  0.34228338803E+04  0.34217266134E+04 0.  0.
        2    1    3    3  502    0 -0.35703260217E+03 -0.32314712006E+03 -0.16857525789E+04  0.17531851293E+04  0.25500000920E-02 0.  1.
       -2    1    3    3    0  502  0.35703260217E+03  0.32314712006E+03  0.15986965351E+04  0.16696487510E+04  0.25500000920E-02 0. -1.
</event>
<event>
 5   0  0.2658600E-06  0.3323598E+04  0.7818609E-02  0.8156917E-01
        2   -1    0    0  501    0  0.00000000000E+00  0.00000000000E+00  0.13439586139E+04  0.13439586139E+04  0.25500000920E-02 0.  1.
       -2   -1    0    0    0  501  0.00000000000E+00  0.00000000000E+00 -0.20548068214E+04  0.20548068215E+04  0.25500000920E-02 0. -1.
    10030    2    1    2    0    0  0.00000000000E+00  0.00000000000E+00 -0.71084820752E+03  0.33987654354E+04  0.33235976457E+04 0.  0.
        5    1    3    3  502    0 -0.53286586070E+03  0.11563018129E+03  0.12498676552E+04  0.13636376388E+04  0.46999998093E+01 0.  1.
       -5    1    3    3    0  502  0.53286586070E+03 -0.11563018129E+03 -0.19607158627E+04  0.20351277966E+04  0.46999998093E+01 0. -1.
</event>
<event>
 5   0  0.2574803E-06  0.2927494E+04  0.7818609E-02  0.8264744E-01
       -2   -1    0    0    0  501  0.00000000000E+00  0.00000000000E+00  0.14568991975E+04  0.14568991975E+04  0.25500000920E-02 0. -1.
        2   -1    0    0  501    0  0.00000000000E+00  0.00000000000E+00 -0.14706269927E+04  0.14706269927E+04  0.25500000920E-02 0.  1.
    10030    2    1    2    0    0  0.00000000000E+00  0.00000000000E+00 -0.13727795225E+02  0.29275261902E+04  0.29274940038E+04 0.  0.
        4    1    3    3  502    0  0.14342453391E+04  0.21369808180E+03 -0.20643339828E+03  0.14646989191E+04  0.12699999809E+01 0.  1.
       -4    1    3    3    0  502 -0.14342453391E+04 -0.21369808180E+03  0.19270560306E+03  0.14628272711E+04  0.12699999809E+01 0. -1.
</event>
<event>
 5   0  0.8705956E-07  0.3351859E+04  0.7818609E-02  0.8149824E-01
        1   -1    0    0  501    0  0.00000000000E+00  0.00000000000E+00  0.18999848976E+04  0.18999848976E+04  0.50400001928E-02 0.  1.
       -1   -1    0    0    0  501  0.00000000000E+00  0.00000000000E+00 -0.14782958189E+04  0.14782958189E+04  0.50400001928E-02 0. -1.
    10030    2    1    2    0    0  0.00000000000E+00  0.00000000000E+00  0.42168907864E+03  0.33782807165E+04  0.33518590246E+04 0.  0.
        2    1    3    3  502    0  0.43511664008E+02 -0.11980951555E+04  0.13911498264E+04  0.18364702846E+04  0.25500000920E-02 0.  1.
       -2    1    3    3    0  502 -0.43511664008E+02  0.11980951555E+04 -0.96946074776E+03  0.15418104319E+04  0.25500000920E-02 0. -1.
</event>
<event>
 5   0  0.9268670E-07  0.3266963E+04  0.7818609E-02  0.8171353E-01
        1   -1    0    0  501    0  0.00000000000E+00  0.00000000000E+00  0.21314475294E+04  0.21314475294E+04  0.50400001928E-02 0. -1.
       -1   -1    0    0    0  501  0.00000000000E+00  0.00000000000E+00 -0.12518541923E+04  0.12518541923E+04  0.50400001928E-02 0.  1.
    10030    2    1    2    0    0  0.00000000000E+00  0.00000000000E+00  0.87959333704E+03  0.33833017217E+04  0.32669628253E+04 0.  0.
        3    1    3    3  502    0 -0.78274719938E+03 -0.84417032386E+03 -0.76032594272E+03  0.13796420779E+04  0.10100000352E+00 0.  1.
       -3    1    3    3    0  502  0.78274719938E+03  0.84417032386E+03  0.16399192798E+04  0.20036596438E+04  0.10100000352E+00 0. -1.
</event>
<event>
 5   0  0.8705956E-07  0.3341544E+04  0.7818609E-02  0.8152404E-01
        1   -1    0    0  501    0  0.00000000000E+00  0.00000000000E+00  0.20460784978E+04  0.20460784978E+04  0.50400001928E-02 0. -1.
       -1   -1    0    0    0  501  0.00000000000E+00  0.00000000000E+00 -0.13643070210E+04  0.13643070210E+04  0.50400001928E-02 0.  1.
    10030    2    1    2    0    0  0.00000000000E+00  0.00000000000E+00  0.68177147681E+03  0.34103855188E+04  0.33415441102E+04 0.  0.
        2    1    3    3  502    0  0.69356810164E+02 -0.40309163394E+03  0.19941930505E+04  0.20357060581E+04  0.25500000920E-02 0. -1.
       -2    1    3    3    0  502 -0.69356810164E+02  0.40309163394E+03 -0.13124215737E+04  0.13746794607E+04  0.25500000920E-02 0.  1.
</event>
<event>
 5   0  0.2674551E-06  0.3308298E+04  0.7818609E-02  0.8160787E-01
        2   -1    0    0  501    0  0.00000000000E+00  0.00000000000E+00  0.22163222885E+04  0.22163222885E+04  0.25500000920E-02 0.  1.
       -2   -1    0    0    0  501  0.00000000000E+00  0.00000000000E+00 -0.12345718338E+04  0.12345718338E+04  0.25500000920E-02 0. -1.
    10030    2    1    2    0    0  0.00000000000E+00  0.00000000000E+00  0.98175045471E+03  0.34508941223E+04  0.33082980954E+04 0.  0.
        3    1    3    3  502    0  0.53932370254E+03  0.12027217635E+04 -0.55160092471E+03  0.14288713332E+04  0.10100000352E+00 0. -1.
       -3    1    3    3    0  502 -0.53932370254E+03 -0.12027217635E+04  0.15333513794E+04  0.20220227891E+04  0.10100000352E+00 0.  1.
</event>
<event>
 5   0  0.8520125E-07  0.3286477E+04  0.7818609E-02  0.8166345E-01
       -3   -1    0    0    0  501  0.00000000000E+00  0.00000000000E+00  0.13458722870E+04  0.13458722908E+04  0.10100000352E+00 0. -1.
        3   -1    0    0  501    0  0.00000000000E+00  0.00000000000E+00 -0.20063069184E+04  0.20063069210E+04  0.10100000352E+00 0.  1.
    10030    2    1    2    0    0  0.00000000000E+00  0.00000000000E+00 -0.66043463145E+03  0.33521792118E+04  0.32864770751E+04 0.  0.
        3    1    3    3  502    0 -0.36112301628E+03  0.15843305438E+04 -0.80955526992E+02  0.16269809195E+04  0.10100000352E+00 0. -1.
       -3    1    3    3    0  502  0.36112301628E+03 -0.15843305438E+04 -0.57947910446E+03  0.17251982923E+04  0.10100000352E+00 0.  1.
</event>
<event>
 5   0  0.9295663E-07  0.3174766E+04  0.7818609E-02  0.8195513E-01
       -1   -1    0    0    0  501  0.00000000000E+00  0.00000000000E+00  0.88261867220E+03  0.88261867222E+03  0.50400001928E-02 0.  1.
        1   -1    0    0  501    0  0.00000000000E+00  0.00000000000E+00 -0.28548960243E+04  0.28548960243E+04  0.50400001928E-02 0. -1.
    10030    2    1    2    0    0  0.00000000000E+00  0.00000000000E+00 -0.19722773521E+04  0.37375146965E+04  0.31747658422E+04 0.  0.
        4    1    3    3  502    0 -0.92476631502E+03  0.10561779356E+04 -0.11379348263E+03  0.14084229261E+04  0.12699999809E+01 0. -1.
       -4    1    3    3    0  502  0.92476631502E+03 -0.10561779356E+04 -0.18584838694E+04  0.23290917704E+04  0.12699999809E+01 0.  1.
</event>
<event>
 5   0  0.9268670E-07  0.3259307E+04  0.7818609E-02  0.8173328E-01
       -1   -1    0    0    0  501  0.00000000000E+00  0.00000000000E+00  0.11209668412E+04  0.11209668412E+04  0.50400001928E-02 0.  1.
        1   -1    0    0  501    0  0.00000000000E+00  0.00000000000E+00 -0.23691779544E+04  0.23691779544E+04  0.50400001928E-02 0. -1.
    10030    2    1    2    0    0  0.00000000000E+00  0.00000000000E+00 -0.12482111132E+04  0.34901447955E+04  0.32593066304E+04 0.  0.
        3    1    3    3  502    0 -0.79260021816E+03  0.22938114146E+03 -0.21289620245E+04  0.22832674232E+04  0.10100000352E+00 0. -1.
       -3    1    3    3    0  502  0.79260021816E+03 -0.22938114146E+03  0.88075091132E+03  0.12068773723E+04  0.10100000352E+00 0.  1.
</event>
<event>
 5   0  0.2705859E-06  0.3302025E+04  0.7818609E-02  0.8162380E-01
        2   -1    0    0  501    0  0.00000000000E+00  0.00000000000E+00  0.24973938064E+04  0.24973938064E+04  0.25500000920E-02 0. -1.
       -2   -1    0    0    0  501  0.00000000000E+00  0.00000000000E+00 -0.10914750226E+04  0.10914750226E+04  0.25500000920E-02 0.  1.
    10030    2    1    2    0    0  0.00000000000E+00  0.00000000000E+00  0.14059187839E+04  0.35888688290E+04  0.33020254155E+04 0.  0.
        1    1    3    3  502    0  0.93684554548E+03  0.54597353512E+03 -0.65021481042E+03  0.12643361803E+04  0.50400001928E-02 0.  1.
       -1    1    3    3    0  502 -0.93684554548E+03 -0.54597353512E+03  0.20561335943E+04  0.23245326487E+04  0.50400001928E-02 0. -1.
</event>
<event>
 5   0  0.8845526E-07  0.3286239E+04  0.7818609E-02  0.8166406E-01
        1   -1    0    0  501    0  0.00000000000E+00  0.00000000000E+00  0.10853754605E+04  0.10853754605E+04  0.50400001928E-02 0. -1.
       -1   -1    0    0    0  501  0.00000000000E+00  0.00000000000E+00 -0.24874719037E+04  0.24874719037E+04  0.50400001928E-02 0.  1.
    10030    2    1    2    0    0  0.00000000000E+00  0.00000000000E+00 -0.14020964431E+04  0.35728473642E+04  0.32862385568E+04 0.  0.
        1    1    3    3  502    0  0.10266427716E+04 -0.11345812852E+04 -0.13520810534E+04  0.20419092164E+04  0.50400001928E-02 0.  1.
       -1    1    3    3    0  502 -0.10266427716E+04  0.11345812852E+04 -0.50015389749E+02  0.15309381478E+04  0.50400001928E-02 0. -1.
</event>
<event>
 5   0  0.2674551E-06  0.3308810E+04  0.7818609E-02  0.8160657E-01
       -2   -1    0    0    0  501  0.00000000000E+00  0.00000000000E+00  0.13322383363E+04  0.13322383363E+04  0.25500000920E-02 0.  1.
        2   -1    0    0  501    0  0.00000000000E+00  0.00000000000E+00 -0.20544788481E+04  0.20544788481E+04  0.25500000920E-02 0. -1.
    10030    2    1    2    0    0  0.00000000000E+00  0.00000000000E+00 -0.72224051178E+03  0.33867171844E+04  0.33088097452E+04 0.  0.
        3    1    3    3  502    0  0.50416671956E+03  0.13890746795E+04  0.40026474377E+03  0.15309880540E+04  0.10100000352E+00 0.  1.
       -3    1    3    3    0  502 -0.50416671956E+03 -0.13890746795E+04 -0.11225052555E+04  0.18557291303E+04  0.10100000352E+00 0. -1.
</event>
<event>
 5   0  0.2674551E-06  0.3313379E+04  0.7818609E-02  0.8159500E-01
        2   -1    0    0  501    0  0.00000000000E+00  0.00000000000E+00  0.24807075859E+04  0.24807075859E+04  0.25500000920E-02 0.  1.
       -2   -1    0    0    0  501  0.00000000000E+00  0.00000000000E+00 -0.11063856632E+04  0.11063856632E+04  0.25500000920E-02 0. -1.
    10030    2    1    2    0    0  0.00000000000E+00  0.00000000000E+00  0.13743219227E+04  0.35870932490E+04  0.33133785220E+04 0.  0.
        3    1    3    3  502    0 -0.20005027310E+03  0.36046264947E+03 -0.10499679619E+04  0.11280009595E+04  0.10100000352E+00 0. -1.
       -3    1    3    3    0  502  0.20005027310E+03 -0.36046264947E+03  0.24242898846E+04  0.24590922895E+04  0.10100000352E+00 0.  1.
</event>
<event>
 5   0  0.2574803E-06  0.3256025E+04  0.7818609E-02  0.8174176E-01
        2   -1    0    0  501    0  0.00000000000E+00  0.00000000000E+00  0.16163273976E+04  0.16163273976E+04  0.25500000920E-02 0.  1.
       -2   -1    0    0    0  501  0.00000000000E+00  0.00000000000E+00 -0.16397819210E+04  0.16397819210E+04  0.25500000920E-02 0. -1.
    10030    2    1    2    0    0  0.00000000000E+00  0.00000000000E+00 -0.23454523460E+02  0.32561093186E+04  0.32560248433E+04 0.  0.
        4    1    3    3  502    0 -0.62741501349E+02  0.12625030172E+04 -0.10377034237E+04  0.16354450076E+04  0.12699999809E+01 0. -1.
       -4    1    3    3    0  502  0.62741501349E+02 -0.12625030172E+04  0.10142489002E+04  0.16206643110E+04  0.12699999809E+01 0.  1.
</event>
<event>
 5   0  0.9530268E-07  0.2770651E+04  0.7818609E-02  0.8312438E-01
       -1   -1    0    0    0  501  0.00000000000E+00  0.00000000000E+00  0.17202796545E+04  0.17202796545E+04  0.50400001928E-02 0. -1.
        1   -1    0    0  501    0  0.00000000000E+00  0.00000000000E+00 -0.11155899479E+04  0.11155899479E+04  0.50400001928E-02 0.  1.
    10030    2    1    2    0    0  0.00000000000E+00  0.00000000000E+00  0.60468970661E+03  0.28358696024E+04  0.27706509633E+04 0.  0.
        5    1    3    3  502    0  0.97673186482E+03 -0.12317674429E+03  0.12999290131E+04  0.16306486976E+04  0.46999998093E+01 0. -1.
       -5    1    3    3    0  502 -0.97673186482E+03  0.12317674429E+03 -0.69523930646E+03  0.12052209048E+04  0.46999998093E+01 0.  1.
</event>
<event>
 5   0  0.2574803E-06  0.3257774E+04  0.7818609E-02  0.8173724E-01
        2   -1    0    0  501    0  0.00000000000E+00  0.00000000000E+00  0.14678119173E+04  0.14678119173E+04  0.25500000920E-02 0. -1.
       -2   -1    0    0    0  501  0.00000000000E+00  0.00000000000E+00 -0.18076379045E+04  0.18076379045E+04  0.25500000920E-02 0.  1.
    10030    2    1    2    0    0  0.00000000000E+00  0.00000000000E+00 -0.33982598728E+03  0.32754498218E+04  0.32577737542E+04 0.  0.
        4    1    3    3  502    0 -0.83956089510E+03  0.49001892707E+03  0.11441942354E+04  0.15013870609E+04  0.12699999809E+01 0. -1.
       -4    1    3    3    0  502  0.83956089510E+03 -0.49001892707E+03 -0.14840202227E+04  0.17740627609E+04  0.12699999809E+01 0.  1.
</event>
<event>
 5   0  0.9530268E-07  0.3383235E+04  0.7818609E-02  0.8142033E-01
        1   -1    0    0  501    0  0.00000000000E+00  0.00000000000E+00  0.15645226990E+04  0.15645226990E+04  0.50400001928E-02 0. -1.
       -1   -1    0    0    0  501  0.00000000000E+00  0.00000000000E+00 -0.18290364205E+04  0.18290364205E+04  0.50400001928E-02 0.  1.
    10030    2    1    2    0    0  0.00000000000E+00  0.00000000000E+00 -0.26451372151E+03  0.33935591195E+04  0.33832345454E+04 0.  0.
        5    1    3    3  502    0 -0.72570725734E+03  0.15013971419E+04  0.15269193367E+03  0.16745689946E+04  0.46999998093E+01 0.  1.
       -5    1    3    3    0  502  0.72570725734E+03 -0.15013971419E+04 -0.41720565519E+03  0.17189901250E+04  0.46999998093E+01 0. -1.
</event>
<event>
 5   0  0.2705859E-06  0.2594955E+04  0.7818609E-02  0.8369917E-01
        2   -1    0    0  501    0  0.00000000000E+00  0.00000000000E+00  0.11082632389E+04  0.11082632389E+04  0.25500000920E-02 0. -1.
       -2   -1    0    0    0  501  0.00000000000E+00  0.00000000000E+00 -0.15189961592E+04  0.15189961592E+04  0.25500000920E-02 0.  1.
    10030    2    1    2    0    0  0.00000000000E+00  0.00000000000E+00 -0.41073292037E+03  0.26272593981E+04  0.25949547998E+04 0.  0.
        1    1    3    3  502    0  0.29116336484E+03 -0.12408233514E+04  0.40616789283E+02  0.12751738776E+04  0.50400001928E-02 0. -1.
       -1    1    3    3    0  502 -0.29116336484E+03  0.12408233514E+04 -0.45134970966E+03  0.13520855205E+04  0.50400001928E-02 0.  1.
</event>
<event>
 5   0  0.8705956E-07  0.3310476E+04  0.7818609E-02  0.8160235E-01
        1   -1    0    0  501    0  0.00000000000E+00  0.00000000000E+00  0.20743662975E+04  0.20743662975E+04  0.50400001928E-02 0.  1.
       -1   -1    0    0    0  501  0.00000000000E+00  0.00000000000E+00 -0.13207951011E+04  0.13207951011E+04  0.50400001928E-02 0. -1.
    10030    2    1    2    0    0  0.00000000000E+00  0.00000000000E+00  0.75357119641E+03  0.33951613986E+04  0.33104760043E+04 0.  0.
        2    1    3    3  502    0 -0.16689264474E+03  0.82148832850E+02  0.20636127125E+04  0.20719794914E+04  0.25500000920E-02 0.  1.
       -2    1    3    3    0  502  0.16689264474E+03 -0.82148832850E+02 -0.13100415161E+04  0.13231819072E+04  0.25500000920E-02 0. -1.
</event>
<event>
 5   0  0.2658600E-06  0.3158146E+04  0.7818609E-02  0.8199959E-01
        2   -1    0    0  501    0  0.00000000000E+00  0.00000000000E+00  0.27669443140E+04  0.27669443140E+04  0.25500000920E-02 0. -1.
       -2   -1    0    0    0  501  0.00000000000E+00  0.00000000000E+00 -0.90116440962E+03  0.90116440962E+03  0.25500000920E-02 0.  1.
    10030    2    1    2    0    0  0.00000000000E+00  0.00000000000E+00  0.18657799044E+04  0.36681087236E+04  0.31581461265E+04 0.  0.
        5    1    3    3  502    0  0.10754754550E+04 -0.91649628056E+03  0.11420493847E+03  0.14176310326E+04  0.46999998093E+01 0.  1.
       -5    1    3    3    0  502 -0.10754754550E+04  0.91649628056E+03  0.17515749659E+04  0.22504776910E+04  0.46999998093E+01 0. -1.
</event>
<event>
 5   0  0.9268670E-07  0.3158996E+04  0.7818609E-02  0.8199731E-01
       -1   -1    0    0    0  501  0.00000000000E+00  0.00000000000E+00  0.18108878263E+04  0.18108878263E+04  0.50400001928E-02 0. -1.
        1   -1    0    0  501    0  0.00000000000E+00  0.00000000000E+00 -0.13776748396E+04  0.13776748396E+04  0.50400001928E-02 0.  1.
    10030    2    1    2    0    0  0.00000000000E+00  0.00000000000E+00  0.43321298676E+03  0.31885626659E+04  0.31589964202E+04 0.  0.
        3    1    3    3  502    0  0.21874975837E+03  0.85400332872E+03  0.15394609906E+04  0.17740105112E+04  0.10100000352E+00 0. -1.
       -3    1    3    3    0  502 -0.21874975837E+03 -0.85400332872E+03 -0.11062480038E+04  0.14145521547E+04  0.10100000352E+00 0.  1.
</event>
<event>
 5   0  0.9268670E-07  0.3171826E+04  0.7818609E-02  0.8196298E-01
        1   -1    0    0  501    0  0.00000000000E+00  0.00000000000E+00  0.21836041419E+04  0.21836041419E+04  0.50400001928E-02 0. -1.
       -1   -1    0    0    0  501  0.00000000000E+00  0.00000000000E+00 -0.11518203846E+04  0.11518203846E+04  0.50400001928E-02 0.  1.
    10030    2    1    2    0    0  0.00000000000E+00  0.00000000000E+00  0.10317837572E+04  0.33354245265E+04  0.31718258228E+04 0.  0.
        3    1    3    3  502    0 -0.12973076355E+04 -0.89127090941E+03  0.31158007266E+03  0.16045102327E+04  0.10100000352E+00 0.  1.
       -3    1    3    3    0  502  0.12973076355E+04  0.89127090941E+03  0.72020368458E+03  0.17309142938E+04  0.10100000352E+00 0. -1.
</event>
<event>
 5   0  0.9268670E-07  0.3264026E+04  0.7818609E-02  0.8172110E-01
        1   -1    0    0  501    0  0.00000000000E+00  0.00000000000E+00  0.15613637738E+04  0.15613637738E+04  0.50400001928E-02 0. -1.
       -1   -1    0    0    0  501  0.00000000000E+00  0.00000000000E+00 -0.17058585789E+04  0.17058585789E+04  0.50400001928E-02 0.  1.
    10030    2    1    2    0    0  0.00000000000E+00  0.00000000000E+00 -0.14449480508E+03  0.32672223527E+04  0.32640256055E+04 0.  0.
        3    1    3    3  502    0  0.57403152906E+03  0.94448781677E+03 -0.12742133258E+04  0.16867688170E+04  0.10100000352E+00 0.  1.
       -3    1    3    3    0  502 -0.57403152906E+03 -0.94448781677E+03  0.11297185207E+04  0.15804535357E+04  0.10100000352E+00 0. -1.
</event>
<event>
 5   0  0.8705956E-07  0.3272158E+04  0.7818609E-02  0.8170016E-01
       -1   -1    0    0    0  501  0.00000000000E+00  0.00000000000E+00  0.10956350672E+04  0.10956350672E+04  0.50400001928E-02 0.  1.
        1   -1    0    0  501    0  0.00000000000E+00  0.00000000000E+00 -0.24431075851E+04  0.24431075851E+04  0.50400001928E-02 0. -1.
    10030    2    1    2    0    0  0.00000000000E+00  0.00000000000E+00 -0.13474725179E+04  0.35387426523E+04  0.32721579076E+04 0.  0.
        2    1    3    3  502    0  0.91441655690E+03  0.25822947167E+03  0.76665685801E+03  0.12209024685E+04  0.25500000920E-02 0.  1.
       -2    1    3    3    0  502 -0.91441655690E+03 -0.25822947167E+03 -0.21141293759E+04  0.23178401838E+04  0.25500000920E-02 0. -1.
</event>
<event>
 5   0  0.9530268E-07  0.3327800E+04  0.7818609E-02  0.8155857E-01
       -1   -1    0    0    0  501  0.00000000000E+00  0.00000000000E+00  0.11906763167E+04  0.11906763167E+04  0.50400001928E-02 0. -1.
        1   -1    0    0  501    0  0.00000000000E+00  0.00000000000E+00 -0.23252026421E+04  0.23252026421E+04  0.50400001928E-02 0.  1.
    10030    2    1    2    0    0  0.00000000000E+00  0.00000000000E+00 -0.11345263254E+04  0.35158789589E+04  0.33278003051E+04 0.  0.
        5    1    3    3  502    0 -0.40646801311E+03  0.99104328613E+03  0.77794473532E+03  0.13238591851E+04  0.46999998093E+01 0. -1.
       -5    1    3    3    0  502  0.40646801311E+03 -0.99104328613E+03 -0.19124710607E+04  0.21920197738E+04  0.46999998093E+01 0.  1.
</event>
<event>
 5   0  0.2658600E-06  0.3213106E+04  0.7818609E-02  0.8185364E-01
       -2   -1    0    0    0  501  0.00000000000E+00  0.00000000000E+00  0.21495079066E+04  0.21495079066E+04  0.25500000920E-02 0.  1.
        2   -1    0    0  501    0  0.00000000000E+00  0.00000000000E+00 -0.12007458246E+04  0.12007458246E+04  0.25500000920E-02 0. -1.
    10030    2    1    2    0    0  0.00000000000E+00  0.00000000000E+00  0.94876208193E+03  0.33502537312E+04  0.32131060635E+04 0.  0.
        5    1    3    3  502    0  0.12003365292E+03 -0.71362468596E+03  0.19699409095E+04  0.20986561289E+04  0.46999998093E+01 0.  1.
       -5    1    3    3    0  502 -0.12003365292E+03  0.71362468596E+03 -0.10211788276E+04  0.12515976023E+04  0.46999998093E+01 0. -1.
</event>
<event>
 5   0  0.8520125E-07  0.3281453E+04  0.7818609E-02  0.8167631E-01
        3   -1    0    0  501    0  0.00000000000E+00  0.00000000000E+00  0.12073006184E+04  0.12073006226E+04  0.10100000352E+00 0. -1.
       -3   -1    0    0    0  501  0.00000000000E+00  0.00000000000E+00 -0.22297539545E+04  0.22297539567E+04  0.10100000352E+00 0.  1.
    10030    2    1    2    0    0  0.00000000000E+00  0.00000000000E+00 -0.10224533361E+04  0.34370545794E+04  0.32814529338E+04 0.  0.
        1    1    3    3  502    0  0.57793601810E+02  0.64385880578E+03  0.10682891708E+04  0.12486536809E+04  0.50400001928E-02 0. -1.
       -1    1    3    3    0  502 -0.57793601810E+02 -0.64385880578E+03 -0.20907425069E+04  0.21884008985E+04  0.50400001928E-02 0.  1.
</event>
<event>
 5   0  0.2705859E-06  0.3326551E+04  0.7818609E-02  0.8156172E-01
       -2   -1    0    0    0  501  0.00000000000E+00  0.00000000000E+00  0.20722704085E+04  0.20722704085E+04  0.25500000920E-02 0.  1.
        2   -1    0    0  501    0  0.00000000000E+00  0.00000000000E+00 -0.13350022643E+04  0.13350022643E+04  0.25500000920E-02 0. -1.
    10030    2    1    2    0    0  0.00000000000E+00  0.00000000000E+00  0.73726814423E+03  0.34072726728E+04  0.33265511795E+04 0.  0.
        1    1    3    3  502    0 -0.93292804060E+03  0.11903377113E+04 -0.34042654013E+03  0.15502092843E+04  0.50400001928E-02 0. -1.
       -1    1    3    3    0  502  0.93292804060E+03 -0.11903377113E+04  0.10776946844E+04  0.18570633884E+04  0.50400001928E-02 0.  1.
</event>
<event>
 5   0  0.8845526E-07  0.3387160E+04  0.7818609E-02  0.8141065E-01
       -1   -1    0    0    0  501  0.00000000000E+00  0.00000000000E+00  0.10878951005E+04  0.10878951005E+04  0.50400001928E-02 0.  1.
        1   -1    0    0  501    0  0.00000000000E+00  0.00000000000E+00 -0.26364794382E+04  0.26364794382E+04  0.50400001928E-02 0. -1.
    10030    2    1    2    0    0  0.00000000000E+00  0.00000000000E+00 -0.15485843378E+04  0.37243745387E+04  0.33871599096E+04 0.  0.
        1    1    3    3  502    0 -0.17655219075E+03 -0.12468824591E+04  0.47084432088E+03  0.13444630592E+04  0.50400001928E-02 0.  1.
       -1    1    3    3    0  502  0.17655219075E+03  0.12468824591E+04 -0.20194286586E+04  0.23799114795E+04  0.50400001928E-02 0. -1.
</event>
<event>
 5   0  0.2574803E-06  0.3080337E+04  0.7818609E-02  0.8221155E-01
        2   -1    0    0  501    0  0.00000000000E+00  0.00000000000E+00  0.29491834637E+04  0.29491834637E+04  0.25500000920E-02 0.  1.
       -2   -1    0    0    0  501  0.00000000000E+00  0.00000000000E+00 -0.80433088363E+03  0.80433088363E+03  0.25500000920E-02 0. -1.
    10030    2    1    2    0    0  0.00000000000E+00  0.00000000000E+00  0.21448525801E+04  0.37535143474E+04  0.30803372162E+04 0.  0.
        4    1    3    3  502    0 -0.11209843977E+04 -0.72882082670E+03  0.20038978931E+04  0.24090234943E+04  0.12699999809E+01 0.  1.
       -4    1    3    3    0  502  0.11209843977E+04  0.72882082670E+03  0.14095468701E+03  0.13444908531E+04  0.12699999809E+01 0. -1.
</event>
<event>
 5   0  0.2674551E-06  0.3260946E+04  0.7818609E-02  0.8172904E-01
        2   -1    0    0  501    0  0.00000000000E+00  0.00000000000E+00  0.12108878738E+04  0.12108878738E+04  0.25500000920E-02 0. -1.
       -2   -1    0    0    0  501  0.00000000000E+00  0.00000000000E+00 -0.21954492008E+04  0.21954492008E+04  0.25500000920E-02 0.  1.
    10030    2    1    2    0    0  0.00000000000E+00  0.00000000000E+00 -0.98456132696E+03  0.34063370746E+04  0.32609463748E+04 0.  0.
        3    1    3    3  502    0  0.10360284829E+04  0.10572034154E+04 -0.12064354843E+04  0.19095865173E+04  0.10100000352E+00 0.  1.
       -3    1    3    3    0  502 -0.10360284829E+04 -0.10572034154E+04  0.22187415734E+03  0.14967505573E+04  0.10100000352E+00 0. -1.
</event>
<event>
 5   0  0.9268670E-07  0.2981402E+04  0.7818609E-02  0.8249062E-01
       -1   -1    0    0    0  501  0.00000000000E+00  0.00000000000E+00  0.14537175790E+04  0.14537175790E+04  0.50400001928E-02 0. -1.
        1   -1    0    0  501    0  0.00000000000E+00  0.00000000000E+00 -0.15286253746E+04  0.15286253746E+04  0.50400001928E-02 0.  1.
    10030    2    1    2    0    0  0.00000000000E+00  0.00000000000E+00 -0.74907795563E+02  0.29823429537E+04  0.29814020721E+04 0.  0.
        3    1    3    3  502    0  0.22675528026E+02  0.91586771364E+02 -0.15256354818E+04  0.15285502772E+04  0.10100000352E+00 0.  1.
       -3    1    3    3    0  502 -0.22675528026E+02 -0.91586771364E+02  0.14507276863E+04  0.14537926765E+04  0.10100000352E+00 0. -1.
</event>
<event>
 5   0  0.9530268E-07  0.3322997E+04  0.7818609E-02  0.8157068E-01
       -1   -1    0    0    0  501  0.00000000000E+00  0.00000000000E+00  0.16900354291E+04  0.16900354291E+04  0.50400001928E-02 0. -1.
        1   -1    0    0  501    0  0.00000000000E+00  0.00000000000E+00 -0.16334431674E+04  0.16334431674E+04  0.50400001928E-02 0.  1.
    10030    2    1    2    0    0  0.00000000000E+00  0.00000000000E+00  0.56592261675E+02  0.33234785966E+04  0.33229967345E+04 0.  0.
        5    1    3    3  502    0  0.81661024135E+03  0.13973183427E+04  0.40412169094E+03  0.16681388636E+04  0.46999998093E+01 0. -1.
       -5    1    3    3    0  502 -0.81661024135E+03 -0.13973183427E+04 -0.34752942927E+03  0.16553397329E+04  0.46999998093E+01 0.  1.
</event>
<event>
 5   0  0.9295663E-07  0.3494701E+04  0.7818609E-02  0.8115047E-01
       -1   -1    0    0    0  501  0.00000000000E+00  0.00000000000E+00  0.14628856336E+04  0.14628856336E+04  0.50400001928E-02 0. -1.
        1   -1    0    0  501    0  0.00000000000E+00  0.00000000000E+00 -0.20871311464E+04  0.20871311464E+04  0.50400001928E-02 0.  1.
    10030    2    1    2    0    0  0.00000000000E+00  0.00000000000E+00 -0.62424551288E+03  0.35500167800E+04  0.34947012287E+04 0.  0.
        4    1    3    3  502    0  0.67652811352E+01  0.76515231388E+03 -0.19078882189E+04  0.20556125368E+04  0.12699999809E+01 0.  1.
       -4    1    3    3    0  502 -0.67652811352E+01 -0.76515231388E+03  0.12836427061E+04  0.14944042432E+04  0.12699999809E+01 0. -1.
</event>
<event>
 5   0  0.2674551E-06  0.3337494E+04  0.7818609E-02  0.8153420E-01
       -2   -1    0    0    0  501  0.00000000000E+00  0.00000000000E+00  0.88324796569E+03  0.88324796570E+03  0.25500000920E-02 0.  1.
        2   -1    0    0  501    0  0.00000000000E+00  0.00000000000E+00 -0.31528136810E+04  0.31528136810E+04  0.25500000920E-02 0. -1.
    10030    2    1    2    0    0  0.00000000000E+00  0.00000000000E+00 -0.22695657153E+04  0.40360616467E+04  0.33374938322E+04 0.  0.
        3    1    3    3  502    0 -0.47230743788E+03  0.10856828279E+04 -0.25569091398E+04  0.28177235276E+04  0.10100000352E+00 0. -1.
       -3    1    3    3    0  502  0.47230743788E+03 -0.10856828279E+04  0.28734342449E+03  0.12183381191E+04  0.10100000352E+00 0.  1.
</event>
<event>
 5   0  0.2614212E-06  0.3322617E+04  0.7818609E-02  0.8157164E-01
       -2   -1    0    0    0  501  0.00000000000E+00  0.00000000000E+00  0.15939492763E+04  0.15939492763E+04  0.25500000920E-02 0. -1.
        2   -1    0    0  501    0  0.00000000000E+00  0.00000000000E+00 -0.17315145341E+04  0.17315145341E+04  0.25500000920E-02 0.  1.
    10030    2    1    2    0    0  0.00000000000E+00  0.00000000000E+00 -0.13756525777E+03  0.33254638105E+04  0.33226172447E+04 0.  0.
        2    1    3    3  502    0  0.13960486154E+04 -0.64042610993E+03 -0.70245141301E+03  0.16889450336E+04  0.25500000920E-02 0.  1.
       -2    1    3    3    0  502 -0.13960486154E+04  0.64042610993E+03  0.56488615524E+03  0.16365187769E+04  0.25500000920E-02 0. -1.
</event>
<event>
 5   0  0.2674551E-06  0.3396847E+04  0.7818609E-02  0.8138681E-01
        2   -1    0    0  501    0  0.00000000000E+00  0.00000000000E+00  0.13757723736E+04  0.13757723736E+04  0.25500000920E-02 0.  1.
       -2   -1    0    0    0  501  0.00000000000E+00  0.00000000000E+00 -0.20967433658E+04  0.20967433658E+04  0.25500000920E-02 0. -1.
    10030    2    1    2    0    0  0.00000000000E+00  0.00000000000E+00 -0.72097099222E+03  0.34725157394E+04  0.33968465360E+04 0.  0.
        3    1    3    3  502    0 -0.16948096755E+04  0.22108079281E+02 -0.47140593274E+03  0.17592874031E+04  0.10100000352E+00 0. -1.
       -3    1    3    3    0  502  0.16948096755E+04 -0.22108079281E+02 -0.24956505947E+03  0.17132283363E+04  0.10100000352E+00 0.  1.
</event>
<event>
 5   0  0.2614212E-06  0.3300533E+04  0.7818609E-02  0.8162760E-01
        2   -1    0    0  501    0  0.00000000000E+00  0.00000000000E+00  0.19095227076E+04  0.19095227076E+04  0.25500000920E-02 0.  1.
       -2   -1    0    0    0  501  0.00000000000E+00  0.00000000000E+00 -0.14262098578E+04  0.14262098578E+04  0.25500000920E-02 0. -1.
    10030    2    1    2    0    0  0.00000000000E+00  0.00000000000E+00  0.48331284980E+03  0.33357325653E+04  0.33005333564E+04 0.  0.
        2    1    3    3  502    0 -0.11581943520E+04  0.86011412770E+03 -0.56824466445E+03  0.15505200638E+04  0.25500000920E-02 0. -1.
       -2    1    3    3    0  502  0.11581943520E+04 -0.86011412770E+03  0.10515575143E+04  0.17852125015E+04  0.25500000920E-02 0.  1.
</event>
<event>
 5   0  0.2674551E-06  0.2990671E+04  0.7818609E-02  0.8246400E-01
       -2   -1    0    0    0  501  0.00000000000E+00  0.00000000000E+00  0.10348473566E+04  0.10348473566E+04  0.25500000920E-02 0. -1.
        2   -1    0    0  501    0  0.00000000000E+00  0.00000000000E+00 -0.21607331362E+04  0.21607331362E+04  0.25500000920E-02 0.  1.
    10030    2    1    2    0    0  0.00000000000E+00  0.00000000000E+00 -0.11258857796E+04  0.31955804928E+04  0.29906714793E+04 0.  0.
        3    1    3    3  502    0  0.42347021311E+03 -0.86385487968E+03 -0.17861285706E+04  0.20287502447E+04  0.10100000352E+00 0.  1.
       -3    1    3    3    0  502 -0.42347021311E+03  0.86385487968E+03  0.66024279096E+03  0.11668302480E+04  0.10100000352E+00 0. -1.
</event>
<event>
 5   0  0.2658600E-06  0.2937070E+04  0.7818609E-02  0.8261933E-01
       -2   -1    0    0    0  501  0.00000000000E+00  0.00000000000E+00  0.71063560053E+03  0.71063560053E+03  0.25500000920E-02 0. -1.
        2   -1    0    0  501    0  0.00000000000E+00  0.00000000000E+00 -0.30347416665E+04  0.30347416665E+04  0.25500000920E-02 0.  1.
    10030    2    1    2    0    0  0.00000000000E+00  0.00000000000E+00 -0.23241060659E+04  0.37453772670E+04  0.29370702863E+04 0.  0.
        5    1    3    3  502    0 -0.78554823271E+03  0.78996614423E+03  0.58049623351E+02  0.11155825311E+04  0.46999998093E+01 0. -1.
       -5    1    3    3    0  502  0.78554823271E+03 -0.78996614423E+03 -0.23821556893E+04  0.26297947359E+04  0.46999998093E+01 0.  1.
</event>
<event>
 5   0  0.2574803E-06  0.3291523E+04  0.7818609E-02  0.8165056E-01
        2   -1    0    0  501    0  0.00000000000E+00  0.00000000000E+00  0.25225046013E+04  0.25225046013E+04  0.25500000920E-02 0. -1.
       -2   -1    0    0    0  501  0.00000000000E+00  0.00000000000E+00 -0.10737464909E+04  0.10737464909E+04  0.25500000920E-02 0.  1.
    10030    2    1    2    0    0  0.00000000000E+00  0.00000000000E+00  0.14487581104E+04  0.35962510922E+04  0.32915227260E+04 0.  0.
        4    1    3    3  502    0  0.83033094429E+03 -0.95005670627E+03  0.18788340167E+04  0.22632004104E+04  0.12699999809E+01 0. -1.
       -4    1    3    3    0  502 -0.83033094429E+03  0.95005670627E+03 -0.43007590632E+03  0.13330506818E+04  0.12699999809E+01 0.  1.
</event>
<event>
 5   0  0.2574803E-06  0.3373112E+04  0.7818609E-02  0.8144537E-01
        2   -1    0    0  501    0  0.00000000000E+00  0.00000000000E+00  0.25602778062E+04  0.25602778062E+04  0.25500000920E-02 0. -1.
       -2   -1    0    0    0  501  0.00000000000E+00  0.00000000000E+00 -0.11110011117E+04  0.11110011117E+04  0.25500000920E-02 0.  1.
    10030    2    1    2    0    0  0.00000000000E+00  0.00000000000E+00  0.14492766946E+04  0.36712789179E+04  0.33731122062E+04 0.  0.
        4    1    3    3  502    0  0.24332541163E+03  0.15992293392E+04  0.12440299721E+04  0.20406748687E+04  0.12699999809E+01 0. -1.
       -4    1    3    3    0  502 -0.24332541163E+03 -0.15992293392E+04  0.20524672247E+03  0.16306040492E+04  0.12699999809E+01 0.  1.
</event>
<event>
 5   0  0.8845526E-07  0.2508468E+04  0.7818609E-02  0.8399975E-01
        1   -1    0    0  501    0  0.00000000000E+00  0.00000000000E+00  0.12513622670E+04  0.12513622670E+04  0.50400001928E-02 0. -1.
       -1   -1    0    0    0  501  0.00000000000E+00  0.00000000000E+00 -0.12571123956E+04  0.12571123956E+04  0.50400001928E-02 0.  1.
    10030    2    1    2    0    0  0.00000000000E+00  0.00000000000E+00 -0.57501285499E+01  0.25084746626E+04  0.25084680721E+04 0.  0.
        1    1    3    3  502    0 -0.53619308683E+02  0.96870719053E+03  0.79200711945E+03  0.12524152381E+04  0.50400001928E-02 0. -1.
       -1    1    3    3    0  502  0.53619308683E+02 -0.96870719053E+03 -0.79775724800E+03  0.12560594245E+04  0.50400001928E-02 0.  1.
</event>
<event>
 5   0  0.2614212E-06  0.3269514E+04  0.7818609E-02  0.8170696E-01
       -2   -1    0    0    0  501  0.00000000000E+00  0.00000000000E+00  0.16881883290E+04  0.16881883290E+04  0.25500000920E-02 0.  1.
        2   -1    0    0  501    0  0.00000000000E+00  0.00000000000E+00 -0.15830169965E+04  0.15830169965E+04  0.25500000920E-02 0. -1.
    10030    2    1    2    0    0  0.00000000000E+00  0.00000000000E+00  0.10517133252E+03  0.32712053254E+04  0.32695142257E+04 0.  0.
        2    1    3    3  502    0  0.42371070853E+03  0.15112850912E+04 -0.40472560657E+03  0.16208998143E+04  0.25500000920E-02 0. -1.
       -2    1    3    3    0  502 -0.42371070853E+03 -0.15112850912E+04  0.50989693909E+03  0.16503055111E+04  0.25500000920E-02 0.  1.
</event>
<event>
 5   0  0.9530268E-07  0.3351605E+04  0.7818609E-02  0.8149887E-01
       -1   -1    0    0    0  501  0.00000000000E+00  0.00000000000E+00  0.26961282755E+04  0.26961282755E+04  0.50400001928E-02 0. -1.
        1   -1    0    0  501    0  0.00000000000E+00  0.00000000000E+00 -0.10416100560E+04  0.10416100560E+04  0.50400001928E-02 0.  1.
    10030    2    1    2    0    0  0.00000000000E+00  0.00000000000E+00  0.16545182195E+04  0.37377383315E+04  0.33516051820E+04 0.  0.
        5    1    3    3  502    0  0.67214678619E+03 -0.15349081234E+04  0.80068098972E+03  0.18571043016E+04  0.46999998093E+01 0. -1.
       -5    1    3    3    0  502 -0.67214678619E+03  0.15349081234E+04  0.85383722976E+03  0.18806340299E+04  0.46999998093E+01 0.  1.
</event>
<event>
 5   0  0.8845526E-07  0.3280649E+04  0.7818609E-02  0.8167837E-01
       -1   -1    0    0    0  501  0.00000000000E+00  0.00000000000E+00  0.11205909600E+04  0.11205909601E+04  0.50400001928E-02 0.  1.
        1   -1    0    0  501    0  0.00000000000E+00  0.00000000000E+00 -0.24011124962E+04  0.24011124962E+04  0.50400001928E-02 0. -1.
    10030    2    1    2    0    0  0.00000000000E+00  0.00000000000E+00 -0.12805215362E+04  0.35217034563E+04  0.32806493000E+04 0.  0.
        1    1    3    3  502    0 -0.11733453487E+03  0.46908322058E+03  0.10423476158E+04  0.11490409101E+04  0.50400001928E-02 0.  1.
       -1    1    3    3    0  502  0.11733453487E+03 -0.46908322058E+03 -0.23228691520E+04  0.23726625462E+04  0.50400001928E-02 0. -1.
</event>
<event>
 5   0  0.9530268E-07  0.3289567E+04  0.7818609E-02  0.8165555E-01
        1   -1    0    0  501    0  0.00000000000E+00  0.00000000000E+00  0.10236091982E+04  0.10236091982E+04  0.50400001928E-02 0. -1.
       -1   -1    0    0    0  501  0.00000000000E+00  0.00000000000E+00 -0.26429158786E+04  0.26429158786E+04  0.50400001928E-02 0.  1.
    10030    2    1    2    0    0  0.00000000000E+00  0.00000000000E+00 -0.16193066804E+04  0.36665250769E+04  0.32895671469E+04 0.  0.
        5    1    3    3  502    0  0.10083685491E+03  0.16271862281E+04 -0.56702067174E+03  0.17261047548E+04  0.46999998093E+01 0.  1.
       -5    1    3    3    0  502 -0.10083685491E+03 -0.16271862281E+04 -0.10522860087E+04  0.19404203221E+04  0.46999998093E+01 0. -1.
</event>
<event>
 5   0  0.2705859E-06  0.2995819E+04  0.7818609E-02  0.8244926E-01
        2   -1    0    0  501    0  0.00000000000E+00  0.00000000000E+00  0.20694209299E+04  0.20694209299E+04  0.25500000920E-02 0. -1.
       -2   -1    0    0    0  501  0.00000000000E+00  0.00000000000E+00 -0.10842321369E+04  0.10842321369E+04  0.25500000920E-02 0.  1.
    10030    2    1    2    0    0  0.00000000000E+00  0.00000000000E+00  0.98518879297E+03  0.31536530667E+04  0.29958188710E+04 0.  0.
        1    1    3    3  502    0  0.20106824374E+03  0.86150367761E+03 -0.77985540790E+03  0.11793182278E+04  0.50400001928E-02 0.  1.
       -1    1    3    3    0  502 -0.20106824374E+03 -0.86150367761E+03  0.17650442009E+04  0.19743348389E+04  0.50400001928E-02 0. -1.
</event>
<event>
 5   0  0.2674551E-06  0.3288675E+04  0.7818609E-02  0.8165783E-01
       -2   -1    0    0    0  501  0.00000000000E+00  0.00000000000E+00  0.16881851246E+04  0.16881851246E+04  0.25500000920E-02 0.  1.
        2   -1    0    0  501    0  0.00000000000E+00  0.00000000000E+00 -0.16016286533E+04  0.16016286533E+04  0.25500000920E-02 0. -1.
    10030    2    1    2    0    0  0.00000000000E+00  0.00000000000E+00  0.86556471310E+02  0.32898137780E+04  0.32886749111E+04 0.  0.
        3    1    3    3  502    0 -0.60003068783E+03  0.27121774191E+03  0.15505348207E+04  0.16845634836E+04  0.10100000352E+00 0.  1.
       -3    1    3    3    0  502  0.60003068783E+03 -0.27121774191E+03 -0.14639783494E+04  0.16052502944E+04  0.10100000352E+00 0. -1.
</event>
<event>
 5   0  0.2658600E-06  0.3312523E+04  0.7818609E-02  0.8159716E-01
        2   -1    0    0  501    0  0.00000000000E+00  0.00000000000E+00  0.26506888040E+04  0.26506888040E+04  0.25500000920E-02 0. -1.
       -2   -1    0    0    0  501  0.00000000000E+00  0.00000000000E+00 -0.10349015406E+04  0.10349015406E+04  0.25500000920E-02 0.  1.
    10030    2    1    2    0    0  0.00000000000E+00  0.00000000000E+00  0.16157872634E+04  0.36855903445E+04  0.33125228614E+04 0.  0.
        5    1    3    3  502    0 -0.13973607017E+03  0.13108551986E+04 -0.30768112566E+03  0.13537197960E+04  0.46999998093E+01 0.  1.
       -5    1    3    3    0  502  0.13973607017E+03 -0.13108551986E+04  0.19234683891E+04  0.23318705485E+04  0.46999998093E+01 0. -1.
</event>
<event>
 5   0  0.9530268E-07  0.3240158E+04  0.7818609E-02  0.8178291E-01
       -1   -1    0    0    0  501  0.00000000000E+00  0.00000000000E+00  0.15234754685E+04  0.15234754685E+04  0.50400001928E-02 0. -1.
        1   -1    0    0  501    0  0.00000000000E+00  0.00000000000E+00 -0.17228080034E+04  0.17228080034E+04  0.50400001928E-02 0.  1.
    10030    2    1    2    0    0  0.00000000000E+00  0.00000000000E+00 -0.19933253492E+03  0.32462834719E+04  0.32401578543E+04 0.  0.
        5    1    3    3  502    0  0.58546152783E+03 -0.14389833357E+04  0.36076255083E+03  0.15948698847E+04  0.46999998093E+01 0. -1.
       -5    1    3    3    0  502 -0.58546152783E+03  0.14389833357E+04 -0.56009508575E+03  0.16514135872E+04  0.46999998093E+01 0.  1.
</event>
<event>
 5   0  0.2674551E-06  0.3282541E+04  0.7818609E-02  0.8167352E-01
       -2   -1    0    0    0  501  0.00000000000E+00  0.00000000000E+00  0.15567868670E+04  0.15567868670E+04  0.25500000920E-02 0.  1.
        2   -1    0    0  501    0  0.00000000000E+00  0.00000000000E+00 -0.17303389553E+04  0.17303389553E+04  0.25500000920E-02 0. -1.
    10030    2    1    2    0    0  0.00000000000E+00  0.00000000000E+00 -0.17355208838E+03  0.32871258223E+04  0.32825410651E+04 0.  0.
        3    1    3    3  502    0 -0.12463032700E+04  0.94832950642E+03 -0.57855080140E+03  0.16695273983E+04  0.10100000352E+00 0. -1.
       -3    1    3    3    0  502  0.12463032700E+04 -0.94832950642E+03  0.40499871302E+03  0.16175984240E+04  0.10100000352E+00 0.  1.
</event>
<event>
 5   0  0.2574803E-06  0.3226155E+04  0.7818609E-02  0.8181944E-01
        2   -1    0    0  501    0  0.00000000000E+00  0.00000000000E+00  0.75500009913E+03  0.75500009914E+03  0.25500000920E-02 0. -1.
       -2   -1    0    0    0  501  0.00000000000E+00  0.00000000000E+00 -0.34463824016E+04  0.34463824016E+04  0.25500000920E-02 0.  1.
    10030    2    1    2    0    0  0.00000000000E+00  0.00000000000E+00 -0.26913823025E+04  0.42013825008E+04  0.32261550210E+04 0.  0.
        4    1    3    3  502    0 -0.11647916442E+04 -0.73748708254E+03 -0.25503718578E+03  0.14020243758E+04  0.12699999809E+01 0. -1.
       -4    1    3    3    0  502  0.11647916442E+04  0.73748708254E+03 -0.24363451167E+04  0.27993581250E+04  0.12699999809E+01 0.  1.
</event>
<event>
 5   0  0.2658600E-06  0.3272688E+04  0.7818609E-02  0.8169880E-01
        2   -1    0    0  501    0  0.00000000000E+00  0.00000000000E+00  0.12344897103E+04  0.12344897103E+04  0.25500000920E-02 0. -1.
       -2   -1    0    0    0  501  0.00000000000E+00  0.00000000000E+00 -0.21690109818E+04  0.21690109818E+04  0.25500000920E-02 0.  1.
    10030    2    1    2    0    0  0.00000000000E+00  0.00000000000E+00 -0.93452127155E+03  0.34035006921E+04  0.32726880319E+04 0.  0.
        5    1    3    3  502    0 -0.58146124020E+03  0.41236325648E+03 -0.19990426307E+04  0.21223416687E+04  0.46999998093E+01 0.  1.
       -5    1    3    3    0  502  0.58146124020E+03 -0.41236325648E+03  0.10645213592E+04  0.12811590234E+04  0.46999998093E+01 0. -1.
</event>
<event>
 5   0  0.9530268E-07  0.3254084E+04  0.7818609E-02  0.8174678E-01
       -1   -1    0    0    0  501  0.00000000000E+00  0.00000000000E+00  0.12804984070E+04  0.12804984070E+04  0.50400001928E-02 0. -1.
        1   -1    0    0  501    0  0.00000000000E+00  0.00000000000E+00 -0.20673711010E+04  0.20673711010E+04  0.50400001928E-02 0.  1.
    10030    2    1    2    0    0  0.00000000000E+00  0.00000000000E+00 -0.78687269391E+03  0.33478695080E+04  0.32540838352E+04 0.  0.
        5    1    3    3  502    0 -0.63097373436E+02  0.26002350678E+01 -0.20661027658E+04  0.20670729955E+04  0.46999998093E+01 0.  1.
       -5    1    3    3    0  502  0.63097373436E+02 -0.26002350678E+01  0.12792300719E+04  0.12807965125E+04  0.46999998093E+01 0. -1.
</event>
<event>
 5   0  0.2674551E-06  0.3257461E+04  0.7818609E-02  0.8173805E-01
       -2   -1    0    0    0  501  0.00000000000E+00  0.00000000000E+00  0.12980368126E+04  0.12980368126E+04  0.25500000920E-02 0.  1.
        2   -1    0    0  501    0  0.00000000000E+00  0.00000000000E+00 -0.20436731516E+04  0.20436731516E+04  0.25500000920E-02 0. -1.
    10030    2    1    2    0    0  0.00000000000E+00  0.00000000000E+00 -0.74563633898E+03  0.33417099642E+04  0.32574609644E+04 0.  0.
        3    1    3    3  502    0 -0.15266277654E+04 -0.46420755876E+03 -0.37748535683E+02  0.15960908351E+04  0.10100000352E+00 0.  1.
       -3    1    3    3    0  502  0.15266277654E+04  0.46420755876E+03 -0.70788780329E+03  0.17456191291E+04  0.10100000352E+00 0. -1.
</event>
<event>
 5   0  0.2705859E-06  0.3329327E+04  0.7818609E-02  0.8155473E-01
        2   -1    0    0  501    0  0.00000000000E+00  0.00000000000E+00  0.16690497787E+04  0.16690497787E+04  0.25500000920E-02 0. -1.
       -2   -1    0    0    0  501  0.00000000000E+00  0.00000000000E+00 -0.16602889932E+04  0.16602889932E+04  0.25500000920E-02 0.  1.
    10030    2    1    2    0    0  0.00000000000E+00  0.00000000000E+00  0.87607854845E+01  0.33293387720E+04  0.33293272454E+04 0.  0.
        1    1    3    3  502    0  0.75618507781E+03 -0.14816668180E+04  0.67249881393E+02  0.16648348201E+04  0.50400001928E-02 0. -1.
       -1    1    3    3    0  502 -0.75618507781E+03  0.14816668180E+04 -0.58489095908E+02  0.16645039519E+04  0.50400001928E-02 0.  1.
</event>
<event>
 5   0  0.2574803E-06  0.3365440E+04  0.7818609E-02  0.8146441E-01
        2   -1    0    0  501    0  0.00000000000E+00  0.00000000000E+00  0.19656125450E+04  0.19656125450E+04  0.25500000920E-02 0. -1.
       -2   -1    0    0    0  501  0.00000000000E+00  0.00000000000E+00 -0.14405415600E+04  0.14405415600E+04  0.25500000920E-02 0.  1.
    10030    2    1    2    0    0  0.00000000000E+00  0.00000000000E+00  0.52507098498E+03  0.34061541050E+04  0.33654399783E+04 0.  0.
        4    1    3    3  502    0  0.15546804539E+04  0.53089529452E+03 -0.10610131397E+03  0.16462503544E+04  0.12699999809E+01 0.  1.
       -4    1    3    3    0  502 -0.15546804539E+04 -0.53089529452E+03  0.63117229896E+03  0.17599037506E+04  0.12699999809E+01 0. -1.
</event>
<event>
 5   0  0.2705859E-06  0.3260120E+04  0.7818609E-02  0.8173118E-01
       -2   -1    0    0    0  501  0.00000000000E+00  0.00000000000E+00  0.12010010271E+04  0.12010010271E+04  0.25500000920E-02 0.  1.
        2   -1    0    0  501    0  0.00000000000E+00  0.00000000000E+00 -0.22124008368E+04  0.22124008368E+04  0.25500000920E-02 0. -1.
    10030    2    1    2    0    0  0.00000000000E+00  0.00000000000E+00 -0.10113998097E+04  0.34134018639E+04  0.32601200452E+04 0.  0.
        1    1    3    3  502    0 -0.36316966099E+02 -0.15253345755E+04  0.94973422662E+02  0.15287198698E+04  0.50400001928E-02 0.  1.
       -1    1    3    3    0  502  0.36316966099E+02  0.15253345755E+04 -0.11063732324E+04  0.18846819941E+04  0.50400001928E-02 0. -1.
</event>
<event>
 5   0  0.2674551E-06  0.3268286E+04  0.7818609E-02  0.8171012E-01
        2   -1    0    0  501    0  0.00000000000E+00  0.00000000000E+00  0.27693527388E+04  0.27693527388E+04  0.25500000920E-02 0.  1.
       -2   -1    0    0    0  501  0.00000000000E+00  0.00000000000E+00 -0.96427731217E+03  0.96427731218E+03  0.25500000920E-02 0. -1.
    10030    2    1    2    0    0  0.00000000000E+00  0.00000000000E+00  0.18050754266E+04  0.37336300510E+04  0.32682864106E+04 0.  0.
        3    1    3    3  502    0 -0.65666251817E+03  0.14790364719E+04  0.64286391789E+03  0.17412721140E+04  0.10100000352E+00 0.  1.
       -3    1    3    3    0  502  0.65666251817E+03 -0.14790364719E+04  0.11622115088E+04  0.19923579370E+04  0.10100000352E+00 0. -1.
</event>
<event>
 5   0  0.2614212E-06  0.3293793E+04  0.7818609E-02  0.8164476E-01
       -2   -1    0    0    0  501  0.00000000000E+00  0.00000000000E+00  0.88689368690E+03  0.88689368690E+03  0.25500000920E-02 0.  1.
        2   -1    0    0  501    0  0.00000000000E+00  0.00000000000E+00 -0.30581664808E+04  0.30581664808E+04  0.25500000920E-02 0. -1.
    10030    2    1    2    0    0  0.00000000000E+00  0.00000000000E+00 -0.21712727939E+04  0.39450601677E+04  0.32937932815E+04 0.  0.
        2    1    3    3  502    0 -0.94209208941E+03  0.11875590090E+04 -0.31458147068E+03  0.15481587149E+04  0.25500000920E-02 0.  1.
       -2    1    3    3    0  502  0.94209208941E+03 -0.11875590090E+04 -0.18566913232E+04  0.23969014528E+04  0.25500000920E-02 0. -1.
</event>
<event>
 5   0  0.2705859E-06  0.3335716E+04  0.7818609E-02  0.8153867E-01
       -2   -1    0    0    0  501  0.00000000000E+00  0.00000000000E+00  0.13770111677E+04  0.13770111677E+04  0.25500000920E-02 0.  1.
        2   -1    0    0  501    0  0.00000000000E+00  0.00000000000E+00 -0.20201359278E+04  0.20201359278E+04  0.25500000920E-02 0. -1.
    10030    2    1    2    0    0  0.00000000000E+00  0.00000000000E+00 -0.64312476010E+03  0.33971470954E+04  0.33357156550E+04 0.  0.
        1    1    3    3  502    0 -0.16478311634E+04  0.25559927643E+03 -0.28823044571E+03  0.16922633728E+04  0.50400001928E-02 0. -1.
       -1    1    3    3    0  502  0.16478311634E+04 -0.25559927643E+03 -0.35489431439E+03  0.17048837226E+04  0.50400001928E-02 0.  1.
</event>
<event>
 5   0  0.2614212E-06  0.3502758E+04  0.7818609E-02  0.8113137E-01
        2   -1    0    0  501    0  0.00000000000E+00  0.00000000000E+00  0.16748164442E+04  0.16748164442E+04  0.25500000920E-02 0. -1.
       -2   -1    0    0    0  501  0.00000000000E+00  0.00000000000E+00 -0.18314414727E+04  0.18314414727E+04  0.25500000920E-02 0.  1.
    10030    2    1    2    0    0  0.00000000000E+00  0.00000000000E+00 -0.15662502850E+03  0.35062579168E+04  0.35027579391E+04 0.  0.
        2    1    3    3  502    0 -0.14704836793E+04  0.25556841228E+03 -0.99557459116E+03  0.17941031829E+04  0.25500000920E-02 0.  1.
       -2    1    3    3    0  502  0.14704836793E+04 -0.25556841228E+03  0.83894956266E+03  0.17121547340E+04  0.25500000920E-02 0. -1.
</event>
<event>
 5   0  0.8845526E-07  0.3351145E+04  0.7818609E-02  0.8150002E-01
       -1   -1    0    0    0  501  0.00000000000E+00  0.00000000000E+00  0.12347534610E+04  0.12347534610E+04  0.50400001928E-02 0. -1.
        1   -1    0    0  501    0  0.00000000000E+00  0.00000000000E+00 -0.22737682268E+04  0.22737682268E+04  0.50400001928E-02 0.  1.
    10030    2    1    2    0    0  0.00000000000E+00  0.00000000000E+00 -0.10390147658E+04  0.35085216879E+04  0.33511449910E+04 0.  0.
        1    1    3    3  502    0  0.10767210660E+02 -0.37504249637E+03  0.11902077607E+04  0.12479452394E+04  0.50400001928E-02 0. -1.
       -1    1    3    3    0  502 -0.10767210660E+02  0.37504249637E+03 -0.22292225265E+04  0.22605764485E+04  0.50400001928E-02 0.  1.
</event>
<event>
 5   0  0.8705956E-07  0.3322138E+04  0.7818609E-02  0.8157285E-01
       -1   -1    0    0    0  501  0.00000000000E+00  0.00000000000E+00  0.16900007860E+04  0.16900007860E+04  0.50400001928E-02 0.  1.
        1   -1    0    0  501    0  0.00000000000E+00  0.00000000000E+00 -0.16326329132E+04  0.16326329132E+04  0.50400001928E-02 0. -1.
    10030    2    1    2    0    0  0.00000000000E+00  0.00000000000E+00  0.57367872832E+02  0.33226336992E+04  0.33221384117E+04 0.  0.
        2    1    3    3  502    0  0.12816562401E+04 -0.85916808107E+03 -0.58649995193E+03  0.16506952180E+04  0.25500000920E-02 0. -1.
       -2    1    3    3    0  502 -0.12816562401E+04  0.85916808107E+03  0.64386782477E+03  0.16719384812E+04  0.25500000920E-02 0.  1.
</event>
<event>
 5   0  0.9295663E-07  0.3335548E+04  0.7818609E-02  0.8153909E-01
        1   -1    0    0  501    0  0.00000000000E+00  0.00000000000E+00  0.22261860579E+04  0.22261860579E+04  0.50400001928E-02 0. -1.
       -1   -1    0    0    0  501  0.00000000000E+00  0.00000000000E+00 -0.12494329577E+04  0.12494329577E+04  0.50400001928E-02 0.  1.
    10030    2    1    2    0    0  0.00000000000E+00  0.00000000000E+00  0.97675310014E+03  0.34756190156E+04  0.33355480694E+04 0.  0.
        4    1    3    3  502    0  0.16199749440E+04 -0.20196187631E+03  0.13293429520E+03  0.16379195824E+04  0.12699999809E+01 0. -1.
       -4    1    3    3    0  502 -0.16199749440E+04  0.20196187631E+03  0.84381880494E+03  0.18376994333E+04  0.12699999809E+01 0.  1.
</event>
<event>
 5   0  0.8520125E-07  0.3266770E+04  0.7818609E-02  0.8171403E-01
       -3   -1    0    0    0  501  0.00000000000E+00  0.00000000000E+00  0.21434008340E+04  0.21434008363E+04  0.10100000352E+00 0.  1.
        3   -1    0    0  501    0  0.00000000000E+00  0.00000000000E+00 -0.12447261431E+04  0.12447261472E+04  0.10100000352E+00 0. -1.
    10030    2    1    2    0    0  0.00000000000E+00  0.00000000000E+00  0.89867469084E+03  0.33881269836E+04  0.32667703098E+04 0.  0.
        4    1    3    3  502    0  0.71683106310E+03  0.23737262665E+03 -0.10528297534E+04  0.12956251925E+04  0.12699999809E+01 0. -1.
       -4    1    3    3    0  502 -0.71683106310E+03 -0.23737262665E+03  0.19515044442E+04  0.20925017911E+04  0.12699999809E+01 0.  1.
</event>
<event>
 5   0  0.2674551E-06  0.3355393E+04  0.7818609E-02  0.8148942E-01
       -2   -1    0    0    0  501  0.00000000000E+00  0.00000000000E+00  0.20261091234E+04  0.20261091234E+04  0.25500000920E-02 0.  1.
        2   -1    0    0  501    0  0.00000000000E+00  0.00000000000E+00 -0.13891972625E+04  0.13891972625E+04  0.25500000920E-02 0. -1.
    10030    2    1    2    0    0  0.00000000000E+00  0.00000000000E+00  0.63691186087E+03  0.34153063859E+04  0.33553928222E+04 0.  0.
        3    1    3    3  502    0 -0.11264016004E+04 -0.55791520044E+03 -0.81251678199E+03  0.14967409487E+04  0.10100000352E+00 0. -1.
       -3    1    3    3    0  502  0.11264016004E+04  0.55791520044E+03  0.14494286429E+04  0.19185654373E+04  0.10100000352E+00 0.  1.
</event>
<event>
 5   0  0.2674551E-06  0.3273755E+04  0.7818609E-02  0.8169606E-01
        2   -1    0    0  501    0  0.00000000000E+00  0.00000000000E+00  0.19879829159E+04  0.19879829159E+04  0.25500000920E-02 0. -1.
       -2   -1    0    0    0  501  0.00000000000E+00  0.00000000000E+00 -0.13477818980E+04  0.13477818980E+04  0.25500000920E-02 0.  1.
    10030    2    1    2    0    0  0.00000000000E+00  0.00000000000E+00  0.64020101788E+03  0.33357648139E+04  0.32737546564E+04 0.  0.
        3    1    3    3  502    0  0.56338895789E+03  0.14825519901E+04 -0.92539208660E+02  0.15886884643E+04  0.10100000352E+00 0. -1.
       -3    1    3    3    0  502 -0.56338895789E+03 -0.14825519901E+04  0.73274022654E+03  0.17470763495E+04  0.10100000352E+00 0.  1.
</event>
<event>
 5   0  0.9268670E-07  0.3309760E+04  0.7818609E-02  0.8160416E-01
        1   -1    0    0  501    0  0.00000000000E+00  0.00000000000E+00  0.21864543828E+04  0.21864543829E+04  0.50400001928E-02 0. -1.
       -1   -1    0    0    0  501  0.00000000000E+00  0.00000000000E+00 -0.12525428744E+04  0.12525428744E+04  0.50400001928E-02 0.  1.
    10030    2    1    2    0    0  0.00000000000E+00  0.00000000000E+00  0.93391150845E+03  0.34389972573E+04  0.33097600260E+04 0.  0.
        3    1    3    3  502    0  0.24039321359E+03 -0.46893257219E+03  0.20969495110E+04  0.21621479866E+04  0.10100000352E+00 0. -1.
       -3    1    3    3    0  502 -0.24039321359E+03  0.46893257219E+03 -0.11630380025E+04  0.12768492706E+04  0.10100000352E+00 0.  1.
</event>
<event>
 5   0  0.9295663E-07  0.3316753E+04  0.7818609E-02  0.8158646E-01
       -1   -1    0    0    0  501  0.00000000000E+00  0.00000000000E+00  0.12431626203E+04  0.12431626204E+04  0.50400001928E-02 0. -1.
        1   -1    0    0  501    0  0.00000000000E+00  0.00000000000E+00 -0.22122709263E+04  0.22122709263E+04  0.50400001928E-02 0.  1.
    10030    2    1    2    0    0  0.00000000000E+00  0.00000000000E+00 -0.96910830594E+03  0.34554335467E+04  0.33167529433E+04 0.  0.
        4    1    3    3  502    0  0.17318887315E+03  0.14814369121E+04  0.27071382045E+03  0.15158948829E+04  0.12699999809E+01 0. -1.
       -4    1    3    3    0  502 -0.17318887315E+03 -0.14814369121E+04 -0.12398221264E+04  0.19395386638E+04  0.12699999809E+01 0.  1.
</event>
<event>
 5   0  0.9530268E-07  0.3352833E+04  0.7818609E-02  0.8149581E-01
       -1   -1    0    0    0  501  0.00000000000E+00  0.00000000000E+00  0.15621850272E+04  0.15621850272E+04  0.50400001928E-02 0. -1.
        1   -1    0    0  501    0  0.00000000000E+00  0.00000000000E+00 -0.17990008140E+04  0.17990008140E+04  0.50400001928E-02 0.  1.
    10030    2    1    2    0    0  0.00000000000E+00  0.00000000000E+00 -0.23681578677E+03  0.33611858412E+04  0.33528329130E+04 0.  0.
        5    1    3    3  502    0 -0.45816505775E+03  0.46259944249E+03  0.14302502593E+04  0.15714806263E+04  0.46999998093E+01 0. -1.
       -5    1    3    3    0  502  0.45816505775E+03 -0.46259944249E+03 -0.16670660461E+04  0.17897052149E+04  0.46999998093E+01 0.  1.
</event>
<event>
 5   0  0.2574803E-06  0.3336593E+04  0.7818609E-02  0.8153646E-01
        2   -1    0    0  501    0  0.00000000000E+00  0.00000000000E+00  0.16448711041E+04  0.16448711041E+04  0.25500000920E-02 0.  1.
       -2   -1    0    0    0  501  0.00000000000E+00  0.00000000000E+00 -0.16920557739E+04  0.16920557739E+04  0.25500000920E-02 0. -1.
    10030    2    1    2    0    0  0.00000000000E+00  0.00000000000E+00 -0.47184669822E+02  0.33369268780E+04  0.33365932620E+04 0.  0.
        4    1    3    3  502    0 -0.91803641435E+03 -0.45551013808E+03  0.12929479230E+04  0.16498473531E+04  0.12699999809E+01 0.  1.
       -4    1    3    3    0  502  0.91803641435E+03  0.45551013808E+03 -0.13401325929E+04  0.16870795249E+04  0.12699999809E+01 0. -1.
</event>
<event>
 5   0  0.2574803E-06  0.3247222E+04  0.7818609E-02  0.8176456E-01
        2   -1    0    0  501    0  0.00000000000E+00  0.00000000000E+00  0.16148634096E+04  0.16148634096E+04  0.25500000920E-02 0. -1.
       -2   -1    0    0    0  501  0.00000000000E+00  0.00000000000E+00 -0.16324055468E+04  0.16324055468E+04  0.25500000920E-02 0.  1.
    10030    2    1    2    0    0  0.00000000000E+00  0.00000000000E+00 -0.17542137260E+02  0.32472689564E+04  0.32472215737E+04 0.  0.
        4    1    3    3  502    0 -0.12381530970E+04  0.31458851798E+03  0.99330210785E+03  0.16182211584E+04  0.12699999809E+01 0. -1.
       -4    1    3    3    0  502  0.12381530970E+04 -0.31458851798E+03 -0.10108442451E+04  0.16290477980E+04  0.12699999809E+01 0.  1.
</event>
<event>
 5   0  0.2674551E-06  0.3268654E+04  0.7818609E-02  0.8170917E-01
       -2   -1    0    0    0  501  0.00000000000E+00  0.00000000000E+00  0.13679110988E+04  0.13679110988E+04  0.25500000920E-02 0.  1.
        2   -1    0    0  501    0  0.00000000000E+00  0.00000000000E+00 -0.19526305911E+04  0.19526305911E+04  0.25500000920E-02 0. -1.
    10030    2    1    2    0    0  0.00000000000E+00  0.00000000000E+00 -0.58471949232E+03  0.33205416898E+04  0.32686541924E+04 0.  0.
        3    1    3    3  502    0  0.10877612711E+04  0.12036461840E+04 -0.49307225492E+03  0.16956146313E+04  0.10100000352E+00 0. -1.
       -3    1    3    3    0  502 -0.10877612711E+04 -0.12036461840E+04 -0.91647237401E+02  0.16249270585E+04  0.10100000352E+00 0.  1.
</event>
<event>
 5   0  0.8845526E-07  0.3249471E+04  0.7818609E-02  0.8175873E-01
       -1   -1    0    0    0  501  0.00000000000E+00  0.00000000000E+00  0.11694521078E+04  0.11694521078E+04  0.50400001928E-02 0. -1.
        1   -1    0    0  501    0  0.00000000000E+00  0.00000000000E+00 -0.22572671511E+04  0.22572671511E+04  0.50400001928E-02 0.  1.
    10030    2    1    2    0    0  0.00000000000E+00  0.00000000000E+00 -0.10878150433E+04  0.34267192589E+04  0.32494712356E+04 0.  0.
        1    1    3    3  502    0  0.12355626116E+03 -0.35927933426E+03  0.11219485785E+04  0.11845321450E+04  0.50400001928E-02 0. -1.
       -1    1    3    3    0  502 -0.12355626116E+03  0.35927933426E+03 -0.22097636218E+04  0.22421871140E+04  0.50400001928E-02 0.  1.
</event>
<event>
 5   0  0.2574803E-06  0.3567649E+04  0.7818609E-02  0.8097942E-01
       -2   -1    0    0    0  501  0.00000000000E+00  0.00000000000E+00  0.18675346796E+04  0.18675346796E+04  0.25500000920E-02 0. -1.
        2   -1    0    0  501    0  0.00000000000E+00  0.00000000000E+00 -0.17038669909E+04  0.17038669909E+04  0.25500000920E-02 0.  1.
    10030    2    1    2    0    0  0.00000000000E+00  0.00000000000E+00  0.16366768866E+03  0.35714016704E+04  0.35676494754E+04 0.  0.
        4    1    3    3  502    0  0.10265660528E+04 -0.13604299552E+04  0.60909602658E+03  0.18098638364E+04  0.12699999809E+01 0.  1.
       -4    1    3    3    0  502 -0.10265660528E+04  0.13604299552E+04 -0.44542833792E+03  0.17615378341E+04  0.12699999809E+01 0. -1.
</event>
<event>
 5   0  0.9295663E-07  0.3467906E+04  0.7818609E-02  0.8121438E-01
        1   -1    0    0  501    0  0.00000000000E+00  0.00000000000E+00  0.22127283903E+04  0.22127283903E+04  0.50400001928E-02 0. -1.
       -1   -1    0    0    0  501  0.00000000000E+00  0.00000000000E+00 -0.13587717894E+04  0.13587717894E+04  0.50400001928E-02 0.  1.
    10030    2    1    2    0    0  0.00000000000E+00  0.00000000000E+00  0.85395660089E+03  0.35715001798E+04  0.34679059471E+04 0.  0.
        4    1    3    3  502    0  0.26568995160E+03 -0.87930805698E+03  0.19415620838E+04  0.21478916983E+04  0.12699999809E+01 0. -1.
       -4    1    3    3    0  502 -0.26568995160E+03  0.87930805698E+03 -0.10876054829E+04  0.14236084815E+04  0.12699999809E+01 0.  1.
</event>
<event>
 5   0  0.2705859E-06  0.3265824E+04  0.7818609E-02  0.8171646E-01
        2   -1    0    0  501    0  0.00000000000E+00  0.00000000000E+00  0.17815239071E+04  0.17815239071E+04  0.25500000920E-02 0. -1.
       -2   -1    0    0    0  501  0.00000000000E+00  0.00000000000E+00 -0.14966967335E+04  0.14966967335E+04  0.25500000920E-02 0.  1.
    10030    2    1    2    0    0  0.00000000000E+00  0.00000000000E+00  0.28482717358E+03  0.32782206405E+04  0.32658236403E+04 0.  0.
        1    1    3    3  502    0 -0.10758525392E+04 -0.86852209512E+03 -0.72956780720E+03  0.15633484900E+04  0.50400001928E-02 0.  1.
       -1    1    3    3    0  502  0.10758525392E+04  0.86852209512E+03  0.10143949808E+04  0.17148721506E+04  0.50400001928E-02 0. -1.
</event>
<event>
 5   0  0.2658600E-06  0.3277949E+04  0.7818609E-02  0.8168529E-01
       -2   -1    0    0    0  501  0.00000000000E+00  0.00000000000E+00  0.11938619387E+04  0.11938619387E+04  0.25500000920E-02 0.  1.
        2   -1    0    0  501    0  0.00000000000E+00  0.00000000000E+00 -0.22500404743E+04  0.22500404743E+04  0.25500000920E-02 0. -1.
    10030    2    1    2    0    0  0.00000000000E+00  0.00000000000E+00 -0.10561785356E+04  0.34439024131E+04  0.32779491655E+04 0.  0.
        5    1    3    3  502    0  0.23346961545E+03  0.11112939534E+04 -0.17697569090E+04  0.21027467558E+04  0.46999998093E+01 0. -1.
       -5    1    3    3    0  502 -0.23346961545E+03 -0.11112939534E+04  0.71357837334E+03  0.13411556573E+04  0.46999998093E+01 0.  1.
</event>
<event>
 5   0  0.8845526E-07  0.3276509E+04  0.7818609E-02  0.8168898E-01
        1   -1    0    0  501    0  0.00000000000E+00  0.00000000000E+00  0.25880203506E+04  0.25880203507E+04  0.50400001928E-02 0.  1.
       -1   -1    0    0    0  501  0.00000000000E+00  0.00000000000E+00 -0.10370392109E+04  0.10370392109E+04  0.50400001928E-02 0. -1.
    10030    2    1    2    0    0  0.00000000000E+00  0.00000000000E+00  0.15509811398E+04  0.36250595615E+04  0.32765094733E+04 0.  0.
        1    1    3    3  502    0  0.13744073302E+03  0.71027334816E+03  0.24017165465E+04  0.25083102985E+04  0.50400001928E-02 0.  1.
       -1    1    3    3    0  502 -0.13744073302E+03 -0.71027334816E+03 -0.85073540668E+03  0.11167492630E+04  0.50400001928E-02 0. -1.
</event>
<event>
 5   0  0.8845526E-07  0.3282849E+04  0.7818609E-02  0.8167273E-01
       -1   -1    0    0    0  501  0.00000000000E+00  0.00000000000E+00  0.12430033903E+04  0.12430033903E+04  0.50400001928E-02 0. -1.
        1   -1    0    0  501    0  0.00000000000E+00  0.00000000000E+00 -0.21675521048E+04  0.21675521048E+04  0.50400001928E-02 0.  1.
    10030    2    1    2    0    0  0.00000000000E+00  0.00000000000E+00 -0.92454871445E+03  0.34105554951E+04  0.32828491375E+04 0.  0.
        1    1    3    3  502    0  0.30505207323E+03  0.15817256288E+04 -0.13479487035E+03  0.16165031362E+04  0.50400001928E-02 0. -1.
       -1    1    3    3    0  502 -0.30505207323E+03 -0.15817256288E+04 -0.78975384410E+03  0.17940523589E+04  0.50400001928E-02 0.  1.
</event>
<event>
 5   0  0.9295663E-07  0.2472594E+04  0.7818609E-02  0.8412815E-01
       -1   -1    0    0    0  501  0.00000000000E+00  0.00000000000E+00  0.13905253368E+04  0.13905253368E+04  0.50400001928E-02 0.  1.
        1   -1    0    0  501    0  0.00000000000E+00  0.00000000000E+00 -0.10991748978E+04  0.10991748979E+04  0.50400001928E-02 0. -1.
    10030    2    1    2    0    0  0.00000000000E+00  0.00000000000E+00  0.29135043893E+03  0.24897002346E+04  0.24725942207E+04 0.  0.
        4    1    3    3  502    0  0.94358589838E+03 -0.65997102893E+03 -0.30745233991E+03  0.11918240897E+04  0.12699999809E+01 0. -1.
       -4    1    3    3    0  502 -0.94358589838E+03  0.65997102893E+03  0.59880277884E+03  0.12978761449E+04  0.12699999809E+01 0.  1.
</event>
<event>
 5   0  0.2574803E-06  0.3253488E+04  0.7818609E-02  0.8174832E-01
        2   -1    0    0  501    0  0.00000000000E+00  0.00000000000E+00  0.19821089387E+04  0.19821089387E+04  0.25500000920E-02 0. -1.
       -2   -1    0    0    0  501  0.00000000000E+00  0.00000000000E+00 -0.13350907141E+04  0.13350907142E+04  0.25500000920E-02 0.  1.
    10030    2    1    2    0    0  0.00000000000E+00  0.00000000000E+00  0.64701822453E+03  0.33171996528E+04  0.32534875063E+04 0.  0.
        4    1    3    3  502    0 -0.99598055500E+03 -0.62006053539E+03 -0.82543046697E+03  0.14344997045E+04  0.12699999809E+01 0.  1.
       -4    1    3    3    0  502  0.99598055500E+03  0.62006053539E+03  0.14724486915E+04  0.18826999483E+04  0.12699999809E+01 0. -1.
</event>
<event>
 5   0  0.8845526E-07  0.3290403E+04  0.7818609E-02  0.8165342E-01
       -1   -1    0    0    0  501  0.00000000000E+00  0.00000000000E+00  0.15408551313E+04  0.15408551313E+04  0.50400001928E-02 0. -1.
        1   -1    0    0  501    0  0.00000000000E+00  0.00000000000E+00 -0.17566145795E+04  0.17566145795E+04  0.50400001928E-02 0.  1.
    10030    2    1    2    0    0  0.00000000000E+00  0.00000000000E+00 -0.21575944822E+03  0.32974697108E+04  0.32904033725E+04 0.  0.
        1    1    3    3  502    0 -0.11265448891E+04 -0.45771930993E+03  0.10026870868E+04  0.15760684465E+04  0.50400001928E-02 0. -1.
       -1    1    3    3    0  502  0.11265448891E+04  0.45771930993E+03 -0.12184465350E+04  0.17214012643E+04  0.50400001928E-02 0.  1.
</event>
<event>
 5   0  0.2705859E-06  0.3239878E+04  0.7818609E-02  0.8178364E-01
        2   -1    0    0  501    0  0.00000000000E+00  0.00000000000E+00  0.16503368078E+04  0.16503368078E+04  0.25500000920E-02 0. -1.
       -2   -1    0    0    0  501  0.00000000000E+00  0.00000000000E+00 -0.15901006763E+04  0.15901006763E+04  0.25500000920E-02 0.  1.
    10030    2    1    2    0    0  0.00000000000E+00  0.00000000000E+00  0.60236131503E+02  0.32404374841E+04  0.32398775744E+04 0.  0.
        1    1    3    3  502    0 -0.65515325294E+03  0.14726631477E+04  0.19213106789E+03  0.16232303837E+04  0.50400001928E-02 0.  1.
       -1    1    3    3    0  502  0.65515325294E+03 -0.14726631477E+04 -0.13189493639E+03  0.16172071004E+04  0.50400001928E-02 0. -1.
</event>
<event>
 5   0  0.8520125E-07  0.3324055E+04  0.7818609E-02  0.8156801E-01
       -3   -1    0    0    0  501  0.00000000000E+00  0.00000000000E+00  0.24503285667E+04  0.24503285688E+04  0.10100000352E+00 0. -1.
        3   -1    0    0  501    0  0.00000000000E+00  0.00000000000E+00 -0.11273324696E+04  0.11273324741E+04  0.10100000352E+00 0.  1.
    10030    2    1    2    0    0  0.00000000000E+00  0.00000000000E+00  0.13229960971E+04  0.35776610429E+04  0.33240547325E+04 0.  0.
        4    1    3    3  502    0  0.15947800330E+04  0.39327035321E+03  0.38847456753E+03  0.16878681901E+04  0.12699999809E+01 0.  1.
       -4    1    3    3    0  502 -0.15947800330E+04 -0.39327035321E+03  0.93452152962E+03  0.18897928529E+04  0.12699999809E+01 0. -1.
</event>
<event>
 5   0  0.2674551E-06  0.3418453E+04  0.7818609E-02  0.8133392E-01
       -2   -1    0    0    0  501  0.00000000000E+00  0.00000000000E+00  0.11201454268E+04  0.11201454268E+04  0.25500000920E-02 0. -1.
        2   -1    0    0  501    0  0.00000000000E+00  0.00000000000E+00 -0.26081041552E+04  0.26081041552E+04  0.25500000920E-02 0.  1.
    10030    2    1    2    0    0  0.00000000000E+00  0.00000000000E+00 -0.14879587284E+04  0.37282495820E+04  0.34184534176E+04 0.  0.
        3    1    3    3  502    0  0.72793490331E+03  0.15419323141E+04 -0.87307656037E+03  0.19156479779E+04  0.10100000352E+00 0.  1.
       -3    1    3    3    0  502 -0.72793490331E+03 -0.15419323141E+04 -0.61488216805E+03  0.18126016042E+04  0.10100000352E+00 0. -1.
</event>
<event>
 5   0  0.8845526E-07  0.3302526E+04  0.7818609E-02  0.8162253E-01
        1   -1    0    0  501    0  0.00000000000E+00  0.00000000000E+00  0.18560138595E+04  0.18560138595E+04  0.50400001928E-02 0.  1.
       -1   -1    0    0    0  501  0.00000000000E+00  0.00000000000E+00 -0.14690998112E+04  0.14690998112E+04  0.50400001928E-02 0. -1.
    10030    2    1    2    0    0  0.00000000000E+00  0.00000000000E+00  0.38691404823E+03  0.33251136707E+04  0.33025260699E+04 0.  0.
        1    1    3    3  502    0  0.57380083081E+03  0.15377746766E+04  0.11468840374E+02  0.16413804811E+04  0.50400001928E-02 0.  1.
       -1    1    3    3    0  502 -0.57380083081E+03 -0.15377746766E+04  0.37544520786E+03  0.16837331896E+04  0.50400001928E-02 0. -1.
</event>
<event>
 5   0  0.8520125E-07  0.3246697E+04  0.7818609E-02  0.8176592E-01
        3   -1    0    0  501    0  0.00000000000E+00  0.00000000000E+00  0.26239828163E+04  0.26239828183E+04  0.10100000352E+00 0. -1.
       -3   -1    0    0    0  501  0.00000000000E+00  0.00000000000E+00 -0.10042977507E+04  0.10042977558E+04  0.10100000352E+00 0.  1.
    10030    2    1    2    0    0  0.00000000000E+00  0.00000000000E+00  0.16196850656E+04  0.36282805740E+04  0.32466968155E+04 0.  0.
        4    1    3    3  502    0 -0.75863196030E+03 -0.88808554867E+03 -0.45006521214E+03  0.12517103103E+04  0.12699999809E+01 0.  1.
       -4    1    3    3    0  502  0.75863196030E+03  0.88808554867E+03  0.20697502778E+04  0.23765702637E+04  0.12699999809E+01 0. -1.
</event>
<event>
 5   0  0.2658600E-06  0.2961796E+04  0.7818609E-02  0.8254725E-01
        2   -1    0    0  501    0  0.00000000000E+00  0.00000000000E+00  0.22297772909E+04  0.22297772909E+04  0.25500000920E-02 0.  1.
       -2   -1    0    0    0  501  0.00000000000E+00  0.00000000000E+00 -0.98353264312E+03  0.98353264312E+03  0.25500000920E-02 0. -1.
    10030    2    1    2    0    0  0.00000000000E+00  0.00000000000E+00  0.12462446477E+04  0.32133099340E+04  0.29617959096E+04 0.  0.
        5    1    3    3  502    0 -0.76774897145E+03 -0.10661575826E+04 -0.11820891760E+03  0.13191383219E+04  0.46999998093E+01 0. -1.
       -5    1    3    3    0  502  0.76774897145E+03  0.10661575826E+04  0.13644535653E+04  0.18941716121E+04  0.46999998093E+01 0.  1.
</event>
<event>
 5   0  0.8845526E-07  0.2719236E+04  0.7818609E-02  0.8328791E-01
       -1   -1    0    0    0  501  0.00000000000E+00  0.00000000000E+00  0.14452219875E+04  0.14452219875E+04  0.50400001928E-02 0.  1.
        1   -1    0    0  501    0  0.00000000000E+00  0.00000000000E+00 -0.12790841401E+04  0.12790841401E+04  0.50400001928E-02 0. -1.
    10030    2    1    2    0    0  0.00000000000E+00  0.00000000000E+00  0.16613784740E+03  0.27243061275E+04  0.27192355713E+04 0.  0.
        1    1    3    3  502    0  0.47799830944E+03  0.11403374969E+03  0.13531372100E+04  0.14396063312E+04  0.50400001928E-02 0.  1.
       -1    1    3    3    0  502 -0.47799830944E+03 -0.11403374969E+03 -0.11869993626E+04  0.12846997963E+04  0.50400001928E-02 0. -1.
</event>
<event>
 5   0  0.9530268E-07  0.3284799E+04  0.7818609E-02  0.8166774E-01
       -1   -1    0    0    0  501  0.00000000000E+00  0.00000000000E+00  0.15888299634E+04  0.15888299634E+04  0.50400001928E-02 0. -1.
        1   -1    0    0  501    0  0.00000000000E+00  0.00000000000E+00 -0.16977752182E+04  0.16977752182E+04  0.50400001928E-02 0.  1.
    10030    2    1    2    0    0  0.00000000000E+00  0.00000000000E+00 -0.10894525472E+03  0.32866051816E+04  0.32847990123E+04 0.  0.
        5    1    3    3  502    0 -0.78058574169E+03 -0.14088101212E+04 -0.37619879202E+03  0.16539672545E+04  0.46999998093E+01 0. -1.
       -5    1    3    3    0  502  0.78058574169E+03  0.14088101212E+04  0.26725353731E+03  0.16326379271E+04  0.46999998093E+01 0.  1.
</event>
<event>
 5   0  0.9268670E-07  0.3324281E+04  0.7818609E-02  0.8156744E-01
        1   -1    0    0  501    0  0.00000000000E+00  0.00000000000E+00  0.10382913331E+04  0.10382913331E+04  0.50400001928E-02 0. -1.
       -1   -1    0    0    0  501  0.00000000000E+00  0.00000000000E+00 -0.26608241252E+04  0.26608241252E+04  0.50400001928E-02 0.  1.
    10030    2    1    2    0    0  0.00000000000E+00  0.00000000000E+00 -0.16225327921E+04  0.36991154583E+04  0.33242807511E+04 0.  0.
        3    1    3    3  502    0  0.84366159418E+02  0.33339361055E+03  0.99826943864E+03  0.10558460261E+04  0.10100000352E+00 0. -1.
       -3    1    3    3    0  502 -0.84366159418E+02 -0.33339361055E+03 -0.26208022308E+04  0.26432694322E+04  0.10100000352E+00 0.  1.
</event>
<event>
 5   0  0.2574803E-06  0.3291852E+04  0.7818609E-02  0.8164972E-01
       -2   -1    0    0    0  501  0.00000000000E+00  0.00000000000E+00  0.17800772028E+04  0.17800772028E+04  0.25500000920E-02 0. -1.
        2   -1    0    0  501    0  0.00000000000E+00  0.00000000000E+00 -0.15218845435E+04  0.15218845435E+04  0.25500000920E-02 0.  1.
    10030    2    1    2    0    0  0.00000000000E+00  0.00000000000E+00  0.25819265933E+03  0.33019617463E+04  0.32918517470E+04 0.  0.
        4    1    3    3  502    0 -0.22546140777E+03  0.37924876909E+03 -0.14614621279E+04  0.15266091967E+04  0.12699999809E+01 0.  1.
       -4    1    3    3    0  502  0.22546140777E+03 -0.37924876909E+03  0.17196547872E+04  0.17753525496E+04  0.12699999809E+01 0. -1.
</event>
<event>
 5   0  0.8705956E-07  0.3310680E+04  0.7818609E-02  0.8160183E-01
        1   -1    0    0  501    0  0.00000000000E+00  0.00000000000E+00  0.14129396082E+04  0.14129396082E+04  0.50400001928E-02 0.  1.
       -1   -1    0    0    0  501  0.00000000000E+00  0.00000000000E+00 -0.19393257562E+04  0.19393257562E+04  0.50400001928E-02 0. -1.
    10030    2    1    2    0    0  0.00000000000E+00  0.00000000000E+00 -0.52638614797E+03  0.33522653644E+04  0.33106797937E+04 0.  0.
        2    1    3    3  502    0  0.20227692026E+03  0.13202658166E+02 -0.19267109578E+04  0.19373449300E+04  0.25500000920E-02 0. -1.
       -2    1    3    3    0  502 -0.20227692026E+03 -0.13202658166E+02  0.14003248099E+04  0.14149204344E+04  0.25500000920E-02 0.  1.
</event>
<event>
 5   0  0.2705859E-06  0.3317505E+04  0.7818609E-02  0.8158455E-01
        2   -1    0    0  501    0  0.00000000000E+00  0.00000000000E+00  0.13577405336E+04  0.13577405336E+04  0.25500000920E-02 0.  1.
       -2   -1    0    0    0  501  0.00000000000E+00  0.00000000000E+00 -0.20264994900E+04  0.20264994900E+04  0.25500000920E-02 0. -1.
    10030    2    1    2    0    0  0.00000000000E+00  0.00000000000E+00 -0.66875895648E+03  0.33842400236E+04  0.33175053874E+04 0.  0.
        1    1    3    3  502    0  0.13034516068E+04  0.10556708803E+03 -0.13753626531E+04  0.18978284772E+04  0.50400001928E-02 0. -1.
       -1    1    3    3    0  502 -0.13034516068E+04 -0.10556708803E+03  0.70660369662E+03  0.14864115464E+04  0.50400001928E-02 0.  1.
</event>
<event>
 5   0  0.2574803E-06  0.3321105E+04  0.7818609E-02  0.8157546E-01
        2   -1    0    0  501    0  0.00000000000E+00  0.00000000000E+00  0.21017125596E+04  0.21017125596E+04  0.25500000920E-02 0.  1.
       -2   -1    0    0    0  501  0.00000000000E+00  0.00000000000E+00 -0.13119940607E+04  0.13119940607E+04  0.25500000920E-02 0. -1.
    10030    2    1    2    0    0  0.00000000000E+00  0.00000000000E+00  0.78971849890E+03  0.34137066204E+04  0.33211048737E+04 0.  0.
        4    1    3    3  502    0  0.17077306600E+03 -0.86193126493E+03 -0.10534505543E+04  0.13718048800E+04  0.12699999809E+01 0. -1.
       -4    1    3    3    0  502 -0.17077306600E+03  0.86193126493E+03  0.18431690532E+04  0.20419017403E+04  0.12699999809E+01 0.  1.
</event>
<event>
 5   0  0.2574803E-06  0.3343952E+04  0.7818609E-02  0.8151801E-01
       -2   -1    0    0    0  501  0.00000000000E+00  0.00000000000E+00  0.12917957931E+04  0.12917957931E+04  0.25500000920E-02 0.  1.
        2   -1    0    0  501    0  0.00000000000E+00  0.00000000000E+00 -0.21640442159E+04  0.21640442159E+04  0.25500000920E-02 0. -1.
    10030    2    1    2    0    0  0.00000000000E+00  0.00000000000E+00 -0.87224842275E+03  0.34558400090E+04  0.33439516828E+04 0.  0.
        4    1    3    3  502    0 -0.74820532425E+02  0.98896386707E+03  0.95496579051E+03  0.13768111404E+04  0.12699999809E+01 0.  1.
       -4    1    3    3    0  502  0.74820532425E+02 -0.98896386707E+03 -0.18272142133E+04  0.20790288686E+04  0.12699999809E+01 0. -1.
</event>
<event>
 5   0  0.2614212E-06  0.3306311E+04  0.7818609E-02  0.8161291E-01
        2   -1    0    0  501    0  0.00000000000E+00  0.00000000000E+00  0.16616690689E+04  0.16616690689E+04  0.25500000920E-02 0.  1.
       -2   -1    0    0    0  501  0.00000000000E+00  0.00000000000E+00 -0.16446853505E+04  0.16446853505E+04  0.25500000920E-02 0. -1.
    10030    2    1    2    0    0  0.00000000000E+00  0.00000000000E+00  0.16983718413E+02  0.33063544194E+04  0.33063107991E+04 0.  0.
        2    1    3    3  502    0  0.10848146147E+04  0.11762961167E+04  0.42374120883E+03  0.16553102170E+04  0.25500000920E-02 0.  1.
       -2    1    3    3    0  502 -0.10848146147E+04 -0.11762961167E+04 -0.40675749042E+03  0.16510442025E+04  0.25500000920E-02 0. -1.
</event>
<event>
 5   0  0.2674551E-06  0.3333445E+04  0.7818609E-02  0.8154437E-01
        2   -1    0    0  501    0  0.00000000000E+00  0.00000000000E+00  0.15485736793E+04  0.15485736793E+04  0.25500000920E-02 0. -1.
       -2   -1    0    0    0  501  0.00000000000E+00  0.00000000000E+00 -0.17938854561E+04  0.17938854561E+04  0.25500000920E-02 0.  1.
    10030    2    1    2    0    0  0.00000000000E+00  0.00000000000E+00 -0.24531177677E+03  0.33424591354E+04  0.33334449454E+04 0.  0.
        3    1    3    3  502    0 -0.73007197036E+03 -0.13855075282E+04  0.44926146325E+03  0.16292550645E+04  0.10100000352E+00 0. -1.
       -3    1    3    3    0  502  0.73007197036E+03  0.13855075282E+04 -0.69457324002E+03  0.17132040709E+04  0.10100000352E+00 0.  1.
</event>
<event>
 5   0  0.9268670E-07  0.3304462E+04  0.7818609E-02  0.8161761E-01
        1   -1    0    0  501    0  0.00000000000E+00  0.00000000000E+00  0.18776231561E+04  0.18776231562E+04  0.50400001928E-02 0.  1.
       -1   -1    0    0    0  501  0.00000000000E+00  0.00000000000E+00 -0.14538952115E+04  0.14538952115E+04  0.50400001928E-02 0. -1.
    10030    2    1    2    0    0  0.00000000000E+00  0.00000000000E+00  0.42372794462E+03  0.33315183677E+04  0.33044620233E+04 0.  0.
        3    1    3    3  502    0 -0.86144394817E+02 -0.71978638299E+03  0.17087271945E+04  0.18561416781E+04  0.10100000352E+00 0.  1.
       -3    1    3    3    0  502  0.86144394817E+02  0.71978638299E+03 -0.12849992498E+04  0.14753766896E+04  0.10100000352E+00 0. -1.
</event>
<event>
 5   0  0.9295663E-07  0.3128762E+04  0.7818609E-02  0.8207888E-01
       -1   -1    0    0    0  501  0.00000000000E+00  0.00000000000E+00  0.11125662951E+04  0.11125662951E+04  0.50400001928E-02 0.  1.
        1   -1    0    0  501    0  0.00000000000E+00  0.00000000000E+00 -0.21996782720E+04  0.21996782720E+04  0.50400001928E-02 0. -1.
    10030    2    1    2    0    0  0.00000000000E+00  0.00000000000E+00 -0.10871119769E+04  0.33122445672E+04  0.31287619952E+04 0.  0.
        4    1    3    3  502    0  0.16838730284E+03 -0.13952802558E+04  0.18385251787E+03  0.14173794965E+04  0.12699999809E+01 0.  1.
       -4    1    3    3    0  502 -0.16838730284E+03  0.13952802558E+04 -0.12709644948E+04  0.18948650706E+04  0.12699999809E+01 0. -1.
</event>
<event>
 5   0  0.2674551E-06  0.3292962E+04  0.7818609E-02  0.8164688E-01
       -2   -1    0    0    0  501  0.00000000000E+00  0.00000000000E+00  0.31571485543E+04  0.31571485543E+04  0.25500000920E-02 0.  1.
        2   -1    0    0  501    0  0.00000000000E+00  0.00000000000E+00 -0.85865456303E+03  0.85865456303E+03  0.25500000920E-02 0. -1.
    10030    2    1    2    0    0  0.00000000000E+00  0.00000000000E+00  0.22984939912E+04  0.40158031173E+04  0.32929621998E+04 0.  0.
        3    1    3    3  502    0 -0.44343898085E+03  0.34786570373E+03  0.30358469563E+04  0.30877201022E+04  0.10100000352E+00 0.  1.
       -3    1    3    3    0  502  0.44343898085E+03 -0.34786570373E+03 -0.73735296505E+03  0.92808301506E+03  0.10100000352E+00 0. -1.
</event>
<event>
 5   0  0.2614212E-06  0.3130459E+04  0.7818609E-02  0.8207428E-01
       -2   -1    0    0    0  501  0.00000000000E+00  0.00000000000E+00  0.18454154773E+04  0.18454154773E+04  0.25500000920E-02 0.  1.
        2   -1    0    0  501    0  0.00000000000E+00  0.00000000000E+00 -0.13275832279E+04  0.13275832279E+04  0.25500000920E-02 0. -1.
    10030    2    1    2    0    0  0.00000000000E+00  0.00000000000E+00  0.51783224945E+03  0.31729987052E+04  0.31304585199E+04 0.  0.
        2    1    3    3  502    0 -0.12578600304E+04 -0.38479952274E+03 -0.60093973649E+03  0.14461711848E+04  0.25500000920E-02 0. -1.
       -2    1    3    3    0  502  0.12578600304E+04  0.38479952274E+03  0.11187719859E+04  0.17268275204E+04  0.25500000920E-02 0.  1.
</event>
<event>
 5   0  0.8845526E-07  0.3332887E+04  0.7818609E-02  0.8154577E-01
       -1   -1    0    0    0  501  0.00000000000E+00  0.00000000000E+00  0.25730254794E+04  0.25730254794E+04  0.50400001928E-02 0. -1.
        1   -1    0    0  501    0  0.00000000000E+00  0.00000000000E+00 -0.10792876956E+04  0.10792876956E+04  0.50400001928E-02 0.  1.
    10030    2    1    2    0    0  0.00000000000E+00  0.00000000000E+00  0.14937377838E+04  0.36523131750E+04  0.33328874810E+04 0.  0.
        1    1    3    3  502    0  0.79921980651E+03  0.39922907167E+03 -0.79468647422E+03  0.11956850518E+04  0.50400001928E-02 0.  1.
       -1    1    3    3    0  502 -0.79921980651E+03 -0.39922907167E+03  0.22884242580E+04  0.24566281232E+04  0.50400001928E-02 0. -1.
</event>
<event>
 5   0  0.2705859E-06  0.3259816E+04  0.7818609E-02  0.8173196E-01
        2   -1    0    0  501    0  0.00000000000E+00  0.00000000000E+00  0.23934973325E+04  0.23934973325E+04  0.25500000920E-02 0. -1.
       -2   -1    0    0    0  501  0.00000000000E+00  0.00000000000E+00 -0.11099240298E+04  0.11099240298E+04  0.25500000920E-02 0.  1.
    10030    2    1    2    0    0  0.00000000000E+00  0.00000000000E+00  0.12835733027E+04  0.35034213624E+04  0.32598160713E+04 0.  0.
        1    1    3    3  502    0 -0.70217160257E+03 -0.72087451342E+03 -0.73617248421E+03  0.12468580312E+04  0.50400001928E-02 0.  1.
       -1    1    3    3    0  502  0.70217160257E+03  0.72087451342E+03  0.20197457869E+04  0.22565633311E+04  0.50400001928E-02 0. -1.
</event>
<event>
 5   0  0.8705956E-07  0.3400405E+04  0.7818609E-02  0.8137807E-01
       -1   -1    0    0    0  501  0.00000000000E+00  0.00000000000E+00  0.33988887446E+04  0.33988887446E+04  0.50400001928E-02 0.  1.
        1   -1    0    0  501    0  0.00000000000E+00  0.00000000000E+00 -0.85048065328E+03  0.85048065330E+03  0.50400001928E-02 0. -1.
    10030    2    1    2    0    0  0.00000000000E+00  0.00000000000E+00  0.25484080913E+04  0.42493693979E+04  0.34004053405E+04 0.  0.
        2    1    3    3  502    0 -0.68189052356E+03 -0.11077077158E+03  0.32155924609E+04  0.32889633207E+04  0.25500000920E-02 0.  1.
       -2    1    3    3    0  502  0.68189052356E+03  0.11077077158E+03 -0.66718436966E+03  0.96040607718E+03  0.25500000920E-02 0. -1.
</event>
<event>
 5   0  0.2658600E-06  0.3314882E+04  0.7818609E-02  0.8159119E-01
        2   -1    0    0  501    0  0.00000000000E+00  0.00000000000E+00  0.21725334172E+04  0.21725334172E+04  0.25500000920E-02 0. -1.
       -2   -1    0    0    0  501  0.00000000000E+00  0.00000000000E+00 -0.12644731514E+04  0.12644731514E+04  0.25500000920E-02 0.  1.
    10030    2    1    2    0    0  0.00000000000E+00  0.00000000000E+00  0.90806026585E+03  0.34370065686E+04  0.33148817032E+04 0.  0.
        5    1    3    3  502    0  0.15381244816E+04 -0.49702542385E+03  0.83389759706E+03  0.18188646143E+04  0.46999998093E+01 0. -1.
       -5    1    3    3    0  502 -0.15381244816E+04  0.49702542385E+03  0.74162668793E+02  0.16181419543E+04  0.46999998093E+01 0.  1.
</event>
<event>
 5   0  0.8705956E-07  0.3108111E+04  0.7818609E-02  0.8213516E-01
        1   -1    0    0  501    0  0.00000000000E+00  0.00000000000E+00  0.17448140975E+04  0.17448140975E+04  0.50400001928E-02 0. -1.
       -1   -1    0    0    0  501  0.00000000000E+00  0.00000000000E+00 -0.13841521105E+04  0.13841521105E+04  0.50400001928E-02 0.  1.
    10030    2    1    2    0    0  0.00000000000E+00  0.00000000000E+00  0.36066198705E+03  0.31289662080E+04  0.31081107544E+04 0.  0.
        2    1    3    3  502    0  0.12504419539E+04 -0.87520246208E+03  0.47470320122E+03  0.15984140762E+04  0.25500000920E-02 0. -1.
       -2    1    3    3    0  502 -0.12504419539E+04  0.87520246208E+03 -0.11404121417E+03  0.15305521318E+04  0.25500000920E-02 0.  1.
</event>
<event>
 5   0  0.9268670E-07  0.3280233E+04  0.7818609E-02  0.8167943E-01
        1   -1    0    0  501    0  0.00000000000E+00  0.00000000000E+00  0.22762447402E+04  0.22762447402E+04  0.50400001928E-02 0.  1.
       -1   -1    0    0    0  501  0.00000000000E+00  0.00000000000E+00 -0.11817634428E+04  0.11817634428E+04  0.50400001928E-02 0. -1.
    10030    2    1    2    0    0  0.00000000000E+00  0.00000000000E+00  0.10944812974E+04  0.34580081831E+04  0.32802334191E+04 0.  0.
        3    1    3    3  502    0 -0.37221343791E+03 -0.42038414103E+03 -0.10772873893E+04  0.12148307696E+04  0.10100000352E+00 0. -1.
       -3    1    3    3    0  502  0.37221343791E+03  0.42038414103E+03  0.21717686867E+04  0.22431774135E+04  0.10100000352E+00 0.  1.
</event>
<event>
 5   0  0.9530268E-07  0.3382393E+04  0.7818609E-02  0.8142241E-01
        1   -1    0    0  501    0  0.00000000000E+00  0.00000000000E+00  0.10062665260E+04  0.10062665260E+04  0.50400001928E-02 0. -1.
       -1   -1    0    0    0  501  0.00000000000E+00  0.00000000000E+00 -0.28423339000E+04  0.28423339000E+04  0.50400001928E-02 0.  1.
    10030    2    1    2    0    0  0.00000000000E+00  0.00000000000E+00 -0.18360673740E+04  0.38486004260E+04  0.33823929158E+04 0.  0.
        5    1    3    3  502    0 -0.15793808534E+04 -0.60099563736E+03 -0.99422380285E+03  0.19606485398E+04  0.46999998093E+01 0.  1.
       -5    1    3    3    0  502  0.15793808534E+04  0.60099563736E+03 -0.84184357119E+03  0.18879518862E+04  0.46999998093E+01 0. -1.
</event>
<event>
 5   0  0.2705859E-06  0.3318846E+04  0.7818609E-02  0.8158116E-01
        2   -1    0    0  501    0  0.00000000000E+00  0.00000000000E+00  0.22018607493E+04  0.22018607493E+04  0.25500000920E-02 0.  1.
       -2   -1    0    0    0  501  0.00000000000E+00  0.00000000000E+00 -0.12506172424E+04  0.12506172424E+04  0.25500000920E-02 0. -1.
    10030    2    1    2    0    0  0.00000000000E+00  0.00000000000E+00  0.95124350695E+03  0.34524779917E+04  0.33188461962E+04 0.  0.
        1    1    3    3  502    0  0.96383266760E+03 -0.26461810918E+03 -0.90236122226E+03  0.13465704327E+04  0.50400001928E-02 0. -1.
       -1    1    3    3    0  502 -0.96383266760E+03  0.26461810918E+03  0.18536047292E+04  0.21059075590E+04  0.50400001928E-02 0.  1.
</event>
<event>
 5   0  0.9268670E-07  0.3278043E+04  0.7818609E-02  0.8168505E-01
        1   -1    0    0  501    0  0.00000000000E+00  0.00000000000E+00  0.20326859659E+04  0.20326859659E+04  0.50400001928E-02 0.  1.
       -1   -1    0    0    0  501  0.00000000000E+00  0.00000000000E+00 -0.13215966817E+04  0.13215966817E+04  0.50400001928E-02 0. -1.
    10030    2    1    2    0    0  0.00000000000E+00  0.00000000000E+00  0.71108928413E+03  0.33542826476E+04  0.32780427254E+04 0.  0.
        3    1    3    3  502    0 -0.11240775996E+04 -0.10619762477E+04  0.91136014959E+03  0.17949711231E+04  0.10100000352E+00 0.  1.
       -3    1    3    3    0  502  0.11240775996E+04  0.10619762477E+04 -0.20027086545E+03  0.15593115244E+04  0.10100000352E+00 0. -1.
</event>
<event>
 5   0  0.2614212E-06  0.3308355E+04  0.7818609E-02  0.8160773E-01
        2   -1    0    0  501    0  0.00000000000E+00  0.00000000000E+00  0.22256238327E+04  0.22256238327E+04  0.25500000920E-02 0.  1.
       -2   -1    0    0    0  501  0.00000000000E+00  0.00000000000E+00 -0.12294544094E+04  0.12294544094E+04  0.25500000920E-02 0. -1.
    10030    2    1    2    0    0  0.00000000000E+00  0.00000000000E+00  0.99616942332E+03  0.34550782421E+04  0.33083548992E+04 0.  0.
        2    1    3    3  502    0  0.60318624653E+01 -0.61887264658E+03 -0.11039836938E+04  0.12656301720E+04  0.25500000920E-02 0. -1.
       -2    1    3    3    0  502 -0.60318624653E+01  0.61887264658E+03  0.21001531172E+04  0.21894480701E+04  0.25500000920E-02 0.  1.
</event>
<event>
 5   0  0.9295663E-07  0.3221367E+04  0.7818609E-02  0.8183197E-01
       -1   -1    0    0    0  501  0.00000000000E+00  0.00000000000E+00  0.10179578592E+04  0.10179578592E+04  0.50400001928E-02 0.  1.
        1   -1    0    0  501    0  0.00000000000E+00  0.00000000000E+00 -0.25485355457E+04  0.25485355457E+04  0.50400001928E-02 0. -1.
    10030    2    1    2    0    0  0.00000000000E+00  0.00000000000E+00 -0.15305776865E+04  0.35664934049E+04  0.32213672800E+04 0.  0.
        4    1    3    3  502    0 -0.28698940613E+03 -0.67802393443E+02  0.98781565697E+03  0.10308935293E+04  0.12699999809E+01 0.  1.
       -4    1    3    3    0  502  0.28698940613E+03  0.67802393443E+02 -0.25183933434E+04  0.25355998756E+04  0.12699999809E+01 0. -1.
</event>
<event>
 5   0  0.9530268E-07  0.3279236E+04  0.7818609E-02  0.8168199E-01
        1   -1    0    0  501    0  0.00000000000E+00  0.00000000000E+00  0.20557246574E+04  0.20557246574E+04  0.50400001928E-02 0.  1.
       -1   -1    0    0    0  501  0.00000000000E+00  0.00000000000E+00 -0.13077372241E+04  0.13077372241E+04  0.50400001928E-02 0. -1.
    10030    2    1    2    0    0  0.00000000000E+00  0.00000000000E+00  0.74798743325E+03  0.33634618815E+04  0.32792362873E+04 0.  0.
        5    1    3    3  502    0 -0.36906480551E+03  0.97206045594E+03  0.16743154321E+04  0.19709045175E+04  0.46999998093E+01 0.  1.
       -5    1    3    3    0  502  0.36906480551E+03 -0.97206045594E+03 -0.92632799888E+03  0.13925573641E+04  0.46999998093E+01 0. -1.
</event>
<event>
 5   0  0.2658600E-06  0.3249615E+04  0.7818609E-02  0.8175835E-01
       -2   -1    0    0    0  501  0.00000000000E+00  0.00000000000E+00  0.13120066180E+04  0.13120066180E+04  0.25500000920E-02 0. -1.
        2   -1    0    0  501    0  0.00000000000E+00  0.00000000000E+00 -0.20121845496E+04  0.20121845496E+04  0.25500000920E-02 0.  1.
    10030    2    1    2    0    0  0.00000000000E+00  0.00000000000E+00 -0.70017793157E+03  0.33241911676E+04  0.32496150208E+04 0.  0.
        5    1    3    3  502    0  0.80969722081E+03 -0.12436504384E+04 -0.10268619633E+04  0.18046450022E+04  0.46999998093E+01 0.  1.
       -5    1    3    3    0  502 -0.80969722081E+03  0.12436504384E+04  0.32668403174E+03  0.15195461654E+04  0.46999998093E+01 0. -1.
</event>
<event>
 5   0  0.9530268E-07  0.3291424E+04  0.7818609E-02  0.8165081E-01
        1   -1    0    0  501    0  0.00000000000E+00  0.00000000000E+00  0.11241640029E+04  0.11241640030E+04  0.50400001928E-02 0. -1.
       -1   -1    0    0    0  501  0.00000000000E+00  0.00000000000E+00 -0.24092279534E+04  0.24092279534E+04  0.50400001928E-02 0.  1.
    10030    2    1    2    0    0  0.00000000000E+00  0.00000000000E+00 -0.12850639505E+04  0.35333919564E+04  0.32914236070E+04 0.  0.
        5    1    3    3  502    0  0.11749297869E+04  0.10099304549E+04 -0.12382366672E+04  0.19833485982E+04  0.46999998093E+01 0.  1.
       -5    1    3    3    0  502 -0.11749297869E+04 -0.10099304549E+04 -0.46827283240E+02  0.15500433582E+04  0.46999998093E+01 0. -1.
</event>
<event>
 5   0  0.8705956E-07  0.3383630E+04  0.7818609E-02  0.8141936E-01
       -1   -1    0    0    0  501  0.00000000000E+00  0.00000000000E+00  0.19159660627E+04  0.19159660627E+04  0.50400001928E-02 0.  1.
        1   -1    0    0  501    0  0.00000000000E+00  0.00000000000E+00 -0.14938872353E+04  0.14938872353E+04  0.50400001928E-02 0. -1.
    10030    2    1    2    0    0  0.00000000000E+00  0.00000000000E+00  0.42207882741E+03  0.34098532980E+04  0.33836295567E+04 0.  0.
        2    1    3    3  502    0  0.33252821830E+03 -0.82438327772E+03 -0.12395799340E+04  0.15253659290E+04  0.25500000920E-02 0. -1.
       -2    1    3    3    0  502 -0.33252821830E+03  0.82438327772E+03  0.16616587614E+04  0.18844873690E+04  0.25500000920E-02 0.  1.
</event>
<event>
 5   0  0.2705859E-06  0.3144368E+04  0.7818609E-02  0.8203666E-01
        2   -1    0    0  501    0  0.00000000000E+00  0.00000000000E+00  0.23457644631E+04  0.23457644631E+04  0.25500000920E-02 0. -1.
       -2   -1    0    0    0  501  0.00000000000E+00  0.00000000000E+00 -0.10537129961E+04  0.10537129961E+04  0.25500000920E-02 0.  1.
    10030    2    1    2    0    0  0.00000000000E+00  0.00000000000E+00  0.12920514670E+04  0.33994774592E+04  0.31443679814E+04 0.  0.
        1    1    3    3  502    0 -0.87653501026E+03 -0.11675708027E+04  0.15412067495E+02  0.14600591547E+04  0.50400001928E-02 0.  1.
       -1    1    3    3    0  502  0.87653501026E+03  0.11675708027E+04  0.12766393995E+04  0.19394183045E+04  0.50400001928E-02 0. -1.
</event>
<event>
 5   0  0.9295663E-07  0.3249827E+04  0.7818609E-02  0.8175781E-01
       -1   -1    0    0    0  501  0.00000000000E+00  0.00000000000E+00  0.15688613627E+04  0.15688613627E+04  0.50400001928E-02 0.  1.
        1   -1    0    0  501    0  0.00000000000E+00  0.00000000000E+00 -0.16829682380E+04  0.16829682380E+04  0.50400001928E-02 0. -1.
    10030    2    1    2    0    0  0.00000000000E+00  0.00000000000E+00 -0.11410687529E+03  0.32518296007E+04  0.32498269758E+04 0.  0.
        4    1    3    3  502    0  0.69412617846E+02 -0.84454046220E+01 -0.16814615941E+04  0.16829153698E+04  0.12699999809E+01 0. -1.
       -4    1    3    3    0  502 -0.69412617846E+02  0.84454046220E+01  0.15673547188E+04  0.15689142309E+04  0.12699999809E+01 0.  1.
</event>
<event>
 5   0  0.2705859E-06  0.3267238E+04  0.7818609E-02  0.8171282E-01
        2   -1    0    0  501    0  0.00000000000E+00  0.00000000000E+00  0.17252173287E+04  0.17252173287E+04  0.25500000920E-02 0.  1.
       -2   -1    0    0    0  501  0.00000000000E+00  0.00000000000E+00 -0.15468836592E+04  0.15468836592E+04  0.25500000920E-02 0. -1.
    10030    2    1    2    0    0  0.00000000000E+00  0.00000000000E+00  0.17833366949E+03  0.32721009880E+04  0.32672376678E+04 0.  0.
        1    1    3    3  502    0 -0.15449950097E+03  0.96779367969E+02 -0.15366639861E+04  0.15474406444E+04  0.50400001928E-02 0. -1.
       -1    1    3    3    0  502  0.15449950097E+03 -0.96779367969E+02  0.17149976556E+04  0.17246603435E+04  0.50400001928E-02 0.  1.
</event>
<event>
 5   0  0.2705859E-06  0.3318663E+04  0.7818609E-02  0.8158163E-01
        2   -1    0    0  501    0  0.00000000000E+00  0.00000000000E+00  0.22624361253E+04  0.22624361253E+04  0.25500000920E-02 0. -1.
       -2   -1    0    0    0  501  0.00000000000E+00  0.00000000000E+00 -0.12169986553E+04  0.12169986553E+04  0.25500000920E-02 0.  1.
    10030    2    1    2    0    0  0.00000000000E+00  0.00000000000E+00  0.10454374700E+04  0.34794347806E+04  0.33186634191E+04 0.  0.
        1    1    3    3  502    0 -0.91535304302E+03  0.69289964091E+03  0.17788414129E+04  0.21171343552E+04  0.50400001928E-02 0. -1.
       -1    1    3    3    0  502  0.91535304302E+03 -0.69289964091E+03 -0.73340394290E+03  0.13623004255E+04  0.50400001928E-02 0.  1.
</event>
<event>
 5   0  0.9295663E-07  0.3277199E+04  0.7818609E-02  0.8168722E-01
       -1   -1    0    0    0  501  0.00000000000E+00  0.00000000000E+00  0.23624974925E+04  0.23624974925E+04  0.50400001928E-02 0. -1.
        1   -1    0    0  501    0  0.00000000000E+00  0.00000000000E+00 -0.11365124626E+04  0.11365124626E+04  0.50400001928E-02 0.  1.
    10030    2    1    2    0    0  0.00000000000E+00  0.00000000000E+00  0.12259850299E+04  0.34990099551E+04  0.32771987080E+04 0.  0.
        4    1    3    3  502    0 -0.12215488323E+04  0.10386017665E+04  0.97369099445E+03  0.18758867089E+04  0.12699999809E+01 0. -1.
       -4    1    3    3    0  502  0.12215488323E+04 -0.10386017665E+04  0.25229403548E+03  0.16231232462E+04  0.12699999809E+01 0.  1.
</event>
<event>
 5   0  0.9268670E-07  0.3282148E+04  0.7818609E-02  0.8167453E-01
        1   -1    0    0  501    0  0.00000000000E+00  0.00000000000E+00  0.15505694642E+04  0.15505694642E+04  0.50400001928E-02 0. -1.
       -1   -1    0    0    0  501  0.00000000000E+00  0.00000000000E+00 -0.17368614037E+04  0.17368614037E+04  0.50400001928E-02 0.  1.
    10030    2    1    2    0    0  0.00000000000E+00  0.00000000000E+00 -0.18629193956E+03  0.32874308679E+04  0.32821482332E+04 0.  0.
        3    1    3    3  502    0 -0.78429530674E+03  0.85710157135E+02  0.13481484913E+04  0.15620402440E+04  0.10100000352E+00 0. -1.
       -3    1    3    3    0  502  0.78429530674E+03 -0.85710157135E+02 -0.15344404308E+04  0.17253906239E+04  0.10100000352E+00 0.  1.
</event>
<event>
 5   0  0.2574803E-06  0.3337495E+04  0.7818609E-02  0.8153420E-01
        2   -1    0    0  501    0  0.00000000000E+00  0.00000000000E+00  0.14806835102E+04  0.14806835102E+04  0.25500000920E-02 0.  1.
       -2   -1    0    0    0  501  0.00000000000E+00  0.00000000000E+00 -0.18806976689E+04  0.18806976689E+04  0.25500000920E-02 0. -1.
    10030    2    1    2    0    0  0.00000000000E+00  0.00000000000E+00 -0.40001415866E+03  0.33613811791E+04  0.33374948845E+04 0.  0.
        4    1    3    3  502    0  0.14048448695E+02 -0.16570280958E+04 -0.39833503971E+03  0.17042921950E+04  0.12699999809E+01 0. -1.
       -4    1    3    3    0  502 -0.14048448695E+02  0.16570280958E+04 -0.16791189473E+01  0.16570889842E+04  0.12699999809E+01 0.  1.
</event>
<event>
 5   0  0.9295663E-07  0.3224793E+04  0.7818609E-02  0.8182300E-01
        1   -1    0    0  501    0  0.00000000000E+00  0.00000000000E+00  0.21582725791E+04  0.21582725791E+04  0.50400001928E-02 0. -1.
       -1   -1    0    0    0  501  0.00000000000E+00  0.00000000000E+00 -0.12045851854E+04  0.12045851854E+04  0.50400001928E-02 0.  1.
    10030    2    1    2    0    0  0.00000000000E+00  0.00000000000E+00  0.95368739371E+03  0.33628577645E+04  0.32247934352E+04 0.  0.
        4    1    3    3  502    0  0.48836477505E+03 -0.61790608559E+03 -0.99034451596E+03  0.12653426245E+04  0.12699999809E+01 0.  1.
       -4    1    3    3    0  502 -0.48836477505E+03  0.61790608559E+03  0.19440319097E+04  0.20975151401E+04  0.12699999809E+01 0. -1.
</event>
<event>
 5   0  0.8845526E-07  0.3273162E+04  0.7818609E-02  0.8169758E-01
        1   -1    0    0  501    0  0.00000000000E+00  0.00000000000E+00  0.26693357202E+04  0.26693357202E+04  0.50400001928E-02 0. -1.
       -1   -1    0    0    0  501  0.00000000000E+00  0.00000000000E+00 -0.10033944877E+04  0.10033944878E+04  0.50400001928E-02 0.  1.
    10030    2    1    2    0    0  0.00000000000E+00  0.00000000000E+00  0.16659412325E+04  0.36727302080E+04  0.32731616200E+04 0.  0.
        1    1    3    3  502    0 -0.13762287239E+04 -0.56069322058E+03  0.16022376828E+04  0.21853027205E+04  0.50400001928E-02 0.  1.
       -1    1    3    3    0  502  0.13762287239E+04  0.56069322058E+03  0.63703549717E+02  0.14874274875E+04  0.50400001928E-02 0. -1.
</event>
<event>
 5   0  0.9530268E-07  0.3193353E+04  0.7818609E-02  0.8190575E-01
        1   -1    0    0  501    0  0.00000000000E+00  0.00000000000E+00  0.18420732239E+04  0.18420732239E+04  0.50400001928E-02 0. -1.
       -1   -1    0    0    0  501  0.00000000000E+00  0.00000000000E+00 -0.13839705777E+04  0.13839705777E+04  0.50400001928E-02 0.  1.
    10030    2    1    2    0    0  0.00000000000E+00  0.00000000000E+00  0.45810264622E+03  0.32260438016E+04  0.31933525605E+04 0.  0.
        5    1    3    3  502    0 -0.11361509887E+04 -0.10101310292E+04  0.72205258935E+03  0.16830287571E+04  0.46999998093E+01 0. -1.
       -5    1    3    3    0  502  0.11361509887E+04  0.10101310292E+04 -0.26394994312E+03  0.15430150446E+04  0.46999998093E+01 0.  1.
</event>
<event>
 5   0  0.2574803E-06  0.3371994E+04  0.7818609E-02  0.8144814E-01
       -2   -1    0    0    0  501  0.00000000000E+00  0.00000000000E+00  0.17036492449E+04  0.17036492449E+04  0.25500000920E-02 0. -1.
        2   -1    0    0  501    0  0.00000000000E+00  0.00000000000E+00 -0.16685280172E+04  0.16685280172E+04  0.25500000920E-02 0.  1.
    10030    2    1    2    0    0  0.00000000000E+00  0.00000000000E+00  0.35121227684E+02  0.33721772622E+04  0.33719943634E+04 0.  0.
        4    1    3    3  502    0 -0.87073978250E+03 -0.12473199280E+04  0.74464207817E+03  0.16936611849E+04  0.12699999809E+01 0. -1.
       -4    1    3    3    0  502  0.87073978250E+03  0.12473199280E+04 -0.70952085049E+03  0.16785160773E+04  0.12699999809E+01 0.  1.
</event>
<event>
 5   0  0.2614212E-06  0.3305214E+04  0.7818609E-02  0.8161570E-01
        2   -1    0    0  501    0  0.00000000000E+00  0.00000000000E+00  0.23334981847E+04  0.23334981847E+04  0.25500000920E-02 0.  1.
       -2   -1    0    0    0  501  0.00000000000E+00  0.00000000000E+00 -0.11703928938E+04  0.11703928938E+04  0.25500000920E-02 0. -1.
    10030    2    1    2    0    0  0.00000000000E+00  0.00000000000E+00  0.11631052909E+04  0.35038910785E+04  0.33052138770E+04 0.  0.
        2    1    3    3  502    0 -0.90513810300E+02 -0.69646708544E+03 -0.10043136493E+04  0.12255223609E+04  0.25500000920E-02 0. -1.
       -2    1    3    3    0  502  0.90513810300E+02  0.69646708544E+03  0.21674189402E+04  0.22783687176E+04  0.25500000920E-02 0.  1.
</event>
<event>
 5   0  0.9530268E-07  0.3328200E+04  0.7818609E-02  0.8155757E-01
        1   -1    0    0  501    0  0.00000000000E+00  0.00000000000E+00  0.18150136956E+04  0.18150136956E+04  0.50400001928E-02 0. -1.
       -1   -1    0    0    0  501  0.00000000000E+00  0.00000000000E+00 -0.15257342365E+04  0.15257342365E+04  0.50400001928E-02 0.  1.
    10030    2    1    2    0    0  0.00000000000E+00  0.00000000000E+00  0.28927945905E+03  0.33407479321E+04  0.33281998348E+04 0.  0.
        5    1    3    3  502    0  0.35381094227E+03  0.14936655987E+04  0.78970354888E+03  0.17262308330E+04  0.46999998093E+01 0. -1.
       -5    1    3    3    0  502 -0.35381094227E+03 -0.14936655987E+04 -0.50042408983E+03  0.16145170991E+04  0.46999998093E+01 0.  1.
</event>
<event>
 5   0  0.8845526E-07  0.3322045E+04  0.7818609E-02  0.8157309E-01
        1   -1    0    0  501    0  0.00000000000E+00  0.00000000000E+00  0.17519144216E+04  0.17519144216E+04  0.50400001928E-02 0. -1.
       -1   -1    0    0    0  501  0.00000000000E+00  0.00000000000E+00 -0.15748457809E+04  0.15748457810E+04  0.50400001928E-02 0.  1.
    10030    2    1    2    0    0  0.00000000000E+00  0.00000000000E+00  0.17706864061E+03  0.33267602025E+04  0.33220445725E+04 0.  0.
        1    1    3    3  502    0 -0.16160416597E+04  0.30122280390E+02 -0.29475830548E+03  0.16429791405E+04  0.50400001928E-02 0.  1.
       -1    1    3    3    0  502  0.16160416597E+04 -0.30122280390E+02  0.47182694609E+03  0.16837810620E+04  0.50400001928E-02 0. -1.
</event>
<event>
 5   0  0.2674551E-06  0.3285838E+04  0.7818609E-02  0.8166508E-01
       -2   -1    0    0    0  501  0.00000000000E+00  0.00000000000E+00  0.13388129826E+04  0.13388129826E+04  0.25500000920E-02 0. -1.
        2   -1    0    0  501    0  0.00000000000E+00  0.00000000000E+00 -0.20161010051E+04  0.20161010051E+04  0.25500000920E-02 0.  1.
    10030    2    1    2    0    0  0.00000000000E+00  0.00000000000E+00 -0.67728802250E+03  0.33549139877E+04  0.32858376100E+04 0.  0.
        3    1    3    3  502    0 -0.68993619277E+03 -0.14712941251E+04 -0.91767966001E+02  0.16276178060E+04  0.10100000352E+00 0. -1.
       -3    1    3    3    0  502  0.68993619277E+03  0.14712941251E+04 -0.58552005650E+03  0.17272961817E+04  0.10100000352E+00 0.  1.
</event>
<event>
 5   0  0.2574803E-06  0.3069193E+04  0.7818609E-02  0.8224244E-01
        2   -1    0    0  501    0  0.00000000000E+00  0.00000000000E+00  0.18205998799E+04  0.18205998799E+04  0.25500000920E-02 0. -1.
       -2   -1    0    0    0  501  0.00000000000E+00  0.00000000000E+00 -0.12935224683E+04  0.12935224683E+04  0.25500000920E-02 0.  1.
    10030    2    1    2    0    0  0.00000000000E+00  0.00000000000E+00  0.52707741152E+03  0.31141223482E+04  0.30691932819E+04 0.  0.
        4    1    3    3  502    0 -0.12180108779E+04 -0.13840271355E+03  0.12002428358E+04  0.17156020190E+04  0.12699999809E+01 0. -1.
       -4    1    3    3    0  502  0.12180108779E+04  0.13840271355E+03 -0.67316542425E+03  0.13985203292E+04  0.12699999809E+01 0.  1.
</event>
<event>
 5   0  0.2574803E-06  0.3004313E+04  0.7818609E-02  0.8242500E-01
        2   -1    0    0  501    0  0.00000000000E+00  0.00000000000E+00  0.20175863410E+04  0.20175863410E+04  0.25500000920E-02 0. -1.
       -2   -1    0    0    0  501  0.00000000000E+00  0.00000000000E+00 -0.11184029658E+04  0.11184029658E+04  0.25500000920E-02 0.  1.
    10030    2    1    2    0    0  0.00000000000E+00  0.00000000000E+00  0.89918337521E+03  0.31359893067E+04  0.30043132642E+04 0.  0.
        4    1    3    3  502    0 -0.18810730894E+03  0.94657291289E+03  0.16511691307E+04  0.19125233986E+04  0.12699999809E+01 0. -1.
       -4    1    3    3    0  502  0.18810730894E+03 -0.94657291289E+03 -0.75198575546E+03  0.12234659081E+04  0.12699999809E+01 0.  1.
</event>
<event>
 5   0  0.9268670E-07  0.3292308E+04  0.7818609E-02  0.8164855E-01
       -1   -1    0    0    0  501  0.00000000000E+00  0.00000000000E+00  0.13168157269E+04  0.13168157269E+04  0.50400001928E-02 0.  1.
        1   -1    0    0  501    0  0.00000000000E+00  0.00000000000E+00 -0.20578603151E+04  0.20578603151E+04  0.50400001928E-02 0. -1.
    10030    2    1    2    0    0  0.00000000000E+00  0.00000000000E+00 -0.74104458822E+03  0.33746760421E+04  0.32923078998E+04 0.  0.
        3    1    3    3  502    0  0.12545120451E+04  0.46969928289E+03 -0.13512270186E+04  0.19026908193E+04  0.10100000352E+00 0. -1.
       -3    1    3    3    0  502 -0.12545120451E+04 -0.46969928289E+03  0.61018243037E+03  0.14719852228E+04  0.10100000352E+00 0.  1.
</event>
<event>
 5   0  0.9268670E-07  0.3298080E+04  0.7818609E-02  0.8163384E-01
       -1   -1    0    0    0  501  0.00000000000E+00  0.00000000000E+00  0.32096224356E+04  0.32096224356E+04  0.50400001928E-02 0.  1.
        1   -1    0    0  501    0  0.00000000000E+00  0.00000000000E+00 -0.84724391142E+03  0.84724391143E+03  0.50400001928E-02 0. -1.
    10030    2    1    2    0    0  0.00000000000E+00  0.00000000000E+00  0.23623785242E+04  0.40568663470E+04  0.32980800879E+04 0.  0.
        3    1    3    3  502    0 -0.92146939061E+03  0.12007101303E+04  0.37596608343E+03  0.15595387654E+04  0.10100000352E+00 0. -1.
       -3    1    3    3    0  502  0.92146939061E+03 -0.12007101303E+04  0.19864124407E+04  0.24973275816E+04  0.10100000352E+00 0.  1.
</event>
<event>
 5   0  0.8845526E-07  0.3302251E+04  0.7818609E-02  0.8162323E-01
       -1   -1    0    0    0  501  0.00000000000E+00  0.00000000000E+00  0.11959689094E+04  0.11959689094E+04  0.50400001928E-02 0.  1.
        1   -1    0    0  501    0  0.00000000000E+00  0.00000000000E+00 -0.22795032656E+04  0.22795032656E+04  0.50400001928E-02 0. -1.
    10030    2    1    2    0    0  0.00000000000E+00  0.00000000000E+00 -0.10835343562E+04  0.34754721750E+04  0.33022507685E+04 0.  0.
        1    1    3    3  502    0 -0.96666462055E+03  0.12614360846E+04 -0.70443841727E+02  0.15907934558E+04  0.50400001928E-02 0. -1.
       -1    1    3    3    0  502  0.96666462055E+03 -0.12614360846E+04 -0.10130905145E+04  0.18846787192E+04  0.50400001928E-02 0.  1.
</event>
<event>
 5   0  0.8705956E-07  0.3310935E+04  0.7818609E-02  0.8160118E-01
        1   -1    0    0  501    0  0.00000000000E+00  0.00000000000E+00  0.14518628873E+04  0.14518628873E+04  0.50400001928E-02 0.  1.
       -1   -1    0    0    0  501  0.00000000000E+00  0.00000000000E+00 -0.18876253979E+04  0.18876253979E+04  0.50400001928E-02 0. -1.
    10030    2    1    2    0    0  0.00000000000E+00  0.00000000000E+00 -0.43576251063E+03  0.33394882853E+04  0.33109353726E+04 0.  0.
        2    1    3    3  502    0  0.56431613953E+03  0.12719972301E+04  0.68659261743E+03  0.15517213284E+04  0.25500000920E-02 0.  1.
       -2    1    3    3    0  502 -0.56431613953E+03 -0.12719972301E+04 -0.11223551281E+04  0.17877669569E+04  0.25500000920E-02 0. -1.
</event>
<event>
 5   0  0.2674551E-06  0.3306066E+04  0.7818609E-02  0.8161353E-01
       -2   -1    0    0    0  501  0.00000000000E+00  0.00000000000E+00  0.24410425303E+04  0.24410425303E+04  0.25500000920E-02 0. -1.
        2   -1    0    0  501    0  0.00000000000E+00  0.00000000000E+00 -0.11194064914E+04  0.11194064914E+04  0.25500000920E-02 0.  1.
    10030    2    1    2    0    0  0.00000000000E+00  0.00000000000E+00  0.13216360389E+04  0.35604490217E+04  0.33060664568E+04 0.  0.
        3    1    3    3  502    0 -0.73680354391E+03  0.10618561843E+04 -0.44906208372E+03  0.13682378389E+04  0.10100000352E+00 0.  1.
       -3    1    3    3    0  502  0.73680354391E+03 -0.10618561843E+04  0.17706981226E+04  0.21922111828E+04  0.10100000352E+00 0. -1.
</event>
<event>
 5   0  0.2674551E-06  0.3336735E+04  0.7818609E-02  0.8153611E-01
       -2   -1    0    0    0  501  0.00000000000E+00  0.00000000000E+00  0.23352177477E+04  0.23352177477E+04  0.25500000920E-02 0.  1.
        2   -1    0    0  501    0  0.00000000000E+00  0.00000000000E+00 -0.11919446399E+04  0.11919446399E+04  0.25500000920E-02 0. -1.
    10030    2    1    2    0    0  0.00000000000E+00  0.00000000000E+00  0.11432731078E+04  0.35271623875E+04  0.33367350972E+04 0.  0.
        3    1    3    3  502    0  0.14042801707E+04  0.90079270881E+03  0.57635977753E+03  0.17651121509E+04  0.10100000352E+00 0. -1.
       -3    1    3    3    0  502 -0.14042801707E+04 -0.90079270881E+03  0.56691333027E+03  0.17620502366E+04  0.10100000352E+00 0.  1.
</event>
<event>
 5   0  0.9268670E-07  0.3247966E+04  0.7818609E-02  0.8176263E-01
        1   -1    0    0  501    0  0.00000000000E+00  0.00000000000E+00  0.18154831558E+04  0.18154831558E+04  0.50400001928E-02 0.  1.
       -1   -1    0    0    0  501  0.00000000000E+00  0.00000000000E+00 -0.14526825521E+04  0.14526825521E+04  0.50400001928E-02 0. -1.
    10030    2    1    2    0    0  0.00000000000E+00  0.00000000000E+00  0.36280060370E+03  0.32681657079E+04  0.32479659506E+04 0.  0.
        3    1    3    3  502    0  0.67634897505E+03 -0.12981063681E+04  0.88918994824E+03  0.17126549136E+04  0.10100000352E+00 0.  1.
       -3    1    3    3    0  502 -0.67634897505E+03  0.12981063681E+04 -0.52638934454E+03  0.15555107943E+04  0.10100000352E+00 0. -1.
</event>
<event>
 5   0  0.2614212E-06  0.3123032E+04  0.7818609E-02  0.8209445E-01
       -2   -1    0    0    0  501  0.00000000000E+00  0.00000000000E+00  0.13877067337E+04  0.13877067337E+04  0.25500000920E-02 0.  1.
        2   -1    0    0  501    0  0.00000000000E+00  0.00000000000E+00 -0.17570952105E+04  0.17570952105E+04  0.25500000920E-02 0. -1.
    10030    2    1    2    0    0  0.00000000000E+00  0.00000000000E+00 -0.36938847689E+03  0.31448019442E+04  0.31230324080E+04 0.  0.
        2    1    3    3  502    0 -0.14433666567E+04 -0.53711469271E+03  0.75044379667E+02  0.15418920707E+04  0.25500000920E-02 0.  1.
       -2    1    3    3    0  502  0.14433666567E+04  0.53711469271E+03 -0.44443285656E+03  0.16029098735E+04  0.25500000920E-02 0. -1.
</event>
<event>
 5   0  0.2705859E-06  0.3147088E+04  0.7818609E-02  0.8202933E-01
       -2   -1    0    0    0  501  0.00000000000E+00  0.00000000000E+00  0.10416161898E+04  0.10416161898E+04  0.25500000920E-02 0. -1.
        2   -1    0    0  501    0  0.00000000000E+00  0.00000000000E+00 -0.23771142991E+04  0.23771142991E+04  0.25500000920E-02 0.  1.
    10030    2    1    2    0    0  0.00000000000E+00  0.00000000000E+00 -0.13354981093E+04  0.34187304889E+04  0.31470880120E+04 0.  0.
        1    1    3    3  502    0 -0.55229597384E+03 -0.29192411998E+03  0.90113658638E+03  0.10964933570E+04  0.50400001928E-02 0. -1.
       -1    1    3    3    0  502  0.55229597384E+03  0.29192411998E+03 -0.22366346957E+04  0.23222371319E+04  0.50400001928E-02 0.  1.
</event>
<event>
 5   0  0.2574803E-06  0.3201440E+04  0.7818609E-02  0.8188437E-01
        2   -1    0    0  501    0  0.00000000000E+00  0.00000000000E+00  0.15909145425E+04  0.15909145425E+04  0.25500000920E-02 0. -1.
       -2   -1    0    0    0  501  0.00000000000E+00  0.00000000000E+00 -0.16105857711E+04  0.16105857711E+04  0.25500000920E-02 0.  1.
    10030    2    1    2    0    0  0.00000000000E+00  0.00000000000E+00 -0.19671228635E+02  0.32015003136E+04  0.32014398793E+04 0.  0.
        4    1    3    3  502    0 -0.83346536623E+03  0.82438951442E+03  0.10801483202E+04  0.15940528833E+04  0.12699999809E+01 0. -1.
       -4    1    3    3    0  502  0.83346536623E+03 -0.82438951442E+03 -0.10998195488E+04  0.16074474303E+04  0.12699999809E+01 0.  1.
</event>
<event>
 5   0  0.9530268E-07  0.3350337E+04  0.7818609E-02  0.8150204E-01
        1   -1    0    0  501    0  0.00000000000E+00  0.00000000000E+00  0.23687249720E+04  0.23687249720E+04  0.50400001928E-02 0. -1.
       -1   -1    0    0    0  501  0.00000000000E+00  0.00000000000E+00 -0.11846837614E+04  0.11846837614E+04  0.50400001928E-02 0.  1.
    10030    2    1    2    0    0  0.00000000000E+00  0.00000000000E+00  0.11840412105E+04  0.35534087334E+04  0.33503373022E+04 0.  0.
        5    1    3    3  502    0  0.37541473106E+03 -0.16313458391E+04  0.65861533644E+03  0.17988945824E+04  0.46999998093E+01 0. -1.
       -5    1    3    3    0  502 -0.37541473106E+03  0.16313458391E+04  0.52542587410E+03  0.17545141511E+04  0.46999998093E+01 0.  1.
</event>
<event>
 5   0  0.2705859E-06  0.2515210E+04  0.7818609E-02  0.8397587E-01
       -2   -1    0    0    0  501  0.00000000000E+00  0.00000000000E+00  0.12090067957E+04  0.12090067957E+04  0.25500000920E-02 0.  1.
        2   -1    0    0  501    0  0.00000000000E+00  0.00000000000E+00 -0.13081566488E+04  0.13081566488E+04  0.25500000920E-02 0. -1.
    10030    2    1    2    0    0  0.00000000000E+00  0.00000000000E+00 -0.99149853082E+02  0.25171634446E+04  0.25152099541E+04 0.  0.
        1    1    3    3  502    0 -0.84760966272E+03  0.12981284800E+03 -0.97022243242E+03  0.12948455832E+04  0.50400001928E-02 0. -1.
       -1    1    3    3    0  502  0.84760966272E+03 -0.12981284800E+03  0.87107257933E+03  0.12223178614E+04  0.50400001928E-02 0.  1.
</event>
<event>
 5   0  0.2674551E-06  0.3277048E+04  0.7818609E-02  0.8168760E-01
        2   -1    0    0  501    0  0.00000000000E+00  0.00000000000E+00  0.25633217258E+04  0.25633217258E+04  0.25500000920E-02 0.  1.
       -2   -1    0    0    0  501  0.00000000000E+00  0.00000000000E+00 -0.10473756214E+04  0.10473756214E+04  0.25500000920E-02 0. -1.
    10030    2    1    2    0    0  0.00000000000E+00  0.00000000000E+00  0.15159461045E+04  0.36106973472E+04  0.32770478698E+04 0.  0.
        3    1    3    3  502    0  0.30714999542E+03  0.80272329337E+03  0.22950154316E+04  0.24506737129E+04  0.10100000352E+00 0.  1.
       -3    1    3    3    0  502 -0.30714999542E+03 -0.80272329337E+03 -0.77906932717E+03  0.11600236343E+04  0.10100000352E+00 0. -1.
</event>
<event>
 5   0  0.9295663E-07  0.3307151E+04  0.7818609E-02  0.8161078E-01
       -1   -1    0    0    0  501  0.00000000000E+00  0.00000000000E+00  0.19841338293E+04  0.19841338293E+04  0.50400001928E-02 0. -1.
        1   -1    0    0  501    0  0.00000000000E+00  0.00000000000E+00 -0.13780883246E+04  0.13780883246E+04  0.50400001928E-02 0.  1.
    10030    2    1    2    0    0  0.00000000000E+00  0.00000000000E+00  0.60604550469E+03  0.33622221539E+04  0.33071508370E+04 0.  0.
        4    1    3    3  502    0 -0.96619717392E+03 -0.13179558525E+04  0.46299565633E+02  0.16348363437E+04  0.12699999809E+01 0. -1.
       -4    1    3    3    0  502  0.96619717392E+03  0.13179558525E+04  0.55974593906E+03  0.17273858102E+04  0.12699999809E+01 0.  1.
</event>
<event>
 5   0  0.2658600E-06  0.3295276E+04  0.7818609E-02  0.8164098E-01
       -2   -1    0    0    0  501  0.00000000000E+00  0.00000000000E+00  0.80951010459E+03  0.80951010460E+03  0.25500000920E-02 0. -1.
        2   -1    0    0  501    0  0.00000000000E+00  0.00000000000E+00 -0.33535232792E+04  0.33535232792E+04  0.25500000920E-02 0.  1.
    10030    2    1    2    0    0  0.00000000000E+00  0.00000000000E+00 -0.25440131746E+04  0.41630333838E+04  0.32952760009E+04 0.  0.
        5    1    3    3  502    0 -0.26092287511E+03  0.78088136737E+03  0.53099350545E+03  0.97971049269E+03  0.46999998093E+01 0. -1.
       -5    1    3    3    0  502  0.26092287511E+03 -0.78088136737E+03 -0.30750066801E+04  0.31833228911E+04  0.46999998093E+01 0.  1.
</event>
<event>
 5   0  0.2614212E-06  0.3067817E+04  0.7818609E-02  0.8224626E-01
       -2   -1    0    0    0  501  0.00000000000E+00  0.00000000000E+00  0.14152686826E+04  0.14152686826E+04  0.25500000920E-02 0.  1.
        2   -1    0    0  501    0  0.00000000000E+00  0.00000000000E+00 -0.16624935088E+04  0.16624935088E+04  0.25500000920E-02 0. -1.
    10030    2    1    2    0    0  0.00000000000E+00  0.00000000000E+00 -0.24722482621E+03  0.30777621914E+04  0.30678168120E+04 0.  0.
        2    1    3    3  502    0 -0.59967221657E+02  0.72306269082E+03  0.12322344285E+04  0.14299711218E+04  0.25500000920E-02 0.  1.
       -2    1    3    3    0  502  0.59967221657E+02 -0.72306269082E+03 -0.14794592547E+04  0.16477910695E+04  0.25500000920E-02 0. -1.
</event>
<event>
 5   0  0.2614212E-06  0.3426855E+04  0.7818609E-02  0.8131347E-01
        2   -1    0    0  501    0  0.00000000000E+00  0.00000000000E+00  0.25102214235E+04  0.25102214235E+04  0.25500000920E-02 0. -1.
       -2   -1    0    0    0  501  0.00000000000E+00  0.00000000000E+00 -0.11695516883E+04  0.11695516883E+04  0.25500000920E-02 0.  1.
    10030    2    1    2    0    0  0.00000000000E+00  0.00000000000E+00  0.13406697352E+04  0.36797731119E+04  0.34268549453E+04 0.  0.
        2    1    3    3  502    0  0.69055453849E+03  0.55096589919E+03  0.22468194722E+04  0.24142549023E+04  0.25500000920E-02 0. -1.
       -2    1    3    3    0  502 -0.69055453849E+03 -0.55096589919E+03 -0.90614973702E+03  0.12655182095E+04  0.25500000920E-02 0.  1.
</event>
<event>
 5   0  0.9268670E-07  0.3383773E+04  0.7818609E-02  0.8141900E-01
       -1   -1    0    0    0  501  0.00000000000E+00  0.00000000000E+00  0.17679220639E+04  0.17679220639E+04  0.50400001928E-02 0. -1.
        1   -1    0    0  501    0  0.00000000000E+00  0.00000000000E+00 -0.16191213651E+04  0.16191213651E+04  0.50400001928E-02 0.  1.
    10030    2    1    2    0    0  0.00000000000E+00  0.00000000000E+00  0.14880069883E+03  0.33870434291E+04  0.33837732699E+04 0.  0.
        3    1    3    3  502    0  0.88429385447E+03  0.12293982188E+04 -0.68070577537E+03  0.16603481455E+04  0.10100000352E+00 0.  1.
       -3    1    3    3    0  502 -0.88429385447E+03 -0.12293982188E+04  0.82950647420E+03  0.17266952836E+04  0.10100000352E+00 0. -1.
</event>
<event>
 5   0  0.8705956E-07  0.3292374E+04  0.7818609E-02  0.8164839E-01
       -1   -1    0    0    0  501  0.00000000000E+00  0.00000000000E+00  0.13364332741E+04  0.13364332741E+04  0.50400001928E-02 0. -1.
        1   -1    0    0  501    0  0.00000000000E+00  0.00000000000E+00 -0.20277337330E+04  0.20277337330E+04  0.50400001928E-02 0.  1.
    10030    2    1    2    0    0  0.00000000000E+00  0.00000000000E+00 -0.69130045893E+03  0.33641670071E+04  0.32923735097E+04 0.  0.
        2    1    3    3  502    0  0.64238212984E+03 -0.97199377232E+02  0.11998894651E+04  0.13644915713E+04  0.25500000920E-02 0. -1.
       -2    1    3    3    0  502 -0.64238212984E+03  0.97199377232E+02 -0.18911899241E+04  0.19996754358E+04  0.25500000920E-02 0.  1.
</event>
<event>
 5   0  0.2705859E-06  0.3370898E+04  0.7818609E-02  0.8145086E-01
       -2   -1    0    0    0  501  0.00000000000E+00  0.00000000000E+00  0.32802562990E+04  0.32802562990E+04  0.25500000920E-02 0.  1.
        2   -1    0    0  501    0  0.00000000000E+00  0.00000000000E+00 -0.86601114198E+03  0.86601114199E+03  0.25500000920E-02 0. -1.
    10030    2    1    2    0    0  0.00000000000E+00  0.00000000000E+00  0.24142451570E+04  0.41462674410E+04  0.33708981020E+04 0.  0.
        1    1    3    3  502    0 -0.15834659637E+03 -0.16130797882E+04  0.63859517613E+03  0.17420975422E+04  0.50400001928E-02 0. -1.
       -1    1    3    3    0  502  0.15834659637E+03  0.16130797882E+04  0.17756499809E+04  0.24041698988E+04  0.50400001928E-02 0.  1.
</event>
<event>
 5   0  0.8705956E-07  0.3453421E+04  0.7818609E-02  0.8124918E-01
        1   -1    0    0  501    0  0.00000000000E+00  0.00000000000E+00  0.16738619590E+04  0.16738619590E+04  0.50400001928E-02 0. -1.
       -1   -1    0    0    0  501  0.00000000000E+00  0.00000000000E+00 -0.17812271694E+04  0.17812271694E+04  0.50400001928E-02 0.  1.
    10030    2    1    2    0    0  0.00000000000E+00  0.00000000000E+00 -0.10736521035E+03  0.34550891284E+04  0.34534205647E+04 0.  0.
        2    1    3    3  502    0  0.78176903973E+03  0.14252343211E+04  0.52889823150E+03  0.17094411487E+04  0.25500000920E-02 0. -1.
       -2    1    3    3    0  502 -0.78176903973E+03 -0.14252343211E+04 -0.63626344184E+03  0.17456479797E+04  0.25500000920E-02 0.  1.
</event>
<event>
 5   0  0.9530268E-07  0.3231137E+04  0.7818609E-02  0.8180642E-01
        1   -1    0    0  501    0  0.00000000000E+00  0.00000000000E+00  0.14513538619E+04  0.14513538619E+04  0.50400001928E-02 0. -1.
       -1   -1    0    0    0  501  0.00000000000E+00  0.00000000000E+00 -0.17983637125E+04  0.17983637125E+04  0.50400001928E-02 0.  1.
    10030    2    1    2    0    0  0.00000000000E+00  0.00000000000E+00 -0.34700985059E+03  0.32497175744E+04  0.32311373349E+04 0.  0.
        5    1    3    3  502    0  0.12606455848E+04 -0.50813697233E+02  0.84137180895E+03  0.15164886855E+04  0.46999998093E+01 0. -1.
       -5    1    3    3    0  502 -0.12606455848E+04  0.50813697233E+02 -0.11883816595E+04  0.17332288888E+04  0.46999998093E+01 0.  1.
</event>
<event>
 5   0  0.2658600E-06  0.3334504E+04  0.7818609E-02  0.8154171E-01
       -2   -1    0    0    0  501  0.00000000000E+00  0.00000000000E+00  0.14486674276E+04  0.14486674276E+04  0.25500000920E-02 0. -1.
        2   -1    0    0  501    0  0.00000000000E+00  0.00000000000E+00 -0.19188178244E+04  0.19188178244E+04  0.25500000920E-02 0.  1.
    10030    2    1    2    0    0  0.00000000000E+00  0.00000000000E+00 -0.47015039681E+03  0.33674852519E+04  0.33345037901E+04 0.  0.
        5    1    3    3  502    0 -0.15627014554E+04  0.57950920391E+03 -0.27839511285E+03  0.16897907222E+04  0.46999998093E+01 0.  1.
       -5    1    3    3    0  502  0.15627014554E+04 -0.57950920391E+03 -0.19175528396E+03  0.16776945297E+04  0.46999998093E+01 0. -1.
</event>
<event>
 5   0  0.8705956E-07  0.3371112E+04  0.7818609E-02  0.8145033E-01
       -1   -1    0    0    0  501  0.00000000000E+00  0.00000000000E+00  0.26349429984E+04  0.26349429984E+04  0.50400001928E-02 0.  1.
        1   -1    0    0  501    0  0.00000000000E+00  0.00000000000E+00 -0.10782395649E+04  0.10782395649E+04  0.50400001928E-02 0. -1.
    10030    2    1    2    0    0  0.00000000000E+00  0.00000000000E+00  0.15567034336E+04  0.37131825633E+04  0.33711124526E+04 0.  0.
        2    1    3    3  502    0  0.64473174010E+03  0.51411615180E+03 -0.84088757082E+03  0.11777462974E+04  0.25500000920E-02 0. -1.
       -2    1    3    3    0  502 -0.64473174010E+03 -0.51411615180E+03  0.23975910044E+04  0.25354362659E+04  0.25500000920E-02 0.  1.
</event>
<event>
 5   0  0.9268670E-07  0.2593944E+04  0.7818609E-02  0.8370261E-01
       -1   -1    0    0    0  501  0.00000000000E+00  0.00000000000E+00  0.13330060392E+04  0.13330060393E+04  0.50400001928E-02 0.  1.
        1   -1    0    0  501    0  0.00000000000E+00  0.00000000000E+00 -0.12619122946E+04  0.12619122946E+04  0.50400001928E-02 0. -1.
    10030    2    1    2    0    0  0.00000000000E+00  0.00000000000E+00  0.71093744681E+02  0.25949183338E+04  0.25939442628E+04 0.  0.
        3    1    3    3  502    0  0.36236970798E+02  0.10134788877E+04 -0.77326408041E+03  0.12752999341E+04  0.10100000352E+00 0. -1.
       -3    1    3    3    0  502 -0.36236970798E+02 -0.10134788877E+04  0.84435782509E+03  0.13196183997E+04  0.10100000352E+00 0.  1.
</event>
<event>
 5   0  0.9530268E-07  0.3287065E+04  0.7818609E-02  0.8166195E-01
       -1   -1    0    0    0  501  0.00000000000E+00  0.00000000000E+00  0.18559752844E+04  0.18559752844E+04  0.50400001928E-02 0.  1.
        1   -1    0    0  501    0  0.00000000000E+00  0.00000000000E+00 -0.14554063735E+04  0.14554063736E+04  0.50400001928E-02 0. -1.
    10030    2    1    2    0    0  0.00000000000E+00  0.00000000000E+00  0.40056891086E+03  0.33113816580E+04  0.32870645008E+04 0.  0.
        5    1    3    3  502    0  0.90382604855E+03  0.21566799984E+03 -0.11653851416E+04  0.14904894600E+04  0.46999998093E+01 0. -1.
       -5    1    3    3    0  502 -0.90382604855E+03 -0.21566799984E+03  0.15659540524E+04  0.18208921979E+04  0.46999998093E+01 0.  1.
</event>
<event>
 5   0  0.2614212E-06  0.2876588E+04  0.7818609E-02  0.8279878E-01
        2   -1    0    0  501    0  0.00000000000E+00  0.00000000000E+00  0.11656455071E+04  0.11656455071E+04  0.25500000920E-02 0.  1.
       -2   -1    0    0    0  501  0.00000000000E+00  0.00000000000E+00 -0.17747155747E+04  0.17747155747E+04  0.25500000920E-02 0. -1.
    10030    2    1    2    0    0  0.00000000000E+00  0.00000000000E+00 -0.60907006758E+03  0.29403610818E+04  0.28765877258E+04 0.  0.
        2    1    3    3  502    0  0.57566831392E+03  0.13913090146E+03 -0.16442942809E+04  0.17476999450E+04  0.25500000920E-02 0. -1.
       -2    1    3    3    0  502 -0.57566831392E+03 -0.13913090146E+03  0.10352242134E+04  0.11926611368E+04  0.25500000920E-02 0.  1.
</event>
<event>
 5   0  0.2705859E-06  0.3282100E+04  0.7818609E-02  0.8167465E-01
       -2   -1    0    0    0  501  0.00000000000E+00  0.00000000000E+00  0.10233147502E+04  0.10233147502E+04  0.25500000920E-02 0.  1.
        2   -1    0    0  501    0  0.00000000000E+00  0.00000000000E+00 -0.26316885573E+04  0.26316885573E+04  0.25500000920E-02 0. -1.
    10030    2    1    2    0    0  0.00000000000E+00  0.00000000000E+00 -0.16083738071E+04  0.36550033074E+04  0.32821003754E+04 0.  0.
        1    1    3    3  502    0  0.48803517300E+03 -0.61233223129E+03  0.80186242010E+03  0.11207642180E+04  0.50400001928E-02 0.  1.
       -1    1    3    3    0  502 -0.48803517300E+03  0.61233223129E+03 -0.24102362272E+04  0.25342390894E+04  0.50400001928E-02 0. -1.
</event>
<event>
 5   0  0.9268670E-07  0.3342556E+04  0.7818609E-02  0.8152151E-01
       -1   -1    0    0    0  501  0.00000000000E+00  0.00000000000E+00  0.10402940670E+04  0.10402940670E+04  0.50400001928E-02 0.  1.
        1   -1    0    0  501    0  0.00000000000E+00  0.00000000000E+00 -0.26849816826E+04  0.26849816826E+04  0.50400001928E-02 0. -1.
    10030    2    1    2    0    0  0.00000000000E+00  0.00000000000E+00 -0.16446876156E+04  0.37252757496E+04  0.33425562161E+04 0.  0.
        3    1    3    3  502    0  0.85638918354E+03  0.56427933046E+03  0.64835453055E+03  0.12133330969E+04  0.10100000352E+00 0.  1.
       -3    1    3    3    0  502 -0.85638918354E+03 -0.56427933046E+03 -0.22930421462E+04  0.25119426528E+04  0.10100000352E+00 0. -1.
</event>
<event>
 5   0  0.2705859E-06  0.2365192E+04  0.7818609E-02  0.8452651E-01
        2   -1    0    0  501    0  0.00000000000E+00  0.00000000000E+00  0.12749380114E+04  0.12749380114E+04  0.25500000920E-02 0.  1.
       -2   -1    0    0    0  501  0.00000000000E+00  0.00000000000E+00 -0.10969426338E+04  0.10969426338E+04  0.25500000920E-02 0. -1.
    10030    2    1    2    0    0  0.00000000000E+00  0.00000000000E+00  0.17799537760E+03  0.23718806452E+04  0.23651924743E+04 0.  0.
        1    1    3    3  502    0 -0.20865921697E+03 -0.44025272135E+03  0.11696220582E+04  0.12670346825E+04  0.50400001928E-02 0.  1.
       -1    1    3    3    0  502  0.20865921697E+03  0.44025272135E+03 -0.99162668063E+03  0.11048459627E+04  0.50400001928E-02 0. -1.
</event>
<event>
 5   0  0.2705859E-06  0.3311639E+04  0.7818609E-02  0.8159940E-01
        2   -1    0    0  501    0  0.00000000000E+00  0.00000000000E+00  0.14859421528E+04  0.14859421528E+04  0.25500000920E-02 0. -1.
       -2   -1    0    0    0  501  0.00000000000E+00  0.00000000000E+00 -0.18451179609E+04  0.18451179609E+04  0.25500000920E-02 0.  1.
    10030    2    1    2    0    0  0.00000000000E+00  0.00000000000E+00 -0.35917580812E+03  0.33310601137E+04  0.33116392044E+04 0.  0.
        1    1    3    3  502    0 -0.90251223784E+03 -0.19250406340E+03 -0.15624786362E+04  0.18146420150E+04  0.50400001928E-02 0.  1.
       -1    1    3    3    0  502  0.90251223784E+03  0.19250406340E+03  0.12033028281E+04  0.15164180987E+04  0.50400001928E-02 0. -1.
</event>
<event>
 5   0  0.2658600E-06  0.3304185E+04  0.7818609E-02  0.8161831E-01
       -2   -1    0    0    0  501  0.00000000000E+00  0.00000000000E+00  0.12061069048E+04  0.12061069048E+04  0.25500000920E-02 0. -1.
        2   -1    0    0  501    0  0.00000000000E+00  0.00000000000E+00 -0.22629918176E+04  0.22629918176E+04  0.25500000920E-02 0.  1.
    10030    2    1    2    0    0  0.00000000000E+00  0.00000000000E+00 -0.10568849129E+04  0.34690987224E+04  0.33041852592E+04 0.  0.
        5    1    3    3  502    0 -0.82184148498E+03  0.35279304437E+03 -0.19868363663E+04  0.21788591499E+04  0.46999998093E+01 0.  1.
       -5    1    3    3    0  502  0.82184148498E+03 -0.35279304437E+03  0.92995145347E+03  0.12902395725E+04  0.46999998093E+01 0. -1.
</event>
<event>
 5   0  0.2674551E-06  0.3292498E+04  0.7818609E-02  0.8164807E-01
        2   -1    0    0  501    0  0.00000000000E+00  0.00000000000E+00  0.18782622677E+04  0.18782622677E+04  0.25500000920E-02 0. -1.
       -2   -1    0    0    0  501  0.00000000000E+00  0.00000000000E+00 -0.14428952759E+04  0.14428952759E+04  0.25500000920E-02 0.  1.
    10030    2    1    2    0    0  0.00000000000E+00  0.00000000000E+00  0.43536699182E+03  0.33211575436E+04  0.32924979897E+04 0.  0.
        3    1    3    3  502    0  0.19946236283E+03 -0.15160729353E+04 -0.39743883677E+03  0.15799430428E+04  0.10100000352E+00 0.  1.
       -3    1    3    3    0  502 -0.19946236283E+03  0.15160729353E+04  0.83280582859E+03  0.17412145008E+04  0.10100000352E+00 0. -1.
</event>
<event>
 5   0  0.8845526E-07  0.3285873E+04  0.7818609E-02  0.8166499E-01
        1   -1    0    0  501    0  0.00000000000E+00  0.00000000000E+00  0.14758310513E+04  0.14758310513E+04  0.50400001928E-02 0. -1.
       -1   -1    0    0    0  501  0.00000000000E+00  0.00000000000E+00 -0.18289630535E+04  0.18289630535E+04  0.50400001928E-02 0.  1.
    10030    2    1    2    0    0  0.00000000000E+00  0.00000000000E+00 -0.35313200221E+03  0.33047941049E+04  0.32858730749E+04 0.  0.
        1    1    3    3  502    0  0.22877962934E+03 -0.10736319841E+04 -0.14059855863E+04  0.17837660231E+04  0.50400001928E-02 0.  1.
       -1    1    3    3    0  502 -0.22877962934E+03  0.10736319841E+04  0.10528535841E+04  0.15210280818E+04  0.50400001928E-02 0. -1.
</event>
<event>
 5   0  0.8845526E-07  0.3276066E+04  0.7818609E-02  0.8169012E-01
        1   -1    0    0  501    0  0.00000000000E+00  0.00000000000E+00  0.16188073798E+04  0.16188073798E+04  0.50400001928E-02 0.  1.
       -1   -1    0    0    0  501  0.00000000000E+00  0.00000000000E+00 -0.16574873841E+04  0.16574873841E+04  0.50400001928E-02 0. -1.
    10030    2    1    2    0    0  0.00000000000E+00  0.00000000000E+00 -0.38680004272E+02  0.32762947639E+04  0.32760664275E+04 0.  0.
        1    1    3    3  502    0 -0.89775263041E+03 -0.13697673420E+04  0.11165444969E+02  0.16377872340E+04  0.50400001928E-02 0. -1.
       -1    1    3    3    0  502  0.89775263041E+03  0.13697673420E+04 -0.49845449241E+02  0.16385075299E+04  0.50400001928E-02 0.  1.
</event>
<event>
 5   0  0.8845526E-07  0.3348739E+04  0.7818609E-02  0.8150603E-01
       -1   -1    0    0    0  501  0.00000000000E+00  0.00000000000E+00  0.10147822830E+04  0.10147822830E+04  0.50400001928E-02 0. -1.
        1   -1    0    0  501    0  0.00000000000E+00  0.00000000000E+00 -0.27626751475E+04  0.27626751475E+04  0.50400001928E-02 0.  1.
    10030    2    1    2    0    0  0.00000000000E+00  0.00000000000E+00 -0.17478928645E+04  0.37774574306E+04  0.33487393410E+04 0.  0.
        1    1    3    3  502    0  0.39835033453E+03 -0.10872763569E+04 -0.22381841884E+04  0.25199843901E+04  0.50400001928E-02 0.  1.
       -1    1    3    3    0  502 -0.39835033453E+03  0.10872763569E+04  0.49029132384E+03  0.12574730405E+04  0.50400001928E-02 0. -1.
</event>
<event>
 5   0  0.2658600E-06  0.3240519E+04  0.7818609E-02  0.8178197E-01
       -2   -1    0    0    0  501  0.00000000000E+00  0.00000000000E+00  0.10601998004E+04  0.10601998004E+04  0.25500000920E-02 0. -1.
        2   -1    0    0  501    0  0.00000000000E+00  0.00000000000E+00 -0.24761762730E+04  0.24761762730E+04  0.25500000920E-02 0.  1.
    10030    2    1    2    0    0  0.00000000000E+00  0.00000000000E+00 -0.14159764727E+04  0.35363760734E+04  0.32405194586E+04 0.  0.
        5    1    3    3  502    0 -0.84184007148E+03 -0.10558683999E+03 -0.22143669826E+04  0.23713469823E+04  0.46999998093E+01 0.  1.
       -5    1    3    3    0  502  0.84184007148E+03  0.10558683999E+03  0.79839050997E+03  0.11650290911E+04  0.46999998093E+01 0. -1.
</event>
<event>
 5   0  0.2705859E-06  0.3266984E+04  0.7818609E-02  0.8171347E-01
       -2   -1    0    0    0  501  0.00000000000E+00  0.00000000000E+00  0.14470374935E+04  0.14470374935E+04  0.25500000920E-02 0. -1.
        2   -1    0    0  501    0  0.00000000000E+00  0.00000000000E+00 -0.18439721692E+04  0.18439721692E+04  0.25500000920E-02 0.  1.
    10030    2    1    2    0    0  0.00000000000E+00  0.00000000000E+00 -0.39693467569E+03  0.32910096628E+04  0.32669844603E+04 0.  0.
        1    1    3    3  502    0  0.10915925836E+04 -0.89981193798E+03  0.62427691114E+03  0.15462721475E+04  0.50400001928E-02 0. -1.
       -1    1    3    3    0  502 -0.10915925836E+04  0.89981193798E+03 -0.10212115868E+04  0.17447375153E+04  0.50400001928E-02 0.  1.
</event>
<event>
 5   0  0.9530268E-07  0.2638461E+04  0.7818609E-02  0.8355253E-01
        1   -1    0    0  501    0  0.00000000000E+00  0.00000000000E+00  0.11535331705E+04  0.11535331705E+04  0.50400001928E-02 0. -1.
       -1   -1    0    0    0  501  0.00000000000E+00  0.00000000000E+00 -0.15087288736E+04  0.15087288737E+04  0.50400001928E-02 0.  1.
    10030    2    1    2    0    0  0.00000000000E+00  0.00000000000E+00 -0.35519570313E+03  0.26622620442E+04  0.26384607642E+04 0.  0.
        5    1    3    3  502    0  0.48640482627E+03  0.10406391077E+04  0.47696614654E+03  0.12437999045E+04  0.46999998093E+01 0. -1.
       -5    1    3    3    0  502 -0.48640482627E+03 -0.10406391077E+04 -0.83216184967E+03  0.14184621396E+04  0.46999998093E+01 0.  1.
</event>
<event>
 5   0  0.9530268E-07  0.3230307E+04  0.7818609E-02  0.8180859E-01
       -1   -1    0    0    0  501  0.00000000000E+00  0.00000000000E+00  0.98944623310E+03  0.98944623311E+03  0.50400001928E-02 0. -1.
        1   -1    0    0  501    0  0.00000000000E+00  0.00000000000E+00 -0.26365460864E+04  0.26365460864E+04  0.50400001928E-02 0.  1.
    10030    2    1    2    0    0  0.00000000000E+00  0.00000000000E+00 -0.16470998533E+04  0.36259923195E+04  0.32303068545E+04 0.  0.
        5    1    3    3  502    0 -0.60045041432E+03  0.99038393563E+03 -0.20871870719E+04  0.23870008385E+04  0.46999998093E+01 0.  1.
       -5    1    3    3    0  502  0.60045041432E+03 -0.99038393563E+03  0.44008721860E+03  0.12389914810E+04  0.46999998093E+01 0. -1.
</event>
<event>
 5   0  0.2705859E-06  0.2511847E+04  0.7818609E-02  0.8398777E-01
       -2   -1    0    0    0  501  0.00000000000E+00  0.00000000000E+00  0.96889086192E+03  0.96889086193E+03  0.25500000920E-02 0.  1.
        2   -1    0    0  501    0  0.00000000000E+00  0.00000000000E+00 -0.16279893059E+04  0.16279893059E+04  0.25500000920E-02 0. -1.
    10030    2    1    2    0    0  0.00000000000E+00  0.00000000000E+00 -0.65909844402E+03  0.25968801679E+04  0.25118470987E+04 0.  0.
        1    1    3    3  502    0 -0.32298567400E+03 -0.57886838090E+03  0.77330359056E+03  0.10185316839E+04  0.50400001928E-02 0. -1.
       -1    1    3    3    0  502  0.32298567400E+03  0.57886838090E+03 -0.14324020346E+04  0.15783484839E+04  0.50400001928E-02 0.  1.
</event>
<event>
 5   0  0.9268670E-07  0.3290733E+04  0.7818609E-02  0.8165257E-01
        1   -1    0    0  501    0  0.00000000000E+00  0.00000000000E+00  0.15220296745E+04  0.15220296745E+04  0.50400001928E-02 0. -1.
       -1   -1    0    0    0  501  0.00000000000E+00  0.00000000000E+00 -0.17786979133E+04  0.17786979134E+04  0.50400001928E-02 0.  1.
    10030    2    1    2    0    0  0.00000000000E+00  0.00000000000E+00 -0.25666823883E+03  0.33007275879E+04  0.32907330528E+04 0.  0.
        3    1    3    3  502    0 -0.10063793481E+04  0.93261648034E+03 -0.10391990791E+04  0.17211936637E+04  0.10100000352E+00 0.  1.
       -3    1    3    3    0  502  0.10063793481E+04 -0.93261648034E+03  0.78253084024E+03  0.15795339242E+04  0.10100000352E+00 0. -1.
</event>
<event>
 5   0  0.8705956E-07  0.3637409E+04  0.7818609E-02  0.8081976E-01
        1   -1    0    0  501    0  0.00000000000E+00  0.00000000000E+00  0.25536199345E+04  0.25536199345E+04  0.50400001928E-02 0.  1.
       -1   -1    0    0    0  501  0.00000000000E+00  0.00000000000E+00 -0.12952932591E+04  0.12952932591E+04  0.50400001928E-02 0. -1.
    10030    2    1    2    0    0  0.00000000000E+00  0.00000000000E+00  0.12583266754E+04  0.38489131937E+04  0.36374093460E+04 0.  0.
        2    1    3    3  502    0  0.51901687395E+03 -0.67035893005E+03  0.23317367492E+04  0.24810795791E+04  0.25500000920E-02 0.  1.
       -2    1    3    3    0  502 -0.51901687395E+03  0.67035893005E+03 -0.10734100738E+04  0.13678336145E+04  0.25500000920E-02 0. -1.
</event>
<event>
 5   0  0.9295663E-07  0.3295643E+04  0.7818609E-02  0.8164005E-01
       -1   -1    0    0    0  501  0.00000000000E+00  0.00000000000E+00  0.28649279560E+04  0.28649279560E+04  0.50400001928E-02 0. -1.
        1   -1    0    0  501    0  0.00000000000E+00  0.00000000000E+00 -0.94777794325E+03  0.94777794327E+03  0.50400001928E-02 0.  1.
    10030    2    1    2    0    0  0.00000000000E+00  0.00000000000E+00  0.19171500127E+04  0.38127058992E+04  0.32956428967E+04 0.  0.
        4    1    3    3  502    0  0.76593369513E+03 -0.61569777398E+03  0.24888149466E+04  0.26758063506E+04  0.12699999809E+01 0. -1.
       -4    1    3    3    0  502 -0.76593369513E+03  0.61569777398E+03 -0.57166493392E+03  0.11368995487E+04  0.12699999809E+01 0.  1.
</event>
<event>
 5   0  0.9295663E-07  0.3322644E+04  0.7818609E-02  0.8157157E-01
        1   -1    0    0  501    0  0.00000000000E+00  0.00000000000E+00  0.15893683013E+04  0.15893683013E+04  0.50400001928E-02 0.  1.
       -1   -1    0    0    0  501  0.00000000000E+00  0.00000000000E+00 -0.17365333848E+04  0.17365333848E+04  0.50400001928E-02 0. -1.
    10030    2    1    2    0    0  0.00000000000E+00  0.00000000000E+00 -0.14716508343E+03  0.33259016861E+04  0.33226441976E+04 0.  0.
        4    1    3    3  502    0 -0.48072410280E+01 -0.16420831002E+04 -0.32588021121E+03  0.16741145548E+04  0.12699999809E+01 0.  1.
       -4    1    3    3    0  502  0.48072410280E+01  0.16420831002E+04  0.17871512779E+03  0.16517871313E+04  0.12699999809E+01 0. -1.
</event>
<event>
 5   0  0.8845526E-07  0.3289298E+04  0.7818609E-02  0.8165624E-01
        1   -1    0    0  501    0  0.00000000000E+00  0.00000000000E+00  0.18778037842E+04  0.18778037842E+04  0.50400001928E-02 0.  1.
       -1   -1    0    0    0  501  0.00000000000E+00  0.00000000000E+00 -0.14404434862E+04  0.14404434862E+04  0.50400001928E-02 0. -1.
    10030    2    1    2    0    0  0.00000000000E+00  0.00000000000E+00  0.43736029796E+03  0.33182472704E+04  0.32892979369E+04 0.  0.
        1    1    3    3  502    0  0.12759941661E+04  0.72876967818E+03  0.96383109253E+03  0.17573379671E+04  0.50400001928E-02 0.  1.
       -1    1    3    3    0  502 -0.12759941661E+04 -0.72876967818E+03 -0.52647079457E+03  0.15609093033E+04  0.50400001928E-02 0. -1.
</event>
<event>
 5   0  0.9268670E-07  0.3311354E+04  0.7818609E-02  0.8160012E-01
        1   -1    0    0  501    0  0.00000000000E+00  0.00000000000E+00  0.15277196998E+04  0.15277196998E+04  0.50400001928E-02 0. -1.
       -1   -1    0    0    0  501  0.00000000000E+00  0.00000000000E+00 -0.17943519880E+04  0.17943519881E+04  0.50400001928E-02 0.  1.
    10030    2    1    2    0    0  0.00000000000E+00  0.00000000000E+00 -0.26663228821E+03  0.33220716879E+04  0.33113543336E+04 0.  0.
        3    1    3    3  502    0 -0.52682350480E+03 -0.15567251763E+04  0.68158611165E+02  0.16448653094E+04  0.10100000352E+00 0. -1.
       -3    1    3    3    0  502  0.52682350480E+03  0.15567251763E+04 -0.33479089937E+03  0.16772063785E+04  0.10100000352E+00 0.  1.
</event>
<event>
 5   0  0.9295663E-07  0.3283843E+04  0.7818609E-02  0.8167019E-01
        1   -1    0    0  501    0  0.00000000000E+00  0.00000000000E+00  0.23256467453E+04  0.23256467454E+04  0.50400001928E-02 0. -1.
       -1   -1    0    0    0  501  0.00000000000E+00  0.00000000000E+00 -0.11592072689E+04  0.11592072690E+04  0.50400001928E-02 0.  1.
    10030    2    1    2    0    0  0.00000000000E+00  0.00000000000E+00  0.11664394764E+04  0.34848540143E+04  0.32838432437E+04 0.  0.
        4    1    3    3  502    0 -0.48378963035E+03 -0.14335403639E+04  0.12600822277E+04  0.19689843104E+04  0.12699999809E+01 0. -1.
       -4    1    3    3    0  502  0.48378963035E+03  0.14335403639E+04 -0.93642751249E+02  0.15158697039E+04  0.12699999809E+01 0.  1.
</event>
<event>
 5   0  0.2674551E-06  0.3475951E+04  0.7818609E-02  0.8119513E-01
        2   -1    0    0  501    0  0.00000000000E+00  0.00000000000E+00  0.17960320239E+04  0.17960320239E+04  0.25500000920E-02 0.  1.
       -2   -1    0    0    0  501  0.00000000000E+00  0.00000000000E+00 -0.16817952411E+04  0.16817952411E+04  0.25500000920E-02 0. -1.
    10030    2    1    2    0    0  0.00000000000E+00  0.00000000000E+00  0.11423678283E+03  0.34778272651E+04  0.34759505812E+04 0.  0.
        3    1    3    3  502    0 -0.21232817778E+02  0.16532429959E+04  0.59303325418E+03  0.17565169190E+04  0.10100000352E+00 0.  1.
       -3    1    3    3    0  502  0.21232817778E+02 -0.16532429959E+04 -0.47879647135E+03  0.17213103460E+04  0.10100000352E+00 0. -1.
</event>
<event>
 5   0  0.8705956E-07  0.3033637E+04  0.7818609E-02  0.8234190E-01
        1   -1    0    0  501    0  0.00000000000E+00  0.00000000000E+00  0.14806020419E+04  0.14806020420E+04  0.50400001928E-02 0. -1.
       -1   -1    0    0    0  501  0.00000000000E+00  0.00000000000E+00 -0.15539211618E+04  0.15539211618E+04  0.50400001928E-02 0.  1.
    10030    2    1    2    0    0  0.00000000000E+00  0.00000000000E+00 -0.73319119814E+02  0.30345232037E+04  0.30336373186E+04 0.  0.
        2    1    3    3  502    0  0.80677416523E+02 -0.27010661180E+03 -0.15274881626E+04  0.15532824966E+04  0.25500000920E-02 0.  1.
       -2    1    3    3    0  502 -0.80677416523E+02  0.27010661180E+03  0.14541690428E+04  0.14812407071E+04  0.25500000920E-02 0. -1.
</event>
<event>
 5   0  0.9268670E-07  0.3304179E+04  0.7818609E-02  0.8161833E-01
       -1   -1    0    0    0  501  0.00000000000E+00  0.00000000000E+00  0.17101115900E+04  0.17101115900E+04  0.50400001928E-02 0. -1.
        1   -1    0    0  501    0  0.00000000000E+00  0.00000000000E+00 -0.15960358577E+04  0.15960358578E+04  0.50400001928E-02 0.  1.
    10030    2    1    2    0    0  0.00000000000E+00  0.00000000000E+00  0.11407573228E+03  0.33061474478E+04  0.33041788199E+04 0.  0.
        3    1    3    3  502    0 -0.31473219608E+03 -0.10853410988E+03  0.16761995649E+04  0.17089414852E+04  0.10100000352E+00 0. -1.
       -3    1    3    3    0  502  0.31473219608E+03  0.10853410988E+03 -0.15621238326E+04  0.15972059626E+04  0.10100000352E+00 0.  1.
</event>
<event>
 5   0  0.8705956E-07  0.3255501E+04  0.7818609E-02  0.8174311E-01
        1   -1    0    0  501    0  0.00000000000E+00  0.00000000000E+00  0.27954515771E+04  0.27954515771E+04  0.50400001928E-02 0.  1.
       -1   -1    0    0    0  501  0.00000000000E+00  0.00000000000E+00 -0.94781500869E+03  0.94781500871E+03  0.50400001928E-02 0. -1.
    10030    2    1    2    0    0  0.00000000000E+00  0.00000000000E+00  0.18476365684E+04  0.37432665858E+04  0.32555005519E+04 0.  0.
        2    1    3    3  502    0 -0.14591512057E+04 -0.67403831499E+03  0.12194853281E+04  0.20175714006E+04  0.25500000920E-02 0. -1.
       -2    1    3    3    0  502  0.14591512057E+04  0.67403831499E+03  0.62815124030E+03  0.17256951851E+04  0.25500000920E-02 0.  1.
</event>
<event>
 5   0  0.2705859E-06  0.3310007E+04  0.7818609E-02  0.8160354E-01
        2   -1    0    0  501    0  0.00000000000E+00  0.00000000000E+00  0.22452632135E+04  0.22452632135E+04  0.25500000920E-02 0.  1.
       -2   -1    0    0    0  501  0.00000000000E+00  0.00000000000E+00 -0.12199180188E+04  0.12199180188E+04  0.25500000920E-02 0. -1.
    10030    2    1    2    0    0  0.00000000000E+00  0.00000000000E+00  0.10253451947E+04  0.34651812323E+04  0.33100072816E+04 0.  0.
        1    1    3    3  502    0 -0.14044467589E+04  0.43858033822E+03 -0.28062064803E+03  0.14978555871E+04  0.50400001928E-02 0. -1.
       -1    1    3    3    0  502  0.14044467589E+04 -0.43858033822E+03  0.13059658427E+04  0.19673256451E+04  0.50400001928E-02 0.  1.
</event>
<event>
 5   0  0.8845526E-07  0.3283416E+04  0.7818609E-02  0.8167128E-01
       -1   -1    0    0    0  501  0.00000000000E+00  0.00000000000E+00  0.15310275456E+04  0.15310275456E+04  0.50400001928E-02 0.  1.
        1   -1    0    0  501    0  0.00000000000E+00  0.00000000000E+00 -0.17603899059E+04  0.17603899060E+04  0.50400001928E-02 0. -1.
    10030    2    1    2    0    0  0.00000000000E+00  0.00000000000E+00 -0.22936236036E+03  0.32914174516E+04  0.32834161704E+04 0.  0.
        1    1    3    3  502    0  0.72680298239E+03 -0.18976069358E+03 -0.15780171428E+04  0.17476812635E+04  0.50400001928E-02 0. -1.
       -1    1    3    3    0  502 -0.72680298239E+03  0.18976069358E+03  0.13486547824E+04  0.15437361880E+04  0.50400001928E-02 0.  1.
</event>
<event>
 5   0  0.2614212E-06  0.3302504E+04  0.7818609E-02  0.8162259E-01
        2   -1    0    0  501    0  0.00000000000E+00  0.00000000000E+00  0.85365911172E+03  0.85365911172E+03  0.25500000920E-02 0. -1.
       -2   -1    0    0    0  501  0.00000000000E+00  0.00000000000E+00 -0.31940539298E+04  0.31940539298E+04  0.25500000920E-02 0.  1.
    10030    2    1    2    0    0  0.00000000000E+00  0.00000000000E+00 -0.23403948181E+04  0.40477130415E+04  0.33025040442E+04 0.  0.
        2    1    3    3  502    0 -0.42444254007E+03  0.14547850153E+04 -0.36640822531E+03  0.15591041974E+04  0.25500000920E-02 0. -1.
       -2    1    3    3    0  502  0.42444254007E+03 -0.14547850153E+04 -0.19739865927E+04  0.24886088441E+04  0.25500000920E-02 0.  1.
</event>
<event>
 5   0  0.8520125E-07  0.3286134E+04  0.7818609E-02  0.8166433E-01
        3   -1    0    0  501    0  0.00000000000E+00  0.00000000000E+00  0.24568780489E+04  0.24568780509E+04  0.10100000352E+00 0.  1.
       -3   -1    0    0    0  501  0.00000000000E+00  0.00000000000E+00 -0.10988207585E+04  0.10988207631E+04  0.10100000352E+00 0. -1.
    10030    2    1    2    0    0  0.00000000000E+00  0.00000000000E+00  0.13580572904E+04  0.35556988140E+04  0.32861336632E+04 0.  0.
        3    1    3    3  502    0  0.31351662472E+03 -0.14315173969E+04 -0.12498225693E+03  0.14707669109E+04  0.10100000352E+00 0. -1.
       -3    1    3    3    0  502 -0.31351662472E+03  0.14315173969E+04  0.14830395473E+04  0.20849319031E+04  0.10100000352E+00 0.  1.
</event>
<event>
 5   0  0.8845526E-07  0.3284177E+04  0.7818609E-02  0.8166933E-01
       -1   -1    0    0    0  501  0.00000000000E+00  0.00000000000E+00  0.15436863574E+04  0.15436863574E+04  0.50400001928E-02 0. -1.
        1   -1    0    0  501    0  0.00000000000E+00  0.00000000000E+00 -0.17467630181E+04  0.17467630181E+04  0.50400001928E-02 0.  1.
    10030    2    1    2    0    0  0.00000000000E+00  0.00000000000E+00 -0.20307666069E+03  0.32904493755E+04  0.32841767556E+04 0.  0.
        1    1    3    3  502    0 -0.39012781616E+03 -0.17071284646E+03 -0.16904776972E+04  0.17432892570E+04  0.50400001928E-02 0.  1.
       -1    1    3    3    0  502  0.39012781616E+03  0.17071284646E+03  0.14874010365E+04  0.15471601185E+04  0.50400001928E-02 0. -1.
</event>
<event>
 5   0  0.9268670E-07  0.3257259E+04  0.7818609E-02  0.8173857E-01
        1   -1    0    0  501    0  0.00000000000E+00  0.00000000000E+00  0.20288621500E+04  0.20288621500E+04  0.50400001928E-02 0.  1.
       -1   -1    0    0    0  501  0.00000000000E+00  0.00000000000E+00 -0.13073507055E+04  0.13073507055E+04  0.50400001928E-02 0. -1.
    10030    2    1    2    0    0  0.00000000000E+00  0.00000000000E+00  0.72151144455E+03  0.33362128556E+04  0.32572591934E+04 0.  0.
        3    1    3    3  502    0 -0.42837662048E+03 -0.28968162825E+03  0.19425381686E+04  0.20101931552E+04  0.10100000352E+00 0.  1.
       -3    1    3    3    0  502  0.42837662048E+03  0.28968162825E+03 -0.12210267240E+04  0.13260197003E+04  0.10100000352E+00 0. -1.
</event>
<event>
 5   0  0.2674551E-06  0.3313417E+04  0.7818609E-02  0.8159490E-01
        2   -1    0    0  501    0  0.00000000000E+00  0.00000000000E+00  0.19151136553E+04  0.19151136553E+04  0.25500000920E-02 0. -1.
       -2   -1    0    0    0  501  0.00000000000E+00  0.00000000000E+00 -0.14331694086E+04  0.14331694086E+04  0.25500000920E-02 0.  1.
    10030    2    1    2    0    0  0.00000000000E+00  0.00000000000E+00  0.48194424674E+03  0.33482830639E+04  0.33134165478E+04 0.  0.
        3    1    3    3  502    0  0.19267354003E+03  0.97105673022E+01  0.19037243854E+04  0.19134743097E+04  0.10100000352E+00 0. -1.
       -3    1    3    3    0  502 -0.19267354003E+03 -0.97105673022E+01 -0.14217801387E+04  0.14348087542E+04  0.10100000352E+00 0.  1.
</event>
<event>
 5   0  0.2574803E-06  0.3108591E+04  0.7818609E-02  0.8213384E-01
        2   -1    0    0  501    0  0.00000000000E+00  0.00000000000E+00  0.18977542091E+04  0.18977542091E+04  0.25500000920E-02 0.  1.
       -2   -1    0    0    0  501  0.00000000000E+00  0.00000000000E+00 -0.12729964487E+04  0.12729964487E+04  0.25500000920E-02 0. -1.
    10030    2    1    2    0    0  0.00000000000E+00  0.00000000000E+00  0.62475776049E+03  0.31707506578E+04  0.31085909147E+04 0.  0.
        4    1    3    3  502    0 -0.14517579988E+04  0.47219199819E+03  0.14536197570E+02  0.15266890595E+04  0.12699999809E+01 0. -1.
       -4    1    3    3    0  502  0.14517579988E+04 -0.47219199819E+03  0.61022156292E+03  0.16440615983E+04  0.12699999809E+01 0.  1.
</event>
<event>
 5   0  0.8845526E-07  0.3278572E+04  0.7818609E-02  0.8168369E-01
        1   -1    0    0  501    0  0.00000000000E+00  0.00000000000E+00  0.16358932505E+04  0.16358932505E+04  0.50400001928E-02 0. -1.
       -1   -1    0    0    0  501  0.00000000000E+00  0.00000000000E+00 -0.16426862615E+04  0.16426862615E+04  0.50400001928E-02 0.  1.
    10030    2    1    2    0    0  0.00000000000E+00  0.00000000000E+00 -0.67930110520E+01  0.32785795120E+04  0.32785724747E+04 0.  0.
        1    1    3    3  502    0  0.85617728873E+03  0.27205520136E+03 -0.13746054091E+04  0.16421308148E+04  0.50400001928E-02 0.  1.
       -1    1    3    3    0  502 -0.85617728873E+03 -0.27205520136E+03  0.13678123980E+04  0.16364486972E+04  0.50400001928E-02 0. -1.
</event>
<event>
 5   0  0.9530268E-07  0.3287441E+04  0.7818609E-02  0.8166098E-01
        1   -1    0    0  501    0  0.00000000000E+00  0.00000000000E+00  0.95796673167E+03  0.95796673168E+03  0.50400001928E-02 0.  1.
       -1   -1    0    0    0  501  0.00000000000E+00  0.00000000000E+00 -0.28203669518E+04  0.28203669518E+04  0.50400001928E-02 0. -1.
    10030    2    1    2    0    0  0.00000000000E+00  0.00000000000E+00 -0.18624002201E+04  0.37783336834E+04  0.32874413825E+04 0.  0.
        5    1    3    3  502    0  0.67103580689E+02 -0.11370908421E+04 -0.22931931605E+04  0.25605146816E+04  0.46999998093E+01 0. -1.
       -5    1    3    3    0  502 -0.67103580689E+02  0.11370908421E+04  0.43079294037E+03  0.12178190018E+04  0.46999998093E+01 0.  1.
</event>
<event>
 5   0  0.2674551E-06  0.3242450E+04  0.7818609E-02  0.8177695E-01
       -2   -1    0    0    0  501  0.00000000000E+00  0.00000000000E+00  0.12543226345E+04  0.12543226345E+04  0.25500000920E-02 0.  1.
        2   -1    0    0  501    0  0.00000000000E+00  0.00000000000E+00 -0.20954499805E+04  0.20954499805E+04  0.25500000920E-02 0. -1.
    10030    2    1    2    0    0  0.00000000000E+00  0.00000000000E+00 -0.84112734600E+03  0.33497726150E+04  0.32424499009E+04 0.  0.
        3    1    3    3  502    0  0.99570814848E+03  0.48876199036E+02 -0.17413748150E+04  0.20065417654E+04  0.10100000352E+00 0.  1.
       -3    1    3    3    0  502 -0.99570814848E+03 -0.48876199036E+02  0.90024746897E+03  0.13432308496E+04  0.10100000352E+00 0. -1.
</event>
<event>
 5   0  0.9295663E-07  0.3286697E+04  0.7818609E-02  0.8166289E-01
        1   -1    0    0  501    0  0.00000000000E+00  0.00000000000E+00  0.27908861111E+04  0.27908861111E+04  0.50400001928E-02 0.  1.
       -1   -1    0    0    0  501  0.00000000000E+00  0.00000000000E+00 -0.96764763726E+03  0.96764763727E+03  0.50400001928E-02 0. -1.
    10030    2    1    2    0    0  0.00000000000E+00  0.00000000000E+00  0.18232384739E+04  0.37585337484E+04  0.32866970358E+04 0.  0.
        4    1    3    3  502    0  0.61824311286E+03 -0.13954270141E+04  0.16083010496E+04  0.22172223563E+04  0.12699999809E+01 0.  1.
       -4    1    3    3    0  502 -0.61824311286E+03  0.13954270141E+04  0.21493742426E+03  0.15413113921E+04  0.12699999809E+01 0. -1.
</event>
<event>
 5   0  0.2674551E-06  0.3330415E+04  0.7818609E-02  0.8155199E-01
        2   -1    0    0  501    0  0.00000000000E+00  0.00000000000E+00  0.15250846997E+04  0.15250846997E+04  0.25500000920E-02 0. -1.
       -2   -1    0    0    0  501  0.00000000000E+00  0.00000000000E+00 -0.18182040880E+04  0.18182040880E+04  0.25500000920E-02 0.  1.
    10030    2    1    2    0    0  0.00000000000E+00  0.00000000000E+00 -0.29311938830E+03  0.33432887878E+04  0.33304145301E+04 0.  0.
        3    1    3    3  502    0  0.63844556412E+03 -0.10346906470E+04 -0.12888149119E+04  0.17717904393E+04  0.10100000352E+00 0.  1.
       -3    1    3    3    0  502 -0.63844556412E+03  0.10346906470E+04  0.99569552362E+03  0.15714983485E+04  0.10100000352E+00 0. -1.
</event>
<event>
 5   0  0.8520125E-07  0.3278502E+04  0.7818609E-02  0.8168387E-01
        3   -1    0    0  501    0  0.00000000000E+00  0.00000000000E+00  0.13293739901E+04  0.13293739939E+04  0.10100000352E+00 0.  1.
       -3   -1    0    0    0  501  0.00000000000E+00  0.00000000000E+00 -0.20213597657E+04  0.20213597682E+04  0.10100000352E+00 0. -1.
    10030    2    1    2    0    0  0.00000000000E+00  0.00000000000E+00 -0.69198577563E+03  0.33507337621E+04  0.32785015527E+04 0.  0.
        1    1    3    3  502    0 -0.33697686436E+03 -0.14406229037E+04 -0.10673733285E+04  0.18243446988E+04  0.50400001928E-02 0. -1.
       -1    1    3    3    0  502  0.33697686436E+03  0.14406229037E+04  0.37538755292E+03  0.15263890633E+04  0.50400001928E-02 0.  1.
</event>
<event>
 5   0  0.8705956E-07  0.3281538E+04  0.7818609E-02  0.8167609E-01
       -1   -1    0    0    0  501  0.00000000000E+00  0.00000000000E+00  0.11174780980E+04  0.11174780980E+04  0.50400001928E-02 0.  1.
        1   -1    0    0  501    0  0.00000000000E+00  0.00000000000E+00 -0.24091060064E+04  0.24091060064E+04  0.50400001928E-02 0. -1.
    10030    2    1    2    0    0  0.00000000000E+00  0.00000000000E+00 -0.12916279084E+04  0.35265841044E+04  0.32815381746E+04 0.  0.
        2    1    3    3  502    0 -0.93641429908E+03 -0.31112375928E+03 -0.20546020489E+04  0.22792672753E+04  0.25500000920E-02 0. -1.
       -2    1    3    3    0  502  0.93641429908E+03  0.31112375928E+03  0.76297414042E+03  0.12473168291E+04  0.25500000920E-02 0.  1.
</event>
<event>
 5   0  0.2658600E-06  0.3285845E+04  0.7818609E-02  0.8166506E-01
        2   -1    0    0  501    0  0.00000000000E+00  0.00000000000E+00  0.18552464040E+04  0.18552464040E+04  0.25500000920E-02 0.  1.
       -2   -1    0    0    0  501  0.00000000000E+00  0.00000000000E+00 -0.14548984625E+04  0.14548984625E+04  0.25500000920E-02 0. -1.
    10030    2    1    2    0    0  0.00000000000E+00  0.00000000000E+00  0.40034794153E+03  0.33101448665E+04  0.32858454868E+04 0.  0.
        5    1    3    3  502    0  0.25469546871E+03 -0.76995582713E+03 -0.12391928987E+04  0.14809871329E+04  0.46999998093E+01 0. -1.
       -5    1    3    3    0  502 -0.25469546871E+03  0.76995582713E+03  0.16395408403E+04  0.18291577336E+04  0.46999998093E+01 0.  1.
</event>
<event>
 5   0  0.8845526E-07  0.3294736E+04  0.7818609E-02  0.8164236E-01
       -1   -1    0    0    0  501  0.00000000000E+00  0.00000000000E+00  0.18256871435E+04  0.18256871435E+04  0.50400001928E-02 0. -1.
        1   -1    0    0  501    0  0.00000000000E+00  0.00000000000E+00 -0.14864660204E+04  0.14864660204E+04  0.50400001928E-02 0.  1.
    10030    2    1    2    0    0  0.00000000000E+00  0.00000000000E+00  0.33922112304E+03  0.33121531639E+04  0.32947363492E+04 0.  0.
        1    1    3    3  502    0 -0.86421215349E+03  0.14024427675E+04  0.15889870983E+03  0.16549795052E+04  0.50400001928E-02 0.  1.
       -1    1    3    3    0  502  0.86421215349E+03 -0.14024427675E+04  0.18032241321E+03  0.16571736587E+04  0.50400001928E-02 0. -1.
</event>
<event>
 5   0  0.8845526E-07  0.3262193E+04  0.7818609E-02  0.8172583E-01
        1   -1    0    0  501    0  0.00000000000E+00  0.00000000000E+00  0.15045679052E+04  0.15045679052E+04  0.50400001928E-02 0. -1.
       -1   -1    0    0    0  501  0.00000000000E+00  0.00000000000E+00 -0.17682656115E+04  0.17682656115E+04  0.50400001928E-02 0.  1.
    10030    2    1    2    0    0  0.00000000000E+00  0.00000000000E+00 -0.26369770630E+03  0.32728335168E+04  0.32621929355E+04 0.  0.
        1    1    3    3  502    0  0.14784859040E+04 -0.37745310701E+03  0.44629834318E+03  0.15898344655E+04  0.50400001928E-02 0. -1.
       -1    1    3    3    0  502 -0.14784859040E+04  0.37745310701E+03 -0.70999604948E+03  0.16829990513E+04  0.50400001928E-02 0.  1.
</event>
<event>
 5   0  0.2674551E-06  0.3338323E+04  0.7818609E-02  0.8153212E-01
        2   -1    0    0  501    0  0.00000000000E+00  0.00000000000E+00  0.10642397574E+04  0.10642397574E+04  0.25500000920E-02 0.  1.
       -2   -1    0    0    0  501  0.00000000000E+00  0.00000000000E+00 -0.26179252295E+04  0.26179252295E+04  0.25500000920E-02 0. -1.
    10030    2    1    2    0    0  0.00000000000E+00  0.00000000000E+00 -0.15536854722E+04  0.36821649869E+04  0.33383229988E+04 0.  0.
        3    1    3    3  502    0 -0.73929526739E+03 -0.11199139189E+04  0.31803830994E+03  0.13790986386E+04  0.10100000352E+00 0.  1.
       -3    1    3    3    0  502  0.73929526739E+03  0.11199139189E+04 -0.18717237821E+04  0.23030663483E+04  0.10100000352E+00 0. -1.
</event>
<event>
 5   0  0.9295663E-07  0.2978297E+04  0.7818609E-02  0.8249956E-01
        1   -1    0    0  501    0  0.00000000000E+00  0.00000000000E+00  0.14672381072E+04  0.14672381072E+04  0.50400001928E-02 0.  1.
       -1   -1    0    0    0  501  0.00000000000E+00  0.00000000000E+00 -0.15113860902E+04  0.15113860902E+04  0.50400001928E-02 0. -1.
    10030    2    1    2    0    0  0.00000000000E+00  0.00000000000E+00 -0.44147983035E+02  0.29786241974E+04  0.29782970075E+04 0.  0.
        4    1    3    3  502    0 -0.54367314574E+03  0.17939632312E+03 -0.13969242980E+04  0.15096895831E+04  0.12699999809E+01 0. -1.
       -4    1    3    3    0  502  0.54367314574E+03 -0.17939632312E+03  0.13527763149E+04  0.14689346144E+04  0.12699999809E+01 0.  1.
</event>
<event>
 5   0  0.8845526E-07  0.3285953E+04  0.7818609E-02  0.8166479E-01
       -1   -1    0    0    0  501  0.00000000000E+00  0.00000000000E+00  0.11276980878E+04  0.11276980879E+04  0.50400001928E-02 0. -1.
        1   -1    0    0  501    0  0.00000000000E+00  0.00000000000E+00 -0.23937010276E+04  0.23937010276E+04  0.50400001928E-02 0.  1.
    10030    2    1    2    0    0  0.00000000000E+00  0.00000000000E+00 -0.12660029398E+04  0.35213991155E+04  0.32859531778E+04 0.  0.
        1    1    3    3  502    0 -0.10550798542E+04  0.17598129106E+03  0.70343488914E+03  0.12802279316E+04  0.50400001928E-02 0. -1.
       -1    1    3    3    0  502  0.10550798542E+04 -0.17598129106E+03 -0.19694378289E+04  0.22411711839E+04  0.50400001928E-02 0.  1.
</event>
<event>
 5   0  0.2658600E-06  0.2921713E+04  0.7818609E-02  0.8266447E-01
        2   -1    0    0  501    0  0.00000000000E+00  0.00000000000E+00  0.15122094700E+04  0.15122094700E+04  0.25500000920E-02 0.  1.
       -2   -1    0    0    0  501  0.00000000000E+00  0.00000000000E+00 -0.14112470093E+04  0.14112470093E+04  0.25500000920E-02 0. -1.
    10030    2    1    2    0    0  0.00000000000E+00  0.00000000000E+00  0.10096246072E+03  0.29234564793E+04  0.29217125745E+04 0.  0.
        5    1    3    3  502    0  0.10466232430E+04 -0.21018305732E+02  0.10700187563E+04  0.14969382789E+04  0.46999998093E+01 0. -1.
       -5    1    3    3    0  502 -0.10466232430E+04  0.21018305732E+02 -0.96905629558E+03  0.14265182004E+04  0.46999998093E+01 0.  1.
</event>
<event>
 5   0  0.9530268E-07  0.3283263E+04  0.7818609E-02  0.8167167E-01
       -1   -1    0    0    0  501  0.00000000000E+00  0.00000000000E+00  0.11981039741E+04  0.11981039741E+04  0.50400001928E-02 0. -1.
        1   -1    0    0  501    0  0.00000000000E+00  0.00000000000E+00 -0.22493493309E+04  0.22493493309E+04  0.50400001928E-02 0.  1.
    10030    2    1    2    0    0  0.00000000000E+00  0.00000000000E+00 -0.10512453568E+04  0.34474533050E+04  0.32832632380E+04 0.  0.
        5    1    3    3  502    0 -0.80962521341E+03  0.57406879375E+03 -0.18986401159E+04  0.21424062047E+04  0.46999998093E+01 0.  1.
       -5    1    3    3    0  502  0.80962521341E+03 -0.57406879375E+03  0.84739475915E+03  0.13050471003E+04  0.46999998093E+01 0. -1.
</event>
<event>
 5   0  0.2674551E-06  0.3512361E+04  0.7818609E-02  0.8110867E-01
        2   -1    0    0  501    0  0.00000000000E+00  0.00000000000E+00  0.15820929290E+04  0.15820929290E+04  0.25500000920E-02 0. -1.
       -2   -1    0    0    0  501  0.00000000000E+00  0.00000000000E+00 -0.19494240468E+04  0.19494240468E+04  0.25500000920E-02 0.  1.
    10030    2    1    2    0    0  0.00000000000E+00  0.00000000000E+00 -0.36733111781E+03  0.35315169758E+04  0.35123610293E+04 0.  0.
        3    1    3    3  502    0 -0.14831532068E+04  0.65057746753E+03 -0.86646831960E+03  0.18367802904E+04  0.10100000352E+00 0. -1.
       -3    1    3    3    0  502  0.14831532068E+04 -0.65057746753E+03  0.49913720179E+03  0.16947366853E+04  0.10100000352E+00 0.  1.
</event>
<event>
 5   0  0.8705956E-07  0.3210759E+04  0.7818609E-02  0.8185982E-01
        1   -1    0    0  501    0  0.00000000000E+00  0.00000000000E+00  0.18365057497E+04  0.18365057497E+04  0.50400001928E-02 0.  1.
       -1   -1    0    0    0  501  0.00000000000E+00  0.00000000000E+00 -0.14033403750E+04  0.14033403750E+04  0.50400001928E-02 0. -1.
    10030    2    1    2    0    0  0.00000000000E+00  0.00000000000E+00  0.43316537469E+03  0.32398461247E+04  0.32107585817E+04 0.  0.
        2    1    3    3  502    0  0.12651920127E+03 -0.11718250287E+04 -0.88327431148E+03  0.14728728783E+04  0.25500000920E-02 0. -1.
       -2    1    3    3    0  502 -0.12651920127E+03  0.11718250287E+04  0.13164396862E+04  0.17669732464E+04  0.25500000920E-02 0.  1.
</event>
<event>
 5   0  0.9295663E-07  0.3387408E+04  0.7818609E-02  0.8141004E-01
       -1   -1    0    0    0  501  0.00000000000E+00  0.00000000000E+00  0.10953053297E+04  0.10953053297E+04  0.50400001928E-02 0.  1.
        1   -1    0    0  501    0  0.00000000000E+00  0.00000000000E+00 -0.26190253533E+04  0.26190253533E+04  0.50400001928E-02 0. -1.
    10030    2    1    2    0    0  0.00000000000E+00  0.00000000000E+00 -0.15237200235E+04  0.37143306830E+04  0.33874075209E+04 0.  0.
        4    1    3    3  502    0 -0.93201086815E+03 -0.56984169987E+03  0.65737767350E+03  0.12749552305E+04  0.12699999809E+01 0.  1.
       -4    1    3    3    0  502  0.93201086815E+03  0.56984169987E+03 -0.21810976971E+04  0.24393754525E+04  0.12699999809E+01 0. -1.
</event>
<event>
 5   0  0.8845526E-07  0.3318739E+04  0.7818609E-02  0.8158144E-01
        1   -1    0    0  501    0  0.00000000000E+00  0.00000000000E+00  0.18865697972E+04  0.18865697972E+04  0.50400001928E-02 0. -1.
       -1   -1    0    0    0  501  0.00000000000E+00  0.00000000000E+00 -0.14595312086E+04  0.14595312086E+04  0.50400001928E-02 0.  1.
    10030    2    1    2    0    0  0.00000000000E+00  0.00000000000E+00  0.42703858858E+03  0.33461010058E+04  0.33187392162E+04 0.  0.
        1    1    3    3  502    0 -0.10163164063E+04  0.46370266005E+01  0.15360453358E+04  0.18418349040E+04  0.50400001928E-02 0. -1.
       -1    1    3    3    0  502  0.10163164063E+04 -0.46370266005E+01 -0.11090067473E+04  0.15042661018E+04  0.50400001928E-02 0.  1.
</event>
<event>
 5   0  0.9295663E-07  0.3161817E+04  0.7818609E-02  0.8198975E-01
        1   -1    0    0  501    0  0.00000000000E+00  0.00000000000E+00  0.23364422390E+04  0.23364422390E+04  0.50400001928E-02 0.  1.
       -1   -1    0    0    0  501  0.00000000000E+00  0.00000000000E+00 -0.10696909598E+04  0.10696909598E+04  0.50400001928E-02 0. -1.
    10030    2    1    2    0    0  0.00000000000E+00  0.00000000000E+00  0.12667512792E+04  0.34061331989E+04  0.31618166558E+04 0.  0.
        4    1    3    3  502    0 -0.72578441582E+03 -0.35870429672E+03  0.20961801612E+04  0.22470880427E+04  0.12699999809E+01 0.  1.
       -4    1    3    3    0  502  0.72578441582E+03  0.35870429672E+03 -0.82942888200E+03  0.11590451561E+04  0.12699999809E+01 0. -1.
</event>
<event>
 5   0  0.2614212E-06  0.3215268E+04  0.7818609E-02  0.8184796E-01
        2   -1    0    0  501    0  0.00000000000E+00  0.00000000000E+00  0.17125294458E+04  0.17125294458E+04  0.25500000920E-02 0.  1.
       -2   -1    0    0    0  501  0.00000000000E+00  0.00000000000E+00 -0.15091638933E+04  0.15091638933E+04  0.25500000920E-02 0. -1.
    10030    2    1    2    0    0  0.00000000000E+00  0.00000000000E+00  0.20336555252E+03  0.32216933392E+04  0.32152683284E+04 0.  0.
        2    1    3    3  502    0 -0.82069841245E+03 -0.82533143008E+03  0.12128486121E+04  0.16809876887E+04  0.25500000920E-02 0.  1.
       -2    1    3    3    0  502  0.82069841245E+03  0.82533143008E+03 -0.10094830596E+04  0.15407056504E+04  0.25500000920E-02 0. -1.
</event>
<event>
 5   0  0.2705859E-06  0.3311149E+04  0.7818609E-02  0.8160064E-01
       -2   -1    0    0    0  501  0.00000000000E+00  0.00000000000E+00  0.99781094579E+03  0.99781094579E+03  0.25500000920E-02 0.  1.
        2   -1    0    0  501    0  0.00000000000E+00  0.00000000000E+00 -0.27469398831E+04  0.27469398831E+04  0.25500000920E-02 0. -1.
    10030    2    1    2    0    0  0.00000000000E+00  0.00000000000E+00 -0.17491289373E+04  0.37447508289E+04  0.33111488537E+04 0.  0.
        1    1    3    3  502    0  0.81901357896E+03 -0.44794655214E+03 -0.24209062244E+04  0.25946534071E+04  0.50400001928E-02 0. -1.
       -1    1    3    3    0  502 -0.81901357896E+03  0.44794655214E+03  0.67177728704E+03  0.11500974217E+04  0.50400001928E-02 0.  1.
</event>
<event>
 5   0  0.2674551E-06  0.3322787E+04  0.7818609E-02  0.8157121E-01
       -2   -1    0    0    0  501  0.00000000000E+00  0.00000000000E+00  0.98106217662E+03  0.98106217662E+03  0.25500000920E-02 0.  1.
        2   -1    0    0  501    0  0.00000000000E+00  0.00000000000E+00 -0.28135096322E+04  0.28135096322E+04  0.25500000920E-02 0. -1.
    10030    2    1    2    0    0  0.00000000000E+00  0.00000000000E+00 -0.18324474556E+04  0.37945718088E+04  0.33227867122E+04 0.  0.
        3    1    3    3  502    0 -0.95775727670E+03 -0.13488909741E+04 -0.74145150314E+03  0.18128861527E+04  0.10100000352E+00 0.  1.
       -3    1    3    3    0  502  0.95775727670E+03  0.13488909741E+04 -0.10909959524E+04  0.19816856561E+04  0.10100000352E+00 0. -1.
</event>
<event>
 5   0  0.2705859E-06  0.3312672E+04  0.7818609E-02  0.8159678E-01
        2   -1    0    0  501    0  0.00000000000E+00  0.00000000000E+00  0.25821524913E+04  0.25821524913E+04  0.25500000920E-02 0.  1.
       -2   -1    0    0    0  501  0.00000000000E+00  0.00000000000E+00 -0.10624660008E+04  0.10624660008E+04  0.25500000920E-02 0. -1.
    10030    2    1    2    0    0  0.00000000000E+00  0.00000000000E+00  0.15196864905E+04  0.36446184920E+04  0.33126721726E+04 0.  0.
        1    1    3    3  502    0 -0.12482140557E+04 -0.62607260695E+03  0.17398560564E+04  0.22309424769E+04  0.50400001928E-02 0.  1.
       -1    1    3    3    0  502  0.12482140557E+04  0.62607260695E+03 -0.22016956597E+03  0.14136760152E+04  0.50400001928E-02 0. -1.
</event>
<event>
 5   0  0.2574803E-06  0.3068987E+04  0.7818609E-02  0.8224301E-01
        2   -1    0    0  501    0  0.00000000000E+00  0.00000000000E+00  0.16437137559E+04  0.16437137559E+04  0.25500000920E-02 0. -1.
       -2   -1    0    0    0  501  0.00000000000E+00  0.00000000000E+00 -0.14325307834E+04  0.14325307834E+04  0.25500000920E-02 0.  1.
    10030    2    1    2    0    0  0.00000000000E+00  0.00000000000E+00  0.21118297256E+03  0.30762445393E+04  0.30689871648E+04 0.  0.
        4    1    3    3  502    0  0.13717693903E+04  0.58157641454E+03 -0.26227303713E+03  0.15128685154E+04  0.12699999809E+01 0. -1.
       -4    1    3    3    0  502 -0.13717693903E+04 -0.58157641454E+03  0.47345600969E+03  0.15633760239E+04  0.12699999809E+01 0.  1.
</event>
<event>
 5   0  0.9268670E-07  0.3214441E+04  0.7818609E-02  0.8185014E-01
       -1   -1    0    0    0  501  0.00000000000E+00  0.00000000000E+00  0.15132830150E+04  0.15132830150E+04  0.50400001928E-02 0.  1.
        1   -1    0    0  501    0  0.00000000000E+00  0.00000000000E+00 -0.17069889249E+04  0.17069889249E+04  0.50400001928E-02 0. -1.
    10030    2    1    2    0    0  0.00000000000E+00  0.00000000000E+00 -0.19370590991E+03  0.32202719398E+04  0.32144407580E+04 0.  0.
        3    1    3    3  502    0 -0.80590760429E+03  0.19398512023E+03 -0.14763185528E+04  0.16931136326E+04  0.10100000352E+00 0. -1.
       -3    1    3    3    0  502  0.80590760429E+03 -0.19398512023E+03  0.12826126429E+04  0.15271583072E+04  0.10100000352E+00 0.  1.
</event>
<event>
 5   0  0.8845526E-07  0.3260445E+04  0.7818609E-02  0.8173034E-01
        1   -1    0    0  501    0  0.00000000000E+00  0.00000000000E+00  0.23817620083E+04  0.23817620083E+04  0.50400001928E-02 0. -1.
       -1   -1    0    0    0  501  0.00000000000E+00  0.00000000000E+00 -0.11158231702E+04  0.11158231702E+04  0.50400001928E-02 0.  1.
    10030    2    1    2    0    0  0.00000000000E+00  0.00000000000E+00  0.12659388380E+04  0.34975851785E+04  0.32604448990E+04 0.  0.
        1    1    3    3  502    0  0.49896315978E+02 -0.14572380956E+04 -0.14916419170E+03  0.14657020385E+04  0.50400001928E-02 0.  1.
       -1    1    3    3    0  502 -0.49896315978E+02  0.14572380956E+04  0.14151030297E+04  0.20318831400E+04  0.50400001928E-02 0. -1.
</event>
<event>
 5   0  0.8520125E-07  0.3255198E+04  0.7818609E-02  0.8174390E-01
        3   -1    0    0  501    0  0.00000000000E+00  0.00000000000E+00  0.14330940202E+04  0.14330940237E+04  0.10100000352E+00 0.  1.
       -3   -1    0    0    0  501  0.00000000000E+00  0.00000000000E+00 -0.18485031508E+04  0.18485031535E+04  0.10100000352E+00 0. -1.
    10030    2    1    2    0    0  0.00000000000E+00  0.00000000000E+00 -0.41540913059E+03  0.32815971773E+04  0.32551981949E+04 0.  0.
        5    1    3    3  502    0  0.16115549815E+04 -0.60737925383E+01 -0.43739078938E+03  0.16698739899E+04  0.46999998093E+01 0. -1.
       -5    1    3    3    0  502 -0.16115549815E+04  0.60737925383E+01  0.21981658788E+02  0.16117231874E+04  0.46999998093E+01 0.  1.
</event>
<event>
 5   0  0.8845526E-07  0.3273954E+04  0.7818609E-02  0.8169555E-01
        1   -1    0    0  501    0  0.00000000000E+00  0.00000000000E+00  0.13555545577E+04  0.13555545577E+04  0.50400001928E-02 0. -1.
       -1   -1    0    0    0  501  0.00000000000E+00  0.00000000000E+00 -0.19768245589E+04  0.19768245589E+04  0.50400001928E-02 0.  1.
    10030    2    1    2    0    0  0.00000000000E+00  0.00000000000E+00 -0.62127000116E+03  0.33323791166E+04  0.32739539035E+04 0.  0.
        1    1    3    3  502    0 -0.11413613636E+04 -0.40396096927E+03  0.81075325447E+03  0.14571242455E+04  0.50400001928E-02 0. -1.
       -1    1    3    3    0  502  0.11413613636E+04  0.40396096927E+03 -0.14320232556E+04  0.18752548711E+04  0.50400001928E-02 0.  1.
</event>
<event>
 5   0  0.9295663E-07  0.3253579E+04  0.7818609E-02  0.8174809E-01
       -1   -1    0    0    0  501  0.00000000000E+00  0.00000000000E+00  0.13979809505E+04  0.13979809505E+04  0.50400001928E-02 0.  1.
        1   -1    0    0  501    0  0.00000000000E+00  0.00000000000E+00 -0.18930471647E+04  0.18930471647E+04  0.50400001928E-02 0. -1.
    10030    2    1    2    0    0  0.00000000000E+00  0.00000000000E+00 -0.49506621420E+03  0.32910281153E+04  0.32535788755E+04 0.  0.
        4    1    3    3  502    0 -0.11963048950E+04  0.71782847965E+03 -0.10938347974E+04  0.17728224121E+04  0.12699999809E+01 0. -1.
       -4    1    3    3    0  502  0.11963048950E+04 -0.71782847965E+03  0.59876858320E+03  0.15182057032E+04  0.12699999809E+01 0.  1.
</event>
<event>
 5   0  0.9268670E-07  0.3026402E+04  0.7818609E-02  0.8236232E-01
        1   -1    0    0  501    0  0.00000000000E+00  0.00000000000E+00  0.13713674824E+04  0.13713674824E+04  0.50400001928E-02 0. -1.
       -1   -1    0    0    0  501  0.00000000000E+00  0.00000000000E+00 -0.16697033443E+04  0.16697033443E+04  0.50400001928E-02 0.  1.
    10030    2    1    2    0    0  0.00000000000E+00  0.00000000000E+00 -0.29833586195E+03  0.30410708267E+04  0.30264017391E+04 0.  0.
        3    1    3    3  502    0 -0.29992181000E+03 -0.29533342711E+03 -0.16096922538E+04  0.16638161219E+04  0.10100000352E+00 0.  1.
       -3    1    3    3    0  502  0.29992181000E+03  0.29533342711E+03  0.13113563919E+04  0.13772547048E+04  0.10100000352E+00 0. -1.
</event>
<event>
 5   0  0.2574803E-06  0.3348902E+04  0.7818609E-02  0.8150563E-01
        2   -1    0    0  501    0  0.00000000000E+00  0.00000000000E+00  0.19634939152E+04  0.19634939152E+04  0.25500000920E-02 0.  1.
       -2   -1    0    0    0  501  0.00000000000E+00  0.00000000000E+00 -0.14279575404E+04  0.14279575404E+04  0.25500000920E-02 0. -1.
    10030    2    1    2    0    0  0.00000000000E+00  0.00000000000E+00  0.53553637484E+03  0.33914514556E+04  0.33489018748E+04 0.  0.
        4    1    3    3  502    0  0.18733816824E+03  0.67660379342E+03  0.18072458339E+04  0.19388211366E+04  0.12699999809E+01 0.  1.
       -4    1    3    3    0  502 -0.18733816824E+03 -0.67660379342E+03 -0.12717094591E+04  0.14526303190E+04  0.12699999809E+01 0. -1.
</event>
<event>
 5   0  0.8705956E-07  0.3250415E+04  0.7818609E-02  0.8175628E-01
       -1   -1    0    0    0  501  0.00000000000E+00  0.00000000000E+00  0.11874330055E+04  0.11874330055E+04  0.50400001928E-02 0.  1.
        1   -1    0    0  501    0  0.00000000000E+00  0.00000000000E+00 -0.22243773330E+04  0.22243773330E+04  0.50400001928E-02 0. -1.
    10030    2    1    2    0    0  0.00000000000E+00  0.00000000000E+00 -0.10369443275E+04  0.34118103386E+04  0.32504147809E+04 0.  0.
        2    1    3    3  502    0 -0.71572871219E+03  0.25544296759E+03 -0.20263905426E+04  0.21642036250E+04  0.25500000920E-02 0. -1.
       -2    1    3    3    0  502  0.71572871219E+03 -0.25544296759E+03  0.98944621514E+03  0.12476067136E+04  0.25500000920E-02 0.  1.
</event>
<event>
 5   0  0.9268670E-07  0.3416264E+04  0.7818609E-02  0.8133926E-01
        1   -1    0    0  501    0  0.00000000000E+00  0.00000000000E+00  0.20498804064E+04  0.20498804064E+04  0.50400001928E-02 0.  1.
       -1   -1    0    0    0  501  0.00000000000E+00  0.00000000000E+00 -0.14233582509E+04  0.14233582509E+04  0.50400001928E-02 0. -1.
    10030    2    1    2    0    0  0.00000000000E+00  0.00000000000E+00  0.62652215550E+03  0.34732386573E+04  0.34162635670E+04 0.  0.
        3    1    3    3  502    0 -0.25808495518E+03  0.49701446460E+03  0.19538911370E+04  0.20325653267E+04  0.10100000352E+00 0.  1.
       -3    1    3    3    0  502  0.25808495518E+03 -0.49701446460E+03 -0.13273689815E+04  0.14406733305E+04  0.10100000352E+00 0. -1.
</event>
<event>
 5   0  0.2658600E-06  0.3364743E+04  0.7818609E-02  0.8146614E-01
       -2   -1    0    0    0  501  0.00000000000E+00  0.00000000000E+00  0.15209451105E+04  0.15209451105E+04  0.25500000920E-02 0.  1.
        2   -1    0    0  501    0  0.00000000000E+00  0.00000000000E+00 -0.18609305086E+04  0.18609305086E+04  0.25500000920E-02 0. -1.
    10030    2    1    2    0    0  0.00000000000E+00  0.00000000000E+00 -0.33998539811E+03  0.33818756191E+04  0.33647425804E+04 0.  0.
        5    1    3    3  502    0 -0.62698048411E+03  0.33798991240E+03  0.13619103002E+04  0.15369331359E+04  0.46999998093E+01 0.  1.
       -5    1    3    3    0  502  0.62698048411E+03 -0.33798991240E+03 -0.17018956984E+04  0.18449424832E+04  0.46999998093E+01 0. -1.
</event>
<event>
 5   0  0.8705956E-07  0.3278686E+04  0.7818609E-02  0.8168340E-01
       -1   -1    0    0    0  501  0.00000000000E+00  0.00000000000E+00  0.28695234691E+04  0.28695234691E+04  0.50400001928E-02 0. -1.
        1   -1    0    0  501    0  0.00000000000E+00  0.00000000000E+00 -0.93654754001E+03  0.93654754003E+03  0.50400001928E-02 0.  1.
    10030    2    1    2    0    0  0.00000000000E+00  0.00000000000E+00  0.19329759291E+04  0.38060710091E+04  0.32786858014E+04 0.  0.
        2    1    3    3  502    0  0.13320579980E+04  0.94580539161E+03  0.11244611856E+04  0.19832648100E+04  0.25500000920E-02 0. -1.
       -2    1    3    3    0  502 -0.13320579980E+04 -0.94580539161E+03  0.80851474349E+03  0.18228061991E+04  0.25500000920E-02 0.  1.
</event>
<event>
 5   0  0.9530268E-07  0.3176005E+04  0.7818609E-02  0.8195183E-01
        1   -1    0    0  501    0  0.00000000000E+00  0.00000000000E+00  0.25256576943E+04  0.25256576943E+04  0.50400001928E-02 0.  1.
       -1   -1    0    0    0  501  0.00000000000E+00  0.00000000000E+00 -0.99845339376E+03  0.99845339378E+03  0.50400001928E-02 0. -1.
    10030    2    1    2    0    0  0.00000000000E+00  0.00000000000E+00  0.15272043005E+04  0.35241110881E+04  0.31760047206E+04 0.  0.
        5    1    3    3  502    0  0.11807656257E+04 -0.10235358866E+04  0.10772422627E+04  0.18979742244E+04  0.46999998093E+01 0.  1.
       -5    1    3    3    0  502 -0.11807656257E+04  0.10235358866E+04  0.44996203782E+03  0.16261368637E+04  0.46999998093E+01 0. -1.
</event>
<event>
 5   0  0.9530268E-07  0.2408762E+04  0.7818609E-02  0.8436230E-01
        1   -1    0    0  501    0  0.00000000000E+00  0.00000000000E+00  0.16000857711E+04  0.16000857711E+04  0.50400001928E-02 0. -1.
       -1   -1    0    0    0  501  0.00000000000E+00  0.00000000000E+00 -0.90653514653E+03  0.90653514654E+03  0.50400001928E-02 0.  1.
    10030    2    1    2    0    0  0.00000000000E+00  0.00000000000E+00  0.69355062457E+03  0.25066209176E+04  0.24087623287E+04 0.  0.
        5    1    3    3  502    0 -0.64613936694E+03 -0.58835540704E+03 -0.51566061561E+03  0.10146852354E+04  0.46999998093E+01 0.  1.
       -5    1    3    3    0  502  0.64613936694E+03  0.58835540704E+03  0.12092112402E+04  0.14919356822E+04  0.46999998093E+01 0. -1.
</event>
<event>
 5   0  0.2614212E-06  0.3389473E+04  0.7818609E-02  0.8140495E-01
       -2   -1    0    0    0  501  0.00000000000E+00  0.00000000000E+00  0.14344617952E+04  0.14344617952E+04  0.25500000920E-02 0. -1.
        2   -1    0    0  501    0  0.00000000000E+00  0.00000000000E+00 -0.20022363029E+04  0.20022363029E+04  0.25500000920E-02 0.  1.
    10030    2    1    2    0    0  0.00000000000E+00  0.00000000000E+00 -0.56777450770E+03  0.34366980982E+04  0.33894728095E+04 0.  0.
        2    1    3    3  502    0 -0.30561948660E+03  0.16669471923E+04 -0.28784925974E+03  0.17190036093E+04  0.25500000920E-02 0. -1.
       -2    1    3    3    0  502  0.30561948660E+03 -0.16669471923E+04 -0.27992524796E+03  0.17176944888E+04  0.25500000920E-02 0.  1.
</event>
<event>
 5   0  0.2614212E-06  0.3284257E+04  0.7818609E-02  0.8166913E-01
       -2   -1    0    0    0  501  0.00000000000E+00  0.00000000000E+00  0.15188643143E+04  0.15188643143E+04  0.25500000920E-02 0.  1.
        2   -1    0    0  501    0  0.00000000000E+00  0.00000000000E+00 -0.17753964395E+04  0.17753964395E+04  0.25500000920E-02 0. -1.
    10030    2    1    2    0    0  0.00000000000E+00  0.00000000000E+00 -0.25653212512E+03  0.32942607538E+04  0.32842571737E+04 0.  0.
        2    1    3    3  502    0  0.82044695997E+03  0.13618010947E+04 -0.54055437016E+03  0.16792362737E+04  0.25500000920E-02 0. -1.
       -2    1    3    3    0  502 -0.82044695997E+03 -0.13618010947E+04  0.28402224504E+03  0.16150244801E+04  0.25500000920E-02 0.  1.
</event>
<event>
 5   0  0.2658600E-06  0.3351672E+04  0.7818609E-02  0.8149871E-01
       -2   -1    0    0    0  501  0.00000000000E+00  0.00000000000E+00  0.10159421802E+04  0.10159421802E+04  0.25500000920E-02 0.  1.
        2   -1    0    0  501    0  0.00000000000E+00  0.00000000000E+00 -0.27643558037E+04  0.27643558037E+04  0.25500000920E-02 0. -1.
    10030    2    1    2    0    0  0.00000000000E+00  0.00000000000E+00 -0.17484136235E+04  0.37802979840E+04  0.33516716201E+04 0.  0.
        5    1    3    3  502    0  0.77135861940E+03  0.27833542339E+03  0.77417942459E+03  0.11277591051E+04  0.46999998093E+01 0.  1.
       -5    1    3    3    0  502 -0.77135861940E+03 -0.27833542339E+03 -0.25225930481E+04  0.26525388789E+04  0.46999998093E+01 0. -1.
</event>
<event>
 5   0  0.2574803E-06  0.3295395E+04  0.7818609E-02  0.8164068E-01
       -2   -1    0    0    0  501  0.00000000000E+00  0.00000000000E+00  0.95894269183E+03  0.95894269184E+03  0.25500000920E-02 0. -1.
        2   -1    0    0  501    0  0.00000000000E+00  0.00000000000E+00 -0.28311470225E+04  0.28311470225E+04  0.25500000920E-02 0.  1.
    10030    2    1    2    0    0  0.00000000000E+00  0.00000000000E+00 -0.18722043307E+04  0.37900897143E+04  0.32953954219E+04 0.  0.
        4    1    3    3  502    0  0.13367435356E+04 -0.48387417744E+02  0.17045218791E+03  0.13484361992E+04  0.12699999809E+01 0. -1.
       -4    1    3    3    0  502 -0.13367435356E+04  0.48387417744E+02 -0.20426565186E+04  0.24416535151E+04  0.12699999809E+01 0.  1.
</event>
<event>
 5   0  0.8845526E-07  0.3000995E+04  0.7818609E-02  0.8243447E-01
       -1   -1    0    0    0  501  0.00000000000E+00  0.00000000000E+00  0.11303770262E+04  0.11303770262E+04  0.50400001928E-02 0.  1.
        1   -1    0    0  501    0  0.00000000000E+00  0.00000000000E+00 -0.19918065707E+04  0.19918065707E+04  0.50400001928E-02 0. -1.
    10030    2    1    2    0    0  0.00000000000E+00  0.00000000000E+00 -0.86142954456E+03  0.31221835969E+04  0.30009947605E+04 0.  0.
        1    1    3    3  502    0  0.11573173227E+04  0.32855814617E+03  0.50224741380E+03  0.13036818268E+04  0.50400001928E-02 0.  1.
       -1    1    3    3    0  502 -0.11573173227E+04 -0.32855814617E+03 -0.13636769584E+04  0.18185017701E+04  0.50400001928E-02 0. -1.
</event>
<event>
 5   0  0.2574803E-06  0.3386035E+04  0.7818609E-02  0.8141342E-01
       -2   -1    0    0    0  501  0.00000000000E+00  0.00000000000E+00  0.15614356852E+04  0.15614356852E+04  0.25500000920E-02 0. -1.
        2   -1    0    0  501    0  0.00000000000E+00  0.00000000000E+00 -0.18356873242E+04  0.18356873242E+04  0.25500000920E-02 0.  1.
    10030    2    1    2    0    0  0.00000000000E+00  0.00000000000E+00 -0.27425163901E+03  0.33971230094E+04  0.33860346690E+04 0.  0.
        4    1    3    3  502    0  0.82262047972E+03 -0.55322120395E+03  0.12397926017E+04  0.15874021111E+04  0.12699999809E+01 0. -1.
       -4    1    3    3    0  502 -0.82262047972E+03  0.55322120395E+03 -0.15140442407E+04  0.18097208983E+04  0.12699999809E+01 0.  1.
</event>
<event>
 5   0  0.9295663E-07  0.3063300E+04  0.7818609E-02  0.8225883E-01
       -1   -1    0    0    0  501  0.00000000000E+00  0.00000000000E+00  0.91163361288E+03  0.91163361289E+03  0.50400001928E-02 0.  1.
        1   -1    0    0  501    0  0.00000000000E+00  0.00000000000E+00 -0.25733486373E+04  0.25733486373E+04  0.50400001928E-02 0. -1.
    10030    2    1    2    0    0  0.00000000000E+00  0.00000000000E+00 -0.16617150244E+04  0.34849822502E+04  0.30632996037E+04 0.  0.
        4    1    3    3  502    0 -0.57708483362E+03  0.12760400068E+04 -0.15364287331E+04  0.20789227665E+04  0.12699999809E+01 0. -1.
       -4    1    3    3    0  502  0.57708483362E+03 -0.12760400068E+04 -0.12528629129E+03  0.14060594837E+04  0.12699999809E+01 0.  1.
</event>
<event>
 5   0  0.2705859E-06  0.3248371E+04  0.7818609E-02  0.8176158E-01
        2   -1    0    0  501    0  0.00000000000E+00  0.00000000000E+00  0.18826000949E+04  0.18826000949E+04  0.25500000920E-02 0.  1.
       -2   -1    0    0    0  501  0.00000000000E+00  0.00000000000E+00 -0.14012425408E+04  0.14012425408E+04  0.25500000920E-02 0. -1.
    10030    2    1    2    0    0  0.00000000000E+00  0.00000000000E+00  0.48135755414E+03  0.32838426357E+04  0.32483714937E+04 0.  0.
        1    1    3    3  502    0 -0.36571508413E+03 -0.15028779175E+04  0.74166039839E+03  0.17153570194E+04  0.50400001928E-02 0.  1.
       -1    1    3    3    0  502  0.36571508413E+03  0.15028779175E+04 -0.26030284425E+03  0.15684856162E+04  0.50400001928E-02 0. -1.
</event>
<event>
 5   0  0.9268670E-07  0.3310896E+04  0.7818609E-02  0.8160129E-01
       -1   -1    0    0    0  501  0.00000000000E+00  0.00000000000E+00  0.81395379024E+03  0.81395379026E+03  0.50400001928E-02 0. -1.
        1   -1    0    0  501    0  0.00000000000E+00  0.00000000000E+00 -0.33669077447E+04  0.33669077447E+04  0.50400001928E-02 0.  1.
    10030    2    1    2    0    0  0.00000000000E+00  0.00000000000E+00 -0.25529539545E+04  0.41808615350E+04  0.33108955406E+04 0.  0.
        3    1    3    3  502    0  0.85942283042E+03 -0.12086809212E+04 -0.22052615225E+04  0.26575732471E+04  0.10100000352E+00 0.  1.
       -3    1    3    3    0  502 -0.85942283042E+03  0.12086809212E+04 -0.34769243194E+03  0.15232882879E+04  0.10100000352E+00 0. -1.
</event>
<event>
 5   0  0.2674551E-06  0.3295584E+04  0.7818609E-02  0.8164020E-01
        2   -1    0    0  501    0  0.00000000000E+00  0.00000000000E+00  0.19677650396E+04  0.19677650396E+04  0.25500000920E-02 0. -1.
       -2   -1    0    0    0  501  0.00000000000E+00  0.00000000000E+00 -0.13798489810E+04  0.13798489810E+04  0.25500000920E-02 0.  1.
    10030    2    1    2    0    0  0.00000000000E+00  0.00000000000E+00  0.58791605869E+03  0.33476140206E+04  0.32955840664E+04 0.  0.
        3    1    3    3  502    0 -0.15326209246E+04 -0.48773546772E+03 -0.70036860574E+02  0.16098813487E+04  0.10100000352E+00 0.  1.
       -3    1    3    3    0  502  0.15326209246E+04  0.48773546772E+03  0.65795291926E+03  0.17377326719E+04  0.10100000352E+00 0. -1.
</event>
<event>
 5   0  0.9530268E-07  0.3291242E+04  0.7818609E-02  0.8165127E-01
       -1   -1    0    0    0  501  0.00000000000E+00  0.00000000000E+00  0.20194659929E+04  0.20194659929E+04  0.50400001928E-02 0.  1.
        1   -1    0    0  501    0  0.00000000000E+00  0.00000000000E+00 -0.13409826074E+04  0.13409826074E+04  0.50400001928E-02 0. -1.
    10030    2    1    2    0    0  0.00000000000E+00  0.00000000000E+00  0.67848338553E+03  0.33604486003E+04  0.32912421805E+04 0.  0.
        5    1    3    3  502    0  0.20395714093E+03 -0.48045736920E+03  0.19327017861E+04  0.20019480720E+04  0.46999998093E+01 0.  1.
       -5    1    3    3    0  502 -0.20395714093E+03  0.48045736920E+03 -0.12542184006E+04  0.13585005283E+04  0.46999998093E+01 0. -1.
</event>
<event>
 5   0  0.2705859E-06  0.3284727E+04  0.7818609E-02  0.8166793E-01
       -2   -1    0    0    0  501  0.00000000000E+00  0.00000000000E+00  0.14855335109E+04  0.14855335109E+04  0.25500000920E-02 0.  1.
        2   -1    0    0  501    0  0.00000000000E+00  0.00000000000E+00 -0.18157498547E+04  0.18157498547E+04  0.25500000920E-02 0. -1.
    10030    2    1    2    0    0  0.00000000000E+00  0.00000000000E+00 -0.33021634378E+03  0.33012833655E+04  0.32847266288E+04 0.  0.
        1    1    3    3  502    0  0.94497846969E+03 -0.60775783306E+03 -0.13690625545E+04  0.17710692166E+04  0.50400001928E-02 0. -1.
       -1    1    3    3    0  502 -0.94497846969E+03  0.60775783306E+03  0.10388462108E+04  0.15302141489E+04  0.50400001928E-02 0.  1.
</event>
<event>
 5   0  0.2674551E-06  0.3439347E+04  0.7818609E-02  0.8128316E-01
        2   -1    0    0  501    0  0.00000000000E+00  0.00000000000E+00  0.15437156000E+04  0.15437156000E+04  0.25500000920E-02 0.  1.
       -2   -1    0    0    0  501  0.00000000000E+00  0.00000000000E+00 -0.19156882014E+04  0.19156882014E+04  0.25500000920E-02 0. -1.
    10030    2    1    2    0    0  0.00000000000E+00  0.00000000000E+00 -0.37197260139E+03  0.34594038014E+04  0.34393474737E+04 0.  0.
        3    1    3    3  502    0 -0.83082690565E+03 -0.24336129765E+03 -0.16805109082E+04  0.18904007488E+04  0.10100000352E+00 0. -1.
       -3    1    3    3    0  502  0.83082690565E+03  0.24336129765E+03  0.13085383068E+04  0.15690030526E+04  0.10100000352E+00 0.  1.
</event>
<event>
 5   0  0.8520125E-07  0.3353702E+04  0.7818609E-02  0.8149364E-01
        3   -1    0    0  501    0  0.00000000000E+00  0.00000000000E+00  0.11926317129E+04  0.11926317172E+04  0.10100000352E+00 0.  1.
       -3   -1    0    0    0  501  0.00000000000E+00  0.00000000000E+00 -0.23576672186E+04  0.23576672208E+04  0.10100000352E+00 0. -1.
    10030    2    1    2    0    0  0.00000000000E+00  0.00000000000E+00 -0.11650355057E+04  0.35502989380E+04  0.33537016593E+04 0.  0.
        5    1    3    3  502    0  0.42160548908E+03 -0.13706973275E+04  0.33747459324E+03  0.14732527085E+04  0.46999998093E+01 0.  1.
       -5    1    3    3    0  502 -0.42160548908E+03  0.13706973275E+04 -0.15025100989E+04  0.20770462295E+04  0.46999998093E+01 0. -1.
</event>
<event>
 5   0  0.9295663E-07  0.3353628E+04  0.7818609E-02  0.8149382E-01
        1   -1    0    0  501    0  0.00000000000E+00  0.00000000000E+00  0.19825633379E+04  0.19825633380E+04  0.50400001928E-02 0. -1.
       -1   -1    0    0    0  501  0.00000000000E+00  0.00000000000E+00 -0.14182174439E+04  0.14182174439E+04  0.50400001928E-02 0.  1.
    10030    2    1    2    0    0  0.00000000000E+00  0.00000000000E+00  0.56434589403E+03  0.34007807819E+04  0.33536284288E+04 0.  0.
        4    1    3    3  502    0 -0.15256665791E+04  0.67791418818E+03  0.44082763056E+03  0.17267184976E+04  0.12699999809E+01 0. -1.
       -4    1    3    3    0  502  0.15256665791E+04 -0.67791418818E+03  0.12351826347E+03  0.16740622843E+04  0.12699999809E+01 0.  1.
</event>
<event>
 5   0  0.8705956E-07  0.3123418E+04  0.7818609E-02  0.8209340E-01
       -1   -1    0    0    0  501  0.00000000000E+00  0.00000000000E+00  0.16662816991E+04  0.16662816991E+04  0.50400001928E-02 0.  1.
        1   -1    0    0  501    0  0.00000000000E+00  0.00000000000E+00 -0.14636988017E+04  0.14636988017E+04  0.50400001928E-02 0. -1.
    10030    2    1    2    0    0  0.00000000000E+00  0.00000000000E+00  0.20258289735E+03  0.31299805008E+04  0.31234176963E+04 0.  0.
        2    1    3    3  502    0 -0.89313493882E+03  0.20318904986E+02 -0.11823495438E+04  0.14819086749E+04  0.25500000920E-02 0. -1.
       -2    1    3    3    0  502  0.89313493882E+03 -0.20318904986E+02  0.13849324412E+04  0.16480718260E+04  0.25500000920E-02 0.  1.
</event>
<event>
 5   0  0.2574803E-06  0.2613509E+04  0.7818609E-02  0.8363627E-01
       -2   -1    0    0    0  501  0.00000000000E+00  0.00000000000E+00  0.97709430027E+03  0.97709430028E+03  0.25500000920E-02 0.  1.
        2   -1    0    0  501    0  0.00000000000E+00  0.00000000000E+00 -0.17476379554E+04  0.17476379554E+04  0.25500000920E-02 0. -1.
    10030    2    1    2    0    0  0.00000000000E+00  0.00000000000E+00 -0.77054365513E+03  0.27247322557E+04  0.26135088178E+04 0.  0.
        4    1    3    3  502    0  0.11892031506E+04 -0.54154472518E+03 -0.37335518619E+03  0.13589961481E+04  0.12699999809E+01 0.  1.
       -4    1    3    3    0  502 -0.11892031506E+04  0.54154472518E+03 -0.39718846894E+03  0.13657361075E+04  0.12699999809E+01 0. -1.
</event>
<event>
 5   0  0.2705859E-06  0.3306440E+04  0.7818609E-02  0.8161259E-01
       -2   -1    0    0    0  501  0.00000000000E+00  0.00000000000E+00  0.11573180912E+04  0.11573180912E+04  0.25500000920E-02 0. -1.
        2   -1    0    0  501    0  0.00000000000E+00  0.00000000000E+00 -0.23616119393E+04  0.23616119393E+04  0.25500000920E-02 0.  1.
    10030    2    1    2    0    0  0.00000000000E+00  0.00000000000E+00 -0.12042938481E+04  0.35189300306E+04  0.33064399114E+04 0.  0.
        1    1    3    3  502    0  0.15910696291E+04 -0.30162549961E+03 -0.95617436143E+03  0.18806248739E+04  0.50400001928E-02 0. -1.
       -1    1    3    3    0  502 -0.15910696291E+04  0.30162549961E+03 -0.24811948668E+03  0.16383051567E+04  0.50400001928E-02 0.  1.
</event>
<event>
 5   0  0.8845526E-07  0.3356920E+04  0.7818609E-02  0.8148561E-01
        1   -1    0    0  501    0  0.00000000000E+00  0.00000000000E+00  0.14165018176E+04  0.14165018176E+04  0.50400001928E-02 0.  1.
       -1   -1    0    0    0  501  0.00000000000E+00  0.00000000000E+00 -0.19888630849E+04  0.19888630849E+04  0.50400001928E-02 0. -1.
    10030    2    1    2    0    0  0.00000000000E+00  0.00000000000E+00 -0.57236126727E+03  0.34053649025E+04  0.33569201210E+04 0.  0.
        1    1    3    3  502    0 -0.85205157174E+03 -0.12368232050E+04 -0.10463306835E+04  0.18304456890E+04  0.50400001928E-02 0.  1.
       -1    1    3    3    0  502  0.85205157174E+03  0.12368232050E+04  0.47396941626E+03  0.15749192134E+04  0.50400001928E-02 0. -1.
</event>
<event>
 5   0  0.2658600E-06  0.3283946E+04  0.7818609E-02  0.8166992E-01
        2   -1    0    0  501    0  0.00000000000E+00  0.00000000000E+00  0.23288394785E+04  0.23288394785E+04  0.25500000920E-02 0. -1.
       -2   -1    0    0    0  501  0.00000000000E+00  0.00000000000E+00 -0.11576907926E+04  0.11576907926E+04  0.25500000920E-02 0.  1.
    10030    2    1    2    0    0  0.00000000000E+00  0.00000000000E+00  0.11711486859E+04  0.34865302710E+04  0.32839464195E+04 0.  0.
        5    1    3    3  502    0  0.11494231846E+04  0.41989799022E+03 -0.57675270944E+03  0.13528317550E+04  0.46999998093E+01 0.  1.
       -5    1    3    3    0  502 -0.11494231846E+04 -0.41989799022E+03  0.17479013953E+04  0.21336985160E+04  0.46999998093E+01 0. -1.
</event>
<event>
 5   0  0.9295663E-07  0.3249591E+04  0.7818609E-02  0.8175842E-01
       -1   -1    0    0    0  501  0.00000000000E+00  0.00000000000E+00  0.99585453795E+03  0.99585453796E+03  0.50400001928E-02 0.  1.
        1   -1    0    0  501    0  0.00000000000E+00  0.00000000000E+00 -0.26509497654E+04  0.26509497654E+04  0.50400001928E-02 0. -1.
    10030    2    1    2    0    0  0.00000000000E+00  0.00000000000E+00 -0.16550952275E+04  0.36468043034E+04  0.32495909612E+04 0.  0.
        4    1    3    3  502    0  0.12088034807E+04  0.91401022798E+03 -0.16997333589E+03  0.15249633109E+04  0.12699999809E+01 0.  1.
       -4    1    3    3    0  502 -0.12088034807E+04 -0.91401022798E+03 -0.14851218916E+04  0.21218409925E+04  0.12699999809E+01 0. -1.
</event>
<event>
 5   0  0.9268670E-07  0.3302323E+04  0.7818609E-02  0.8162305E-01
        1   -1    0    0  501    0  0.00000000000E+00  0.00000000000E+00  0.20829213050E+04  0.20829213051E+04  0.50400001928E-02 0.  1.
       -1   -1    0    0    0  501  0.00000000000E+00  0.00000000000E+00 -0.13088991352E+04  0.13088991352E+04  0.50400001928E-02 0. -1.
    10030    2    1    2    0    0  0.00000000000E+00  0.00000000000E+00  0.77402216985E+03  0.33918204403E+04  0.33023227552E+04 0.  0.
        3    1    3    3  502    0  0.19229623216E+03  0.68687415511E+03  0.19165165024E+04  0.20449473000E+04  0.10100000352E+00 0.  1.
       -3    1    3    3    0  502 -0.19229623216E+03 -0.68687415511E+03 -0.11424943325E+04  0.13468731402E+04  0.10100000352E+00 0. -1.
</event>
<event>
 5   0  0.8705956E-07  0.3361956E+04  0.7818609E-02  0.8147307E-01
        1   -1    0    0  501    0  0.00000000000E+00  0.00000000000E+00  0.22282629877E+04  0.22282629877E+04  0.50400001928E-02 0. -1.
       -1   -1    0    0    0  501  0.00000000000E+00  0.00000000000E+00 -0.12681118330E+04  0.12681118330E+04  0.50400001928E-02 0.  1.
    10030    2    1    2    0    0  0.00000000000E+00  0.00000000000E+00  0.96015115472E+03  0.34963748207E+04  0.33619557771E+04 0.  0.
        2    1    3    3  502    0 -0.14475866221E+03  0.16497270784E+04  0.18022111566E+03  0.16658433762E+04  0.25500000920E-02 0.  1.
       -2    1    3    3    0  502  0.14475866221E+03 -0.16497270784E+04  0.77993003906E+03  0.18305314445E+04  0.25500000920E-02 0. -1.
</event>
<event>
 5   0  0.2574803E-06  0.3312633E+04  0.7818609E-02  0.8159688E-01
        2   -1    0    0  501    0  0.00000000000E+00  0.00000000000E+00  0.11482733262E+04  0.11482733262E+04  0.25500000920E-02 0. -1.
       -2   -1    0    0    0  501  0.00000000000E+00  0.00000000000E+00 -0.23891386762E+04  0.23891386762E+04  0.25500000920E-02 0.  1.
    10030    2    1    2    0    0  0.00000000000E+00  0.00000000000E+00 -0.12408653500E+04  0.35374120024E+04  0.33126329193E+04 0.  0.
        4    1    3    3  502    0 -0.54663950276E+03  0.44189441159E+02  0.10485039861E+04  0.11832707528E+04  0.12699999809E+01 0. -1.
       -4    1    3    3    0  502  0.54663950276E+03 -0.44189441159E+02 -0.22893693361E+04  0.23541412496E+04  0.12699999809E+01 0.  1.
</event>
<event>
 5   0  0.8845526E-07  0.3304277E+04  0.7818609E-02  0.8161808E-01
       -1   -1    0    0    0  501  0.00000000000E+00  0.00000000000E+00  0.15729197484E+04  0.15729197484E+04  0.50400001928E-02 0.  1.
        1   -1    0    0  501    0  0.00000000000E+00  0.00000000000E+00 -0.17353470879E+04  0.17353470879E+04  0.50400001928E-02 0. -1.
    10030    2    1    2    0    0  0.00000000000E+00  0.00000000000E+00 -0.16242733956E+03  0.33082668363E+04  0.33042770495E+04 0.  0.
        1    1    3    3  502    0 -0.90527254139E+03  0.90805068907E+03  0.96191155150E+03  0.16029186695E+04  0.50400001928E-02 0.  1.
       -1    1    3    3    0  502  0.90527254139E+03 -0.90805068907E+03 -0.11243388911E+04  0.17053481668E+04  0.50400001928E-02 0. -1.
</event>
<event>
 5   0  0.9268670E-07  0.3282632E+04  0.7818609E-02  0.8167329E-01
        1   -1    0    0  501    0  0.00000000000E+00  0.00000000000E+00  0.31167731790E+04  0.31167731790E+04  0.50400001928E-02 0.  1.
       -1   -1    0    0    0  501  0.00000000000E+00  0.00000000000E+00 -0.86432922042E+03  0.86432922044E+03  0.50400001928E-02 0. -1.
    10030    2    1    2    0    0  0.00000000000E+00  0.00000000000E+00  0.22524439586E+04  0.39811023995E+04  0.32826319514E+04 0.  0.
        3    1    3    3  502    0  0.68242645180E+03  0.11815159780E+04  0.19844243865E+02  0.13645804017E+04  0.10100000352E+00 0. -1.
       -3    1    3    3    0  502 -0.68242645180E+03 -0.11815159780E+04  0.22325997147E+04  0.26165219978E+04  0.10100000352E+00 0.  1.
</event>
<event>
 5   0  0.2614212E-06  0.3304306E+04  0.7818609E-02  0.8161801E-01
        2   -1    0    0  501    0  0.00000000000E+00  0.00000000000E+00  0.24266355763E+04  0.24266355763E+04  0.25500000920E-02 0. -1.
       -2   -1    0    0    0  501  0.00000000000E+00  0.00000000000E+00 -0.11248533878E+04  0.11248533878E+04  0.25500000920E-02 0.  1.
    10030    2    1    2    0    0  0.00000000000E+00  0.00000000000E+00  0.13017821885E+04  0.35514889642E+04  0.33043058267E+04 0.  0.
        2    1    3    3  502    0  0.12060348694E+04  0.11280280603E+04  0.70613486865E+03  0.17959938373E+04  0.25500000920E-02 0. -1.
       -2    1    3    3    0  502 -0.12060348694E+04 -0.11280280603E+04  0.59564731986E+03  0.17554951269E+04  0.25500000920E-02 0.  1.
</event>
<event>
 5   0  0.2574803E-06  0.3119560E+04  0.7818609E-02  0.8210390E-01
       -2   -1    0    0    0  501  0.00000000000E+00  0.00000000000E+00  0.14034387267E+04  0.14034387267E+04  0.25500000920E-02 0.  1.
        2   -1    0    0  501    0  0.00000000000E+00  0.00000000000E+00 -0.17335371244E+04  0.17335371244E+04  0.25500000920E-02 0. -1.
    10030    2    1    2    0    0  0.00000000000E+00  0.00000000000E+00 -0.33009839765E+03  0.31369758511E+04  0.31195596706E+04 0.  0.
        4    1    3    3  502    0 -0.10182588213E+04 -0.11200410490E+04 -0.54340575104E+03  0.16083017136E+04  0.12699999809E+01 0.  1.
       -4    1    3    3    0  502  0.10182588213E+04  0.11200410490E+04  0.21330735339E+03  0.15286741375E+04  0.12699999809E+01 0. -1.
</event>
<event>
 5   0  0.9530268E-07  0.3269138E+04  0.7818609E-02  0.8170793E-01
       -1   -1    0    0    0  501  0.00000000000E+00  0.00000000000E+00  0.98008258729E+03  0.98008258730E+03  0.50400001928E-02 0. -1.
        1   -1    0    0  501    0  0.00000000000E+00  0.00000000000E+00 -0.27261125448E+04  0.27261125448E+04  0.50400001928E-02 0.  1.
    10030    2    1    2    0    0  0.00000000000E+00  0.00000000000E+00 -0.17460299575E+04  0.37061951321E+04  0.32691377678E+04 0.  0.
        5    1    3    3  502    0 -0.84401591710E+03 -0.11243938039E+04 -0.18182510208E+04  0.22984088321E+04  0.46999998093E+01 0.  1.
       -5    1    3    3    0  502  0.84401591710E+03  0.11243938039E+04  0.72221063261E+02  0.14077863001E+04  0.46999998093E+01 0. -1.
</event>
<event>
 5   0  0.2574803E-06  0.3288638E+04  0.7818609E-02  0.8165793E-01
       -2   -1    0    0    0  501  0.00000000000E+00  0.00000000000E+00  0.13491064686E+04  0.13491064686E+04  0.25500000920E-02 0.  1.
        2   -1    0    0  501    0  0.00000000000E+00  0.00000000000E+00 -0.20041300288E+04  0.20041300288E+04  0.25500000920E-02 0. -1.
    10030    2    1    2    0    0  0.00000000000E+00  0.00000000000E+00 -0.65502356027E+03  0.33532364974E+04  0.32886378857E+04 0.  0.
        4    1    3    3  502    0 -0.41153854816E+03  0.11873340310E+04 -0.14088416320E+04  0.18878459775E+04  0.12699999809E+01 0. -1.
       -4    1    3    3    0  502  0.41153854816E+03 -0.11873340310E+04  0.75381807175E+03  0.14653905199E+04  0.12699999809E+01 0.  1.
</event>
<event>
 5   0  0.8705956E-07  0.3283518E+04  0.7818609E-02  0.8167102E-01
       -1   -1    0    0    0  501  0.00000000000E+00  0.00000000000E+00  0.15438522057E+04  0.15438522057E+04  0.50400001928E-02 0. -1.
        1   -1    0    0  501    0  0.00000000000E+00  0.00000000000E+00 -0.17458743056E+04  0.17458743056E+04  0.50400001928E-02 0.  1.
    10030    2    1    2    0    0  0.00000000000E+00  0.00000000000E+00 -0.20202209998E+03  0.32897265113E+04  0.32835175636E+04 0.  0.
        2    1    3    3  502    0  0.69236326622E+03  0.11847635378E+04 -0.10040146212E+04  0.17003167036E+04  0.25500000920E-02 0.  1.
       -2    1    3    3    0  502 -0.69236326622E+03 -0.11847635378E+04  0.80199252125E+03  0.15894098077E+04  0.25500000920E-02 0. -1.
</event>
<event>
 5   0  0.2658600E-06  0.3039328E+04  0.7818609E-02  0.8232589E-01
        2   -1    0    0  501    0  0.00000000000E+00  0.00000000000E+00  0.13100537227E+04  0.13100537227E+04  0.25500000920E-02 0. -1.
       -2   -1    0    0    0  501  0.00000000000E+00  0.00000000000E+00 -0.17628124134E+04  0.17628124134E+04  0.25500000920E-02 0.  1.
    10030    2    1    2    0    0  0.00000000000E+00  0.00000000000E+00 -0.45275869071E+03  0.30728661361E+04  0.30393281919E+04 0.  0.
        5    1    3    3  502    0 -0.10913193368E+04 -0.38329841905E+03 -0.12228827698E+04  0.16832587239E+04  0.46999998093E+01 0.  1.
       -5    1    3    3    0  502  0.10913193368E+04  0.38329841905E+03  0.77012407910E+03  0.13896074122E+04  0.46999998093E+01 0. -1.
</event>
<event>
 5   0  0.9295663E-07  0.3286387E+04  0.7818609E-02  0.8166368E-01
       -1   -1    0    0    0  501  0.00000000000E+00  0.00000000000E+00  0.23484271848E+04  0.23484271849E+04  0.50400001928E-02 0. -1.
        1   -1    0    0  501    0  0.00000000000E+00  0.00000000000E+00 -0.11497417654E+04  0.11497417654E+04  0.50400001928E-02 0.  1.
    10030    2    1    2    0    0  0.00000000000E+00  0.00000000000E+00  0.11986854195E+04  0.34981689503E+04  0.32863869629E+04 0.  0.
        4    1    3    3  502    0  0.10629264529E+04  0.23926860215E+03 -0.70997358667E+03  0.13004330874E+04  0.12699999809E+01 0.  1.
       -4    1    3    3    0  502 -0.10629264529E+04 -0.23926860215E+03  0.19086590061E+04  0.21977358628E+04  0.12699999809E+01 0. -1.
</event>
<event>
 5   0  0.2674551E-06  0.3305191E+04  0.7818609E-02  0.8161576E-01
        2   -1    0    0  501    0  0.00000000000E+00  0.00000000000E+00  0.20614840041E+04  0.20614840041E+04  0.25500000920E-02 0. -1.
       -2   -1    0    0    0  501  0.00000000000E+00  0.00000000000E+00 -0.13248088942E+04  0.13248088942E+04  0.25500000920E-02 0.  1.
    10030    2    1    2    0    0  0.00000000000E+00  0.00000000000E+00  0.73667510989E+03  0.33862928983E+04  0.33051912766E+04 0.  0.
        3    1    3    3  502    0  0.11286751096E+04 -0.11101021125E+04  0.85414358891E+03  0.17988316997E+04  0.10100000352E+00 0.  1.
       -3    1    3    3    0  502 -0.11286751096E+04  0.11101021125E+04 -0.11746847902E+03  0.15874611986E+04  0.10100000352E+00 0. -1.
</event>
<event>
 5   0  0.8705956E-07  0.3085882E+04  0.7818609E-02  0.8219623E-01
        1   -1    0    0  501    0  0.00000000000E+00  0.00000000000E+00  0.14525194661E+04  0.14525194661E+04  0.50400001928E-02 0. -1.
       -1   -1    0    0    0  501  0.00000000000E+00  0.00000000000E+00 -0.16389917862E+04  0.16389917862E+04  0.50400001928E-02 0.  1.
    10030    2    1    2    0    0  0.00000000000E+00  0.00000000000E+00 -0.18647232008E+03  0.30915112523E+04  0.30858823530E+04 0.  0.
        2    1    3    3  502    0 -0.23562116696E+03 -0.26396266431E+03 -0.15977991166E+04  0.16365071461E+04  0.25500000920E-02 0.  1.
       -2    1    3    3    0  502  0.23562116696E+03  0.26396266431E+03  0.14113267965E+04  0.14550041061E+04  0.25500000920E-02 0. -1.
</event>
<event>
 5   0  0.2614212E-06  0.3288250E+04  0.7818609E-02  0.8165892E-01
        2   -1    0    0  501    0  0.00000000000E+00  0.00000000000E+00  0.18241507904E+04  0.18241507904E+04  0.25500000920E-02 0.  1.
       -2   -1    0    0    0  501  0.00000000000E+00  0.00000000000E+00 -0.14818659888E+04  0.14818659888E+04  0.25500000920E-02 0. -1.
    10030    2    1    2    0    0  0.00000000000E+00  0.00000000000E+00  0.34228480152E+03  0.33060167792E+04  0.32882499994E+04 0.  0.
        2    1    3    3  502    0  0.15167654526E+04  0.97933885177E+02  0.80140949993E+03  0.17182623987E+04  0.25500000920E-02 0.  1.
       -2    1    3    3    0  502 -0.15167654526E+04 -0.97933885177E+02 -0.45912469840E+03  0.15877543805E+04  0.25500000920E-02 0. -1.
</event>
<event>
 5   0  0.2574803E-06  0.3380210E+04  0.7818609E-02  0.8142781E-01
        2   -1    0    0  501    0  0.00000000000E+00  0.00000000000E+00  0.18161797362E+04  0.18161797362E+04  0.25500000920E-02 0. -1.
       -2   -1    0    0    0  501  0.00000000000E+00  0.00000000000E+00 -0.15727819304E+04  0.15727819304E+04  0.25500000920E-02 0.  1.
    10030    2    1    2    0    0  0.00000000000E+00  0.00000000000E+00  0.24339780582E+03  0.33889616665E+04  0.33802098582E+04 0.  0.
        4    1    3    3  502    0  0.28671498221E+03 -0.48416261525E+03 -0.14761130683E+04  0.15797247616E+04  0.12699999809E+01 0.  1.
       -4    1    3    3    0  502 -0.28671498221E+03  0.48416261525E+03  0.17195108741E+04  0.18092369049E+04  0.12699999809E+01 0. -1.
</event>
<event>
 5   0  0.2658600E-06  0.3278408E+04  0.7818609E-02  0.8168411E-01
        2   -1    0    0  501    0  0.00000000000E+00  0.00000000000E+00  0.18635311707E+04  0.18635311707E+04  0.25500000920E-02 0.  1.
       -2   -1    0    0    0  501  0.00000000000E+00  0.00000000000E+00 -0.14418808767E+04  0.14418808767E+04  0.25500000920E-02 0. -1.
    10030    2    1    2    0    0  0.00000000000E+00  0.00000000000E+00  0.42165029403E+03  0.33054120473E+04  0.32784081247E+04 0.  0.
        5    1    3    3  502    0  0.89270073814E+03  0.20719002215E+03 -0.11594595154E+04  0.14779075651E+04  0.46999998093E+01 0. -1.
       -5    1    3    3    0  502 -0.89270073814E+03 -0.20719002215E+03  0.15811098094E+04  0.18275044822E+04  0.46999998093E+01 0.  1.
</event>
<event>
 5   0  0.8845526E-07  0.2937531E+04  0.7818609E-02  0.8261798E-01
        1   -1    0    0  501    0  0.00000000000E+00  0.00000000000E+00  0.14237551565E+04  0.14237551565E+04  0.50400001928E-02 0. -1.
       -1   -1    0    0    0  501  0.00000000000E+00  0.00000000000E+00 -0.15151991024E+04  0.15151991024E+04  0.50400001928E-02 0.  1.
    10030    2    1    2    0    0  0.00000000000E+00  0.00000000000E+00 -0.91443945848E+02  0.29389542589E+04  0.29375313004E+04 0.  0.
        1    1    3    3  502    0 -0.33300303188E+03  0.59724536335E+03  0.12547844173E+04  0.14290125882E+04  0.50400001928E-02 0. -1.
       -1    1    3    3    0  502  0.33300303188E+03 -0.59724536335E+03 -0.13462283631E+04  0.15099416707E+04  0.50400001928E-02 0.  1.
</event>
<event>
 5   0  0.8705956E-07  0.3499161E+04  0.7818609E-02  0.8113989E-01
       -1   -1    0    0    0  501  0.00000000000E+00  0.00000000000E+00  0.11579629919E+04  0.11579629919E+04  0.50400001928E-02 0. -1.
        1   -1    0    0  501    0  0.00000000000E+00  0.00000000000E+00 -0.26434632325E+04  0.26434632325E+04  0.50400001928E-02 0.  1.
    10030    2    1    2    0    0  0.00000000000E+00  0.00000000000E+00 -0.14855002406E+04  0.38014262245E+04  0.34991613817E+04 0.  0.
        2    1    3    3  502    0  0.93231202747E+03 -0.90744901461E+03  0.52806765529E+03  0.14041099954E+04  0.25500000920E-02 0. -1.
       -2    1    3    3    0  502 -0.93231202747E+03  0.90744901461E+03 -0.20135678959E+04  0.23973162290E+04  0.25500000920E-02 0.  1.
</event>
<event>
 5   0  0.2658600E-06  0.3279894E+04  0.7818609E-02  0.8168030E-01
       -2   -1    0    0    0  501  0.00000000000E+00  0.00000000000E+00  0.18740619557E+04  0.18740619557E+04  0.25500000920E-02 0.  1.
        2   -1    0    0  501    0  0.00000000000E+00  0.00000000000E+00 -0.14350784721E+04  0.14350784721E+04  0.25500000920E-02 0. -1.
    10030    2    1    2    0    0  0.00000000000E+00  0.00000000000E+00  0.43898348357E+03  0.33091404277E+04  0.32798938812E+04 0.  0.
        5    1    3    3  502    0 -0.34110638475E+03 -0.10917850092E+02  0.18378306817E+04  0.18692555924E+04  0.46999998093E+01 0.  1.
       -5    1    3    3    0  502  0.34110638475E+03  0.10917850092E+02 -0.13988471982E+04  0.14398848353E+04  0.46999998093E+01 0. -1.
</event>
<event>
 5   0  0.9268670E-07  0.3202683E+04  0.7818609E-02  0.8188109E-01
        1   -1    0    0  501    0  0.00000000000E+00  0.00000000000E+00  0.18726821303E+04  0.18726821303E+04  0.50400001928E-02 0.  1.
       -1   -1    0    0    0  501  0.00000000000E+00  0.00000000000E+00 -0.13693167532E+04  0.13693167532E+04  0.50400001928E-02 0. -1.
    10030    2    1    2    0    0  0.00000000000E+00  0.00000000000E+00  0.50336537710E+03  0.32419988835E+04  0.32026832591E+04 0.  0.
        3    1    3    3  502    0  0.65716335925E+03  0.12991435712E+04  0.92669483368E+03  0.17258044572E+04  0.10100000352E+00 0.  1.
       -3    1    3    3    0  502 -0.65716335925E+03 -0.12991435712E+04 -0.42332945659E+03  0.15161944263E+04  0.10100000352E+00 0. -1.
</event>
<event>
 5   0  0.2705859E-06  0.3299092E+04  0.7818609E-02  0.8163126E-01
       -2   -1    0    0    0  501  0.00000000000E+00  0.00000000000E+00  0.10299852104E+04  0.10299852104E+04  0.25500000920E-02 0.  1.
        2   -1    0    0  501    0  0.00000000000E+00  0.00000000000E+00 -0.26417879638E+04  0.26417879638E+04  0.25500000920E-02 0. -1.
    10030    2    1    2    0    0  0.00000000000E+00  0.00000000000E+00 -0.16118027534E+04  0.36717731742E+04  0.32990923186E+04 0.  0.
        1    1    3    3  502    0 -0.12912107390E+04  0.21772680862E+03 -0.19224065352E+04  0.23260002197E+04  0.50400001928E-02 0. -1.
       -1    1    3    3    0  502  0.12912107390E+04 -0.21772680862E+03  0.31060378174E+03  0.13457729545E+04  0.50400001928E-02 0.  1.
</event>
<event>
 5   0  0.8845526E-07  0.2639827E+04  0.7818609E-02  0.8354797E-01
       -1   -1    0    0    0  501  0.00000000000E+00  0.00000000000E+00  0.13201903147E+04  0.13201903147E+04  0.50400001928E-02 0.  1.
        1   -1    0    0  501    0  0.00000000000E+00  0.00000000000E+00 -0.13196366437E+04  0.13196366437E+04  0.50400001928E-02 0. -1.
    10030    2    1    2    0    0  0.00000000000E+00  0.00000000000E+00  0.55367098018E+00  0.26398269584E+04  0.26398269003E+04 0.  0.
        1    1    3    3  502    0  0.88925296534E+03  0.92913295090E+03 -0.29656090298E+03  0.13198512212E+04  0.50400001928E-02 0.  1.
       -1    1    3    3    0  502 -0.88925296534E+03 -0.92913295090E+03  0.29711457396E+03  0.13199757372E+04  0.50400001928E-02 0. -1.
</event>
<event>
 5   0  0.2705859E-06  0.3286507E+04  0.7818609E-02  0.8166337E-01
       -2   -1    0    0    0  501  0.00000000000E+00  0.00000000000E+00  0.32165001548E+04  0.32165001548E+04  0.25500000920E-02 0.  1.
        2   -1    0    0  501    0  0.00000000000E+00  0.00000000000E+00 -0.83950956213E+03  0.83950956214E+03  0.25500000920E-02 0. -1.
    10030    2    1    2    0    0  0.00000000000E+00  0.00000000000E+00  0.23769905926E+04  0.40560097169E+04  0.32865073476E+04 0.  0.
        1    1    3    3  502    0 -0.50665892973E+03  0.12879081116E+04  0.95133703106E+02  0.13872494356E+04  0.50400001928E-02 0. -1.
       -1    1    3    3    0  502  0.50665892973E+03 -0.12879081116E+04  0.22818568895E+04  0.26687602813E+04  0.50400001928E-02 0.  1.
</event>
<event>
 5   0  0.2705859E-06  0.3298392E+04  0.7818609E-02  0.8163305E-01
        2   -1    0    0  501    0  0.00000000000E+00  0.00000000000E+00  0.21423526814E+04  0.21423526814E+04  0.25500000920E-02 0. -1.
       -2   -1    0    0    0  501  0.00000000000E+00  0.00000000000E+00 -0.12695612456E+04  0.12695612456E+04  0.25500000920E-02 0.  1.
    10030    2    1    2    0    0  0.00000000000E+00  0.00000000000E+00  0.87279143577E+03  0.34119139270E+04  0.32983922985E+04 0.  0.
        1    1    3    3  502    0 -0.93919784191E+03  0.60210828696E+02 -0.96451615857E+03  0.13475939115E+04  0.50400001928E-02 0.  1.
       -1    1    3    3    0  502  0.93919784191E+03 -0.60210828696E+02  0.18373075943E+04  0.20643200155E+04  0.50400001928E-02 0. -1.
</event>
<event>
 5   0  0.2658600E-06  0.3163703E+04  0.7818609E-02  0.8198469E-01
       -2   -1    0    0    0  501  0.00000000000E+00  0.00000000000E+00  0.97602478189E+03  0.97602478189E+03  0.25500000920E-02 0.  1.
        2   -1    0    0  501    0  0.00000000000E+00  0.00000000000E+00 -0.25637204784E+04  0.25637204784E+04  0.25500000920E-02 0. -1.
    10030    2    1    2    0    0  0.00000000000E+00  0.00000000000E+00 -0.15876956965E+04  0.35397452603E+04  0.31637033494E+04 0.  0.
        5    1    3    3  502    0  0.12221310138E+04  0.10040836078E+04 -0.81743763527E+03  0.17804534490E+04  0.46999998093E+01 0.  1.
       -5    1    3    3    0  502 -0.12221310138E+04 -0.10040836078E+04 -0.77025806125E+03  0.17592918113E+04  0.46999998093E+01 0. -1.
</event>
<event>
 5   0  0.2674551E-06  0.3363168E+04  0.7818609E-02  0.8147006E-01
       -2   -1    0    0    0  501  0.00000000000E+00  0.00000000000E+00  0.10923254004E+04  0.10923254004E+04  0.25500000920E-02 0.  1.
        2   -1    0    0  501    0  0.00000000000E+00  0.00000000000E+00 -0.25887205799E+04  0.25887205799E+04  0.25500000920E-02 0. -1.
    10030    2    1    2    0    0  0.00000000000E+00  0.00000000000E+00 -0.14963951794E+04  0.36810459803E+04  0.33631682944E+04 0.  0.
        3    1    3    3  502    0 -0.15727052807E+04 -0.43834989731E+03 -0.11889670724E+04  0.20197017705E+04  0.10100000352E+00 0. -1.
       -3    1    3    3    0  502  0.15727052807E+04  0.43834989731E+03 -0.30742810699E+03  0.16613442098E+04  0.10100000352E+00 0.  1.
</event>
<event>
 5   0  0.8705956E-07  0.3309428E+04  0.7818609E-02  0.8160501E-01
       -1   -1    0    0    0  501  0.00000000000E+00  0.00000000000E+00  0.23882564392E+04  0.23882564392E+04  0.50400001928E-02 0. -1.
        1   -1    0    0  501    0  0.00000000000E+00  0.00000000000E+00 -0.11464758485E+04  0.11464758485E+04  0.50400001928E-02 0.  1.
    10030    2    1    2    0    0  0.00000000000E+00  0.00000000000E+00  0.12417805907E+04  0.35347322876E+04  0.33094279430E+04 0.  0.
        2    1    3    3  502    0  0.15865393198E+04  0.41588617026E+03  0.85491919157E+03  0.18495824242E+04  0.25500000920E-02 0.  1.
       -2    1    3    3    0  502 -0.15865393198E+04 -0.41588617026E+03  0.38686139916E+03  0.16851498634E+04  0.25500000920E-02 0. -1.
</event>
<event>
 5   0  0.9268670E-07  0.3249539E+04  0.7818609E-02  0.8175855E-01
       -1   -1    0    0    0  501  0.00000000000E+00  0.00000000000E+00  0.28421657669E+04  0.28421657669E+04  0.50400001928E-02 0.  1.
        1   -1    0    0  501    0  0.00000000000E+00  0.00000000000E+00 -0.92882571854E+03  0.92882571855E+03  0.50400001928E-02 0. -1.
    10030    2    1    2    0    0  0.00000000000E+00  0.00000000000E+00  0.19133400484E+04  0.37709914855E+04  0.32495394509E+04 0.  0.
        3    1    3    3  502    0  0.51067785820E+03  0.14077208829E+04  0.22510770896E+03  0.15143128639E+04  0.10100000352E+00 0. -1.
       -3    1    3    3    0  502 -0.51067785820E+03 -0.14077208829E+04  0.16882323394E+04  0.22566786216E+04  0.10100000352E+00 0.  1.
</event>
<event>
 5   0  0.8705956E-07  0.3150078E+04  0.7818609E-02  0.8202127E-01
       -1   -1    0    0    0  501  0.00000000000E+00  0.00000000000E+00  0.12624629347E+04  0.12624629347E+04  0.50400001928E-02 0. -1.
        1   -1    0    0  501    0  0.00000000000E+00  0.00000000000E+00 -0.19650059089E+04  0.19650059089E+04  0.50400001928E-02 0.  1.
    10030    2    1    2    0    0  0.00000000000E+00  0.00000000000E+00 -0.70254297416E+03  0.32274688436E+04  0.31500775397E+04 0.  0.
        2    1    3    3  502    0  0.48180449956E+03 -0.63480439713E+02  0.11837290488E+04  0.12796014235E+04  0.25500000920E-02 0. -1.
       -2    1    3    3    0  502 -0.48180449956E+03  0.63480439713E+02 -0.18862720229E+04  0.19478674202E+04  0.25500000920E-02 0.  1.
</event>
<event>
 5   0  0.8845526E-07  0.3316947E+04  0.7818609E-02  0.8158597E-01
       -1   -1    0    0    0  501  0.00000000000E+00  0.00000000000E+00  0.35164314261E+04  0.35164314261E+04  0.50400001928E-02 0.  1.
        1   -1    0    0  501    0  0.00000000000E+00  0.00000000000E+00 -0.78219487081E+03  0.78219487083E+03  0.50400001928E-02 0. -1.
    10030    2    1    2    0    0  0.00000000000E+00  0.00000000000E+00  0.27342365553E+04  0.42986262969E+04  0.33169471657E+04 0.  0.
        1    1    3    3  502    0  0.83150822989E+02  0.14067221648E+03  0.35059730034E+04  0.35097791145E+04  0.50400001928E-02 0.  1.
       -1    1    3    3    0  502 -0.83150822989E+02 -0.14067221648E+03 -0.77173644812E+03  0.78884718244E+03  0.50400001928E-02 0. -1.
</event>
<event>
 5   0  0.2574803E-06  0.3180957E+04  0.7818609E-02  0.8193864E-01
       -2   -1    0    0    0  501  0.00000000000E+00  0.00000000000E+00  0.14113821481E+04  0.14113821481E+04  0.25500000920E-02 0.  1.
        2   -1    0    0  501    0  0.00000000000E+00  0.00000000000E+00 -0.17923016405E+04  0.17923016405E+04  0.25500000920E-02 0. -1.
    10030    2    1    2    0    0  0.00000000000E+00  0.00000000000E+00 -0.38091949241E+03  0.32036837886E+04  0.31809574278E+04 0.  0.
        4    1    3    3  502    0 -0.39768923827E+03 -0.94629663230E+03  0.10331221294E+04  0.14563574402E+04  0.12699999809E+01 0.  1.
       -4    1    3    3    0  502  0.39768923827E+03  0.94629663230E+03 -0.14140416218E+04  0.17473263483E+04  0.12699999809E+01 0. -1.
</event>
<event>
 5   0  0.9268670E-07  0.3154693E+04  0.7818609E-02  0.8200886E-01
       -1   -1    0    0    0  501  0.00000000000E+00  0.00000000000E+00  0.15388639922E+04  0.15388639922E+04  0.50400001928E-02 0.  1.
        1   -1    0    0  501    0  0.00000000000E+00  0.00000000000E+00 -0.16167910499E+04  0.16167910500E+04  0.50400001928E-02 0. -1.
    10030    2    1    2    0    0  0.00000000000E+00  0.00000000000E+00 -0.77927057788E+02  0.31556550421E+04  0.31546927138E+04 0.  0.
        3    1    3    3  502    0 -0.35449657679E+03  0.13227426062E+03 -0.15707233064E+04  0.16156534339E+04  0.10100000352E+00 0. -1.
       -3    1    3    3    0  502  0.35449657679E+03 -0.13227426062E+03  0.14927962487E+04  0.15400016082E+04  0.10100000352E+00 0.  1.
</event>
<event>
 5   0  0.2614212E-06  0.2805740E+04  0.7818609E-02  0.8301489E-01
        2   -1    0    0  501    0  0.00000000000E+00  0.00000000000E+00  0.24719164930E+04  0.24719164930E+04  0.25500000920E-02 0.  1.
       -2   -1    0    0    0  501  0.00000000000E+00  0.00000000000E+00 -0.79616119711E+03  0.79616119711E+03  0.25500000920E-02 0. -1.
    10030    2    1    2    0    0  0.00000000000E+00  0.00000000000E+00  0.16757552959E+04  0.32680776901E+04  0.28057398270E+04 0.  0.
        2    1    3    3  502    0 -0.27565400123E+03  0.53826346737E+03  0.23122973793E+04  0.23900694256E+04  0.25500000920E-02 0.  1.
       -2    1    3    3    0  502  0.27565400123E+03 -0.53826346737E+03 -0.63654208339E+03  0.87800826456E+03  0.25500000920E-02 0. -1.
</event>
<event>
 5   0  0.9530268E-07  0.3321187E+04  0.7818609E-02  0.8157525E-01
        1   -1    0    0  501    0  0.00000000000E+00  0.00000000000E+00  0.13702182462E+04  0.13702182462E+04  0.50400001928E-02 0.  1.
       -1   -1    0    0    0  501  0.00000000000E+00  0.00000000000E+00 -0.20125049909E+04  0.20125049909E+04  0.50400001928E-02 0. -1.
    10030    2    1    2    0    0  0.00000000000E+00  0.00000000000E+00 -0.64228674470E+03  0.33827232370E+04  0.33211871727E+04 0.  0.
        5    1    3    3  502    0 -0.56785556618E+00  0.14569258441E+04 -0.11327230410E+04  0.18454584295E+04  0.46999998093E+01 0. -1.
       -5    1    3    3    0  502  0.56785556618E+00 -0.14569258441E+04  0.49043629629E+03  0.15372648075E+04  0.46999998093E+01 0.  1.
</event>
<event>
 5   0  0.2574803E-06  0.3303462E+04  0.7818609E-02  0.8162015E-01
       -2   -1    0    0    0  501  0.00000000000E+00  0.00000000000E+00  0.13242737602E+04  0.13242737602E+04  0.25500000920E-02 0. -1.
        2   -1    0    0  501    0  0.00000000000E+00  0.00000000000E+00 -0.20601597906E+04  0.20601597906E+04  0.25500000920E-02 0.  1.
    10030    2    1    2    0    0  0.00000000000E+00  0.00000000000E+00 -0.73588603041E+03  0.33844335508E+04  0.33034621550E+04 0.  0.
        4    1    3    3  502    0  0.16164762874E+04 -0.33786107608E+03 -0.40142815654E+03  0.16994975352E+04  0.12699999809E+01 0.  1.
       -4    1    3    3    0  502 -0.16164762874E+04  0.33786107608E+03 -0.33445787387E+03  0.16849360156E+04  0.12699999809E+01 0. -1.
</event>
<event>
 5   0  0.2705859E-06  0.3191422E+04  0.7818609E-02  0.8191086E-01
       -2   -1    0    0    0  501  0.00000000000E+00  0.00000000000E+00  0.11456725237E+04  0.11456725237E+04  0.25500000920E-02 0.  1.
        2   -1    0    0  501    0  0.00000000000E+00  0.00000000000E+00 -0.22225320047E+04  0.22225320047E+04  0.25500000920E-02 0. -1.
    10030    2    1    2    0    0  0.00000000000E+00  0.00000000000E+00 -0.10768594809E+04  0.33682045284E+04  0.31914221600E+04 0.  0.
        1    1    3    3  502    0 -0.59986899113E+03 -0.14535492499E+04 -0.25202007631E+03  0.15925333112E+04  0.50400001928E-02 0.  1.
       -1    1    3    3    0  502  0.59986899113E+03  0.14535492499E+04 -0.82483940463E+03  0.17756712172E+04  0.50400001928E-02 0. -1.
</event>
<event>
 5   0  0.2705859E-06  0.2847674E+04  0.7818609E-02  0.8288618E-01
        2   -1    0    0  501    0  0.00000000000E+00  0.00000000000E+00  0.20583104293E+04  0.20583104293E+04  0.25500000920E-02 0. -1.
       -2   -1    0    0    0  501  0.00000000000E+00  0.00000000000E+00 -0.98493997269E+03  0.98493997269E+03  0.25500000920E-02 0.  1.
    10030    2    1    2    0    0  0.00000000000E+00  0.00000000000E+00  0.10733704566E+04  0.30432504020E+04  0.28476742918E+04 0.  0.
        1    1    3    3  502    0 -0.14203644667E+04  0.89956893811E+02  0.58183306059E+03  0.15375490794E+04  0.50400001928E-02 0.  1.
       -1    1    3    3    0  502  0.14203644667E+04 -0.89956893811E+02  0.49153739601E+03  0.15057013226E+04  0.50400001928E-02 0. -1.
</event>
<event>
 5   0  0.9295663E-07  0.3307099E+04  0.7818609E-02  0.8161091E-01
       -1   -1    0    0    0  501  0.00000000000E+00  0.00000000000E+00  0.14370237877E+04  0.14370237877E+04  0.50400001928E-02 0.  1.
        1   -1    0    0  501    0  0.00000000000E+00  0.00000000000E+00 -0.19027003655E+04  0.19027003655E+04  0.50400001928E-02 0. -1.
    10030    2    1    2    0    0  0.00000000000E+00  0.00000000000E+00 -0.46567657776E+03  0.33397241532E+04  0.33070988410E+04 0.  0.
        4    1    3    3  502    0 -0.11487203235E+04 -0.33617815682E+03  0.91931568854E+03  0.15092107483E+04  0.12699999809E+01 0.  1.
       -4    1    3    3    0  502  0.11487203235E+04  0.33617815682E+03 -0.13849922663E+04  0.18305134049E+04  0.12699999809E+01 0. -1.
</event>
<event>
 5   0  0.2574803E-06  0.3318805E+04  0.7818609E-02  0.8158127E-01
       -2   -1    0    0    0  501  0.00000000000E+00  0.00000000000E+00  0.15954848706E+04  0.15954848706E+04  0.25500000920E-02 0. -1.
        2   -1    0    0  501    0  0.00000000000E+00  0.00000000000E+00 -0.17258804766E+04  0.17258804766E+04  0.25500000920E-02 0.  1.
    10030    2    1    2    0    0  0.00000000000E+00  0.00000000000E+00 -0.13039560594E+03  0.33213653472E+04  0.33188047179E+04 0.  0.
        4    1    3    3  502    0 -0.14644807865E+03 -0.55805276768E+03 -0.16222724784E+04  0.17218128639E+04  0.12699999809E+01 0.  1.
       -4    1    3    3    0  502  0.14644807865E+03  0.55805276768E+03  0.14918768725E+04  0.15995524833E+04  0.12699999809E+01 0. -1.
</event>
<event>
 5   0  0.2574803E-06  0.3280096E+04  0.7818609E-02  0.8167979E-01
       -2   -1    0    0    0  501  0.00000000000E+00  0.00000000000E+00  0.13957187377E+04  0.13957187378E+04  0.25500000920E-02 0.  1.
        2   -1    0    0  501    0  0.00000000000E+00  0.00000000000E+00 -0.19271482155E+04  0.19271482155E+04  0.25500000920E-02 0. -1.
    10030    2    1    2    0    0  0.00000000000E+00  0.00000000000E+00 -0.53142947777E+03  0.33228669533E+04  0.32800956540E+04 0.  0.
        4    1    3    3  502    0 -0.42530251474E+03  0.81815731528E+03 -0.16396787370E+04  0.18811729306E+04  0.12699999809E+01 0. -1.
       -4    1    3    3    0  502  0.42530251474E+03 -0.81815731528E+03  0.11082492592E+04  0.14416940227E+04  0.12699999809E+01 0.  1.
</event>
<event>
 5   0  0.8705956E-07  0.3324180E+04  0.7818609E-02  0.8156770E-01
        1   -1    0    0  501    0  0.00000000000E+00  0.00000000000E+00  0.24804169280E+04  0.24804169280E+04  0.50400001928E-02 0.  1.
       -1   -1    0    0    0  501  0.00000000000E+00  0.00000000000E+00 -0.11137412707E+04  0.11137412707E+04  0.50400001928E-02 0. -1.
    10030    2    1    2    0    0  0.00000000000E+00  0.00000000000E+00  0.13666756574E+04  0.35941581987E+04  0.33241797191E+04 0.  0.
        2    1    3    3  502    0 -0.78309425944E+03 -0.40057634925E+03 -0.84146302453E+03  0.12172748467E+04  0.25500000920E-02 0. -1.
       -2    1    3    3    0  502  0.78309425944E+03  0.40057634925E+03  0.22081386819E+04  0.23768833520E+04  0.25500000920E-02 0.  1.
</event>
<event>
 5   0  0.2574803E-06  0.3220265E+04  0.7818609E-02  0.8183486E-01
        2   -1    0    0  501    0  0.00000000000E+00  0.00000000000E+00  0.17546716860E+04  0.17546716860E+04  0.25500000920E-02 0. -1.
       -2   -1    0    0    0  501  0.00000000000E+00  0.00000000000E+00 -0.14774996696E+04  0.14774996696E+04  0.25500000920E-02 0.  1.
    10030    2    1    2    0    0  0.00000000000E+00  0.00000000000E+00  0.27717201646E+03  0.32321713556E+04  0.32202651048E+04 0.  0.
        4    1    3    3  502    0 -0.19341617065E+03  0.59324301150E+03  0.16283845945E+04  0.17438420474E+04  0.12699999809E+01 0. -1.
       -4    1    3    3    0  502  0.19341617065E+03 -0.59324301150E+03 -0.13512125780E+04  0.14883293082E+04  0.12699999809E+01 0.  1.
</event>
<event>
 5   0  0.9530268E-07  0.3294494E+04  0.7818609E-02  0.8164298E-01
       -1   -1    0    0    0  501  0.00000000000E+00  0.00000000000E+00  0.10202759722E+04  0.10202759723E+04  0.50400001928E-02 0. -1.
        1   -1    0    0  501    0  0.00000000000E+00  0.00000000000E+00 -0.26594988154E+04  0.26594988154E+04  0.50400001928E-02 0.  1.
    10030    2    1    2    0    0  0.00000000000E+00  0.00000000000E+00 -0.16392228432E+04  0.36797747877E+04  0.32944940368E+04 0.  0.
        5    1    3    3  502    0 -0.15063732473E+04 -0.39874709899E+03 -0.22307286423E+03  0.15741484053E+04  0.46999998093E+01 0. -1.
       -5    1    3    3    0  502  0.15063732473E+04  0.39874709899E+03 -0.14161499789E+04  0.21056263824E+04  0.46999998093E+01 0.  1.
</event>
<event>
 5   0  0.9530268E-07  0.3249554E+04  0.7818609E-02  0.8175851E-01
        1   -1    0    0  501    0  0.00000000000E+00  0.00000000000E+00  0.15691576051E+04  0.15691576051E+04  0.50400001928E-02 0.  1.
       -1   -1    0    0    0  501  0.00000000000E+00  0.00000000000E+00 -0.16823674533E+04  0.16823674533E+04  0.50400001928E-02 0. -1.
    10030    2    1    2    0    0  0.00000000000E+00  0.00000000000E+00 -0.11320984818E+03  0.32515250585E+04  0.32495536211E+04 0.  0.
        5    1    3    3  502    0 -0.51919052814E+03  0.48017816699E+03  0.14070701720E+04  0.15748010781E+04  0.46999998093E+01 0.  1.
       -5    1    3    3    0  502  0.51919052814E+03 -0.48017816699E+03 -0.15202800202E+04  0.16767239804E+04  0.46999998093E+01 0. -1.
</event>
<event>
 5   0  0.9530268E-07  0.3281311E+04  0.7818609E-02  0.8167667E-01
       -1   -1    0    0    0  501  0.00000000000E+00  0.00000000000E+00  0.11828074900E+04  0.11828074900E+04  0.50400001928E-02 0.  1.
        1   -1    0    0  501    0  0.00000000000E+00  0.00000000000E+00 -0.22757297646E+04  0.22757297646E+04  0.50400001928E-02 0. -1.
    10030    2    1    2    0    0  0.00000000000E+00  0.00000000000E+00 -0.10929222746E+04  0.34585372547E+04  0.32813108423E+04 0.  0.
        5    1    3    3  502    0 -0.26916202207E+03  0.36156862870E+03  0.11162549559E+04  0.12038385623E+04  0.46999998093E+01 0.  1.
       -5    1    3    3    0  502  0.26916202207E+03 -0.36156862870E+03 -0.22091772306E+04  0.22546986924E+04  0.46999998093E+01 0. -1.
</event>
<event>
 5   0  0.8705956E-07  0.3205117E+04  0.7818609E-02  0.8187467E-01
       -1   -1    0    0    0  501  0.00000000000E+00  0.00000000000E+00  0.27585094543E+04  0.27585094543E+04  0.50400001928E-02 0.  1.
        1   -1    0    0  501    0  0.00000000000E+00  0.00000000000E+00 -0.93100791229E+03  0.93100791231E+03  0.50400001928E-02 0. -1.
    10030    2    1    2    0    0  0.00000000000E+00  0.00000000000E+00  0.18275015420E+04  0.36895173666E+04  0.32051172385E+04 0.  0.
        2    1    3    3  502    0 -0.90865941763E+03  0.95052557117E+03  0.19681746810E+04  0.23670387351E+04  0.25500000920E-02 0.  1.
       -2    1    3    3    0  502  0.90865941763E+03 -0.95052557117E+03 -0.14067313899E+03  0.13224786315E+04  0.25500000920E-02 0. -1.
</event>
<event>
 5   0  0.2674551E-06  0.3323947E+04  0.7818609E-02  0.8156829E-01
       -2   -1    0    0    0  501  0.00000000000E+00  0.00000000000E+00  0.11349760535E+04  0.11349760535E+04  0.25500000920E-02 0.  1.
        2   -1    0    0  501    0  0.00000000000E+00  0.00000000000E+00 -0.24336684715E+04  0.24336684715E+04  0.25500000920E-02 0. -1.
    10030    2    1    2    0    0  0.00000000000E+00  0.00000000000E+00 -0.12986924180E+04  0.35686445250E+04  0.33239467127E+04 0.  0.
        3    1    3    3  502    0 -0.41800221777E+03 -0.11286330730E+04 -0.18798518537E+04  0.22321248777E+04  0.10100000352E+00 0. -1.
       -3    1    3    3    0  502  0.41800221777E+03  0.11286330730E+04  0.58115943571E+03  0.13365196473E+04  0.10100000352E+00 0.  1.
</event>
<event>
 5   0  0.2658600E-06  0.3296863E+04  0.7818609E-02  0.8163694E-01
        2   -1    0    0  501    0  0.00000000000E+00  0.00000000000E+00  0.19432707601E+04  0.19432707601E+04  0.25500000920E-02 0.  1.
       -2   -1    0    0    0  501  0.00000000000E+00  0.00000000000E+00 -0.13983264276E+04  0.13983264276E+04  0.25500000920E-02 0. -1.
    10030    2    1    2    0    0  0.00000000000E+00  0.00000000000E+00  0.54494433243E+03  0.33415971877E+04  0.32968632728E+04 0.  0.
        5    1    3    3  502    0  0.11931187569E+04  0.70678409054E+03  0.11757595306E+04  0.18181057952E+04  0.46999998093E+01 0.  1.
       -5    1    3    3    0  502 -0.11931187569E+04 -0.70678409054E+03 -0.63081519818E+03  0.15234913925E+04  0.46999998093E+01 0. -1.
</event>
<event>
 5   0  0.2614212E-06  0.3312788E+04  0.7818609E-02  0.8159649E-01
        2   -1    0    0  501    0  0.00000000000E+00  0.00000000000E+00  0.19607659101E+04  0.19607659101E+04  0.25500000920E-02 0.  1.
       -2   -1    0    0    0  501  0.00000000000E+00  0.00000000000E+00 -0.13992698337E+04  0.13992698337E+04  0.25500000920E-02 0. -1.
    10030    2    1    2    0    0  0.00000000000E+00  0.00000000000E+00  0.56149607634E+03  0.33600357438E+04  0.33127877016E+04 0.  0.
        2    1    3    3  502    0  0.45159853036E+03 -0.93315332480E+03  0.15910415846E+04  0.18989812227E+04  0.25500000920E-02 0.  1.
       -2    1    3    3    0  502 -0.45159853036E+03  0.93315332480E+03 -0.10295455083E+04  0.14610545212E+04  0.25500000920E-02 0. -1.
</event>
<event>
 5   0  0.9295663E-07  0.3523834E+04  0.7818609E-02  0.8108165E-01
        1   -1    0    0  501    0  0.00000000000E+00  0.00000000000E+00  0.16838117773E+04  0.16838117773E+04  0.50400001928E-02 0.  1.
       -1   -1    0    0    0  501  0.00000000000E+00  0.00000000000E+00 -0.18436450192E+04  0.18436450193E+04  0.50400001928E-02 0. -1.
    10030    2    1    2    0    0  0.00000000000E+00  0.00000000000E+00 -0.15983324195E+03  0.35274567966E+04  0.35238338193E+04 0.  0.
        4    1    3    3  502    0 -0.11810802122E+04 -0.74934529847E+03 -0.11524101203E+04  0.18123243480E+04  0.12699999809E+01 0. -1.
       -4    1    3    3    0  502  0.11810802122E+04  0.74934529847E+03  0.99257687835E+03  0.17151324486E+04  0.12699999809E+01 0.  1.
</event>
<event>
 5   0  0.2705859E-06  0.3296588E+04  0.7818609E-02  0.8163764E-01
        2   -1    0    0  501    0  0.00000000000E+00  0.00000000000E+00  0.20716409941E+04  0.20716409941E+04  0.25500000920E-02 0. -1.
       -2   -1    0    0    0  501  0.00000000000E+00  0.00000000000E+00 -0.13114592779E+04  0.13114592779E+04  0.25500000920E-02 0.  1.
    10030    2    1    2    0    0  0.00000000000E+00  0.00000000000E+00  0.76018171623E+03  0.33831002721E+04  0.32965878130E+04 0.  0.
        1    1    3    3  502    0  0.66811348694E+03 -0.90007240462E+03  0.16202608037E+04  0.19702159874E+04  0.50400001928E-02 0. -1.
       -1    1    3    3    0  502 -0.66811348694E+03  0.90007240462E+03 -0.86007908749E+03  0.14128842846E+04  0.50400001928E-02 0.  1.
</event>
<event>
 5   0  0.8705956E-07  0.3350966E+04  0.7818609E-02  0.8150047E-01
        1   -1    0    0  501    0  0.00000000000E+00  0.00000000000E+00  0.12621136605E+04  0.12621136605E+04  0.50400001928E-02 0.  1.
       -1   -1    0    0    0  501  0.00000000000E+00  0.00000000000E+00 -0.22242392749E+04  0.22242392749E+04  0.50400001928E-02 0. -1.
    10030    2    1    2    0    0  0.00000000000E+00  0.00000000000E+00 -0.96212561437E+03  0.34863529355E+04  0.33509656955E+04 0.  0.
        2    1    3    3  502    0 -0.50669238892E+03 -0.11036265770E+04  0.71992128351E+03  0.14117419924E+04  0.25500000920E-02 0.  1.
       -2    1    3    3    0  502  0.50669238892E+03  0.11036265770E+04 -0.16820468979E+04  0.20746109431E+04  0.25500000920E-02 0. -1.
</event>
<event>
 5   0  0.8845526E-07  0.3306640E+04  0.7818609E-02  0.8161208E-01
       -1   -1    0    0    0  501  0.00000000000E+00  0.00000000000E+00  0.21177496859E+04  0.21177496860E+04  0.50400001928E-02 0. -1.
        1   -1    0    0  501    0  0.00000000000E+00  0.00000000000E+00 -0.12907415661E+04  0.12907415661E+04  0.50400001928E-02 0.  1.
    10030    2    1    2    0    0  0.00000000000E+00  0.00000000000E+00  0.82700811985E+03  0.34084912521E+04  0.33066403169E+04 0.  0.
        1    1    3    3  502    0  0.14745820367E+04 -0.16149996063E+03 -0.33904710267E+03  0.15216528376E+04  0.50400001928E-02 0.  1.
       -1    1    3    3    0  502 -0.14745820367E+04  0.16149996063E+03  0.11660552225E+04  0.18868384145E+04  0.50400001928E-02 0. -1.
</event>
<event>
 5   0  0.9268670E-07  0.3305740E+04  0.7818609E-02  0.8161436E-01
        1   -1    0    0  501    0  0.00000000000E+00  0.00000000000E+00  0.31971727900E+04  0.31971727900E+04  0.50400001928E-02 0. -1.
       -1   -1    0    0    0  501  0.00000000000E+00  0.00000000000E+00 -0.85449849637E+03  0.85449849638E+03  0.50400001928E-02 0.  1.
    10030    2    1    2    0    0  0.00000000000E+00  0.00000000000E+00  0.23426742936E+04  0.40516712864E+04  0.33057400634E+04 0.  0.
        3    1    3    3  502    0  0.13221980818E+04 -0.14600953097E+03  0.23737544528E+04  0.27210727229E+04  0.10100000352E+00 0.  1.
       -3    1    3    3    0  502 -0.13221980818E+04  0.14600953097E+03 -0.31080159182E+02  0.13305985635E+04  0.10100000352E+00 0. -1.
</event>
<event>
 5   0  0.8705956E-07  0.2760617E+04  0.7818609E-02  0.8315601E-01
       -1   -1    0    0    0  501  0.00000000000E+00  0.00000000000E+00  0.95056591144E+03  0.95056591145E+03  0.50400001928E-02 0.  1.
        1   -1    0    0  501    0  0.00000000000E+00  0.00000000000E+00 -0.20043341432E+04  0.20043341432E+04  0.50400001928E-02 0. -1.
    10030    2    1    2    0    0  0.00000000000E+00  0.00000000000E+00 -0.10537682317E+04  0.29549000546E+04  0.27606171134E+04 0.  0.
        2    1    3    3  502    0  0.58442214788E+03 -0.24927684924E+03 -0.18385054562E+04  0.19451967784E+04  0.25500000920E-02 0. -1.
       -2    1    3    3    0  502 -0.58442214788E+03  0.24927684924E+03  0.78473722444E+03  0.10097032762E+04  0.25500000920E-02 0.  1.
</event>
<event>
 5   0  0.9268670E-07  0.3309673E+04  0.7818609E-02  0.8160438E-01
       -1   -1    0    0    0  501  0.00000000000E+00  0.00000000000E+00  0.14124037632E+04  0.14124037632E+04  0.50400001928E-02 0.  1.
        1   -1    0    0  501    0  0.00000000000E+00  0.00000000000E+00 -0.19388815438E+04  0.19388815438E+04  0.50400001928E-02 0. -1.
    10030    2    1    2    0    0  0.00000000000E+00  0.00000000000E+00 -0.52647778066E+03  0.33512853070E+04  0.33096728472E+04 0.  0.
        3    1    3    3  502    0  0.84812302855E+02  0.36676680334E+03 -0.18949500826E+04  0.19319800311E+04  0.10100000352E+00 0. -1.
       -3    1    3    3    0  502 -0.84812302855E+02 -0.36676680334E+03  0.13684723020E+04  0.14193052759E+04  0.10100000352E+00 0.  1.
</event>
<event>
 5   0  0.8845526E-07  0.3298385E+04  0.7818609E-02  0.8163306E-01
       -1   -1    0    0    0  501  0.00000000000E+00  0.00000000000E+00  0.22621924810E+04  0.22621924810E+04  0.50400001928E-02 0. -1.
        1   -1    0    0  501    0  0.00000000000E+00  0.00000000000E+00 -0.12023008664E+04  0.12023008664E+04  0.50400001928E-02 0.  1.
    10030    2    1    2    0    0  0.00000000000E+00  0.00000000000E+00  0.10598916146E+04  0.34644933474E+04  0.32983850472E+04 0.  0.
        1    1    3    3  502    0  0.35314910801E+03 -0.10340435082E+02 -0.11620851133E+04  0.12146040621E+04  0.50400001928E-02 0.  1.
       -1    1    3    3    0  502 -0.35314910801E+03  0.10340435082E+02  0.22219767278E+04  0.22498892853E+04  0.50400001928E-02 0. -1.
</event>
<event>
 5   0  0.8705956E-07  0.3329664E+04  0.7818609E-02  0.8155388E-01
        1   -1    0    0  501    0  0.00000000000E+00  0.00000000000E+00  0.14049966028E+04  0.14049966028E+04  0.50400001928E-02 0.  1.
       -1   -1    0    0    0  501  0.00000000000E+00  0.00000000000E+00 -0.19727204811E+04  0.19727204811E+04  0.50400001928E-02 0. -1.
    10030    2    1    2    0    0  0.00000000000E+00  0.00000000000E+00 -0.56772387833E+03  0.33777170840E+04  0.33296639916E+04 0.  0.
        2    1    3    3  502    0 -0.10219055353E+03  0.16558486482E+04 -0.14261193664E+03  0.16651173590E+04  0.25500000920E-02 0. -1.
       -2    1    3    3    0  502  0.10219055353E+03 -0.16558486482E+04 -0.42511194169E+03  0.17125997249E+04  0.25500000920E-02 0.  1.
</event>
<event>
 5   0  0.2614212E-06  0.3317293E+04  0.7818609E-02  0.8158509E-01
        2   -1    0    0  501    0  0.00000000000E+00  0.00000000000E+00  0.11450691547E+04  0.11450691547E+04  0.25500000920E-02 0. -1.
       -2   -1    0    0    0  501  0.00000000000E+00  0.00000000000E+00 -0.24025690598E+04  0.24025690598E+04  0.25500000920E-02 0.  1.
    10030    2    1    2    0    0  0.00000000000E+00  0.00000000000E+00 -0.12574999050E+04  0.35476382145E+04  0.33172927049E+04 0.  0.
        2    1    3    3  502    0 -0.92875372490E+03 -0.13228473823E+04 -0.23061010277E+03  0.16326940001E+04  0.25500000920E-02 0. -1.
       -2    1    3    3    0  502  0.92875372490E+03  0.13228473823E+04 -0.10268898023E+04  0.19149442144E+04  0.25500000920E-02 0.  1.
</event>
<event>
 5   0  0.8705956E-07  0.3310591E+04  0.7818609E-02  0.8160206E-01
       -1   -1    0    0    0  501  0.00000000000E+00  0.00000000000E+00  0.18228320317E+04  0.18228320317E+04  0.50400001928E-02 0. -1.
        1   -1    0    0  501    0  0.00000000000E+00  0.00000000000E+00 -0.15031575028E+04  0.15031575029E+04  0.50400001928E-02 0.  1.
    10030    2    1    2    0    0  0.00000000000E+00  0.00000000000E+00  0.31967452886E+03  0.33259895346E+04  0.33105912734E+04 0.  0.
        2    1    3    3  502    0  0.13767673021E+03 -0.32110052842E+03  0.17853688901E+04  0.18192312951E+04  0.25500000920E-02 0. -1.
       -2    1    3    3    0  502 -0.13767673021E+03  0.32110052842E+03 -0.14656943613E+04  0.15067582394E+04  0.25500000920E-02 0.  1.
</event>
<event>
 5   0  0.9530268E-07  0.3272392E+04  0.7818609E-02  0.8169956E-01
       -1   -1    0    0    0  501  0.00000000000E+00  0.00000000000E+00  0.13046910715E+04  0.13046910715E+04  0.50400001928E-02 0. -1.
        1   -1    0    0  501    0  0.00000000000E+00  0.00000000000E+00 -0.20519323159E+04  0.20519323159E+04  0.50400001928E-02 0.  1.
    10030    2    1    2    0    0  0.00000000000E+00  0.00000000000E+00 -0.74724124439E+03  0.33566233874E+04  0.32723922576E+04 0.  0.
        5    1    3    3  502    0 -0.94688978302E+03 -0.28804660529E+03  0.96281441544E+03  0.13807986083E+04  0.46999998093E+01 0. -1.
       -5    1    3    3    0  502  0.94688978302E+03  0.28804660529E+03 -0.17100556598E+04  0.19758247791E+04  0.46999998093E+01 0.  1.
</event>
<event>
 5   0  0.2674551E-06  0.3289702E+04  0.7818609E-02  0.8165521E-01
        2   -1    0    0  501    0  0.00000000000E+00  0.00000000000E+00  0.85651458770E+03  0.85651458770E+03  0.25500000920E-02 0. -1.
       -2   -1    0    0    0  501  0.00000000000E+00  0.00000000000E+00 -0.31587728557E+04  0.31587728557E+04  0.25500000920E-02 0.  1.
    10030    2    1    2    0    0  0.00000000000E+00  0.00000000000E+00 -0.23022582680E+04  0.40152874434E+04  0.32897021325E+04 0.  0.
        3    1    3    3  502    0 -0.13792110554E+03 -0.16322808795E+04 -0.13328738135E+04  0.21118512528E+04  0.10100000352E+00 0.  1.
       -3    1    3    3    0  502  0.13792110554E+03  0.16322808795E+04 -0.96938445458E+03  0.19034361907E+04  0.10100000352E+00 0. -1.
</event>
<event>
 5   0  0.2674551E-06  0.3163881E+04  0.7818609E-02  0.8198422E-01
       -2   -1    0    0    0  501  0.00000000000E+00  0.00000000000E+00  0.14028147808E+04  0.14028147808E+04  0.25500000920E-02 0. -1.
        2   -1    0    0  501    0  0.00000000000E+00  0.00000000000E+00 -0.17839385639E+04  0.17839385639E+04  0.25500000920E-02 0.  1.
    10030    2    1    2    0    0  0.00000000000E+00  0.00000000000E+00 -0.38112378311E+03  0.31867533447E+04  0.31638807724E+04 0.  0.
        3    1    3    3  502    0 -0.89375526735E+03 -0.55940246807E+03  0.99728805902E+03  0.14513142603E+04  0.10100000352E+00 0. -1.
       -3    1    3    3    0  502  0.89375526735E+03  0.55940246807E+03 -0.13784118421E+04  0.17354390845E+04  0.10100000352E+00 0.  1.
</event>
<event>
 5   0  0.2574803E-06  0.2565354E+04  0.7818609E-02  0.8380066E-01
        2   -1    0    0  501    0  0.00000000000E+00  0.00000000000E+00  0.18726947065E+04  0.18726947065E+04  0.25500000920E-02 0. -1.
       -2   -1    0    0    0  501  0.00000000000E+00  0.00000000000E+00 -0.87855226767E+03  0.87855226767E+03  0.25500000920E-02 0.  1.
    10030    2    1    2    0    0  0.00000000000E+00  0.00000000000E+00  0.99414243885E+03  0.27512469742E+04  0.25653539179E+04 0.  0.
        4    1    3    3  502    0 -0.77192948655E+03 -0.40849044881E+03  0.15045695107E+04  0.17396754307E+04  0.12699999809E+01 0. -1.
       -4    1    3    3    0  502  0.77192948655E+03  0.40849044881E+03 -0.51042707182E+03  0.10115715435E+04  0.12699999809E+01 0.  1.
</event>
<event>
 5   0  0.2674551E-06  0.2450009E+04  0.7818609E-02  0.8421015E-01
        2   -1    0    0  501    0  0.00000000000E+00  0.00000000000E+00  0.16096001154E+04  0.16096001154E+04  0.25500000920E-02 0. -1.
       -2   -1    0    0    0  501  0.00000000000E+00  0.00000000000E+00 -0.93230347437E+03  0.93230347438E+03  0.25500000920E-02 0.  1.
    10030    2    1    2    0    0  0.00000000000E+00  0.00000000000E+00  0.67729664100E+03  0.25419035898E+04  0.24500087999E+04 0.  0.
        3    1    3    3  502    0  0.78521017947E+03 -0.36793927181E+03  0.12363783716E+04  0.15101542377E+04  0.10100000352E+00 0.  1.
       -3    1    3    3    0  502 -0.78521017947E+03  0.36793927181E+03 -0.55908173063E+03  0.10317493520E+04  0.10100000352E+00 0. -1.
</event>
<event>
 5   0  0.2705859E-06  0.3244085E+04  0.7818609E-02  0.8177271E-01
       -2   -1    0    0    0  501  0.00000000000E+00  0.00000000000E+00  0.10754696710E+04  0.10754696710E+04  0.25500000920E-02 0. -1.
        2   -1    0    0  501    0  0.00000000000E+00  0.00000000000E+00 -0.24463929117E+04  0.24463929117E+04  0.25500000920E-02 0.  1.
    10030    2    1    2    0    0  0.00000000000E+00  0.00000000000E+00 -0.13709232407E+04  0.35218625826E+04  0.32440846967E+04 0.  0.
        1    1    3    3  502    0  0.82973144926E+03 -0.11171772193E+03 -0.21936951136E+04  0.23480275507E+04  0.50400001928E-02 0.  1.
       -1    1    3    3    0  502 -0.82973144926E+03  0.11171772193E+03  0.82277187293E+03  0.11738350319E+04  0.50400001928E-02 0. -1.
</event>
<event>
 5   0  0.2674551E-06  0.3097128E+04  0.7818609E-02  0.8216526E-01
        2   -1    0    0  501    0  0.00000000000E+00  0.00000000000E+00  0.26653450446E+04  0.26653450446E+04  0.25500000920E-02 0.  1.
       -2   -1    0    0    0  501  0.00000000000E+00  0.00000000000E+00 -0.89971496947E+03  0.89971496947E+03  0.25500000920E-02 0. -1.
    10030    2    1    2    0    0  0.00000000000E+00  0.00000000000E+00  0.17656300752E+04  0.35650600141E+04  0.30971282411E+04 0.  0.
        3    1    3    3  502    0 -0.25683965449E+03 -0.15043879017E+04  0.58066598736E+03  0.16328877996E+04  0.10100000352E+00 0. -1.
       -3    1    3    3    0  502  0.25683965449E+03  0.15043879017E+04  0.11849640878E+04  0.19321722145E+04  0.10100000352E+00 0.  1.
</event>
<event>
 5   0  0.2658600E-06  0.2648265E+04  0.7818609E-02  0.8351989E-01
       -2   -1    0    0    0  501  0.00000000000E+00  0.00000000000E+00  0.13698919648E+04  0.13698919648E+04  0.25500000920E-02 0. -1.
        2   -1    0    0  501    0  0.00000000000E+00  0.00000000000E+00 -0.12799016933E+04  0.12799016933E+04  0.25500000920E-02 0.  1.
    10030    2    1    2    0    0  0.00000000000E+00  0.00000000000E+00  0.89990271585E+02  0.26497936581E+04  0.26482651267E+04 0.  0.
        5    1    3    3  502    0  0.91350209680E+02  0.12314408857E+04 -0.43331156853E+03  0.13086529415E+04  0.46999998093E+01 0.  1.
       -5    1    3    3    0  502 -0.91350209680E+02 -0.12314408857E+04  0.52330184011E+03  0.13411407166E+04  0.46999998093E+01 0. -1.
</event>
<event>
 5   0  0.9268670E-07  0.3291686E+04  0.7818609E-02  0.8165014E-01
        1   -1    0    0  501    0  0.00000000000E+00  0.00000000000E+00  0.11966151149E+04  0.11966151149E+04  0.50400001928E-02 0.  1.
       -1   -1    0    0    0  501  0.00000000000E+00  0.00000000000E+00 -0.22637173980E+04  0.22637173980E+04  0.50400001928E-02 0. -1.
    10030    2    1    2    0    0  0.00000000000E+00  0.00000000000E+00 -0.10671022831E+04  0.34603325130E+04  0.32916855587E+04 0.  0.
        3    1    3    3  502    0 -0.96677195973E+03 -0.46234832931E+03 -0.18467040421E+04  0.21351182237E+04  0.10100000352E+00 0. -1.
       -3    1    3    3    0  502  0.96677195973E+03  0.46234832931E+03  0.77960175898E+03  0.13252142893E+04  0.10100000352E+00 0.  1.
</event>
<event>
 5   0  0.8845526E-07  0.3004217E+04  0.7818609E-02  0.8242528E-01
        1   -1    0    0  501    0  0.00000000000E+00  0.00000000000E+00  0.19692602844E+04  0.19692602844E+04  0.50400001928E-02 0.  1.
       -1   -1    0    0    0  501  0.00000000000E+00  0.00000000000E+00 -0.11457756637E+04  0.11457756637E+04  0.50400001928E-02 0. -1.
    10030    2    1    2    0    0  0.00000000000E+00  0.00000000000E+00  0.82348462069E+03  0.31150359481E+04  0.30042173752E+04 0.  0.
        1    1    3    3  502    0  0.23289473224E+03 -0.16894065222E+03  0.19404219728E+04  0.19616366465E+04  0.50400001928E-02 0.  1.
       -1    1    3    3    0  502 -0.23289473224E+03  0.16894065222E+03 -0.11169373522E+04  0.11533993016E+04  0.50400001928E-02 0. -1.
</event>
<event>
 5   0  0.9268670E-07  0.3291644E+04  0.7818609E-02  0.8165025E-01
       -1   -1    0    0    0  501  0.00000000000E+00  0.00000000000E+00  0.10303791972E+04  0.10303791972E+04  0.50400001928E-02 0. -1.
        1   -1    0    0  501    0  0.00000000000E+00  0.00000000000E+00 -0.26288675180E+04  0.26288675180E+04  0.50400001928E-02 0.  1.
    10030    2    1    2    0    0  0.00000000000E+00  0.00000000000E+00 -0.15984883208E+04  0.36592467153E+04  0.32916442109E+04 0.  0.
        3    1    3    3  502    0 -0.13792036155E+04 -0.21249616220E+03  0.17076891070E+03  0.14058873579E+04  0.10100000352E+00 0. -1.
       -3    1    3    3    0  502  0.13792036155E+04  0.21249616220E+03 -0.17692572315E+04  0.22533593574E+04  0.10100000352E+00 0.  1.
</event>
<event>
 5   0  0.8845526E-07  0.3413851E+04  0.7818609E-02  0.8134515E-01
        1   -1    0    0  501    0  0.00000000000E+00  0.00000000000E+00  0.93787962457E+03  0.93787962458E+03  0.50400001928E-02 0. -1.
       -1   -1    0    0    0  501  0.00000000000E+00  0.00000000000E+00 -0.31065755448E+04  0.31065755448E+04  0.50400001928E-02 0.  1.
    10030    2    1    2    0    0  0.00000000000E+00  0.00000000000E+00 -0.21686959203E+04  0.40444551694E+04  0.34138505566E+04 0.  0.
        1    1    3    3  502    0  0.57559913899E+03 -0.15684784850E+03 -0.29790393375E+04  0.30381887681E+04  0.50400001928E-02 0.  1.
       -1    1    3    3    0  502 -0.57559913899E+03  0.15684784850E+03  0.81034341726E+03  0.10062664013E+04  0.50400001928E-02 0. -1.
</event>
<event>
 5   0  0.9295663E-07  0.3264024E+04  0.7818609E-02  0.8172110E-01
       -1   -1    0    0    0  501  0.00000000000E+00  0.00000000000E+00  0.17675473258E+04  0.17675473258E+04  0.50400001928E-02 0. -1.
        1   -1    0    0  501    0  0.00000000000E+00  0.00000000000E+00 -0.15068697281E+04  0.15068697281E+04  0.50400001928E-02 0.  1.
    10030    2    1    2    0    0  0.00000000000E+00  0.00000000000E+00  0.26067759767E+03  0.32744170539E+04  0.32640242390E+04 0.  0.
        4    1    3    3  502    0  0.10161517109E+04 -0.23277430871E+03  0.13900095580E+04  0.17374913993E+04  0.12699999809E+01 0. -1.
       -4    1    3    3    0  502 -0.10161517109E+04  0.23277430871E+03 -0.11293319603E+04  0.15369256546E+04  0.12699999809E+01 0.  1.
</event>
<event>
 5   0  0.2574803E-06  0.3329464E+04  0.7818609E-02  0.8155438E-01
       -2   -1    0    0    0  501  0.00000000000E+00  0.00000000000E+00  0.12476254492E+04  0.12476254492E+04  0.25500000920E-02 0. -1.
        2   -1    0    0  501    0  0.00000000000E+00  0.00000000000E+00 -0.22212861687E+04  0.22212861687E+04  0.25500000920E-02 0.  1.
    10030    2    1    2    0    0  0.00000000000E+00  0.00000000000E+00 -0.97366071952E+03  0.34689116179E+04  0.33294643137E+04 0.  0.
        4    1    3    3  502    0 -0.14345074765E+04 -0.81753491913E+03 -0.70823106096E+03  0.17965989794E+04  0.12699999809E+01 0.  1.
       -4    1    3    3    0  502  0.14345074765E+04  0.81753491913E+03 -0.26542965856E+03  0.16723126385E+04  0.12699999809E+01 0. -1.
</event>
<event>
 5   0  0.2658600E-06  0.3341673E+04  0.7818609E-02  0.8152372E-01
        2   -1    0    0  501    0  0.00000000000E+00  0.00000000000E+00  0.21830745961E+04  0.21830745961E+04  0.25500000920E-02 0.  1.
       -2   -1    0    0    0  501  0.00000000000E+00  0.00000000000E+00 -0.12787904730E+04  0.12787904730E+04  0.25500000920E-02 0. -1.
    10030    2    1    2    0    0  0.00000000000E+00  0.00000000000E+00  0.90428412314E+03  0.34618650691E+04  0.33416732308E+04 0.  0.
        5    1    3    3  502    0 -0.94262105636E+03  0.72663416146E+02  0.18793198205E+04  0.21037299032E+04  0.46999998093E+01 0.  1.
       -5    1    3    3    0  502  0.94262105636E+03 -0.72663416146E+02 -0.97503569733E+03  0.13581351660E+04  0.46999998093E+01 0. -1.
</event>
<event>
 5   0  0.8845526E-07  0.3280705E+04  0.7818609E-02  0.8167822E-01
       -1   -1    0    0    0  501  0.00000000000E+00  0.00000000000E+00  0.22548375718E+04  0.22548375719E+04  0.50400001928E-02 0.  1.
        1   -1    0    0  501    0  0.00000000000E+00  0.00000000000E+00 -0.11933257940E+04  0.11933257940E+04  0.50400001928E-02 0. -1.
    10030    2    1    2    0    0  0.00000000000E+00  0.00000000000E+00  0.10615117778E+04  0.34481633659E+04  0.32807047023E+04 0.  0.
        1    1    3    3  502    0  0.20924508251E+03 -0.25702440116E+03 -0.11577679206E+04  0.12042722306E+04  0.50400001928E-02 0. -1.
       -1    1    3    3    0  502 -0.20924508251E+03  0.25702440116E+03  0.22192796984E+04  0.22438911353E+04  0.50400001928E-02 0.  1.
</event>
<event>
 5   0  0.2674551E-06  0.3293811E+04  0.7818609E-02  0.8164472E-01
        2   -1    0    0  501    0  0.00000000000E+00  0.00000000000E+00  0.18478770356E+04  0.18478770356E+04  0.25500000920E-02 0. -1.
       -2   -1    0    0    0  501  0.00000000000E+00  0.00000000000E+00 -0.14677909253E+04  0.14677909253E+04  0.25500000920E-02 0.  1.
    10030    2    1    2    0    0  0.00000000000E+00  0.00000000000E+00  0.38008611036E+03  0.33156679609E+04  0.32938106466E+04 0.  0.
        3    1    3    3  502    0  0.15619594122E+03  0.36975664611E+03 -0.14177974051E+04  0.14735218497E+04  0.10100000352E+00 0.  1.
       -3    1    3    3    0  502 -0.15619594122E+03 -0.36975664611E+03  0.17978835155E+04  0.18421461112E+04  0.10100000352E+00 0. -1.
</event>
<event>
 5   0  0.2705859E-06  0.3311127E+04  0.7818609E-02  0.8160070E-01
        2   -1    0    0  501    0  0.00000000000E+00  0.00000000000E+00  0.24448992381E+04  0.24448992381E+04  0.25500000920E-02 0.  1.
       -2   -1    0    0    0  501  0.00000000000E+00  0.00000000000E+00 -0.11210647337E+04  0.11210647337E+04  0.25500000920E-02 0. -1.
    10030    2    1    2    0    0  0.00000000000E+00  0.00000000000E+00  0.13238345044E+04  0.35659639718E+04  0.33111268857E+04 0.  0.
        1    1    3    3  502    0  0.56235944469E+03 -0.59105168151E+02  0.23376774204E+04  0.24050940289E+04  0.50400001928E-02 0.  1.
       -1    1    3    3    0  502 -0.56235944469E+03  0.59105168151E+02 -0.10138429160E+04  0.11608699429E+04  0.50400001928E-02 0. -1.
</event>
<event>
 5   0  0.2614212E-06  0.3305293E+04  0.7818609E-02  0.8161550E-01
       -2   -1    0    0    0  501  0.00000000000E+00  0.00000000000E+00  0.11071425213E+04  0.11071425213E+04  0.25500000920E-02 0.  1.
        2   -1    0    0  501    0  0.00000000000E+00  0.00000000000E+00 -0.24669268657E+04  0.24669268657E+04  0.25500000920E-02 0. -1.
    10030    2    1    2    0    0  0.00000000000E+00  0.00000000000E+00 -0.13597843444E+04  0.35740693869E+04  0.33052925013E+04 0.  0.
        2    1    3    3  502    0  0.18612813241E+03 -0.15489645950E+04 -0.12694873446E+04  0.20113510674E+04  0.25500000920E-02 0. -1.
       -2    1    3    3    0  502 -0.18612813241E+03  0.15489645950E+04 -0.90296999830E+02  0.15627183196E+04  0.25500000920E-02 0.  1.
</event>
<event>
 5   0  0.8705956E-07  0.3478117E+04  0.7818609E-02  0.8118996E-01
       -1   -1    0    0    0  501  0.00000000000E+00  0.00000000000E+00  0.15999672503E+04  0.15999672503E+04  0.50400001928E-02 0.  1.
        1   -1    0    0  501    0  0.00000000000E+00  0.00000000000E+00 -0.18902410757E+04  0.18902410757E+04  0.50400001928E-02 0. -1.
    10030    2    1    2    0    0  0.00000000000E+00  0.00000000000E+00 -0.29027382540E+03  0.34902083260E+04  0.34781166262E+04 0.  0.
        2    1    3    3  502    0  0.85899517564E+03  0.50224922509E+03 -0.15763480112E+04  0.18641352012E+04  0.25500000920E-02 0. -1.
       -2    1    3    3    0  502 -0.85899517564E+03 -0.50224922509E+03  0.12860741858E+04  0.16260731248E+04  0.25500000920E-02 0.  1.
</event>
<event>
 5   0  0.9295663E-07  0.3178200E+04  0.7818609E-02  0.8194598E-01
       -1   -1    0    0    0  501  0.00000000000E+00  0.00000000000E+00  0.32067311682E+04  0.32067311682E+04  0.50400001928E-02 0. -1.
        1   -1    0    0  501    0  0.00000000000E+00  0.00000000000E+00 -0.78748081328E+03  0.78748081329E+03  0.50400001928E-02 0.  1.
    10030    2    1    2    0    0  0.00000000000E+00  0.00000000000E+00  0.24192503549E+04  0.39942119815E+04  0.31782002884E+04 0.  0.
        4    1    3    3  502    0 -0.42854081565E+02  0.14019061765E+04  0.27078775127E+03  0.14284624668E+04  0.12699999809E+01 0.  1.
       -4    1    3    3    0  502  0.42854081565E+02 -0.14019061765E+04  0.21484626036E+04  0.25657495147E+04  0.12699999809E+01 0. -1.
</event>
<event>
 5   0  0.2658600E-06  0.3176453E+04  0.7818609E-02  0.8195064E-01
       -2   -1    0    0    0  501  0.00000000000E+00  0.00000000000E+00  0.92879932584E+03  0.92879932585E+03  0.25500000920E-02 0. -1.
        2   -1    0    0  501    0  0.00000000000E+00  0.00000000000E+00 -0.27158325982E+04  0.27158325982E+04  0.25500000920E-02 0.  1.
    10030    2    1    2    0    0  0.00000000000E+00  0.00000000000E+00 -0.17870332724E+04  0.36446319241E+04  0.31764530447E+04 0.  0.
        5    1    3    3  502    0  0.10715209250E+03  0.13111117258E+04 -0.19145947882E+04  0.23229702583E+04  0.46999998093E+01 0.  1.
       -5    1    3    3    0  502 -0.10715209250E+03 -0.13111117258E+04  0.12756151577E+03  0.13216616657E+04  0.46999998093E+01 0. -1.
</event>
<event>
 5   0  0.8705956E-07  0.3278466E+04  0.7818609E-02  0.8168396E-01
       -1   -1    0    0    0  501  0.00000000000E+00  0.00000000000E+00  0.10167250753E+04  0.10167250753E+04  0.50400001928E-02 0.  1.
        1   -1    0    0  501    0  0.00000000000E+00  0.00000000000E+00 -0.26428824601E+04  0.26428824601E+04  0.50400001928E-02 0. -1.
    10030    2    1    2    0    0  0.00000000000E+00  0.00000000000E+00 -0.16261573847E+04  0.36596075354E+04  0.32784660244E+04 0.  0.
        2    1    3    3  502    0  0.14828996932E+04  0.15698424726E+03 -0.53163813787E+02  0.14921333537E+04  0.25500000920E-02 0. -1.
       -2    1    3    3    0  502 -0.14828996932E+04 -0.15698424726E+03 -0.15729935710E+04  0.21674741817E+04  0.25500000920E-02 0.  1.
</event>
<event>
 5   0  0.9530268E-07  0.3302264E+04  0.7818609E-02  0.8162320E-01
       -1   -1    0    0    0  501  0.00000000000E+00  0.00000000000E+00  0.15424491972E+04  0.15424491972E+04  0.50400001928E-02 0. -1.
        1   -1    0    0  501    0  0.00000000000E+00  0.00000000000E+00 -0.17674722580E+04  0.17674722580E+04  0.50400001928E-02 0.  1.
    10030    2    1    2    0    0  0.00000000000E+00  0.00000000000E+00 -0.22502306078E+03  0.33099214553E+04  0.33022635664E+04 0.  0.
        5    1    3    3  502    0 -0.74240372288E+03 -0.11080290166E+04 -0.10880735364E+04  0.17212837361E+04  0.46999998093E+01 0.  1.
       -5    1    3    3    0  502  0.74240372288E+03  0.11080290166E+04  0.86305047561E+03  0.15886377192E+04  0.46999998093E+01 0. -1.
</event>
<event>
 5   0  0.9295663E-07  0.3273291E+04  0.7818609E-02  0.8169725E-01
       -1   -1    0    0    0  501  0.00000000000E+00  0.00000000000E+00  0.15356464379E+04  0.15356464379E+04  0.50400001928E-02 0. -1.
        1   -1    0    0  501    0  0.00000000000E+00  0.00000000000E+00 -0.17442869955E+04  0.17442869956E+04  0.50400001928E-02 0.  1.
    10030    2    1    2    0    0  0.00000000000E+00  0.00000000000E+00 -0.20864055767E+03  0.32799334334E+04  0.32732907670E+04 0.  0.
        4    1    3    3  502    0 -0.12086900063E+04 -0.60752531154E+03  0.81873748140E+03  0.15812498891E+04  0.12699999809E+01 0. -1.
       -4    1    3    3    0  502  0.12086900063E+04  0.60752531154E+03 -0.10273780391E+04  0.16986835443E+04  0.12699999809E+01 0.  1.
</event>
<event>
 5   0  0.9268670E-07  0.3241125E+04  0.7818609E-02  0.8178040E-01
       -1   -1    0    0    0  501  0.00000000000E+00  0.00000000000E+00  0.12107114986E+04  0.12107114986E+04  0.50400001928E-02 0.  1.
        1   -1    0    0  501    0  0.00000000000E+00  0.00000000000E+00 -0.21691571680E+04  0.21691571680E+04  0.50400001928E-02 0. -1.
    10030    2    1    2    0    0  0.00000000000E+00  0.00000000000E+00 -0.95844566940E+03  0.33798686666E+04  0.32411254376E+04 0.  0.
        3    1    3    3  502    0  0.22175512251E+03 -0.57254634812E+03 -0.20431689107E+04  0.21334300699E+04  0.10100000352E+00 0. -1.
       -3    1    3    3    0  502 -0.22175512251E+03  0.57254634812E+03  0.10847232413E+04  0.12464385968E+04  0.10100000352E+00 0.  1.
</event>
<event>
 5   0  0.9530268E-07  0.3289740E+04  0.7818609E-02  0.8165511E-01
       -1   -1    0    0    0  501  0.00000000000E+00  0.00000000000E+00  0.12122030216E+04  0.12122030216E+04  0.50400001928E-02 0. -1.
        1   -1    0    0  501    0  0.00000000000E+00  0.00000000000E+00 -0.22319667811E+04  0.22319667811E+04  0.50400001928E-02 0.  1.
    10030    2    1    2    0    0  0.00000000000E+00  0.00000000000E+00 -0.10197637595E+04  0.34441698027E+04  0.32897397321E+04 0.  0.
        5    1    3    3  502    0  0.32964665379E+03  0.37118267849E+03 -0.21516577652E+04  0.22081885621E+04  0.46999998093E+01 0.  1.
       -5    1    3    3    0  502 -0.32964665379E+03 -0.37118267849E+03  0.11318940057E+04  0.12359812407E+04  0.46999998093E+01 0. -1.
</event>
<event>
 5   0  0.8845526E-07  0.3272956E+04  0.7818609E-02  0.8169811E-01
        1   -1    0    0  501    0  0.00000000000E+00  0.00000000000E+00  0.13197929477E+04  0.13197929477E+04  0.50400001928E-02 0. -1.
       -1   -1    0    0    0  501  0.00000000000E+00  0.00000000000E+00 -0.20291523208E+04  0.20291523208E+04  0.50400001928E-02 0.  1.
    10030    2    1    2    0    0  0.00000000000E+00  0.00000000000E+00 -0.70935937314E+03  0.33489452686E+04  0.32729564145E+04 0.  0.
        1    1    3    3  502    0 -0.31603258339E+03  0.44308057004E+03 -0.19338402966E+04  0.20089637324E+04  0.50400001928E-02 0.  1.
       -1    1    3    3    0  502  0.31603258339E+03 -0.44308057004E+03  0.12244809235E+04  0.13399815362E+04  0.50400001928E-02 0. -1.
</event>
<event>
 5   0  0.2705859E-06  0.3277974E+04  0.7818609E-02  0.8168522E-01
        2   -1    0    0  501    0  0.00000000000E+00  0.00000000000E+00  0.23377422742E+04  0.23377422742E+04  0.25500000920E-02 0.  1.
       -2   -1    0    0    0  501  0.00000000000E+00  0.00000000000E+00 -0.11490912329E+04  0.11490912329E+04  0.25500000920E-02 0. -1.
    10030    2    1    2    0    0  0.00000000000E+00  0.00000000000E+00  0.11886510412E+04  0.34868335071E+04  0.32779744673E+04 0.  0.
        1    1    3    3  502    0  0.41046246661E+03 -0.84326953491E+03 -0.83545116378E+03  0.12560101879E+04  0.50400001928E-02 0. -1.
       -1    1    3    3    0  502 -0.41046246661E+03  0.84326953491E+03  0.20241022050E+04  0.22308233192E+04  0.50400001928E-02 0.  1.
</event>
<event>
 5   0  0.8845526E-07  0.3260898E+04  0.7818609E-02  0.8172917E-01
       -1   -1    0    0    0  501  0.00000000000E+00  0.00000000000E+00  0.15710329233E+04  0.15710329233E+04  0.50400001928E-02 0.  1.
        1   -1    0    0  501    0  0.00000000000E+00  0.00000000000E+00 -0.16921117576E+04  0.16921117576E+04  0.50400001928E-02 0. -1.
    10030    2    1    2    0    0  0.00000000000E+00  0.00000000000E+00 -0.12107883431E+03  0.32631446809E+04  0.32608975949E+04 0.  0.
        1    1    3    3  502    0 -0.31392918168E+03 -0.83921577204E+03 -0.14236559970E+04  0.16821507189E+04  0.50400001928E-02 0. -1.
       -1    1    3    3    0  502  0.31392918168E+03  0.83921577204E+03  0.13025771627E+04  0.15809939620E+04  0.50400001928E-02 0.  1.
</event>
<event>
 5   0  0.2574803E-06  0.3296677E+04  0.7818609E-02  0.8163742E-01
       -2   -1    0    0    0  501  0.00000000000E+00  0.00000000000E+00  0.11881230613E+04  0.11881230613E+04  0.25500000920E-02 0.  1.
        2   -1    0    0  501    0  0.00000000000E+00  0.00000000000E+00 -0.22868161606E+04  0.22868161606E+04  0.25500000920E-02 0. -1.
    10030    2    1    2    0    0  0.00000000000E+00  0.00000000000E+00 -0.10986930993E+04  0.34749392220E+04  0.32966765188E+04 0.  0.
        4    1    3    3  502    0 -0.40658135746E+03  0.31124789291E+03  0.11021661639E+04  0.12153005870E+04  0.12699999809E+01 0.  1.
       -4    1    3    3    0  502  0.40658135746E+03 -0.31124789291E+03 -0.22008592632E+04  0.22596386349E+04  0.12699999809E+01 0. -1.
</event>
<event>
 5   0  0.2658600E-06  0.3319478E+04  0.7818609E-02  0.8157957E-01
        2   -1    0    0  501    0  0.00000000000E+00  0.00000000000E+00  0.22083035628E+04  0.22083035628E+04  0.25500000920E-02 0. -1.
       -2   -1    0    0    0  501  0.00000000000E+00  0.00000000000E+00 -0.12474429979E+04  0.12474429979E+04  0.25500000920E-02 0.  1.
    10030    2    1    2    0    0  0.00000000000E+00  0.00000000000E+00  0.96086056492E+03  0.34557465607E+04  0.33194775593E+04 0.  0.
        5    1    3    3  502    0  0.37347333459E+03 -0.10670587418E+04 -0.78461375403E+03  0.13761313612E+04  0.46999998093E+01 0.  1.
       -5    1    3    3    0  502 -0.37347333459E+03  0.10670587418E+04  0.17454743189E+04  0.20796151996E+04  0.46999998093E+01 0. -1.
</event>
<event>
 5   0  0.8705956E-07  0.3270068E+04  0.7818609E-02  0.8170554E-01
       -1   -1    0    0    0  501  0.00000000000E+00  0.00000000000E+00  0.13148347486E+04  0.13148347487E+04  0.50400001928E-02 0.  1.
        1   -1    0    0  501    0  0.00000000000E+00  0.00000000000E+00 -0.20332104697E+04  0.20332104697E+04  0.50400001928E-02 0. -1.
    10030    2    1    2    0    0  0.00000000000E+00  0.00000000000E+00 -0.71837572107E+03  0.33480452184E+04  0.32700677528E+04 0.  0.
        2    1    3    3  502    0 -0.45098125159E+03  0.20608072729E+03 -0.19543785670E+04  0.20162958460E+04  0.25500000920E-02 0. -1.
       -2    1    3    3    0  502  0.45098125159E+03 -0.20608072729E+03  0.12360028460E+04  0.13317493723E+04  0.25500000920E-02 0.  1.
</event>
<event>
 5   0  0.8845526E-07  0.3289100E+04  0.7818609E-02  0.8165674E-01
       -1   -1    0    0    0  501  0.00000000000E+00  0.00000000000E+00  0.12166307223E+04  0.12166307223E+04  0.50400001928E-02 0.  1.
        1   -1    0    0  501    0  0.00000000000E+00  0.00000000000E+00 -0.22229797742E+04  0.22229797742E+04  0.50400001928E-02 0. -1.
    10030    2    1    2    0    0  0.00000000000E+00  0.00000000000E+00 -0.10063490519E+04  0.34396104965E+04  0.32891004779E+04 0.  0.
        1    1    3    3  502    0 -0.12481215343E+04 -0.45272445311E+02 -0.16220346353E+04  0.20471573747E+04  0.50400001928E-02 0. -1.
       -1    1    3    3    0  502  0.12481215343E+04  0.45272445311E+02  0.61568558341E+03  0.13924531218E+04  0.50400001928E-02 0.  1.
</event>
<event>
 5   0  0.2614212E-06  0.3300776E+04  0.7818609E-02  0.8162698E-01
        2   -1    0    0  501    0  0.00000000000E+00  0.00000000000E+00  0.13711660340E+04  0.13711660340E+04  0.25500000920E-02 0.  1.
       -2   -1    0    0    0  501  0.00000000000E+00  0.00000000000E+00 -0.19864697110E+04  0.19864697110E+04  0.25500000920E-02 0. -1.
    10030    2    1    2    0    0  0.00000000000E+00  0.00000000000E+00 -0.61530367706E+03  0.33576357450E+04  0.33007755423E+04 0.  0.
        2    1    3    3  502    0  0.12868740896E+03 -0.76115059740E+03 -0.17915019800E+04  0.19507408914E+04  0.25500000920E-02 0. -1.
       -2    1    3    3    0  502 -0.12868740896E+03  0.76115059740E+03  0.11761983029E+04  0.14068948536E+04  0.25500000920E-02 0.  1.
</event>
<event>
 5   0  0.9268670E-07  0.3330619E+04  0.7818609E-02  0.8155148E-01
       -1   -1    0    0    0  501  0.00000000000E+00  0.00000000000E+00  0.20064976171E+04  0.20064976171E+04  0.50400001928E-02 0. -1.
        1   -1    0    0  501    0  0.00000000000E+00  0.00000000000E+00 -0.13821379517E+04  0.13821379517E+04  0.50400001928E-02 0.  1.
    10030    2    1    2    0    0  0.00000000000E+00  0.00000000000E+00  0.62435966537E+03  0.33886355687E+04  0.33306194658E+04 0.  0.
        3    1    3    3  502    0  0.48610436899E+03  0.62599546107E+02 -0.13070962523E+04  0.13959644637E+04  0.10100000352E+00 0.  1.
       -3    1    3    3    0  502 -0.48610436899E+03 -0.62599546107E+02  0.19314559177E+04  0.19926711051E+04  0.10100000352E+00 0. -1.
</event>
<event>
 5   0  0.9268670E-07  0.3262488E+04  0.7818609E-02  0.8172506E-01
       -1   -1    0    0    0  501  0.00000000000E+00  0.00000000000E+00  0.15652619139E+04  0.15652619139E+04  0.50400001928E-02 0. -1.
        1   -1    0    0  501    0  0.00000000000E+00  0.00000000000E+00 -0.17000072503E+04  0.17000072504E+04  0.50400001928E-02 0.  1.
    10030    2    1    2    0    0  0.00000000000E+00  0.00000000000E+00 -0.13474533642E+03  0.32652691643E+04  0.32624877639E+04 0.  0.
        3    1    3    3  502    0 -0.95528049944E+03 -0.26142583899E+03 -0.13646460141E+04  0.16861681577E+04  0.10100000352E+00 0.  1.
       -3    1    3    3    0  502  0.95528049944E+03  0.26142583899E+03  0.12299006777E+04  0.15791010066E+04  0.10100000352E+00 0. -1.
</event>
<event>
 5   0  0.2614212E-06  0.3223151E+04  0.7818609E-02  0.8182730E-01
        2   -1    0    0  501    0  0.00000000000E+00  0.00000000000E+00  0.15075359202E+04  0.15075359202E+04  0.25500000920E-02 0. -1.
       -2   -1    0    0    0  501  0.00000000000E+00  0.00000000000E+00 -0.17227955762E+04  0.17227955762E+04  0.25500000920E-02 0.  1.
    10030    2    1    2    0    0  0.00000000000E+00  0.00000000000E+00 -0.21525965601E+03  0.32303314965E+04  0.32231513861E+04 0.  0.
        2    1    3    3  502    0 -0.28515974714E+02 -0.69707560069E+00  0.15072828998E+04  0.15075527807E+04  0.25500000920E-02 0. -1.
       -2    1    3    3    0  502  0.28515974714E+02  0.69707560069E+00 -0.17225425558E+04  0.17227787157E+04  0.25500000920E-02 0.  1.
</event>
<event>
 5   0  0.9530268E-07  0.3360141E+04  0.7818609E-02  0.8147759E-01
        1   -1    0    0  501    0  0.00000000000E+00  0.00000000000E+00  0.12455064315E+04  0.12455064315E+04  0.50400001928E-02 0. -1.
       -1   -1    0    0    0  501  0.00000000000E+00  0.00000000000E+00 -0.22662566975E+04  0.22662566975E+04  0.50400001928E-02 0.  1.
    10030    2    1    2    0    0  0.00000000000E+00  0.00000000000E+00 -0.10207502660E+04  0.35117631291E+04  0.33601412424E+04 0.  0.
        5    1    3    3  502    0  0.35224557897E+03  0.15451397498E+04 -0.10932894331E+04  0.19253149531E+04  0.46999998093E+01 0.  1.
       -5    1    3    3    0  502 -0.35224557897E+03 -0.15451397498E+04  0.72539167103E+02  0.15864481759E+04  0.46999998093E+01 0. -1.
</event>
<event>
 5   0  0.2674551E-06  0.3420049E+04  0.7818609E-02  0.8133003E-01
       -2   -1    0    0    0  501  0.00000000000E+00  0.00000000000E+00  0.15032325318E+04  0.15032325318E+04  0.25500000920E-02 0. -1.
        2   -1    0    0  501    0  0.00000000000E+00  0.00000000000E+00 -0.19452642973E+04  0.19452642973E+04  0.25500000920E-02 0.  1.
    10030    2    1    2    0    0  0.00000000000E+00  0.00000000000E+00 -0.44203176549E+03  0.34484968291E+04  0.34200494585E+04 0.  0.
        3    1    3    3  502    0  0.14835839602E+04 -0.79738617672E+03 -0.51900490543E+03  0.17624449449E+04  0.10100000352E+00 0.  1.
       -3    1    3    3    0  502 -0.14835839602E+04  0.79738617672E+03  0.76973139938E+02  0.16860518842E+04  0.10100000352E+00 0. -1.
</event>
<event>
 5   0  0.2674551E-06  0.3310875E+04  0.7818609E-02  0.8160134E-01
        2   -1    0    0  501    0  0.00000000000E+00  0.00000000000E+00  0.22375904256E+04  0.22375904256E+04  0.25500000920E-02 0.  1.
       -2   -1    0    0    0  501  0.00000000000E+00  0.00000000000E+00 -0.12247433241E+04  0.12247433241E+04  0.25500000920E-02 0. -1.
    10030    2    1    2    0    0  0.00000000000E+00  0.00000000000E+00  0.10128471015E+04  0.34623337497E+04  0.33108753742E+04 0.  0.
        3    1    3    3  502    0 -0.16190455628E+04 -0.20725023804E+03  0.79511894473E+03  0.18156198231E+04  0.10100000352E+00 0. -1.
       -3    1    3    3    0  502  0.16190455628E+04  0.20725023804E+03  0.21772815677E+03  0.16467139266E+04  0.10100000352E+00 0.  1.
</event>
<event>
 5   0  0.2614212E-06  0.3629858E+04  0.7818609E-02  0.8083686E-01
        2   -1    0    0  501    0  0.00000000000E+00  0.00000000000E+00  0.23950713777E+04  0.23950713777E+04  0.25500000920E-02 0. -1.
       -2   -1    0    0    0  501  0.00000000000E+00  0.00000000000E+00 -0.13753108929E+04  0.13753108929E+04  0.25500000920E-02 0.  1.
    10030    2    1    2    0    0  0.00000000000E+00  0.00000000000E+00  0.10197604847E+04  0.37703822706E+04  0.36298582645E+04 0.  0.
        2    1    3    3  502    0 -0.11798073430E+03  0.99276819953E+03  0.20832685740E+04  0.23107392980E+04  0.25500000920E-02 0. -1.
       -2    1    3    3    0  502  0.11798073430E+03 -0.99276819953E+03 -0.10635080893E+04  0.14596429727E+04  0.25500000920E-02 0.  1.
</event>
<event>
 5   0  0.9295663E-07  0.3301555E+04  0.7818609E-02  0.8162500E-01
        1   -1    0    0  501    0  0.00000000000E+00  0.00000000000E+00  0.19127684956E+04  0.19127684956E+04  0.50400001928E-02 0.  1.
       -1   -1    0    0    0  501  0.00000000000E+00  0.00000000000E+00 -0.14246711168E+04  0.14246711168E+04  0.50400001928E-02 0. -1.
    10030    2    1    2    0    0  0.00000000000E+00  0.00000000000E+00  0.48809737884E+03  0.33374396124E+04  0.33015548027E+04 0.  0.
        4    1    3    3  502    0  0.12828769625E+03  0.10844363530E+04  0.14954884552E+04  0.18517416854E+04  0.12699999809E+01 0.  1.
       -4    1    3    3    0  502 -0.12828769625E+03 -0.10844363530E+04 -0.10073910764E+04  0.14856979270E+04  0.12699999809E+01 0. -1.
</event>
<event>
 5   0  0.2705859E-06  0.3233551E+04  0.7818609E-02  0.8180012E-01
        2   -1    0    0  501    0  0.00000000000E+00  0.00000000000E+00  0.19988340256E+04  0.19988340256E+04  0.25500000920E-02 0. -1.
       -2   -1    0    0    0  501  0.00000000000E+00  0.00000000000E+00 -0.13077438786E+04  0.13077438786E+04  0.25500000920E-02 0.  1.
    10030    2    1    2    0    0  0.00000000000E+00  0.00000000000E+00  0.69109014699E+03  0.33065779042E+04  0.32335509653E+04 0.  0.
        1    1    3    3  502    0  0.42864773252E+03  0.78455083132E+03 -0.10319877509E+04  0.13653781907E+04  0.50400001928E-02 0.  1.
       -1    1    3    3    0  502 -0.42864773252E+03 -0.78455083132E+03  0.17230778979E+04  0.19411997135E+04  0.50400001928E-02 0. -1.
</event>
<event>
 5   0  0.2614212E-06  0.3267491E+04  0.7818609E-02  0.8171217E-01
       -2   -1    0    0    0  501  0.00000000000E+00  0.00000000000E+00  0.17780230348E+04  0.17780230348E+04  0.25500000920E-02 0.  1.
        2   -1    0    0  501    0  0.00000000000E+00  0.00000000000E+00 -0.15011757387E+04  0.15011757387E+04  0.25500000920E-02 0. -1.
    10030    2    1    2    0    0  0.00000000000E+00  0.00000000000E+00  0.27684729614E+03  0.32791987735E+04  0.32674914186E+04 0.  0.
        2    1    3    3  502    0  0.72004359610E+03  0.50137768386E+03 -0.12446588675E+04  0.15228322490E+04  0.25500000920E-02 0. -1.
       -2    1    3    3    0  502 -0.72004359610E+03 -0.50137768386E+03  0.15215061637E+04  0.17563665245E+04  0.25500000920E-02 0.  1.
</event>
<event>
 5   0  0.2705859E-06  0.3399084E+04  0.7818609E-02  0.8138131E-01
        2   -1    0    0  501    0  0.00000000000E+00  0.00000000000E+00  0.16825074372E+04  0.16825074372E+04  0.25500000920E-02 0.  1.
       -2   -1    0    0    0  501  0.00000000000E+00  0.00000000000E+00 -0.17167486663E+04  0.17167486663E+04  0.25500000920E-02 0. -1.
    10030    2    1    2    0    0  0.00000000000E+00  0.00000000000E+00 -0.34241229077E+02  0.33992561035E+04  0.33990836406E+04 0.  0.
        1    1    3    3  502    0 -0.62431281021E+03 -0.14562865447E+04  0.59765069503E+03  0.16934353659E+04  0.50400001928E-02 0. -1.
       -1    1    3    3    0  502  0.62431281021E+03  0.14562865447E+04 -0.63189192411E+03  0.17058207376E+04  0.50400001928E-02 0.  1.
</event>
<event>
 5   0  0.2674551E-06  0.3289874E+04  0.7818609E-02  0.8165477E-01
        2   -1    0    0  501    0  0.00000000000E+00  0.00000000000E+00  0.26314487667E+04  0.26314487667E+04  0.25500000920E-02 0.  1.
       -2   -1    0    0    0  501  0.00000000000E+00  0.00000000000E+00 -0.10282617302E+04  0.10282617302E+04  0.25500000920E-02 0. -1.
    10030    2    1    2    0    0  0.00000000000E+00  0.00000000000E+00  0.16031870365E+04  0.36597104968E+04  0.32898741992E+04 0.  0.
        3    1    3    3  502    0  0.26848134065E+03 -0.79789359017E+03  0.23736477517E+04  0.25185154498E+04  0.10100000352E+00 0.  1.
       -3    1    3    3    0  502 -0.26848134065E+03  0.79789359017E+03 -0.77046071521E+03  0.11411950470E+04  0.10100000352E+00 0. -1.
</event>
<event>
 5   0  0.8705956E-07  0.3292746E+04  0.7818609E-02  0.8164744E-01
       -1   -1    0    0    0  501  0.00000000000E+00  0.00000000000E+00  0.27216312711E+04  0.27216312711E+04  0.50400001928E-02 0. -1.
        1   -1    0    0  501    0  0.00000000000E+00  0.00000000000E+00 -0.99592605197E+03  0.99592605198E+03  0.50400001928E-02 0.  1.
    10030    2    1    2    0    0  0.00000000000E+00  0.00000000000E+00  0.17257052191E+04  0.37175573231E+04  0.32927456548E+04 0.  0.
        2    1    3    3  502    0 -0.13754424992E+04 -0.49089048446E+03  0.17209986011E+04  0.22571335187E+04  0.25500000920E-02 0.  1.
       -2    1    3    3    0  502  0.13754424992E+04  0.49089048446E+03  0.47066180588E+01  0.14604238044E+04  0.25500000920E-02 0. -1.
</event>
<event>
 5   0  0.2705859E-06  0.3250616E+04  0.7818609E-02  0.8175576E-01
        2   -1    0    0  501    0  0.00000000000E+00  0.00000000000E+00  0.22148358326E+04  0.22148358326E+04  0.25500000920E-02 0. -1.
       -2   -1    0    0    0  501  0.00000000000E+00  0.00000000000E+00 -0.11926959580E+04  0.11926959580E+04  0.25500000920E-02 0.  1.
    10030    2    1    2    0    0  0.00000000000E+00  0.00000000000E+00  0.10221398746E+04  0.34075317906E+04  0.32506157849E+04 0.  0.
        1    1    3    3  502    0 -0.87098487427E+03  0.34121280980E+03  0.19043599847E+04  0.21217039812E+04  0.50400001928E-02 0.  1.
       -1    1    3    3    0  502  0.87098487427E+03 -0.34121280980E+03 -0.88222011004E+03  0.12858278094E+04  0.50400001928E-02 0. -1.
</event>
<event>
 5   0  0.2574803E-06  0.2415660E+04  0.7818609E-02  0.8433664E-01
        2   -1    0    0  501    0  0.00000000000E+00  0.00000000000E+00  0.19260872478E+04  0.19260872478E+04  0.25500000920E-02 0.  1.
       -2   -1    0    0    0  501  0.00000000000E+00  0.00000000000E+00 -0.75741798953E+03  0.75741798953E+03  0.25500000920E-02 0. -1.
    10030    2    1    2    0    0  0.00000000000E+00  0.00000000000E+00  0.11686692583E+04  0.26835052374E+04  0.24156598526E+04 0.  0.
        4    1    3    3  502    0 -0.38871780329E+03 -0.83113476153E+03 -0.28822864124E+03  0.96175042758E+03  0.12699999809E+01 0. -1.
       -4    1    3    3    0  502  0.38871780329E+03  0.83113476153E+03  0.14568978996E+04  0.17217548098E+04  0.12699999809E+01 0.  1.
</event>
<event>
 5   0  0.8845526E-07  0.3245348E+04  0.7818609E-02  0.8176942E-01
       -1   -1    0    0    0  501  0.00000000000E+00  0.00000000000E+00  0.22304263069E+04  0.22304263069E+04  0.50400001928E-02 0. -1.
        1   -1    0    0  501    0  0.00000000000E+00  0.00000000000E+00 -0.11805237285E+04  0.11805237285E+04  0.50400001928E-02 0.  1.
    10030    2    1    2    0    0  0.00000000000E+00  0.00000000000E+00  0.10499025784E+04  0.34109500354E+04  0.32453481662E+04 0.  0.
        1    1    3    3  502    0  0.54587828521E+03 -0.82492259158E+03 -0.82699477043E+03  0.12893412018E+04  0.50400001928E-02 0.  1.
       -1    1    3    3    0  502 -0.54587828521E+03  0.82492259158E+03  0.18768973489E+04  0.21216088335E+04  0.50400001928E-02 0. -1.
</event>
<event>
 5   0  0.8705956E-07  0.3376276E+04  0.7818609E-02  0.8143754E-01
        1   -1    0    0  501    0  0.00000000000E+00  0.00000000000E+00  0.32937526763E+04  0.32937526763E+04  0.50400001928E-02 0. -1.
       -1   -1    0    0    0  501  0.00000000000E+00  0.00000000000E+00 -0.86521674242E+03  0.86521674244E+03  0.50400001928E-02 0.  1.
    10030    2    1    2    0    0  0.00000000000E+00  0.00000000000E+00  0.24285359339E+04  0.41589694188E+04  0.33762760320E+04 0.  0.
        2    1    3    3  502    0 -0.15523359293E+04 -0.70974290624E+02  0.20267341157E+04  0.25539059034E+04  0.25500000920E-02 0. -1.
       -2    1    3    3    0  502  0.15523359293E+04  0.70974290624E+02  0.40180181815E+03  0.16050635154E+04  0.25500000920E-02 0.  1.
</event>
<event>
 5   0  0.9530268E-07  0.3239799E+04  0.7818609E-02  0.8178385E-01
        1   -1    0    0  501    0  0.00000000000E+00  0.00000000000E+00  0.10779528271E+04  0.10779528271E+04  0.50400001928E-02 0.  1.
       -1   -1    0    0    0  501  0.00000000000E+00  0.00000000000E+00 -0.24343130207E+04  0.24343130207E+04  0.50400001928E-02 0. -1.
    10030    2    1    2    0    0  0.00000000000E+00  0.00000000000E+00 -0.13563601936E+04  0.35122658478E+04  0.32397991312E+04 0.  0.
        5    1    3    3  502    0  0.10393357584E+04  0.77191953274E+03 -0.17337025910E+04  0.21637526078E+04  0.46999998093E+01 0. -1.
       -5    1    3    3    0  502 -0.10393357584E+04 -0.77191953274E+03  0.37734239732E+03  0.13485132400E+04  0.46999998093E+01 0.  1.
</event>
<event>
 5   0  0.9268670E-07  0.3312564E+04  0.7818609E-02  0.8159706E-01
        1   -1    0    0  501    0  0.00000000000E+00  0.00000000000E+00  0.18587416528E+04  0.18587416528E+04  0.50400001928E-02 0.  1.
       -1   -1    0    0    0  501  0.00000000000E+00  0.00000000000E+00 -0.14758752787E+04  0.14758752787E+04  0.50400001928E-02 0. -1.
    10030    2    1    2    0    0  0.00000000000E+00  0.00000000000E+00  0.38286637411E+03  0.33346169315E+04  0.33125644778E+04 0.  0.
        3    1    3    3  502    0 -0.30130195474E+01 -0.16437582826E+04  0.39606081140E+03  0.16908029295E+04  0.10100000352E+00 0.  1.
       -3    1    3    3    0  502  0.30130195474E+01  0.16437582826E+04 -0.13194437290E+02  0.16438140020E+04  0.10100000352E+00 0. -1.
</event>
<event>
 5   0  0.2574803E-06  0.3360840E+04  0.7818609E-02  0.8147585E-01
       -2   -1    0    0    0  501  0.00000000000E+00  0.00000000000E+00  0.21268491753E+04  0.21268491753E+04  0.25500000920E-02 0.  1.
        2   -1    0    0  501    0  0.00000000000E+00  0.00000000000E+00 -0.13276967387E+04  0.13276967387E+04  0.25500000920E-02 0. -1.
    10030    2    1    2    0    0  0.00000000000E+00  0.00000000000E+00  0.79915243660E+03  0.34545459140E+04  0.33608396057E+04 0.  0.
        4    1    3    3  502    0  0.14383084301E+04 -0.69941008754E+03  0.92961201552E+03  0.18498880298E+04  0.12699999809E+01 0.  1.
       -4    1    3    3    0  502 -0.14383084301E+04  0.69941008754E+03 -0.13045957892E+03  0.16046578842E+04  0.12699999809E+01 0. -1.
</event>
<event>
 5   0  0.8845526E-07  0.2689080E+04  0.7818609E-02  0.8338557E-01
       -1   -1    0    0    0  501  0.00000000000E+00  0.00000000000E+00  0.16514259331E+04  0.16514259331E+04  0.50400001928E-02 0. -1.
        1   -1    0    0  501    0  0.00000000000E+00  0.00000000000E+00 -0.10946832216E+04  0.10946832216E+04  0.50400001928E-02 0.  1.
    10030    2    1    2    0    0  0.00000000000E+00  0.00000000000E+00  0.55674271149E+03  0.27461091547E+04  0.26890803340E+04 0.  0.
        1    1    3    3  502    0 -0.83773713380E+02 -0.51702935987E+03 -0.98621634038E+03  0.11166736605E+04  0.50400001928E-02 0.  1.
       -1    1    3    3    0  502  0.83773713380E+02  0.51702935987E+03  0.15429590519E+04  0.16294354942E+04  0.50400001928E-02 0. -1.
</event>
<event>
 5   0  0.2658600E-06  0.3260241E+04  0.7818609E-02  0.8173086E-01
       -2   -1    0    0    0  501  0.00000000000E+00  0.00000000000E+00  0.14567647705E+04  0.14567647705E+04  0.25500000920E-02 0.  1.
        2   -1    0    0  501    0  0.00000000000E+00  0.00000000000E+00 -0.18241059369E+04  0.18241059369E+04  0.25500000920E-02 0. -1.
    10030    2    1    2    0    0  0.00000000000E+00  0.00000000000E+00 -0.36734116637E+03  0.32808707075E+04  0.32602412590E+04 0.  0.
        5    1    3    3  502    0  0.10407129714E+04  0.12155666940E+03  0.10729951301E+04  0.14997333603E+04  0.46999998093E+01 0.  1.
       -5    1    3    3    0  502 -0.10407129714E+04 -0.12155666940E+03 -0.14403362965E+04  0.17811373472E+04  0.46999998093E+01 0. -1.
</event>
<event>
 5   0  0.2658600E-06  0.3387044E+04  0.7818609E-02  0.8141093E-01
        2   -1    0    0  501    0  0.00000000000E+00  0.00000000000E+00  0.19019484133E+04  0.19019484133E+04  0.25500000920E-02 0. -1.
       -2   -1    0    0    0  501  0.00000000000E+00  0.00000000000E+00 -0.15079364796E+04  0.15079364796E+04  0.25500000920E-02 0.  1.
    10030    2    1    2    0    0  0.00000000000E+00  0.00000000000E+00  0.39401193378E+03  0.34098848929E+04  0.33870443722E+04 0.  0.
        5    1    3    3  502    0 -0.15741812179E+03 -0.16819237464E+03  0.18860942004E+04  0.19001164603E+04  0.46999998093E+01 0. -1.
       -5    1    3    3    0  502  0.15741812179E+03  0.16819237464E+03 -0.14920822666E+04  0.15097684326E+04  0.46999998093E+01 0.  1.
</event>
<event>
 5   0  0.2658600E-06  0.3220220E+04  0.7818609E-02  0.8183498E-01
       -2   -1    0    0    0  501  0.00000000000E+00  0.00000000000E+00  0.16235099763E+04  0.16235099763E+04  0.25500000920E-02 0. -1.
        2   -1    0    0  501    0  0.00000000000E+00  0.00000000000E+00 -0.15968202261E+04  0.15968202261E+04  0.25500000920E-02 0.  1.
    10030    2    1    2    0    0  0.00000000000E+00  0.00000000000E+00  0.26689750106E+02  0.32203302024E+04  0.32202195996E+04 0.  0.
        5    1    3    3  502    0  0.29207616384E+03  0.15202428691E+04 -0.42937182200E+03  0.16064959129E+04  0.46999998093E+01 0.  1.
       -5    1    3    3    0  502 -0.29207616384E+03 -0.15202428691E+04  0.45606157210E+03  0.16138342895E+04  0.46999998093E+01 0. -1.
</event>
<event>
 5   0  0.2614212E-06  0.3328338E+04  0.7818609E-02  0.8155722E-01
        2   -1    0    0  501    0  0.00000000000E+00  0.00000000000E+00  0.19838786578E+04  0.19838786578E+04  0.25500000920E-02 0. -1.
       -2   -1    0    0    0  501  0.00000000000E+00  0.00000000000E+00 -0.13959819323E+04  0.13959819323E+04  0.25500000920E-02 0.  1.
    10030    2    1    2    0    0  0.00000000000E+00  0.00000000000E+00  0.58789672557E+03  0.33798605901E+04  0.33283381813E+04 0.  0.
        2    1    3    3  502    0 -0.73069632569E+03  0.22134024361E+03 -0.12076405754E+04  0.14287422382E+04  0.25500000920E-02 0.  1.
       -2    1    3    3    0  502  0.73069632569E+03 -0.22134024361E+03  0.17955373010E+04  0.19511183519E+04  0.25500000920E-02 0. -1.
</event>
<event>
 5   0  0.9295663E-07  0.3264658E+04  0.7818609E-02  0.8171947E-01
        1   -1    0    0  501    0  0.00000000000E+00  0.00000000000E+00  0.22739776370E+04  0.22739776370E+04  0.50400001928E-02 0.  1.
       -1   -1    0    0    0  501  0.00000000000E+00  0.00000000000E+00 -0.11717347834E+04  0.11717347834E+04  0.50400001928E-02 0. -1.
    10030    2    1    2    0    0  0.00000000000E+00  0.00000000000E+00  0.11022428536E+04  0.34457124204E+04  0.32646584470E+04 0.  0.
        4    1    3    3  502    0  0.10522365493E+04  0.12308381854E+04  0.76828110676E+03  0.17923230362E+04  0.12699999809E+01 0.  1.
       -4    1    3    3    0  502 -0.10522365493E+04 -0.12308381854E+04  0.33396174687E+03  0.16533893841E+04  0.12699999809E+01 0. -1.
</event>
<event>
 5   0  0.2705859E-06  0.3319472E+04  0.7818609E-02  0.8157958E-01
       -2   -1    0    0    0  501  0.00000000000E+00  0.00000000000E+00  0.29195999704E+04  0.29195999704E+04  0.25500000920E-02 0. -1.
        2   -1    0    0  501    0  0.00000000000E+00  0.00000000000E+00 -0.94352780885E+03  0.94352780885E+03  0.25500000920E-02 0.  1.
    10030    2    1    2    0    0  0.00000000000E+00  0.00000000000E+00  0.19760721615E+04  0.38631277792E+04  0.33194721043E+04 0.  0.
        1    1    3    3  502    0  0.43278874808E+03 -0.13202132671E+04 -0.68668087679E+02  0.13910371948E+04  0.50400001928E-02 0.  1.
       -1    1    3    3    0  502 -0.43278874808E+03  0.13202132671E+04  0.20447402492E+04  0.24720905845E+04  0.50400001928E-02 0. -1.
</event>
<event>
 5   0  0.2658600E-06  0.3256539E+04  0.7818609E-02  0.8174043E-01
        2   -1    0    0  501    0  0.00000000000E+00  0.00000000000E+00  0.15133696402E+04  0.15133696402E+04  0.25500000920E-02 0. -1.
       -2   -1    0    0    0  501  0.00000000000E+00  0.00000000000E+00 -0.17518926048E+04  0.17518926048E+04  0.25500000920E-02 0.  1.
    10030    2    1    2    0    0  0.00000000000E+00  0.00000000000E+00 -0.23852296454E+03  0.32652622450E+04  0.32565387030E+04 0.  0.
        5    1    3    3  502    0 -0.12819571104E+04  0.45621912677E+03  0.77738738033E+03  0.15671321430E+04  0.46999998093E+01 0. -1.
       -5    1    3    3    0  502  0.12819571104E+04 -0.45621912677E+03 -0.10159103449E+04  0.16981301020E+04  0.46999998093E+01 0.  1.
</event>
<event>
 5   0  0.2574803E-06  0.3284055E+04  0.7818609E-02  0.8166964E-01
       -2   -1    0    0    0  501  0.00000000000E+00  0.00000000000E+00  0.13047348672E+04  0.13047348672E+04  0.25500000920E-02 0.  1.
        2   -1    0    0  501    0  0.00000000000E+00  0.00000000000E+00 -0.20665151333E+04  0.20665151333E+04  0.25500000920E-02 0. -1.
    10030    2    1    2    0    0  0.00000000000E+00  0.00000000000E+00 -0.76178026610E+03  0.33712500006E+04  0.32840550228E+04 0.  0.
        4    1    3    3  502    0  0.53581491370E+03 -0.10510819743E+04 -0.15533092718E+04  0.19505492163E+04  0.12699999809E+01 0. -1.
       -4    1    3    3    0  502 -0.53581491370E+03  0.10510819743E+04  0.79152900572E+03  0.14207007842E+04  0.12699999809E+01 0.  1.
</event>
<event>
 5   0  0.2674551E-06  0.2996371E+04  0.7818609E-02  0.8244768E-01
        2   -1    0    0  501    0  0.00000000000E+00  0.00000000000E+00  0.25428700662E+04  0.25428700662E+04  0.25500000920E-02 0. -1.
       -2   -1    0    0    0  501  0.00000000000E+00  0.00000000000E+00 -0.88268766721E+03  0.88268766722E+03  0.25500000920E-02 0.  1.
    10030    2    1    2    0    0  0.00000000000E+00  0.00000000000E+00  0.16601823989E+04  0.34255577334E+04  0.29963711698E+04 0.  0.
        3    1    3    3  502    0 -0.44970857933E+03  0.10939074338E+04 -0.22124340642E+03  0.12032538947E+04  0.10100000352E+00 0.  1.
       -3    1    3    3    0  502  0.44970857933E+03 -0.10939074338E+04  0.18814258054E+04  0.22223038387E+04  0.10100000352E+00 0. -1.
</event>
<event>
 5   0  0.2658600E-06  0.3190906E+04  0.7818609E-02  0.8191223E-01
        2   -1    0    0  501    0  0.00000000000E+00  0.00000000000E+00  0.18486201403E+04  0.18486201403E+04  0.25500000920E-02 0. -1.
       -2   -1    0    0    0  501  0.00000000000E+00  0.00000000000E+00 -0.13769569328E+04  0.13769569328E+04  0.25500000920E-02 0.  1.
    10030    2    1    2    0    0  0.00000000000E+00  0.00000000000E+00  0.47166320757E+03  0.32255770731E+04  0.31909060270E+04 0.  0.
        5    1    3    3  502    0 -0.12169093448E+04  0.58437635329E+02 -0.80548993407E+03  0.14605202616E+04  0.46999998093E+01 0.  1.
       -5    1    3    3    0  502  0.12169093448E+04 -0.58437635329E+02  0.12771531416E+04  0.17650568115E+04  0.46999998093E+01 0. -1.
</event>
<event>
 5   0  0.9295663E-07  0.3215057E+04  0.7818609E-02  0.8184852E-01
       -1   -1    0    0    0  501  0.00000000000E+00  0.00000000000E+00  0.10962742776E+04  0.10962742776E+04  0.50400001928E-02 0.  1.
        1   -1    0    0  501    0  0.00000000000E+00  0.00000000000E+00 -0.23572092654E+04  0.23572092654E+04  0.50400001928E-02 0. -1.
    10030    2    1    2    0    0  0.00000000000E+00  0.00000000000E+00 -0.12609349878E+04  0.34534835430E+04  0.32150570039E+04 0.  0.
        4    1    3    3  502    0  0.59930770887E+03  0.41910449567E+03 -0.21681775211E+04  0.22881900455E+04  0.12699999809E+01 0. -1.
       -4    1    3    3    0  502 -0.59930770887E+03 -0.41910449567E+03  0.90724253333E+03  0.11652934975E+04  0.12699999809E+01 0.  1.
</event>
<event>
 5   0  0.9268670E-07  0.3228027E+04  0.7818609E-02  0.8181454E-01
        1   -1    0    0  501    0  0.00000000000E+00  0.00000000000E+00  0.19037842479E+04  0.19037842479E+04  0.50400001928E-02 0. -1.
       -1   -1    0    0    0  501  0.00000000000E+00  0.00000000000E+00 -0.13683480546E+04  0.13683480546E+04  0.50400001928E-02 0.  1.
    10030    2    1    2    0    0  0.00000000000E+00  0.00000000000E+00  0.53543619327E+03  0.32721323025E+04  0.32280269342E+04 0.  0.
        3    1    3    3  502    0  0.15161600920E+04  0.50621772693E+03  0.49447447756E+03  0.16731714887E+04  0.10100000352E+00 0. -1.
       -3    1    3    3    0  502 -0.15161600920E+04 -0.50621772693E+03  0.40961715711E+02  0.15989608137E+04  0.10100000352E+00 0.  1.
</event>
<event>
 5   0  0.9530268E-07  0.3339217E+04  0.7818609E-02  0.8152988E-01
        1   -1    0    0  501    0  0.00000000000E+00  0.00000000000E+00  0.19474894163E+04  0.19474894163E+04  0.50400001928E-02 0.  1.
       -1   -1    0    0    0  501  0.00000000000E+00  0.00000000000E+00 -0.14313772039E+04  0.14313772040E+04  0.50400001928E-02 0. -1.
    10030    2    1    2    0    0  0.00000000000E+00  0.00000000000E+00  0.51611221240E+03  0.33788666203E+04  0.33392166480E+04 0.  0.
        5    1    3    3  502    0  0.27907102023E+03 -0.12182575325E+04 -0.86212904060E+03  0.15183282328E+04  0.46999998093E+01 0. -1.
       -5    1    3    3    0  502 -0.27907102023E+03  0.12182575325E+04  0.13782412530E+04  0.18605383875E+04  0.46999998093E+01 0.  1.
</event>
<event>
 5   0  0.2705859E-06  0.3213285E+04  0.7818609E-02  0.8185317E-01
        2   -1    0    0  501    0  0.00000000000E+00  0.00000000000E+00  0.15334522677E+04  0.15334522677E+04  0.25500000920E-02 0.  1.
       -2   -1    0    0    0  501  0.00000000000E+00  0.00000000000E+00 -0.16833263743E+04  0.16833263743E+04  0.25500000920E-02 0. -1.
    10030    2    1    2    0    0  0.00000000000E+00  0.00000000000E+00 -0.14987410669E+03  0.32167786420E+04  0.32132853256E+04 0.  0.
        1    1    3    3  502    0 -0.34379491527E+03  0.91613112057E+03  0.12007361154E+04  0.15489539672E+04  0.50400001928E-02 0.  1.
       -1    1    3    3    0  502  0.34379491527E+03 -0.91613112057E+03 -0.13506102221E+04  0.16678246748E+04  0.50400001928E-02 0. -1.
</event>
<event>
 5   0  0.2658600E-06  0.3498045E+04  0.7818609E-02  0.8114253E-01
       -2   -1    0    0    0  501  0.00000000000E+00  0.00000000000E+00  0.19754571425E+04  0.19754571425E+04  0.25500000920E-02 0. -1.
        2   -1    0    0  501    0  0.00000000000E+00  0.00000000000E+00 -0.15485427929E+04  0.15485427929E+04  0.25500000920E-02 0.  1.
    10030    2    1    2    0    0  0.00000000000E+00  0.00000000000E+00  0.42691434963E+03  0.35239999354E+04  0.34980451231E+04 0.  0.
        5    1    3    3  502    0 -0.72916013492E+03 -0.11208106941E+04  0.13492830051E+04  0.18995993873E+04  0.46999998093E+01 0. -1.
       -5    1    3    3    0  502  0.72916013492E+03  0.11208106941E+04 -0.92236865544E+03  0.16244005482E+04  0.46999998093E+01 0.  1.
</event>
<event>
 5   0  0.9530268E-07  0.3315783E+04  0.7818609E-02  0.8158891E-01
        1   -1    0    0  501    0  0.00000000000E+00  0.00000000000E+00  0.10259911873E+04  0.10259911873E+04  0.50400001928E-02 0.  1.
       -1   -1    0    0    0  501  0.00000000000E+00  0.00000000000E+00 -0.26789743072E+04  0.26789743072E+04  0.50400001928E-02 0. -1.
    10030    2    1    2    0    0  0.00000000000E+00  0.00000000000E+00 -0.16529831199E+04  0.37049654946E+04  0.33157828821E+04 0.  0.
        5    1    3    3  502    0  0.45309715571E+03 -0.74869203251E+03 -0.23998639703E+04  0.25544482688E+04  0.46999998093E+01 0. -1.
       -5    1    3    3    0  502 -0.45309715571E+03  0.74869203251E+03  0.74688085041E+03  0.11505172258E+04  0.46999998093E+01 0.  1.
</event>
<event>
 5   0  0.8845526E-07  0.3315407E+04  0.7818609E-02  0.8158986E-01
        1   -1    0    0  501    0  0.00000000000E+00  0.00000000000E+00  0.21658765360E+04  0.21658765360E+04  0.50400001928E-02 0.  1.
       -1   -1    0    0    0  501  0.00000000000E+00  0.00000000000E+00 -0.12687612658E+04  0.12687612658E+04  0.50400001928E-02 0. -1.
    10030    2    1    2    0    0  0.00000000000E+00  0.00000000000E+00  0.89711527022E+03  0.34346378019E+04  0.33154066149E+04 0.  0.
        1    1    3    3  502    0  0.10186189614E+04  0.47461762350E+03  0.17110446903E+04  0.20470760634E+04  0.50400001928E-02 0.  1.
       -1    1    3    3    0  502 -0.10186189614E+04 -0.47461762350E+03 -0.81392942013E+03  0.13875617385E+04  0.50400001928E-02 0. -1.
</event>
<event>
 5   0  0.2574803E-06  0.2364644E+04  0.7818609E-02  0.8452860E-01
       -2   -1    0    0    0  501  0.00000000000E+00  0.00000000000E+00  0.70812938907E+03  0.70812938907E+03  0.25500000920E-02 0.  1.
        2   -1    0    0  501    0  0.00000000000E+00  0.00000000000E+00 -0.19740529860E+04  0.19740529860E+04  0.25500000920E-02 0. -1.
    10030    2    1    2    0    0  0.00000000000E+00  0.00000000000E+00 -0.12659235969E+04  0.26821823750E+04  0.23646436814E+04 0.  0.
        4    1    3    3  502    0 -0.10191086352E+04 -0.33100533940E+03 -0.11998057278E+04  0.16086274716E+04  0.12699999809E+01 0. -1.
       -4    1    3    3    0  502  0.10191086352E+04  0.33100533940E+03 -0.66117869112E+02  0.10735549034E+04  0.12699999809E+01 0.  1.
</event>
<event>
 5   0  0.8845526E-07  0.3085616E+04  0.7818609E-02  0.8219697E-01
        1   -1    0    0  501    0  0.00000000000E+00  0.00000000000E+00  0.28213429091E+04  0.28213429091E+04  0.50400001928E-02 0.  1.
       -1   -1    0    0    0  501  0.00000000000E+00  0.00000000000E+00 -0.84366098940E+03  0.84366098942E+03  0.50400001928E-02 0. -1.
    10030    2    1    2    0    0  0.00000000000E+00  0.00000000000E+00  0.19776819197E+04  0.36650038985E+04  0.30856162757E+04 0.  0.
        1    1    3    3  502    0  0.51562366436E+03 -0.13256498347E+04  0.16985690539E+04  0.22154801011E+04  0.50400001928E-02 0. -1.
       -1    1    3    3    0  502 -0.51562366436E+03  0.13256498347E+04  0.27911286578E+03  0.14495237974E+04  0.50400001928E-02 0.  1.
</event>
<event>
 5   0  0.2574803E-06  0.3342515E+04  0.7818609E-02  0.8152161E-01
        2   -1    0    0  501    0  0.00000000000E+00  0.00000000000E+00  0.18006793827E+04  0.18006793827E+04  0.25500000920E-02 0. -1.
       -2   -1    0    0    0  501  0.00000000000E+00  0.00000000000E+00 -0.15511379852E+04  0.15511379852E+04  0.25500000920E-02 0.  1.
    10030    2    1    2    0    0  0.00000000000E+00  0.00000000000E+00  0.24954139757E+03  0.33518173679E+04  0.33425153341E+04 0.  0.
        4    1    3    3  502    0 -0.79864631897E+03  0.14657822935E+04  0.20713881660E+03  0.16820409558E+04  0.12699999809E+01 0. -1.
       -4    1    3    3    0  502  0.79864631897E+03 -0.14657822935E+04  0.42402580965E+02  0.16697764121E+04  0.12699999809E+01 0.  1.
</event>
<event>
 5   0  0.2705859E-06  0.3234103E+04  0.7818609E-02  0.8179868E-01
       -2   -1    0    0    0  501  0.00000000000E+00  0.00000000000E+00  0.10619315378E+04  0.10619315378E+04  0.25500000920E-02 0.  1.
        2   -1    0    0  501    0  0.00000000000E+00  0.00000000000E+00 -0.24623579175E+04  0.24623579175E+04  0.25500000920E-02 0. -1.
    10030    2    1    2    0    0  0.00000000000E+00  0.00000000000E+00 -0.14004263797E+04  0.35242894554E+04  0.32341029854E+04 0.  0.
        1    1    3    3  502    0 -0.75289106141E+03  0.12791044022E+04 -0.13995959832E+04  0.20400543959E+04  0.50400001928E-02 0.  1.
       -1    1    3    3    0  502  0.75289106141E+03 -0.12791044022E+04 -0.83039648055E+00  0.14842350594E+04  0.50400001928E-02 0. -1.
</event>
<event>
 5   0  0.8705956E-07  0.2899697E+04  0.7818609E-02  0.8272968E-01
        1   -1    0    0  501    0  0.00000000000E+00  0.00000000000E+00  0.18586085115E+04  0.18586085115E+04  0.50400001928E-02 0. -1.
       -1   -1    0    0    0  501  0.00000000000E+00  0.00000000000E+00 -0.11309862674E+04  0.11309862674E+04  0.50400001928E-02 0.  1.
    10030    2    1    2    0    0  0.00000000000E+00  0.00000000000E+00  0.72762224410E+03  0.29895947790E+04  0.28996970208E+04 0.  0.
        2    1    3    3  502    0 -0.12574133386E+04 -0.70950123941E+03  0.22710940798E+03  0.14615262557E+04  0.25500000920E-02 0.  1.
       -2    1    3    3    0  502  0.12574133386E+04  0.70950123941E+03  0.50051283612E+03  0.15280685233E+04  0.25500000920E-02 0. -1.
</event>
<event>
 5   0  0.8845526E-07  0.3223651E+04  0.7818609E-02  0.8182599E-01
        1   -1    0    0  501    0  0.00000000000E+00  0.00000000000E+00  0.17843065206E+04  0.17843065206E+04  0.50400001928E-02 0. -1.
       -1   -1    0    0    0  501  0.00000000000E+00  0.00000000000E+00 -0.14560177371E+04  0.14560177371E+04  0.50400001928E-02 0.  1.
    10030    2    1    2    0    0  0.00000000000E+00  0.00000000000E+00  0.32828878343E+03  0.32403242577E+04  0.32236513102E+04 0.  0.
        1    1    3    3  502    0  0.10973297820E+04 -0.11210960456E+04  0.53618429145E+03  0.16578548153E+04  0.50400001928E-02 0. -1.
       -1    1    3    3    0  502 -0.10973297820E+04  0.11210960456E+04 -0.20789550802E+03  0.15824694425E+04  0.50400001928E-02 0.  1.
</event>
<event>
 5   0  0.2574803E-06  0.3397755E+04  0.7818609E-02  0.8138457E-01
        2   -1    0    0  501    0  0.00000000000E+00  0.00000000000E+00  0.15122429573E+04  0.15122429573E+04  0.25500000920E-02 0.  1.
       -2   -1    0    0    0  501  0.00000000000E+00  0.00000000000E+00 -0.19085458692E+04  0.19085458692E+04  0.25500000920E-02 0. -1.
    10030    2    1    2    0    0  0.00000000000E+00  0.00000000000E+00 -0.39630291192E+03  0.34207888265E+04  0.33977551704E+04 0.  0.
        4    1    3    3  502    0 -0.67819378365E+03  0.26896126799E+03  0.13464906216E+04  0.15314455847E+04  0.12699999809E+01 0.  1.
       -4    1    3    3    0  502  0.67819378365E+03 -0.26896126799E+03 -0.17427935336E+04  0.18893432418E+04  0.12699999809E+01 0. -1.
</event>
<event>
 5   0  0.9295663E-07  0.2523795E+04  0.7818609E-02  0.8394557E-01
       -1   -1    0    0    0  501  0.00000000000E+00  0.00000000000E+00  0.95652843308E+03  0.95652843309E+03  0.50400001928E-02 0.  1.
        1   -1    0    0  501    0  0.00000000000E+00  0.00000000000E+00 -0.16647544886E+04  0.16647544886E+04  0.50400001928E-02 0. -1.
    10030    2    1    2    0    0  0.00000000000E+00  0.00000000000E+00 -0.70822605550E+03  0.26212829217E+04  0.25237947638E+04 0.  0.
        4    1    3    3  502    0 -0.11518718816E+04  0.22039754852E+03 -0.83793903364E+03  0.14413630174E+04  0.12699999809E+01 0. -1.
       -4    1    3    3    0  502  0.11518718816E+04 -0.22039754852E+03  0.12971297814E+03  0.11799199043E+04  0.12699999809E+01 0.  1.
</event>
<event>
 5   0  0.2574803E-06  0.3198100E+04  0.7818609E-02  0.8189319E-01
        2   -1    0    0  501    0  0.00000000000E+00  0.00000000000E+00  0.20328053139E+04  0.20328053139E+04  0.25500000920E-02 0. -1.
       -2   -1    0    0    0  501  0.00000000000E+00  0.00000000000E+00 -0.12578483649E+04  0.12578483649E+04  0.25500000920E-02 0.  1.
    10030    2    1    2    0    0  0.00000000000E+00  0.00000000000E+00  0.77495694902E+03  0.32906536789E+04  0.31980999611E+04 0.  0.
        4    1    3    3  502    0  0.71253673239E+03  0.13216893022E+04  0.95329084074E+03  0.17785770286E+04  0.12699999809E+01 0. -1.
       -4    1    3    3    0  502 -0.71253673239E+03 -0.13216893022E+04 -0.17833389172E+03  0.15120766503E+04  0.12699999809E+01 0.  1.
</event>
<event>
 5   0  0.8705956E-07  0.3303228E+04  0.7818609E-02  0.8162075E-01
        1   -1    0    0  501    0  0.00000000000E+00  0.00000000000E+00  0.18052679119E+04  0.18052679119E+04  0.50400001928E-02 0. -1.
       -1   -1    0    0    0  501  0.00000000000E+00  0.00000000000E+00 -0.15110380122E+04  0.15110380122E+04  0.50400001928E-02 0.  1.
    10030    2    1    2    0    0  0.00000000000E+00  0.00000000000E+00  0.29422989970E+03  0.33163059241E+04  0.33032277773E+04 0.  0.
        2    1    3    3  502    0 -0.92855234519E+02  0.15265108293E+04  0.77325962774E+03  0.17137058845E+04  0.25500000920E-02 0. -1.
       -2    1    3    3    0  502  0.92855234519E+02 -0.15265108293E+04 -0.47902972804E+03  0.16026000396E+04  0.25500000920E-02 0.  1.
</event>
<event>
 5   0  0.2705859E-06  0.3269007E+04  0.7818609E-02  0.8170827E-01
        2   -1    0    0  501    0  0.00000000000E+00  0.00000000000E+00  0.91967482015E+03  0.91967482016E+03  0.25500000920E-02 0. -1.
       -2   -1    0    0    0  501  0.00000000000E+00  0.00000000000E+00 -0.29049412680E+04  0.29049412680E+04  0.25500000920E-02 0.  1.
    10030    2    1    2    0    0  0.00000000000E+00  0.00000000000E+00 -0.19852664479E+04  0.38246160882E+04  0.32690067839E+04 0.  0.
        1    1    3    3  502    0 -0.71403940015E+03  0.10854729820E+04 -0.21529021230E+04  0.25145757914E+04  0.50400001928E-02 0.  1.
       -1    1    3    3    0  502  0.71403940015E+03 -0.10854729820E+04  0.16763567508E+03  0.13100402968E+04  0.50400001928E-02 0. -1.
</event>
<event>
 5   0  0.9268670E-07  0.3297714E+04  0.7818609E-02  0.8163477E-01
       -1   -1    0    0    0  501  0.00000000000E+00  0.00000000000E+00  0.19757353613E+04  0.19757353613E+04  0.50400001928E-02 0.  1.
        1   -1    0    0  501    0  0.00000000000E+00  0.00000000000E+00 -0.13760592312E+04  0.13760592312E+04  0.50400001928E-02 0. -1.
    10030    2    1    2    0    0  0.00000000000E+00  0.00000000000E+00  0.59967613006E+03  0.33517945925E+04  0.32977136821E+04 0.  0.
        3    1    3    3  502    0  0.78017374454E+03 -0.14440938235E+04  0.45941871004E+03  0.17044481817E+04  0.10100000352E+00 0.  1.
       -3    1    3    3    0  502 -0.78017374454E+03  0.14440938235E+04  0.14025742002E+03  0.16473464107E+04  0.10100000352E+00 0. -1.
</event>
<event>
 5   0  0.8845526E-07  0.3051449E+04  0.7818609E-02  0.8229190E-01
       -1   -1    0    0    0  501  0.00000000000E+00  0.00000000000E+00  0.17766266644E+04  0.17766266644E+04  0.50400001928E-02 0.  1.
        1   -1    0    0  501    0  0.00000000000E+00  0.00000000000E+00 -0.13102555974E+04  0.13102555974E+04  0.50400001928E-02 0. -1.
    10030    2    1    2    0    0  0.00000000000E+00  0.00000000000E+00  0.46637106697E+03  0.30868822618E+04  0.30514488569E+04 0.  0.
        1    1    3    3  502    0  0.43150423697E+03 -0.87611641178E+02  0.17109575737E+04  0.17667052740E+04  0.50400001928E-02 0.  1.
       -1    1    3    3    0  502 -0.43150423697E+03  0.87611641178E+02 -0.12445865068E+04  0.13201769878E+04  0.50400001928E-02 0. -1.
</event>
<event>
 5   0  0.9268670E-07  0.2802237E+04  0.7818609E-02  0.8302574E-01
        1   -1    0    0  501    0  0.00000000000E+00  0.00000000000E+00  0.33164748058E+04  0.33164748058E+04  0.50400001928E-02 0.  1.
       -1   -1    0    0    0  501  0.00000000000E+00  0.00000000000E+00 -0.59193384981E+03  0.59193384983E+03  0.50400001928E-02 0. -1.
    10030    2    1    2    0    0  0.00000000000E+00  0.00000000000E+00  0.27245409560E+04  0.39084086556E+04  0.28022374629E+04 0.  0.
        3    1    3    3  502    0 -0.11231093437E+04 -0.81697493343E+03  0.16206226003E+04  0.21343008838E+04  0.10100000352E+00 0.  1.
       -3    1    3    3    0  502  0.11231093437E+04  0.81697493343E+03  0.11039183556E+04  0.17741077718E+04  0.10100000352E+00 0. -1.
</event>
<event>
 5   0  0.2674551E-06  0.3296915E+04  0.7818609E-02  0.8163681E-01
        2   -1    0    0  501    0  0.00000000000E+00  0.00000000000E+00  0.99214415180E+03  0.99214415180E+03  0.25500000920E-02 0. -1.
       -2   -1    0    0    0  501  0.00000000000E+00  0.00000000000E+00 -0.27389280670E+04  0.27389280670E+04  0.25500000920E-02 0.  1.
    10030    2    1    2    0    0  0.00000000000E+00  0.00000000000E+00 -0.17467839152E+04  0.37310722188E+04  0.32969145963E+04 0.  0.
        3    1    3    3  502    0  0.15112881686E+04 -0.62023138242E+03 -0.11232167643E+04  0.19824971137E+04  0.10100000352E+00 0.  1.
       -3    1    3    3    0  502 -0.15112881686E+04  0.62023138242E+03 -0.62356715096E+03  0.17485751051E+04  0.10100000352E+00 0. -1.
</event>
<event>
 5   0  0.2614212E-06  0.3306963E+04  0.7818609E-02  0.8161126E-01
       -2   -1    0    0    0  501  0.00000000000E+00  0.00000000000E+00  0.17333787003E+04  0.17333787003E+04  0.25500000920E-02 0.  1.
        2   -1    0    0  501    0  0.00000000000E+00  0.00000000000E+00 -0.15772670189E+04  0.15772670189E+04  0.25500000920E-02 0. -1.
    10030    2    1    2    0    0  0.00000000000E+00  0.00000000000E+00  0.15611168140E+03  0.33106457191E+04  0.33069629905E+04 0.  0.
        2    1    3    3  502    0  0.10256730835E+04 -0.12009951168E+04  0.56809713772E+03  0.16784304879E+04  0.25500000920E-02 0.  1.
       -2    1    3    3    0  502 -0.10256730835E+04  0.12009951168E+04 -0.41198545632E+03  0.16322152312E+04  0.25500000920E-02 0. -1.
</event>
<event>
 5   0  0.9295663E-07  0.3266116E+04  0.7818609E-02  0.8171571E-01
        1   -1    0    0  501    0  0.00000000000E+00  0.00000000000E+00  0.26967901742E+04  0.26967901742E+04  0.50400001928E-02 0. -1.
       -1   -1    0    0    0  501  0.00000000000E+00  0.00000000000E+00 -0.98890850336E+03  0.98890850337E+03  0.50400001928E-02 0.  1.
    10030    2    1    2    0    0  0.00000000000E+00  0.00000000000E+00  0.17078816708E+04  0.36856986775E+04  0.32661161860E+04 0.  0.
        4    1    3    3  502    0 -0.83006033640E+02 -0.15968803462E+04  0.47973882523E+03  0.16694513455E+04  0.12699999809E+01 0. -1.
       -4    1    3    3    0  502  0.83006033640E+02  0.15968803462E+04  0.12281428456E+04  0.20162473320E+04  0.12699999809E+01 0.  1.
</event>
<event>
 5   0  0.2705859E-06  0.3157843E+04  0.7818609E-02  0.8200040E-01
       -2   -1    0    0    0  501  0.00000000000E+00  0.00000000000E+00  0.13852945745E+04  0.13852945745E+04  0.25500000920E-02 0. -1.
        2   -1    0    0  501    0  0.00000000000E+00  0.00000000000E+00 -0.17996119836E+04  0.17996119836E+04  0.25500000920E-02 0.  1.
    10030    2    1    2    0    0  0.00000000000E+00  0.00000000000E+00 -0.41431740912E+03  0.31849065582E+04  0.31578427555E+04 0.  0.
        1    1    3    3  502    0  0.50166459307E+03  0.16870112582E+03 -0.17074779569E+04  0.17876264731E+04  0.50400001928E-02 0.  1.
       -1    1    3    3    0  502 -0.50166459307E+03 -0.16870112582E+03  0.12931605478E+04  0.13972800851E+04  0.50400001928E-02 0. -1.
</event>
<event>
 5   0  0.2658600E-06  0.3366057E+04  0.7818609E-02  0.8146288E-01
        2   -1    0    0  501    0  0.00000000000E+00  0.00000000000E+00  0.17949623024E+04  0.17949623024E+04  0.25500000920E-02 0. -1.
       -2   -1    0    0    0  501  0.00000000000E+00  0.00000000000E+00 -0.15780751224E+04  0.15780751224E+04  0.25500000920E-02 0.  1.
    10030    2    1    2    0    0  0.00000000000E+00  0.00000000000E+00  0.21688717998E+03  0.33730374248E+04  0.33660572515E+04 0.  0.
        5    1    3    3  502    0  0.64487776603E+03  0.10430648516E+04  0.12635314846E+04  0.17607911632E+04  0.46999998093E+01 0. -1.
       -5    1    3    3    0  502 -0.64487776603E+03 -0.10430648516E+04 -0.10466443046E+04  0.16122462616E+04  0.46999998093E+01 0.  1.
</event>
<event>
 5   0  0.9295663E-07  0.3275947E+04  0.7818609E-02  0.8169043E-01
       -1   -1    0    0    0  501  0.00000000000E+00  0.00000000000E+00  0.17637724766E+04  0.17637724766E+04  0.50400001928E-02 0. -1.
        1   -1    0    0  501    0  0.00000000000E+00  0.00000000000E+00 -0.15211466567E+04  0.15211466567E+04  0.50400001928E-02 0.  1.
    10030    2    1    2    0    0  0.00000000000E+00  0.00000000000E+00  0.24262581993E+03  0.32849191333E+04  0.32759466455E+04 0.  0.
        4    1    3    3  502    0  0.67898277499E+03 -0.69405005079E+03  0.14441045057E+04  0.17401616356E+04  0.12699999809E+01 0. -1.
       -4    1    3    3    0  502 -0.67898277499E+03  0.69405005079E+03 -0.12014786857E+04  0.15447574978E+04  0.12699999809E+01 0.  1.
</event>
<event>
 5   0  0.2705859E-06  0.2834348E+04  0.7818609E-02  0.8292683E-01
       -2   -1    0    0    0  501  0.00000000000E+00  0.00000000000E+00  0.10814954749E+04  0.10814954749E+04  0.25500000920E-02 0.  1.
        2   -1    0    0  501    0  0.00000000000E+00  0.00000000000E+00 -0.18570422355E+04  0.18570422355E+04  0.25500000920E-02 0. -1.
    10030    2    1    2    0    0  0.00000000000E+00  0.00000000000E+00 -0.77554676056E+03  0.29385377104E+04  0.28343484432E+04 0.  0.
        1    1    3    3  502    0 -0.11841093894E+04  0.77159860072E+03 -0.49603077207E+03  0.14978404366E+04  0.50400001928E-02 0. -1.
       -1    1    3    3    0  502  0.11841093894E+04 -0.77159860072E+03 -0.27951598849E+03  0.14406972738E+04  0.50400001928E-02 0.  1.
</event>
<event>
 5   0  0.8845526E-07  0.3354559E+04  0.7818609E-02  0.8149150E-01
       -1   -1    0    0    0  501  0.00000000000E+00  0.00000000000E+00  0.10114070533E+04  0.10114070533E+04  0.50400001928E-02 0. -1.
        1   -1    0    0  501    0  0.00000000000E+00  0.00000000000E+00 -0.27815365997E+04  0.27815365997E+04  0.50400001928E-02 0.  1.
    10030    2    1    2    0    0  0.00000000000E+00  0.00000000000E+00 -0.17701295464E+04  0.37929436530E+04  0.33545585319E+04 0.  0.
        1    1    3    3  502    0  0.23325793754E+03  0.16596530685E+04 -0.96013536350E+03  0.19315065336E+04  0.50400001928E-02 0. -1.
       -1    1    3    3    0  502 -0.23325793754E+03 -0.16596530685E+04 -0.80999418292E+03  0.18614371194E+04  0.50400001928E-02 0.  1.
</event>
<event>
 5   0  0.2705859E-06  0.3341132E+04  0.7818609E-02  0.8152507E-01
        2   -1    0    0  501    0  0.00000000000E+00  0.00000000000E+00  0.21562637971E+04  0.21562637971E+04  0.25500000920E-02 0. -1.
       -2   -1    0    0    0  501  0.00000000000E+00  0.00000000000E+00 -0.12942716272E+04  0.12942716272E+04  0.25500000920E-02 0.  1.
    10030    2    1    2    0    0  0.00000000000E+00  0.00000000000E+00  0.86199216985E+03  0.34505354243E+04  0.33411321754E+04 0.  0.
        1    1    3    3  502    0  0.14332737120E+04  0.57427563828E+03 -0.22763659165E+03  0.15607320270E+04  0.50400001928E-02 0.  1.
       -1    1    3    3    0  502 -0.14332737120E+04 -0.57427563828E+03  0.10896287615E+04  0.18898033972E+04  0.50400001928E-02 0. -1.
</event>
<event>
 5   0  0.9295663E-07  0.3297364E+04  0.7818609E-02  0.8163566E-01
        1   -1    0    0  501    0  0.00000000000E+00  0.00000000000E+00  0.14980647541E+04  0.14980647541E+04  0.50400001928E-02 0.  1.
       -1   -1    0    0    0  501  0.00000000000E+00  0.00000000000E+00 -0.18144426058E+04  0.18144426058E+04  0.50400001928E-02 0. -1.
    10030    2    1    2    0    0  0.00000000000E+00  0.00000000000E+00 -0.31637785164E+03  0.33125073599E+04  0.32973641086E+04 0.  0.
        4    1    3    3  502    0 -0.80017163643E+03 -0.10878579621E+04  0.79190353081E+03  0.15655102709E+04  0.12699999809E+01 0.  1.
       -4    1    3    3    0  502  0.80017163643E+03  0.10878579621E+04 -0.11082813824E+04  0.17469970890E+04  0.12699999809E+01 0. -1.
</event>
<event>
 5   0  0.2614212E-06  0.3300366E+04  0.7818609E-02  0.8162802E-01
       -2   -1    0    0    0  501  0.00000000000E+00  0.00000000000E+00  0.19625451032E+04  0.19625451032E+04  0.25500000920E-02 0.  1.
        2   -1    0    0  501    0  0.00000000000E+00  0.00000000000E+00 -0.13875368543E+04  0.13875368543E+04  0.25500000920E-02 0. -1.
    10030    2    1    2    0    0  0.00000000000E+00  0.00000000000E+00  0.57500824892E+03  0.33500819575E+04  0.33003658336E+04 0.  0.
        2    1    3    3  502    0  0.17667694297E+03  0.10736013478E+04  0.15468662259E+04  0.18911979582E+04  0.25500000920E-02 0.  1.
       -2    1    3    3    0  502 -0.17667694297E+03 -0.10736013478E+04 -0.97185797701E+03  0.14588839994E+04  0.25500000920E-02 0. -1.
</event>
<event>
 5   0  0.2614212E-06  0.3294625E+04  0.7818609E-02  0.8164264E-01
       -2   -1    0    0    0  501  0.00000000000E+00  0.00000000000E+00  0.10765458259E+04  0.10765458259E+04  0.25500000920E-02 0.  1.
        2   -1    0    0  501    0  0.00000000000E+00  0.00000000000E+00 -0.25206901838E+04  0.25206901838E+04  0.25500000920E-02 0. -1.
    10030    2    1    2    0    0  0.00000000000E+00  0.00000000000E+00 -0.14441443578E+04  0.35972360097E+04  0.32946250140E+04 0.  0.
        2    1    3    3  502    0 -0.14709224176E+04  0.21965123843E+03 -0.14954989708E+04  0.21091174924E+04  0.25500000920E-02 0. -1.
       -2    1    3    3    0  502  0.14709224176E+04 -0.21965123843E+03  0.51354612977E+02  0.14881185173E+04  0.25500000920E-02 0.  1.
</event>
<event>
 5   0  0.9295663E-07  0.3311814E+04  0.7818609E-02  0.8159896E-01
       -1   -1    0    0    0  501  0.00000000000E+00  0.00000000000E+00  0.15646272448E+04  0.15646272449E+04  0.50400001928E-02 0. -1.
        1   -1    0    0  501    0  0.00000000000E+00  0.00000000000E+00 -0.17525121736E+04  0.17525121736E+04  0.50400001928E-02 0.  1.
    10030    2    1    2    0    0  0.00000000000E+00  0.00000000000E+00 -0.18788492875E+03  0.33171394185E+04  0.33118141818E+04 0.  0.
        4    1    3    3  502    0 -0.62900586880E+03  0.11158527433E+04 -0.11450349040E+04  0.17181042669E+04  0.12699999809E+01 0.  1.
       -4    1    3    3    0  502  0.62900586880E+03 -0.11158527433E+04  0.95714997529E+03  0.15990351515E+04  0.12699999809E+01 0. -1.
</event>
<event>
 5   0  0.9530268E-07  0.3118889E+04  0.7818609E-02  0.8210573E-01
        1   -1    0    0  501    0  0.00000000000E+00  0.00000000000E+00  0.15910002269E+04  0.15910002270E+04  0.50400001928E-02 0.  1.
       -1   -1    0    0    0  501  0.00000000000E+00  0.00000000000E+00 -0.15285149588E+04  0.15285149588E+04  0.50400001928E-02 0. -1.
    10030    2    1    2    0    0  0.00000000000E+00  0.00000000000E+00  0.62485268113E+02  0.31195151858E+04  0.31188893192E+04 0.  0.
        5    1    3    3  502    0  0.90981241492E+02 -0.11991981777E+04 -0.96167592106E+03  0.15398689953E+04  0.46999998093E+01 0. -1.
       -5    1    3    3    0  502 -0.90981241492E+02  0.11991981777E+04  0.10241611892E+04  0.15796461905E+04  0.46999998093E+01 0.  1.
</event>
<event>
 5   0  0.8705956E-07  0.3296259E+04  0.7818609E-02  0.8163848E-01
       -1   -1    0    0    0  501  0.00000000000E+00  0.00000000000E+00  0.17440453241E+04  0.17440453241E+04  0.50400001928E-02 0.  1.
        1   -1    0    0  501    0  0.00000000000E+00  0.00000000000E+00 -0.15574889673E+04  0.15574889673E+04  0.50400001928E-02 0. -1.
    10030    2    1    2    0    0  0.00000000000E+00  0.00000000000E+00  0.18655635673E+03  0.33015342914E+04  0.32962593046E+04 0.  0.
        2    1    3    3  502    0 -0.66196675945E+03  0.11963861958E+04  0.10149634995E+04  0.17028478574E+04  0.25500000920E-02 0.  1.
       -2    1    3    3    0  502  0.66196675945E+03 -0.11963861958E+04 -0.82840714276E+03  0.15986864340E+04  0.25500000920E-02 0. -1.
</event>
<event>
 5   0  0.2674551E-06  0.3184513E+04  0.7818609E-02  0.8192919E-01
       -2   -1    0    0    0  501  0.00000000000E+00  0.00000000000E+00  0.17831110468E+04  0.17831110468E+04  0.25500000920E-02 0. -1.
        2   -1    0    0  501    0  0.00000000000E+00  0.00000000000E+00 -0.14218298002E+04  0.14218298002E+04  0.25500000920E-02 0.  1.
    10030    2    1    2    0    0  0.00000000000E+00  0.00000000000E+00  0.36128124655E+03  0.32049408470E+04  0.31845127875E+04 0.  0.
        3    1    3    3  502    0 -0.48070250715E+03  0.14258945530E+04  0.70458585587E+03  0.16615328511E+04  0.10100000352E+00 0. -1.
       -3    1    3    3    0  502  0.48070250715E+03 -0.14258945530E+04 -0.34330460932E+03  0.15434079959E+04  0.10100000352E+00 0.  1.
</event>
<event>
 5   0  0.8705956E-07  0.2403240E+04  0.7818609E-02  0.8438292E-01
       -1   -1    0    0    0  501  0.00000000000E+00  0.00000000000E+00  0.13430912766E+04  0.13430912766E+04  0.50400001928E-02 0.  1.
        1   -1    0    0  501    0  0.00000000000E+00  0.00000000000E+00 -0.10750501084E+04  0.10750501084E+04  0.50400001928E-02 0. -1.
    10030    2    1    2    0    0  0.00000000000E+00  0.00000000000E+00  0.26804116817E+03  0.24181413850E+04  0.24032398320E+04 0.  0.
        2    1    3    3  502    0  0.57992305900E+03  0.10048258415E+04  0.44885799971E+03  0.12439691435E+04  0.25500000920E-02 0. -1.
       -2    1    3    3    0  502 -0.57992305900E+03 -0.10048258415E+04 -0.18081683154E+03  0.11741722415E+04  0.25500000920E-02 0.  1.
</event>
<event>
 5   0  0.8845526E-07  0.3248649E+04  0.7818609E-02  0.8176086E-01
        1   -1    0    0  501    0  0.00000000000E+00  0.00000000000E+00  0.13930238758E+04  0.13930238758E+04  0.50400001928E-02 0.  1.
       -1   -1    0    0    0  501  0.00000000000E+00  0.00000000000E+00 -0.18940308275E+04  0.18940308275E+04  0.50400001928E-02 0. -1.
    10030    2    1    2    0    0  0.00000000000E+00  0.00000000000E+00 -0.50100695174E+03  0.32870547033E+04  0.32486490510E+04 0.  0.
        1    1    3    3  502    0  0.10234430734E+04  0.20863083508E+03 -0.15091822796E+04  0.18353729057E+04  0.50400001928E-02 0. -1.
       -1    1    3    3    0  502 -0.10234430734E+04 -0.20863083508E+03  0.10081753279E+04  0.14516817976E+04  0.50400001928E-02 0.  1.
</event>
<event>
 5   0  0.2705859E-06  0.3258435E+04  0.7818609E-02  0.8173553E-01
       -2   -1    0    0    0  501  0.00000000000E+00  0.00000000000E+00  0.12201936709E+04  0.12201936709E+04  0.25500000920E-02 0. -1.
        2   -1    0    0  501    0  0.00000000000E+00  0.00000000000E+00 -0.21753513340E+04  0.21753513340E+04  0.25500000920E-02 0.  1.
    10030    2    1    2    0    0  0.00000000000E+00  0.00000000000E+00 -0.95515766311E+03  0.33955450049E+04  0.32584351641E+04 0.  0.
        1    1    3    3  502    0 -0.11484787314E+04 -0.59922585495E+03 -0.15072213562E+04  0.19874081710E+04  0.50400001928E-02 0.  1.
       -1    1    3    3    0  502  0.11484787314E+04  0.59922585495E+03  0.55206369307E+03  0.14081368339E+04  0.50400001928E-02 0. -1.
</event>
<event>
 5   0  0.8520125E-07  0.2397593E+04  0.7818609E-02  0.8440405E-01
        3   -1    0    0  501    0  0.00000000000E+00  0.00000000000E+00  0.12337175049E+04  0.12337175091E+04  0.10100000352E+00 0.  1.
       -3   -1    0    0    0  501  0.00000000000E+00  0.00000000000E+00 -0.11648636873E+04  0.11648636916E+04  0.10100000352E+00 0. -1.
    10030    2    1    2    0    0  0.00000000000E+00  0.00000000000E+00  0.68853817688E+02  0.23985812007E+04  0.23975927361E+04 0.  0.
        1    1    3    3  502    0 -0.80565180318E+03  0.73964972986E+02 -0.85056601973E+03  0.11738859396E+04  0.50400001928E-02 0. -1.
       -1    1    3    3    0  502  0.80565180318E+03 -0.73964972986E+02  0.91941983742E+03  0.12246952611E+04  0.50400001928E-02 0.  1.
</event>
<event>
 5   0  0.9530268E-07  0.3222860E+04  0.7818609E-02  0.8182806E-01
        1   -1    0    0  501    0  0.00000000000E+00  0.00000000000E+00  0.16120224778E+04  0.16120224778E+04  0.50400001928E-02 0.  1.
       -1   -1    0    0    0  501  0.00000000000E+00  0.00000000000E+00 -0.16108374937E+04  0.16108374937E+04  0.50400001928E-02 0. -1.
    10030    2    1    2    0    0  0.00000000000E+00  0.00000000000E+00  0.11849841229E+01  0.32228599715E+04  0.32228597537E+04 0.  0.
        5    1    3    3  502    0  0.80721122669E+03  0.11126477389E+04  0.84149040396E+03  0.16117391679E+04  0.46999998093E+01 0.  1.
       -5    1    3    3    0  502 -0.80721122669E+03 -0.11126477389E+04 -0.84030541984E+03  0.16111208036E+04  0.46999998093E+01 0. -1.
</event>
<event>
 5   0  0.2614212E-06  0.3288198E+04  0.7818609E-02  0.8165905E-01
        2   -1    0    0  501    0  0.00000000000E+00  0.00000000000E+00  0.17559830783E+04  0.17559830783E+04  0.25500000920E-02 0. -1.
       -2   -1    0    0    0  501  0.00000000000E+00  0.00000000000E+00 -0.15393433519E+04  0.15393433519E+04  0.25500000920E-02 0.  1.
    10030    2    1    2    0    0  0.00000000000E+00  0.00000000000E+00  0.21663972643E+03  0.32953264302E+04  0.32881976082E+04 0.  0.
        2    1    3    3  502    0 -0.33389381000E+03 -0.15844904914E+04 -0.17684172636E+03  0.16289162624E+04  0.25500000920E-02 0.  1.
       -2    1    3    3    0  502  0.33389381000E+03  0.15844904914E+04  0.39348145279E+03  0.16664101678E+04  0.25500000920E-02 0. -1.
</event>
<event>
 5   0  0.2614212E-06  0.3401652E+04  0.7818609E-02  0.8137501E-01
        2   -1    0    0  501    0  0.00000000000E+00  0.00000000000E+00  0.19503716606E+04  0.19503716606E+04  0.25500000920E-02 0. -1.
       -2   -1    0    0    0  501  0.00000000000E+00  0.00000000000E+00 -0.14832088863E+04  0.14832088863E+04  0.25500000920E-02 0.  1.
    10030    2    1    2    0    0  0.00000000000E+00  0.00000000000E+00  0.46716277426E+03  0.34335805469E+04  0.34016517039E+04 0.  0.
        2    1    3    3  502    0 -0.16984849959E+04 -0.47610689807E+02  0.30972497698E+03  0.17271501442E+04  0.25500000920E-02 0. -1.
       -2    1    3    3    0  502  0.16984849959E+04  0.47610689807E+02  0.15743779728E+03  0.17064304027E+04  0.25500000920E-02 0.  1.
</event>
<event>
 5   0  0.9268670E-07  0.3305402E+04  0.7818609E-02  0.8161522E-01
        1   -1    0    0  501    0  0.00000000000E+00  0.00000000000E+00  0.28513192033E+04  0.28513192033E+04  0.50400001928E-02 0.  1.
       -1   -1    0    0    0  501  0.00000000000E+00  0.00000000000E+00 -0.95794951125E+03  0.95794951126E+03  0.50400001928E-02 0. -1.
    10030    2    1    2    0    0  0.00000000000E+00  0.00000000000E+00  0.18933696920E+04  0.38092687145E+04  0.33054015412E+04 0.  0.
        3    1    3    3  502    0  0.10999014782E+04  0.74296314841E+03  0.20814948791E+04  0.24686835446E+04  0.10100000352E+00 0.  1.
       -3    1    3    3    0  502 -0.10999014782E+04 -0.74296314841E+03 -0.18812518704E+03  0.13405851699E+04  0.10100000352E+00 0. -1.
</event>
<event>
 5   0  0.2658600E-06  0.3368607E+04  0.7818609E-02  0.8145654E-01
        2   -1    0    0  501    0  0.00000000000E+00  0.00000000000E+00  0.25055451758E+04  0.25055451758E+04  0.25500000920E-02 0.  1.
       -2   -1    0    0    0  501  0.00000000000E+00  0.00000000000E+00 -0.11322398781E+04  0.11322398781E+04  0.25500000920E-02 0. -1.
    10030    2    1    2    0    0  0.00000000000E+00  0.00000000000E+00  0.13733052977E+04  0.36377850538E+04  0.33686069312E+04 0.  0.
        5    1    3    3  502    0 -0.98521112692E+03 -0.11408646342E+04 -0.12481959429E+03  0.15125525112E+04  0.46999998093E+01 0. -1.
       -5    1    3    3    0  502  0.98521112692E+03  0.11408646342E+04  0.14981248920E+04  0.21252325426E+04  0.46999998093E+01 0.  1.
</event>
<event>
 5   0  0.9295663E-07  0.3294546E+04  0.7818609E-02  0.8164284E-01
        1   -1    0    0  501    0  0.00000000000E+00  0.00000000000E+00  0.13968542495E+04  0.13968542495E+04  0.50400001928E-02 0. -1.
       -1   -1    0    0    0  501  0.00000000000E+00  0.00000000000E+00 -0.19425853652E+04  0.19425853652E+04  0.50400001928E-02 0.  1.
    10030    2    1    2    0    0  0.00000000000E+00  0.00000000000E+00 -0.54573111572E+03  0.33394396147E+04  0.32945461736E+04 0.  0.
        4    1    3    3  502    0  0.12904418249E+04 -0.17727917091E+03 -0.12949907535E+04  0.18367554744E+04  0.12699999809E+01 0.  1.
       -4    1    3    3    0  502 -0.12904418249E+04  0.17727917091E+03  0.74925963779E+03  0.15026841404E+04  0.12699999809E+01 0. -1.
</event>
<event>
 5   0  0.2614212E-06  0.3200722E+04  0.7818609E-02  0.8188626E-01
       -2   -1    0    0    0  501  0.00000000000E+00  0.00000000000E+00  0.16348610661E+04  0.16348610661E+04  0.25500000920E-02 0. -1.
        2   -1    0    0  501    0  0.00000000000E+00  0.00000000000E+00 -0.15665891595E+04  0.15665891595E+04  0.25500000920E-02 0.  1.
    10030    2    1    2    0    0  0.00000000000E+00  0.00000000000E+00  0.68271906600E+02  0.32014502256E+04  0.32007221832E+04 0.  0.
        2    1    3    3  502    0 -0.78073440441E+03 -0.55931847827E+03 -0.12463006342E+04  0.15734194104E+04  0.25500000920E-02 0.  1.
       -2    1    3    3    0  502  0.78073440441E+03  0.55931847827E+03  0.13145725408E+04  0.16280308152E+04  0.25500000920E-02 0. -1.
</event>
<event>
 5   0  0.9530268E-07  0.3269836E+04  0.7818609E-02  0.8170613E-01
       -1   -1    0    0    0  501  0.00000000000E+00  0.00000000000E+00  0.15220974787E+04  0.15220974787E+04  0.50400001928E-02 0. -1.
        1   -1    0    0  501    0  0.00000000000E+00  0.00000000000E+00 -0.17561013761E+04  0.17561013761E+04  0.50400001928E-02 0.  1.
    10030    2    1    2    0    0  0.00000000000E+00  0.00000000000E+00 -0.23400389741E+03  0.32781988548E+04  0.32698363732E+04 0.  0.
        5    1    3    3  502    0 -0.82886299379E+03 -0.13999600916E+04  0.44758970105E+02  0.16275526338E+04  0.46999998093E+01 0.  1.
       -5    1    3    3    0  502  0.82886299379E+03  0.13999600916E+04 -0.27876286751E+03  0.16506462210E+04  0.46999998093E+01 0. -1.
</event>
<event>
 5   0  0.8520125E-07  0.3264246E+04  0.7818609E-02  0.8172053E-01
       -3   -1    0    0    0  501  0.00000000000E+00  0.00000000000E+00  0.18859417065E+04  0.18859417092E+04  0.10100000352E+00 0. -1.
        3   -1    0    0  501    0  0.00000000000E+00  0.00000000000E+00 -0.14124647200E+04  0.14124647236E+04  0.10100000352E+00 0.  1.
    10030    2    1    2    0    0  0.00000000000E+00  0.00000000000E+00  0.47347698651E+03  0.32984064328E+04  0.32642463968E+04 0.  0.
        1    1    3    3  502    0 -0.60033948757E+02 -0.15976359760E+04  0.56847482729E+03  0.16968230361E+04  0.50400001928E-02 0. -1.
       -1    1    3    3    0  502  0.60033948757E+02  0.15976359760E+04 -0.94997840777E+02  0.16015833967E+04  0.50400001928E-02 0.  1.
</event>
<event>
 5   0  0.8705956E-07  0.3290576E+04  0.7818609E-02  0.8165297E-01
       -1   -1    0    0    0  501  0.00000000000E+00  0.00000000000E+00  0.31886435581E+04  0.31886435581E+04  0.50400001928E-02 0. -1.
        1   -1    0    0  501    0  0.00000000000E+00  0.00000000000E+00 -0.84894171954E+03  0.84894171955E+03  0.50400001928E-02 0.  1.
    10030    2    1    2    0    0  0.00000000000E+00  0.00000000000E+00  0.23397018386E+04  0.40375852777E+04  0.32905759649E+04 0.  0.
        2    1    3    3  502    0 -0.94691990164E+03  0.12750717624E+04  0.64279523670E+03  0.17133741610E+04  0.25500000920E-02 0. -1.
       -2    1    3    3    0  502  0.94691990164E+03 -0.12750717624E+04  0.16969066019E+04  0.23242111166E+04  0.25500000920E-02 0.  1.
</event>
<event>
 5   0  0.9530268E-07  0.3070995E+04  0.7818609E-02  0.8223743E-01
        1   -1    0    0  501    0  0.00000000000E+00  0.00000000000E+00  0.15795213634E+04  0.15795213634E+04  0.50400001928E-02 0.  1.
       -1   -1    0    0    0  501  0.00000000000E+00  0.00000000000E+00 -0.14927009707E+04  0.14927009708E+04  0.50400001928E-02 0. -1.
    10030    2    1    2    0    0  0.00000000000E+00  0.00000000000E+00  0.86820392669E+02  0.30722223342E+04  0.30709953256E+04 0.  0.
        5    1    3    3  502    0  0.10036251043E+04  0.11435235564E+04 -0.16360606786E+03  0.15302609286E+04  0.46999998093E+01 0. -1.
       -5    1    3    3    0  502 -0.10036251043E+04 -0.11435235564E+04  0.25042646053E+03  0.15419614056E+04  0.46999998093E+01 0.  1.
</event>
<event>
 5   0  0.2614212E-06  0.3265334E+04  0.7818609E-02  0.8171773E-01
        2   -1    0    0  501    0  0.00000000000E+00  0.00000000000E+00  0.19924622134E+04  0.19924622134E+04  0.25500000920E-02 0.  1.
       -2   -1    0    0    0  501  0.00000000000E+00  0.00000000000E+00 -0.13378431020E+04  0.13378431020E+04  0.25500000920E-02 0. -1.
    10030    2    1    2    0    0  0.00000000000E+00  0.00000000000E+00  0.65461911133E+03  0.33303053154E+04  0.32653341809E+04 0.  0.
        2    1    3    3  502    0  0.65371122397E+03 -0.14697158242E+04  0.61251422189E+03  0.17212137114E+04  0.25500000920E-02 0.  1.
       -2    1    3    3    0  502 -0.65371122397E+03  0.14697158242E+04  0.42104889444E+02  0.16090916040E+04  0.25500000920E-02 0. -1.
</event>
<event>
 5   0  0.2614212E-06  0.3367843E+04  0.7818609E-02  0.8145844E-01
        2   -1    0    0  501    0  0.00000000000E+00  0.00000000000E+00  0.22963175286E+04  0.22963175286E+04  0.25500000920E-02 0. -1.
       -2   -1    0    0    0  501  0.00000000000E+00  0.00000000000E+00 -0.12348432006E+04  0.12348432006E+04  0.25500000920E-02 0.  1.
    10030    2    1    2    0    0  0.00000000000E+00  0.00000000000E+00  0.10614743280E+04  0.35311607292E+04  0.33678432782E+04 0.  0.
        2    1    3    3  502    0  0.22461001864E+03 -0.16408136807E+04  0.21120829970E+03  0.16695293172E+04  0.25500000920E-02 0. -1.
       -2    1    3    3    0  502 -0.22461001864E+03  0.16408136807E+04  0.85026602832E+03  0.18616314120E+04  0.25500000920E-02 0.  1.
</event>
<event>
 5   0  0.9295663E-07  0.3389455E+04  0.7818609E-02  0.8140499E-01
       -1   -1    0    0    0  501  0.00000000000E+00  0.00000000000E+00  0.22122297762E+04  0.22122297762E+04  0.50400001928E-02 0. -1.
        1   -1    0    0  501    0  0.00000000000E+00  0.00000000000E+00 -0.12982837208E+04  0.12982837208E+04  0.50400001928E-02 0.  1.
    10030    2    1    2    0    0  0.00000000000E+00  0.00000000000E+00  0.91394605534E+03  0.35105134970E+04  0.33894553575E+04 0.  0.
        4    1    3    3  502    0  0.48591674054E+03  0.15040302855E+04  0.10902675776E+04  0.19201320741E+04  0.12699999809E+01 0. -1.
       -4    1    3    3    0  502 -0.48591674054E+03 -0.15040302855E+04 -0.17632152227E+03  0.15903814229E+04  0.12699999809E+01 0.  1.
</event>
<event>
 5   0  0.2574803E-06  0.3228948E+04  0.7818609E-02  0.8181214E-01
       -2   -1    0    0    0  501  0.00000000000E+00  0.00000000000E+00  0.12739360853E+04  0.12739360853E+04  0.25500000920E-02 0. -1.
        2   -1    0    0  501    0  0.00000000000E+00  0.00000000000E+00 -0.20460414136E+04  0.20460414136E+04  0.25500000920E-02 0.  1.
    10030    2    1    2    0    0  0.00000000000E+00  0.00000000000E+00 -0.77210532834E+03  0.33199774989E+04  0.32289478093E+04 0.  0.
        4    1    3    3  502    0 -0.30517863619E+03  0.95079022265E+03 -0.16904338878E+04  0.19633401105E+04  0.12699999809E+01 0.  1.
       -4    1    3    3    0  502  0.30517863619E+03 -0.95079022265E+03  0.91832855947E+03  0.13566373884E+04  0.12699999809E+01 0. -1.
</event>
<event>
 5   0  0.8520125E-07  0.2958012E+04  0.7818609E-02  0.8255823E-01
       -3   -1    0    0    0  501  0.00000000000E+00  0.00000000000E+00  0.15724407083E+04  0.15724407116E+04  0.10100000352E+00 0. -1.
        3   -1    0    0  501    0  0.00000000000E+00  0.00000000000E+00 -0.13911233440E+04  0.13911233476E+04  0.10100000352E+00 0.  1.
    10030    2    1    2    0    0  0.00000000000E+00  0.00000000000E+00  0.18131736434E+03  0.29635640592E+04  0.29580121613E+04 0.  0.
        1    1    3    3  502    0 -0.10405525367E+04 -0.10506087592E+04  0.60095030639E+02  0.14799120782E+04  0.50400001928E-02 0.  1.
       -1    1    3    3    0  502  0.10405525367E+04  0.10506087592E+04  0.12122233370E+03  0.14836519810E+04  0.50400001928E-02 0. -1.
</event>
<event>
 5   0  0.9268670E-07  0.3301274E+04  0.7818609E-02  0.8162571E-01
       -1   -1    0    0    0  501  0.00000000000E+00  0.00000000000E+00  0.15023651331E+04  0.15023651331E+04  0.50400001928E-02 0.  1.
        1   -1    0    0  501    0  0.00000000000E+00  0.00000000000E+00 -0.18135421877E+04  0.18135421877E+04  0.50400001928E-02 0. -1.
    10030    2    1    2    0    0  0.00000000000E+00  0.00000000000E+00 -0.31117705468E+03  0.33159073208E+04  0.33012740269E+04 0.  0.
        3    1    3    3  502    0  0.15495882807E+04  0.38993379438E+03  0.26016691427E+03  0.16189376261E+04  0.10100000352E+00 0.  1.
       -3    1    3    3    0  502 -0.15495882807E+04 -0.38993379438E+03 -0.57134396895E+03  0.16969696947E+04  0.10100000352E+00 0. -1.
</event>
<event>
 5   0  0.2614212E-06  0.3288370E+04  0.7818609E-02  0.8165861E-01
       -2   -1    0    0    0  501  0.00000000000E+00  0.00000000000E+00  0.13607962512E+04  0.13607962512E+04  0.25500000920E-02 0.  1.
        2   -1    0    0  501    0  0.00000000000E+00  0.00000000000E+00 -0.19865903355E+04  0.19865903355E+04  0.25500000920E-02 0. -1.
    10030    2    1    2    0    0  0.00000000000E+00  0.00000000000E+00 -0.62579408429E+03  0.33473865866E+04  0.32883702232E+04 0.  0.
        2    1    3    3  502    0  0.11486428586E+04  0.10451966904E+04 -0.86252068669E+03  0.17764454603E+04  0.25500000920E-02 0.  1.
       -2    1    3    3    0  502 -0.11486428586E+04 -0.10451966904E+04  0.23672660240E+03  0.15709411264E+04  0.25500000920E-02 0. -1.
</event>
<event>
 5   0  0.8845526E-07  0.3215006E+04  0.7818609E-02  0.8184865E-01
        1   -1    0    0  501    0  0.00000000000E+00  0.00000000000E+00  0.17358748829E+04  0.17358748829E+04  0.50400001928E-02 0. -1.
       -1   -1    0    0    0  501  0.00000000000E+00  0.00000000000E+00 -0.14886247490E+04  0.14886247490E+04  0.50400001928E-02 0.  1.
    10030    2    1    2    0    0  0.00000000000E+00  0.00000000000E+00  0.24725013390E+03  0.32244996320E+04  0.32150062594E+04 0.  0.
        1    1    3    3  502    0 -0.21315298000E+03  0.14031821979E+04 -0.63339628828E+03  0.15542024744E+04  0.50400001928E-02 0.  1.
       -1    1    3    3    0  502  0.21315298000E+03 -0.14031821979E+04  0.88064642218E+03  0.16702971575E+04  0.50400001928E-02 0. -1.
</event>
<event>
 5   0  0.2614212E-06  0.3310841E+04  0.7818609E-02  0.8160142E-01
        2   -1    0    0  501    0  0.00000000000E+00  0.00000000000E+00  0.16804133317E+04  0.16804133317E+04  0.25500000920E-02 0. -1.
       -2   -1    0    0    0  501  0.00000000000E+00  0.00000000000E+00 -0.16307989934E+04  0.16307989934E+04  0.25500000920E-02 0.  1.
    10030    2    1    2    0    0  0.00000000000E+00  0.00000000000E+00  0.49614338321E+02  0.33112123251E+04  0.33108406001E+04 0.  0.
        2    1    3    3  502    0 -0.10324134005E+03  0.10281272312E+03 -0.16243737693E+04  0.16308952672E+04  0.25500000920E-02 0.  1.
       -2    1    3    3    0  502  0.10324134005E+03 -0.10281272312E+03  0.16739881076E+04  0.16803170578E+04  0.25500000920E-02 0. -1.
</event>
<event>
 5   0  0.2614212E-06  0.2927507E+04  0.7818609E-02  0.8264740E-01
       -2   -1    0    0    0  501  0.00000000000E+00  0.00000000000E+00  0.27694424080E+04  0.27694424080E+04  0.25500000920E-02 0.  1.
        2   -1    0    0  501    0  0.00000000000E+00  0.00000000000E+00 -0.77364846814E+03  0.77364846815E+03  0.25500000920E-02 0. -1.
    10030    2    1    2    0    0  0.00000000000E+00  0.00000000000E+00  0.19957939398E+04  0.35430908761E+04  0.29275073879E+04 0.  0.
        2    1    3    3  502    0  0.42795976626E+03 -0.82595077199E+03 -0.36989155423E+03  0.10010814159E+04  0.25500000920E-02 0. -1.
       -2    1    3    3    0  502 -0.42795976626E+03  0.82595077199E+03  0.23656854940E+04  0.25420094603E+04  0.25500000920E-02 0.  1.
</event>
<event>
 5   0  0.9268670E-07  0.3196572E+04  0.7818609E-02  0.8189723E-01
       -1   -1    0    0    0  501  0.00000000000E+00  0.00000000000E+00  0.10264858878E+04  0.10264858878E+04  0.50400001928E-02 0. -1.
        1   -1    0    0  501    0  0.00000000000E+00  0.00000000000E+00 -0.24886050635E+04  0.24886050635E+04  0.50400001928E-02 0.  1.
    10030    2    1    2    0    0  0.00000000000E+00  0.00000000000E+00 -0.14621191757E+04  0.35150909514E+04  0.31965719001E+04 0.  0.
        3    1    3    3  502    0  0.75516397028E+03  0.47713951905E+03  0.72636621710E+03  0.11513221244E+04  0.10100000352E+00 0. -1.
       -3    1    3    3    0  502 -0.75516397028E+03 -0.47713951905E+03 -0.21884853928E+04  0.23637688270E+04  0.10100000352E+00 0.  1.
</event>
<event>
 5   0  0.8845526E-07  0.3184631E+04  0.7818609E-02  0.8192888E-01
       -1   -1    0    0    0  501  0.00000000000E+00  0.00000000000E+00  0.12700724355E+04  0.12700724355E+04  0.50400001928E-02 0.  1.
        1   -1    0    0  501    0  0.00000000000E+00  0.00000000000E+00 -0.19963179234E+04  0.19963179234E+04  0.50400001928E-02 0. -1.
    10030    2    1    2    0    0  0.00000000000E+00  0.00000000000E+00 -0.72624548790E+03  0.32663903589E+04  0.31846308213E+04 0.  0.
        1    1    3    3  502    0  0.53222926754E+02 -0.13315658040E+04  0.53078433672E+03  0.14344449039E+04  0.50400001928E-02 0.  1.
       -1    1    3    3    0  502 -0.53222926754E+02  0.13315658040E+04 -0.12570298246E+04  0.18319454550E+04  0.50400001928E-02 0. -1.
</event>
<event>
 5   0  0.9268670E-07  0.3335815E+04  0.7818609E-02  0.8153841E-01
       -1   -1    0    0    0  501  0.00000000000E+00  0.00000000000E+00  0.16807684616E+04  0.16807684616E+04  0.50400001928E-02 0.  1.
        1   -1    0    0  501    0  0.00000000000E+00  0.00000000000E+00 -0.16551453833E+04  0.16551453833E+04  0.50400001928E-02 0. -1.
    10030    2    1    2    0    0  0.00000000000E+00  0.00000000000E+00  0.25623078375E+02  0.33359138449E+04  0.33358154383E+04 0.  0.
        3    1    3    3  502    0 -0.80107305628E+03 -0.43222724377E+03 -0.13848625890E+04  0.16572214193E+04  0.10100000352E+00 0. -1.
       -3    1    3    3    0  502  0.80107305628E+03  0.43222724377E+03  0.14104856674E+04  0.16786924256E+04  0.10100000352E+00 0.  1.
</event>
<event>
 5   0  0.9295663E-07  0.3340327E+04  0.7818609E-02  0.8152709E-01
        1   -1    0    0  501    0  0.00000000000E+00  0.00000000000E+00  0.14245404775E+04  0.14245404775E+04  0.50400001928E-02 0. -1.
       -1   -1    0    0    0  501  0.00000000000E+00  0.00000000000E+00 -0.19581375219E+04  0.19581375219E+04  0.50400001928E-02 0.  1.
    10030    2    1    2    0    0  0.00000000000E+00  0.00000000000E+00 -0.53359704437E+03  0.33826779994E+04  0.33403270261E+04 0.  0.
        4    1    3    3  502    0 -0.15715478805E+04  0.27839212173E+02 -0.83867673468E+03  0.17815493372E+04  0.12699999809E+01 0.  1.
       -4    1    3    3    0  502  0.15715478805E+04 -0.27839212173E+02  0.30507969030E+03  0.16011286622E+04  0.12699999809E+01 0. -1.
</event>
<event>
 5   0  0.9295663E-07  0.3265947E+04  0.7818609E-02  0.8171615E-01
       -1   -1    0    0    0  501  0.00000000000E+00  0.00000000000E+00  0.15545725089E+04  0.15545725090E+04  0.50400001928E-02 0.  1.
        1   -1    0    0  501    0  0.00000000000E+00  0.00000000000E+00 -0.17153288396E+04  0.17153288396E+04  0.50400001928E-02 0. -1.
    10030    2    1    2    0    0  0.00000000000E+00  0.00000000000E+00 -0.16075633062E+03  0.32699013485E+04  0.32659473712E+04 0.  0.
        4    1    3    3  502    0 -0.84245328861E+03  0.47653165084E+03  0.12364295003E+04  0.15702131957E+04  0.12699999809E+01 0.  1.
       -4    1    3    3    0  502  0.84245328861E+03 -0.47653165084E+03 -0.13971858310E+04  0.16996881528E+04  0.12699999809E+01 0. -1.
</event>
<event>
 5   0  0.2705859E-06  0.3289455E+04  0.7818609E-02  0.8165584E-01
        2   -1    0    0  501    0  0.00000000000E+00  0.00000000000E+00  0.20708405543E+04  0.20708405543E+04  0.25500000920E-02 0.  1.
       -2   -1    0    0    0  501  0.00000000000E+00  0.00000000000E+00 -0.13062949890E+04  0.13062949890E+04  0.25500000920E-02 0. -1.
    10030    2    1    2    0    0  0.00000000000E+00  0.00000000000E+00  0.76454556538E+03  0.33771355433E+04  0.32894550546E+04 0.  0.
        1    1    3    3  502    0  0.74405236204E+03 -0.11332337867E+04 -0.57383792750E+03  0.14721150430E+04  0.50400001928E-02 0. -1.
       -1    1    3    3    0  502 -0.74405236204E+03  0.11332337867E+04  0.13383834929E+04  0.19050205003E+04  0.50400001928E-02 0.  1.
</event>
<event>
 5   0  0.2674551E-06  0.3137903E+04  0.7818609E-02  0.8205412E-01
       -2   -1    0    0    0  501  0.00000000000E+00  0.00000000000E+00  0.15236943574E+04  0.15236943574E+04  0.25500000920E-02 0.  1.
        2   -1    0    0  501    0  0.00000000000E+00  0.00000000000E+00 -0.16155528123E+04  0.16155528123E+04  0.25500000920E-02 0. -1.
    10030    2    1    2    0    0  0.00000000000E+00  0.00000000000E+00 -0.91858454925E+02  0.31392471697E+04  0.31379029330E+04 0.  0.
        3    1    3    3  502    0  0.71917725864E+02  0.56575837323E+03  0.14163240893E+04  0.15268361511E+04  0.10100000352E+00 0.  1.
       -3    1    3    3    0  502 -0.71917725864E+02 -0.56575837323E+03 -0.15081825442E+04  0.16124110187E+04  0.10100000352E+00 0. -1.
</event>
<event>
 5   0  0.8520125E-07  0.3303368E+04  0.7818609E-02  0.8162039E-01
        3   -1    0    0  501    0  0.00000000000E+00  0.00000000000E+00  0.22831211949E+04  0.22831211972E+04  0.10100000352E+00 0. -1.
       -3   -1    0    0    0  501  0.00000000000E+00  0.00000000000E+00 -0.11948818293E+04  0.11948818336E+04  0.10100000352E+00 0.  1.
    10030    2    1    2    0    0  0.00000000000E+00  0.00000000000E+00  0.10882393657E+04  0.34780030307E+04  0.33033680032E+04 0.  0.
        1    1    3    3  502    0 -0.16506841295E+04 -0.49823693123E+02  0.51397855280E+03  0.17295705966E+04  0.50400001928E-02 0.  1.
       -1    1    3    3    0  502  0.16506841295E+04  0.49823693123E+02  0.57426081285E+03  0.17484324342E+04  0.50400001928E-02 0. -1.
</event>
<event>
 5   0  0.2614212E-06  0.3406543E+04  0.7818609E-02  0.8136302E-01
        2   -1    0    0  501    0  0.00000000000E+00  0.00000000000E+00  0.20339927314E+04  0.20339927314E+04  0.25500000920E-02 0. -1.
       -2   -1    0    0    0  501  0.00000000000E+00  0.00000000000E+00 -0.14263249583E+04  0.14263249583E+04  0.25500000920E-02 0.  1.
    10030    2    1    2    0    0  0.00000000000E+00  0.00000000000E+00  0.60766777305E+03  0.34603176897E+04  0.34065434668E+04 0.  0.
        2    1    3    3  502    0 -0.25697034781E+03  0.14830372007E+04  0.11137287714E+04  0.18723848094E+04  0.25500000920E-02 0. -1.
       -2    1    3    3    0  502  0.25697034781E+03 -0.14830372007E+04 -0.50606099832E+03  0.15879328803E+04  0.25500000920E-02 0.  1.
</event>
<event>
 5   0  0.2574803E-06  0.2655285E+04  0.7818609E-02  0.8349661E-01
        2   -1    0    0  501    0  0.00000000000E+00  0.00000000000E+00  0.18640612696E+04  0.18640612696E+04  0.25500000920E-02 0.  1.
       -2   -1    0    0    0  501  0.00000000000E+00  0.00000000000E+00 -0.94558836907E+03  0.94558836908E+03  0.25500000920E-02 0. -1.
    10030    2    1    2    0    0  0.00000000000E+00  0.00000000000E+00  0.91847290056E+03  0.28096496387E+04  0.26552850362E+04 0.  0.
        4    1    3    3  502    0  0.64410593890E+03  0.43841461756E+03  0.15966960815E+04  0.17766597387E+04  0.12699999809E+01 0.  1.
       -4    1    3    3    0  502 -0.64410593890E+03 -0.43841461756E+03 -0.67822318098E+03  0.10329899000E+04  0.12699999809E+01 0. -1.
</event>
<event>
 5   0  0.9295663E-07  0.3357347E+04  0.7818609E-02  0.8148455E-01
        1   -1    0    0  501    0  0.00000000000E+00  0.00000000000E+00  0.23948041136E+04  0.23948041136E+04  0.50400001928E-02 0.  1.
       -1   -1    0    0    0  501  0.00000000000E+00  0.00000000000E+00 -0.11766910981E+04  0.11766910981E+04  0.50400001928E-02 0. -1.
    10030    2    1    2    0    0  0.00000000000E+00  0.00000000000E+00  0.12181130155E+04  0.35714952117E+04  0.33573469777E+04 0.  0.
        4    1    3    3  502    0  0.20438618241E+03  0.99095499800E+03  0.20339636190E+04  0.22717339492E+04  0.12699999809E+01 0. -1.
       -4    1    3    3    0  502 -0.20438618241E+03 -0.99095499800E+03 -0.81585060344E+03  0.12997612626E+04  0.12699999809E+01 0.  1.
</event>
<event>
 5   0  0.2658600E-06  0.3239387E+04  0.7818609E-02  0.8178492E-01
        2   -1    0    0  501    0  0.00000000000E+00  0.00000000000E+00  0.20769854420E+04  0.20769854420E+04  0.25500000920E-02 0.  1.
       -2   -1    0    0    0  501  0.00000000000E+00  0.00000000000E+00 -0.12630837797E+04  0.12630837797E+04  0.25500000920E-02 0. -1.
    10030    2    1    2    0    0  0.00000000000E+00  0.00000000000E+00  0.81390166229E+03  0.33400692217E+04  0.32393867460E+04 0.  0.
        5    1    3    3  502    0 -0.10323661264E+04 -0.41939530955E+03 -0.80504597821E+03  0.13746975528E+04  0.46999998093E+01 0. -1.
       -5    1    3    3    0  502  0.10323661264E+04  0.41939530955E+03  0.16189476405E+04  0.19653716690E+04  0.46999998093E+01 0.  1.
</event>
<event>
 5   0  0.2705859E-06  0.2944592E+04  0.7818609E-02  0.8259732E-01
        2   -1    0    0  501    0  0.00000000000E+00  0.00000000000E+00  0.12084031444E+04  0.12084031444E+04  0.25500000920E-02 0.  1.
       -2   -1    0    0    0  501  0.00000000000E+00  0.00000000000E+00 -0.17938185511E+04  0.17938185511E+04  0.25500000920E-02 0. -1.
    10030    2    1    2    0    0  0.00000000000E+00  0.00000000000E+00 -0.58541540668E+03  0.30022216955E+04  0.29445923165E+04 0.  0.
        1    1    3    3  502    0 -0.10595386808E+04  0.33819523063E+03  0.69087885049E+03  0.13093173092E+04  0.50400001928E-02 0.  1.
       -1    1    3    3    0  502  0.10595386808E+04 -0.33819523063E+03 -0.12762942572E+04  0.16929043863E+04  0.50400001928E-02 0. -1.
</event>
<event>
 5   0  0.9295663E-07  0.2964917E+04  0.7818609E-02  0.8253821E-01
        1   -1    0    0  501    0  0.00000000000E+00  0.00000000000E+00  0.15293369459E+04  0.15293369459E+04  0.50400001928E-02 0. -1.
       -1   -1    0    0    0  501  0.00000000000E+00  0.00000000000E+00 -0.14370172023E+04  0.14370172023E+04  0.50400001928E-02 0.  1.
    10030    2    1    2    0    0  0.00000000000E+00  0.00000000000E+00  0.92319743614E+02  0.29663541482E+04  0.29649171991E+04 0.  0.
        4    1    3    3  502    0  0.12992622721E+04  0.53308620821E+03  0.52117258821E+03  0.14979605591E+04  0.12699999809E+01 0. -1.
       -4    1    3    3    0  502 -0.12992622721E+04 -0.53308620821E+03 -0.42885284460E+03  0.14683935890E+04  0.12699999809E+01 0.  1.
</event>
<event>
 5   0  0.9268670E-07  0.3301354E+04  0.7818609E-02  0.8162551E-01
       -1   -1    0    0    0  501  0.00000000000E+00  0.00000000000E+00  0.31524608313E+04  0.31524608313E+04  0.50400001928E-02 0. -1.
        1   -1    0    0  501    0  0.00000000000E+00  0.00000000000E+00 -0.86432013329E+03  0.86432013331E+03  0.50400001928E-02 0.  1.
    10030    2    1    2    0    0  0.00000000000E+00  0.00000000000E+00  0.22881406980E+04  0.40167809646E+04  0.33013544893E+04 0.  0.
        3    1    3    3  502    0  0.85718447458E+03  0.13975874081E+04  0.13772200046E+04  0.21412031053E+04  0.10100000352E+00 0. -1.
       -3    1    3    3    0  502 -0.85718447458E+03 -0.13975874081E+04  0.91092069340E+03  0.18755778594E+04  0.10100000352E+00 0.  1.
</event>
<event>
 5   0  0.2574803E-06  0.3265912E+04  0.7818609E-02  0.8171624E-01
        2   -1    0    0  501    0  0.00000000000E+00  0.00000000000E+00  0.30944482959E+04  0.30944482959E+04  0.25500000920E-02 0. -1.
       -2   -1    0    0    0  501  0.00000000000E+00  0.00000000000E+00 -0.86171937331E+03  0.86171937332E+03  0.25500000920E-02 0.  1.
    10030    2    1    2    0    0  0.00000000000E+00  0.00000000000E+00  0.22327289226E+04  0.39561676692E+04  0.32659124583E+04 0.  0.
        4    1    3    3  502    0 -0.16059320224E+04  0.12150926622E+03  0.14431202369E+04  0.21624938829E+04  0.12699999809E+01 0. -1.
       -4    1    3    3    0  502  0.16059320224E+04 -0.12150926622E+03  0.78960868568E+03  0.17936737863E+04  0.12699999809E+01 0.  1.
</event>
<event>
 5   0  0.2674551E-06  0.3295287E+04  0.7818609E-02  0.8164096E-01
       -2   -1    0    0    0  501  0.00000000000E+00  0.00000000000E+00  0.13366566969E+04  0.13366566969E+04  0.25500000920E-02 0. -1.
        2   -1    0    0  501    0  0.00000000000E+00  0.00000000000E+00 -0.20309842650E+04  0.20309842650E+04  0.25500000920E-02 0.  1.
    10030    2    1    2    0    0  0.00000000000E+00  0.00000000000E+00 -0.69432756811E+03  0.33676409619E+04  0.32952867670E+04 0.  0.
        3    1    3    3  502    0 -0.66061793831E+03  0.30487207050E+03 -0.18579208257E+04  0.19953026949E+04  0.10100000352E+00 0.  1.
       -3    1    3    3    0  502  0.66061793831E+03 -0.30487207050E+03  0.11635932576E+04  0.13723382670E+04  0.10100000352E+00 0. -1.
</event>
<event>
 5   0  0.2614212E-06  0.3241052E+04  0.7818609E-02  0.8178059E-01
        2   -1    0    0  501    0  0.00000000000E+00  0.00000000000E+00  0.11798228826E+04  0.11798228826E+04  0.25500000920E-02 0. -1.
       -2   -1    0    0    0  501  0.00000000000E+00  0.00000000000E+00 -0.22258470276E+04  0.22258470276E+04  0.25500000920E-02 0.  1.
    10030    2    1    2    0    0  0.00000000000E+00  0.00000000000E+00 -0.10460241450E+04  0.34056699102E+04  0.32410524565E+04 0.  0.
        2    1    3    3  502    0  0.53995487115E+03 -0.68375930319E+03 -0.19588050197E+04  0.21438272208E+04  0.25500000920E-02 0.  1.
       -2    1    3    3    0  502 -0.53995487115E+03  0.68375930319E+03  0.91278087469E+03  0.12618426894E+04  0.25500000920E-02 0. -1.
</event>
<event>
 5   0  0.2614212E-06  0.3334296E+04  0.7818609E-02  0.8154223E-01
       -2   -1    0    0    0  501  0.00000000000E+00  0.00000000000E+00  0.10941313366E+04  0.10941313366E+04  0.25500000920E-02 0.  1.
        2   -1    0    0  501    0  0.00000000000E+00  0.00000000000E+00 -0.25402638078E+04  0.25402638078E+04  0.25500000920E-02 0. -1.
    10030    2    1    2    0    0  0.00000000000E+00  0.00000000000E+00 -0.14461324712E+04  0.36343951445E+04  0.33342958690E+04 0.  0.
        2    1    3    3  502    0  0.11089550565E+04  0.45463321059E+03  0.54007348547E+03  0.13145919684E+04  0.25500000920E-02 0.  1.
       -2    1    3    3    0  502 -0.11089550565E+04 -0.45463321059E+03 -0.19862059567E+04  0.23198031761E+04  0.25500000920E-02 0. -1.
</event>
<event>
 5   0  0.2574803E-06  0.3176485E+04  0.7818609E-02  0.8195055E-01
       -2   -1    0    0    0  501  0.00000000000E+00  0.00000000000E+00  0.10389523760E+04  0.10389523760E+04  0.25500000920E-02 0. -1.
        2   -1    0    0  501    0  0.00000000000E+00  0.00000000000E+00 -0.24279400821E+04  0.24279400821E+04  0.25500000920E-02 0.  1.
    10030    2    1    2    0    0  0.00000000000E+00  0.00000000000E+00 -0.13889877061E+04  0.34668924581E+04  0.31764849234E+04 0.  0.
        4    1    3    3  502    0 -0.15274511164E+04  0.19635947990E+03 -0.11183945550E+04  0.19032792628E+04  0.12699999809E+01 0.  1.
       -4    1    3    3    0  502  0.15274511164E+04 -0.19635947990E+03 -0.27059315107E+03  0.15636131954E+04  0.12699999809E+01 0. -1.
</event>
<event>
 5   0  0.2658600E-06  0.3341108E+04  0.7818609E-02  0.8152514E-01
       -2   -1    0    0    0  501  0.00000000000E+00  0.00000000000E+00  0.12800285923E+04  0.12800285923E+04  0.25500000920E-02 0. -1.
        2   -1    0    0  501    0  0.00000000000E+00  0.00000000000E+00 -0.21802246824E+04  0.21802246824E+04  0.25500000920E-02 0.  1.
    10030    2    1    2    0    0  0.00000000000E+00  0.00000000000E+00 -0.90019609011E+03  0.34602532746E+04  0.33411075595E+04 0.  0.
        5    1    3    3  502    0 -0.89137058145E+03 -0.66134274023E+03  0.84294897124E+03  0.13937362705E+04  0.46999998093E+01 0. -1.
       -5    1    3    3    0  502  0.89137058145E+03  0.66134274023E+03 -0.17431450614E+04  0.20665170042E+04  0.46999998093E+01 0.  1.
</event>
<event>
 5   0  0.2658600E-06  0.3367374E+04  0.7818609E-02  0.8145961E-01
       -2   -1    0    0    0  501  0.00000000000E+00  0.00000000000E+00  0.14453702664E+04  0.14453702664E+04  0.25500000920E-02 0. -1.
        2   -1    0    0  501    0  0.00000000000E+00  0.00000000000E+00 -0.19612978769E+04  0.19612978769E+04  0.25500000920E-02 0.  1.
    10030    2    1    2    0    0  0.00000000000E+00  0.00000000000E+00 -0.51592761045E+03  0.34066681433E+04  0.33673738342E+04 0.  0.
        5    1    3    3  502    0  0.14924905850E+04  0.30886709489E+03 -0.98175103733E+03  0.18129490389E+04  0.46999998093E+01 0. -1.
       -5    1    3    3    0  502 -0.14924905850E+04 -0.30886709489E+03  0.46582342688E+03  0.15937191043E+04  0.46999998093E+01 0.  1.
</event>
<event>
 5   0  0.2674551E-06  0.2772923E+04  0.7818609E-02  0.8311724E-01
       -2   -1    0    0    0  501  0.00000000000E+00  0.00000000000E+00  0.16174244266E+04  0.16174244266E+04  0.25500000920E-02 0. -1.
        2   -1    0    0  501    0  0.00000000000E+00  0.00000000000E+00 -0.11884789355E+04  0.11884789355E+04  0.25500000920E-02 0.  1.
    10030    2    1    2    0    0  0.00000000000E+00  0.00000000000E+00  0.42894549106E+03  0.28059033621E+04  0.27729225455E+04 0.  0.
        3    1    3    3  502    0 -0.33559386794E+03  0.11999712380E+04  0.82975135298E+03  0.14970108664E+04  0.10100000352E+00 0. -1.
       -3    1    3    3    0  502  0.33559386794E+03 -0.11999712380E+04 -0.40080586192E+03  0.13088924957E+04  0.10100000352E+00 0.  1.
</event>
<event>
 5   0  0.8845526E-07  0.3300125E+04  0.7818609E-02  0.8162864E-01
       -1   -1    0    0    0  501  0.00000000000E+00  0.00000000000E+00  0.11685574011E+04  0.11685574011E+04  0.50400001928E-02 0. -1.
        1   -1    0    0  501    0  0.00000000000E+00  0.00000000000E+00 -0.23299717223E+04  0.23299717223E+04  0.50400001928E-02 0.  1.
    10030    2    1    2    0    0  0.00000000000E+00  0.00000000000E+00 -0.11614143212E+04  0.34985291234E+04  0.33001246646E+04 0.  0.
        1    1    3    3  502    0 -0.12142327335E+04  0.48203661206E+03  0.48785269468E+03  0.13945324228E+04  0.50400001928E-02 0. -1.
       -1    1    3    3    0  502  0.12142327335E+04 -0.48203661206E+03 -0.16492670158E+04  0.21039967006E+04  0.50400001928E-02 0.  1.
</event>
<event>
 5   0  0.8845526E-07  0.3241570E+04  0.7818609E-02  0.8177924E-01
       -1   -1    0    0    0  501  0.00000000000E+00  0.00000000000E+00  0.89561256907E+03  0.89561256908E+03  0.50400001928E-02 0. -1.
        1   -1    0    0  501    0  0.00000000000E+00  0.00000000000E+00 -0.29331260725E+04  0.29331260725E+04  0.50400001928E-02 0.  1.
    10030    2    1    2    0    0  0.00000000000E+00  0.00000000000E+00 -0.20375135034E+04  0.38287386415E+04  0.32415703461E+04 0.  0.
        1    1    3    3  502    0  0.10286319182E+04 -0.12493826869E+04 -0.91374938338E+03  0.18584882720E+04  0.50400001928E-02 0.  1.
       -1    1    3    3    0  502 -0.10286319182E+04  0.12493826869E+04 -0.11237641200E+04  0.19702503696E+04  0.50400001928E-02 0. -1.
</event>
<event>
 5   0  0.2614212E-06  0.3340563E+04  0.7818609E-02  0.8152650E-01
       -2   -1    0    0    0  501  0.00000000000E+00  0.00000000000E+00  0.15626179416E+04  0.15626179416E+04  0.25500000920E-02 0.  1.
        2   -1    0    0  501    0  0.00000000000E+00  0.00000000000E+00 -0.17853626167E+04  0.17853626167E+04  0.25500000920E-02 0. -1.
    10030    2    1    2    0    0  0.00000000000E+00  0.00000000000E+00 -0.22274467502E+03  0.33479805583E+04  0.33405626215E+04 0.  0.
        2    1    3    3  502    0  0.15927196394E+04  0.50163877030E+03 -0.14943497377E+03  0.16765226265E+04  0.25500000920E-02 0.  1.
       -2    1    3    3    0  502 -0.15927196394E+04 -0.50163877030E+03 -0.73309701258E+02  0.16714579318E+04  0.25500000920E-02 0. -1.
</event>
<event>
 5   0  0.2574803E-06  0.2980564E+04  0.7818609E-02  0.8249303E-01
        2   -1    0    0  501    0  0.00000000000E+00  0.00000000000E+00  0.14602686562E+04  0.14602686562E+04  0.25500000920E-02 0.  1.
       -2   -1    0    0    0  501  0.00000000000E+00  0.00000000000E+00 -0.15209121738E+04  0.15209121738E+04  0.25500000920E-02 0. -1.
    10030    2    1    2    0    0  0.00000000000E+00  0.00000000000E+00 -0.60643517593E+02  0.29811808300E+04  0.29805639576E+04 0.  0.
        4    1    3    3  502    0 -0.48951939385E+03  0.46185036615E+03  0.12996164621E+04  0.14635366613E+04  0.12699999809E+01 0.  1.
       -4    1    3    3    0  502  0.48951939385E+03 -0.46185036615E+03 -0.13602599797E+04  0.15176441687E+04  0.12699999809E+01 0. -1.
</event>
<event>
 5   0  0.9530268E-07  0.3590308E+04  0.7818609E-02  0.8092715E-01
        1   -1    0    0  501    0  0.00000000000E+00  0.00000000000E+00  0.28016154202E+04  0.28016154202E+04  0.50400001928E-02 0. -1.
       -1   -1    0    0    0  501  0.00000000000E+00  0.00000000000E+00 -0.11502570019E+04  0.11502570019E+04  0.50400001928E-02 0.  1.
    10030    2    1    2    0    0  0.00000000000E+00  0.00000000000E+00  0.16513584183E+04  0.39518724221E+04  0.35903079276E+04 0.  0.
        5    1    3    3  502    0 -0.61816372330E+03  0.15913881197E+04  0.14364599301E+04  0.22311615264E+04  0.46999998093E+01 0.  1.
       -5    1    3    3    0  502  0.61816372330E+03 -0.15913881197E+04  0.21489848823E+03  0.17207108957E+04  0.46999998093E+01 0. -1.
</event>
<event>
 5   0  0.2574803E-06  0.3335250E+04  0.7818609E-02  0.8153984E-01
        2   -1    0    0  501    0  0.00000000000E+00  0.00000000000E+00  0.19495916227E+04  0.19495916227E+04  0.25500000920E-02 0. -1.
       -2   -1    0    0    0  501  0.00000000000E+00  0.00000000000E+00 -0.14264388178E+04  0.14264388178E+04  0.25500000920E-02 0.  1.
    10030    2    1    2    0    0  0.00000000000E+00  0.00000000000E+00  0.52315280484E+03  0.33760304405E+04  0.33352500173E+04 0.  0.
        4    1    3    3  502    0 -0.10609067342E+04  0.65226216649E+02 -0.10391232060E+04  0.14864576039E+04  0.12699999809E+01 0.  1.
       -4    1    3    3    0  502  0.10609067342E+04 -0.65226216649E+02  0.15622760108E+04  0.18895728366E+04  0.12699999809E+01 0. -1.
</event>
<event>
 5   0  0.9530268E-07  0.2379342E+04  0.7818609E-02  0.8447278E-01
        1   -1    0    0  501    0  0.00000000000E+00  0.00000000000E+00  0.17203800886E+04  0.17203800886E+04  0.50400001928E-02 0.  1.
       -1   -1    0    0    0  501  0.00000000000E+00  0.00000000000E+00 -0.82267717379E+03  0.82267717381E+03  0.50400001928E-02 0. -1.
    10030    2    1    2    0    0  0.00000000000E+00  0.00000000000E+00  0.89770291484E+03  0.25430572625E+04  0.23793422866E+04 0.  0.
        5    1    3    3  502    0  0.53522678006E+03 -0.36334676496E+03  0.15159504352E+04  0.16482161234E+04  0.46999998093E+01 0.  1.
       -5    1    3    3    0  502 -0.53522678006E+03  0.36334676496E+03 -0.61824752032E+03  0.89484113902E+03  0.46999998093E+01 0. -1.
</event>
<event>
 5   0  0.9295663E-07  0.3329277E+04  0.7818609E-02  0.8155486E-01
       -1   -1    0    0    0  501  0.00000000000E+00  0.00000000000E+00  0.10396868752E+04  0.10396868752E+04  0.50400001928E-02 0.  1.
        1   -1    0    0  501    0  0.00000000000E+00  0.00000000000E+00 -0.26652453782E+04  0.26652453782E+04  0.50400001928E-02 0. -1.
    10030    2    1    2    0    0  0.00000000000E+00  0.00000000000E+00 -0.16255585030E+04  0.37049322534E+04  0.33292765814E+04 0.  0.
        4    1    3    3  502    0 -0.94756601975E+02 -0.16455994830E+04 -0.55407812079E+03  0.17389596456E+04  0.12699999809E+01 0.  1.
       -4    1    3    3    0  502  0.94756601975E+02  0.16455994830E+04 -0.10714803822E+04  0.19659726078E+04  0.12699999809E+01 0. -1.
</event>
<event>
 5   0  0.8845526E-07  0.3290678E+04  0.7818609E-02  0.8165271E-01
       -1   -1    0    0    0  501  0.00000000000E+00  0.00000000000E+00  0.15006340191E+04  0.15006340191E+04  0.50400001928E-02 0.  1.
        1   -1    0    0  501    0  0.00000000000E+00  0.00000000000E+00 -0.18039980203E+04  0.18039980203E+04  0.50400001928E-02 0. -1.
    10030    2    1    2    0    0  0.00000000000E+00  0.00000000000E+00 -0.30336400120E+03  0.33046320394E+04  0.32906782278E+04 0.  0.
        1    1    3    3  502    0 -0.55396964427E+03 -0.11463291780E+04 -0.11983047283E+04  0.17483955997E+04  0.50400001928E-02 0. -1.
       -1    1    3    3    0  502  0.55396964427E+03  0.11463291780E+04  0.89494072709E+03  0.15562364397E+04  0.50400001928E-02 0.  1.
</event>
<event>
 5   0  0.8845526E-07  0.3233349E+04  0.7818609E-02  0.8180065E-01
        1   -1    0    0  501    0  0.00000000000E+00  0.00000000000E+00  0.16507181002E+04  0.16507181003E+04  0.50400001928E-02 0.  1.
       -1   -1    0    0    0  501  0.00000000000E+00  0.00000000000E+00 -0.15833328942E+04  0.15833328942E+04  0.50400001928E-02 0. -1.
    10030    2    1    2    0    0  0.00000000000E+00  0.00000000000E+00  0.67385206084E+02  0.32340509944E+04  0.32333488937E+04 0.  0.
        1    1    3    3  502    0 -0.71006065194E+03  0.97968085247E+03 -0.10387694748E+04  0.15946795051E+04  0.50400001928E-02 0. -1.
       -1    1    3    3    0  502  0.71006065194E+03 -0.97968085247E+03  0.11061546809E+04  0.16393714894E+04  0.50400001928E-02 0.  1.
</event>
<event>
 5   0  0.8845526E-07  0.3371487E+04  0.7818609E-02  0.8144940E-01
        1   -1    0    0  501    0  0.00000000000E+00  0.00000000000E+00  0.16317307590E+04  0.16317307590E+04  0.50400001928E-02 0. -1.
       -1   -1    0    0    0  501  0.00000000000E+00  0.00000000000E+00 -0.17415443803E+04  0.17415443803E+04  0.50400001928E-02 0.  1.
    10030    2    1    2    0    0  0.00000000000E+00  0.00000000000E+00 -0.10981362133E+03  0.33732751393E+04  0.33714872288E+04 0.  0.
        1    1    3    3  502    0  0.14123295701E+04  0.83634690144E+03 -0.43927271138E+03  0.16991502197E+04  0.50400001928E-02 0.  1.
       -1    1    3    3    0  502 -0.14123295701E+04 -0.83634690144E+03  0.32945909005E+03  0.16741249195E+04  0.50400001928E-02 0. -1.
</event>
<event>
 5   0  0.8705956E-07  0.3520818E+04  0.7818609E-02  0.8108874E-01
       -1   -1    0    0    0  501  0.00000000000E+00  0.00000000000E+00  0.15586928772E+04  0.15586928772E+04  0.50400001928E-02 0.  1.
        1   -1    0    0  501    0  0.00000000000E+00  0.00000000000E+00 -0.19882296557E+04  0.19882296557E+04  0.50400001928E-02 0. -1.
    10030    2    1    2    0    0  0.00000000000E+00  0.00000000000E+00 -0.42953677858E+03  0.35469225329E+04  0.35208177474E+04 0.  0.
        2    1    3    3  502    0  0.32725003665E+02  0.15391806649E+04  0.64531301702E+03  0.16693043267E+04  0.25500000920E-02 0.  1.
       -2    1    3    3    0  502 -0.32725003665E+02 -0.15391806649E+04 -0.10748497956E+04  0.18776182062E+04  0.25500000920E-02 0. -1.
</event>
<event>
 5   0  0.9530268E-07  0.3284504E+04  0.7818609E-02  0.8166849E-01
        1   -1    0    0  501    0  0.00000000000E+00  0.00000000000E+00  0.15929493258E+04  0.15929493258E+04  0.50400001928E-02 0.  1.
       -1   -1    0    0    0  501  0.00000000000E+00  0.00000000000E+00 -0.16930809210E+04  0.16930809210E+04  0.50400001928E-02 0. -1.
    10030    2    1    2    0    0  0.00000000000E+00  0.00000000000E+00 -0.10013159512E+03  0.32860302468E+04  0.32845042924E+04 0.  0.
        5    1    3    3  502    0 -0.64739997545E+03  0.10327772945E+04  0.10509973505E+04  0.16094636339E+04  0.46999998093E+01 0.  1.
       -5    1    3    3    0  502  0.64739997545E+03 -0.10327772945E+04 -0.11511289456E+04  0.16765666129E+04  0.46999998093E+01 0. -1.
</event>
<event>
 5   0  0.2674551E-06  0.3282127E+04  0.7818609E-02  0.8167458E-01
        2   -1    0    0  501    0  0.00000000000E+00  0.00000000000E+00  0.24450455636E+04  0.24450455636E+04  0.25500000920E-02 0.  1.
       -2   -1    0    0    0  501  0.00000000000E+00  0.00000000000E+00 -0.11014478345E+04  0.11014478345E+04  0.25500000920E-02 0. -1.
    10030    2    1    2    0    0  0.00000000000E+00  0.00000000000E+00  0.13435977291E+04  0.35464933981E+04  0.32821274450E+04 0.  0.
        3    1    3    3  502    0  0.73196562366E+03 -0.13349660969E+04  0.13336566757E+04  0.20239931554E+04  0.10100000352E+00 0.  1.
       -3    1    3    3    0  502 -0.73196562366E+03  0.13349660969E+04  0.99410533417E+01  0.15225002427E+04  0.10100000352E+00 0. -1.
</event>
<event>
 5   0  0.9268670E-07  0.3312706E+04  0.7818609E-02  0.8159670E-01
        1   -1    0    0  501    0  0.00000000000E+00  0.00000000000E+00  0.21660221457E+04  0.21660221457E+04  0.50400001928E-02 0. -1.
       -1   -1    0    0    0  501  0.00000000000E+00  0.00000000000E+00 -0.12666098942E+04  0.12666098942E+04  0.50400001928E-02 0.  1.
    10030    2    1    2    0    0  0.00000000000E+00  0.00000000000E+00  0.89941225155E+03  0.34326320399E+04  0.33127058914E+04 0.  0.
        3    1    3    3  502    0 -0.46010120611E+03 -0.67349473533E+03 -0.10440847300E+04  0.13249155490E+04  0.10100000352E+00 0.  1.
       -3    1    3    3    0  502  0.46010120611E+03  0.67349473533E+03  0.19434969816E+04  0.21077164909E+04  0.10100000352E+00 0. -1.
</event>
<event>
 5   0  0.8705956E-07  0.3303511E+04  0.7818609E-02  0.8162003E-01
       -1   -1    0    0    0  501  0.00000000000E+00  0.00000000000E+00  0.11715507201E+04  0.11715507201E+04  0.50400001928E-02 0.  1.
        1   -1    0    0  501    0  0.00000000000E+00  0.00000000000E+00 -0.23287900432E+04  0.23287900432E+04  0.50400001928E-02 0. -1.
    10030    2    1    2    0    0  0.00000000000E+00  0.00000000000E+00 -0.11572393231E+04  0.35003407633E+04  0.33035106491E+04 0.  0.
        2    1    3    3  502    0  0.59715458048E+03  0.11870396008E+04  0.46098053031E+03  0.14064706382E+04  0.25500000920E-02 0.  1.
       -2    1    3    3    0  502 -0.59715458048E+03 -0.11870396008E+04 -0.16182198534E+04  0.20938701251E+04  0.25500000920E-02 0. -1.
</event>
<event>
 5   0  0.2658600E-06  0.3344377E+04  0.7818609E-02  0.8151695E-01
       -2   -1    0    0    0  501  0.00000000000E+00  0.00000000000E+00  0.12848665150E+04  0.12848665150E+04  0.25500000920E-02 0.  1.
        2   -1    0    0  501    0  0.00000000000E+00  0.00000000000E+00 -0.21762681739E+04  0.21762681739E+04  0.25500000920E-02 0. -1.
    10030    2    1    2    0    0  0.00000000000E+00  0.00000000000E+00 -0.89140165892E+03  0.34611346890E+04  0.33443768355E+04 0.  0.
        5    1    3    3  502    0 -0.26232721222E+03  0.16341695757E+04 -0.19890911590E+03  0.16670071070E+04  0.46999998093E+01 0. -1.
       -5    1    3    3    0  502  0.26232721222E+03 -0.16341695757E+04 -0.69249254302E+03  0.17941275820E+04  0.46999998093E+01 0.  1.
</event>
<event>
 5   0  0.2674551E-06  0.3200237E+04  0.7818609E-02  0.8188755E-01
        2   -1    0    0  501    0  0.00000000000E+00  0.00000000000E+00  0.18853462313E+04  0.18853462313E+04  0.25500000920E-02 0.  1.
       -2   -1    0    0    0  501  0.00000000000E+00  0.00000000000E+00 -0.13580421865E+04  0.13580421865E+04  0.25500000920E-02 0. -1.
    10030    2    1    2    0    0  0.00000000000E+00  0.00000000000E+00  0.52730404473E+03  0.32433884178E+04  0.32002373151E+04 0.  0.
        3    1    3    3  502    0  0.86223197520E+02 -0.15125807116E+04 -0.25811481087E+03  0.15368663295E+04  0.10100000352E+00 0.  1.
       -3    1    3    3    0  502 -0.86223197520E+02  0.15125807116E+04  0.78541885561E+03  0.17065220883E+04  0.10100000352E+00 0. -1.
</event>
<event>
 5   0  0.8845526E-07  0.3321535E+04  0.7818609E-02  0.8157437E-01
       -1   -1    0    0    0  501  0.00000000000E+00  0.00000000000E+00  0.22231102380E+04  0.22231102380E+04  0.50400001928E-02 0. -1.
        1   -1    0    0  501    0  0.00000000000E+00  0.00000000000E+00 -0.12406711487E+04  0.12406711487E+04  0.50400001928E-02 0.  1.
    10030    2    1    2    0    0  0.00000000000E+00  0.00000000000E+00  0.98243908935E+03  0.34637813867E+04  0.33215350262E+04 0.  0.
        1    1    3    3  502    0  0.11946866847E+04 -0.34794951634E+03  0.16382344787E+04  0.20572207825E+04  0.50400001928E-02 0. -1.
       -1    1    3    3    0  502 -0.11946866847E+04  0.34794951634E+03 -0.65579538939E+03  0.14065606042E+04  0.50400001928E-02 0.  1.
</event>
<event>
 5   0  0.2574803E-06  0.3325653E+04  0.7818609E-02  0.8156399E-01
        2   -1    0    0  501    0  0.00000000000E+00  0.00000000000E+00  0.28768235910E+04  0.28768235910E+04  0.25500000920E-02 0.  1.
       -2   -1    0    0    0  501  0.00000000000E+00  0.00000000000E+00 -0.96112650845E+03  0.96112650845E+03  0.25500000920E-02 0. -1.
    10030    2    1    2    0    0  0.00000000000E+00  0.00000000000E+00  0.19156970826E+04  0.38379500995E+04  0.33256526658E+04 0.  0.
        4    1    3    3  502    0 -0.44874291523E+03  0.15595534591E+04  0.13761996716E+04  0.21277933040E+04  0.12699999809E+01 0.  1.
       -4    1    3    3    0  502  0.44874291523E+03 -0.15595534591E+04  0.53949741094E+03  0.17101567954E+04  0.12699999809E+01 0. -1.
</event>
<event>
 5   0  0.2705859E-06  0.3295313E+04  0.7818609E-02  0.8164089E-01
        2   -1    0    0  501    0  0.00000000000E+00  0.00000000000E+00  0.24348089732E+04  0.24348089732E+04  0.25500000920E-02 0. -1.
       -2   -1    0    0    0  501  0.00000000000E+00  0.00000000000E+00 -0.11149837823E+04  0.11149837823E+04  0.25500000920E-02 0.  1.
    10030    2    1    2    0    0  0.00000000000E+00  0.00000000000E+00  0.13198251909E+04  0.35497927555E+04  0.32953133496E+04 0.  0.
        1    1    3    3  502    0 -0.16405617217E+04 -0.13724484148E+03  0.58770150275E+03  0.17480480444E+04  0.50400001928E-02 0. -1.
       -1    1    3    3    0  502  0.16405617217E+04  0.13724484148E+03  0.73212368816E+03  0.18017447111E+04  0.50400001928E-02 0.  1.
</event>
<event>
 5   0  0.2674551E-06  0.3250782E+04  0.7818609E-02  0.8175533E-01
        2   -1    0    0  501    0  0.00000000000E+00  0.00000000000E+00  0.15268526591E+04  0.15268526591E+04  0.25500000920E-02 0.  1.
       -2   -1    0    0    0  501  0.00000000000E+00  0.00000000000E+00 -0.17302886886E+04  0.17302886886E+04  0.25500000920E-02 0. -1.
    10030    2    1    2    0    0  0.00000000000E+00  0.00000000000E+00 -0.20343602947E+03  0.32571413476E+04  0.32507819891E+04 0.  0.
        3    1    3    3  502    0  0.32690862038E+03 -0.14672459309E+04 -0.72116364906E+03  0.16672602936E+04  0.10100000352E+00 0. -1.
       -3    1    3    3    0  502 -0.32690862038E+03  0.14672459309E+04  0.51772761959E+03  0.15898810540E+04  0.10100000352E+00 0.  1.
</event>
<event>
 5   0  0.9530268E-07  0.3172540E+04  0.7818609E-02  0.8196107E-01
       -1   -1    0    0    0  501  0.00000000000E+00  0.00000000000E+00  0.98655485536E+03  0.98655485537E+03  0.50400001928E-02 0. -1.
        1   -1    0    0  501    0  0.00000000000E+00  0.00000000000E+00 -0.25505441600E+04  0.25505441600E+04  0.50400001928E-02 0.  1.
    10030    2    1    2    0    0  0.00000000000E+00  0.00000000000E+00 -0.15639893047E+04  0.35370990154E+04  0.31725395032E+04 0.  0.
        5    1    3    3  502    0 -0.82831110167E+01 -0.14224617723E+04  0.64069437853E+00  0.14224937975E+04  0.46999998093E+01 0. -1.
       -5    1    3    3    0  502  0.82831110167E+01  0.14224617723E+04 -0.15646299990E+04  0.21146052179E+04  0.46999998093E+01 0.  1.
</event>
<event>
 5   0  0.8705956E-07  0.3299721E+04  0.7818609E-02  0.8162966E-01
       -1   -1    0    0    0  501  0.00000000000E+00  0.00000000000E+00  0.13758286347E+04  0.13758286347E+04  0.50400001928E-02 0. -1.
        1   -1    0    0  501    0  0.00000000000E+00  0.00000000000E+00 -0.19784731257E+04  0.19784731257E+04  0.50400001928E-02 0.  1.
    10030    2    1    2    0    0  0.00000000000E+00  0.00000000000E+00 -0.60264449096E+03  0.33543017604E+04  0.32997211878E+04 0.  0.
        2    1    3    3  502    0  0.10892338063E+04 -0.46021101395E+03 -0.14709256355E+04  0.18872855341E+04  0.25500000920E-02 0.  1.
       -2    1    3    3    0  502 -0.10892338063E+04  0.46021101395E+03  0.86828114455E+03  0.14670162263E+04  0.25500000920E-02 0. -1.
</event>
<event>
 5   0  0.9268670E-07  0.3327163E+04  0.7818609E-02  0.8156018E-01
        1   -1    0    0  501    0  0.00000000000E+00  0.00000000000E+00  0.25185352964E+04  0.25185352964E+04  0.50400001928E-02 0.  1.
       -1   -1    0    0    0  501  0.00000000000E+00  0.00000000000E+00 -0.10988541110E+04  0.10988541110E+04  0.50400001928E-02 0. -1.
    10030    2    1    2    0    0  0.00000000000E+00  0.00000000000E+00  0.14196811854E+04  0.36173894075E+04  0.33271626737E+04 0.  0.
        3    1    3    3  502    0 -0.14385889876E+04 -0.18251217243E+03 -0.17653747485E+03  0.14608266354E+04  0.10100000352E+00 0. -1.
       -3    1    3    3    0  502  0.14385889876E+04  0.18251217243E+03  0.15962186602E+04  0.21565627721E+04  0.10100000352E+00 0.  1.
</event>
<event>
 5   0  0.2614212E-06  0.3341073E+04  0.7818609E-02  0.8152522E-01
       -2   -1    0    0    0  501  0.00000000000E+00  0.00000000000E+00  0.15668778506E+04  0.15668778506E+04  0.25500000920E-02 0.  1.
        2   -1    0    0  501    0  0.00000000000E+00  0.00000000000E+00 -0.17810530416E+04  0.17810530416E+04  0.25500000920E-02 0. -1.
    10030    2    1    2    0    0  0.00000000000E+00  0.00000000000E+00 -0.21417519101E+03  0.33479308922E+04  0.33410732178E+04 0.  0.
        2    1    3    3  502    0  0.15658074706E+04 -0.12855722631E+03  0.46189171123E+03  0.16375664714E+04  0.25500000920E-02 0.  1.
       -2    1    3    3    0  502 -0.15658074706E+04  0.12855722631E+03 -0.67606690224E+03  0.17103644208E+04  0.25500000920E-02 0. -1.
</event>
<event>
 5   0  0.2574803E-06  0.3364925E+04  0.7818609E-02  0.8146569E-01
       -2   -1    0    0    0  501  0.00000000000E+00  0.00000000000E+00  0.15563383908E+04  0.15563383908E+04  0.25500000920E-02 0.  1.
        2   -1    0    0  501    0  0.00000000000E+00  0.00000000000E+00 -0.18188075038E+04  0.18188075038E+04  0.25500000920E-02 0. -1.
    10030    2    1    2    0    0  0.00000000000E+00  0.00000000000E+00 -0.26246911299E+03  0.33751458945E+04  0.33649249284E+04 0.  0.
        4    1    3    3  502    0 -0.12168143744E+04  0.11272923464E+04 -0.41360889774E+03  0.17095318626E+04  0.12699999809E+01 0.  1.
       -4    1    3    3    0  502  0.12168143744E+04 -0.11272923464E+04  0.15113978475E+03  0.16656140320E+04  0.12699999809E+01 0. -1.
</event>
<event>
 5   0  0.8705956E-07  0.3284013E+04  0.7818609E-02  0.8166975E-01
        1   -1    0    0  501    0  0.00000000000E+00  0.00000000000E+00  0.24389145887E+04  0.24389145887E+04  0.50400001928E-02 0. -1.
       -1   -1    0    0    0  501  0.00000000000E+00  0.00000000000E+00 -0.11054857676E+04  0.11054857676E+04  0.50400001928E-02 0.  1.
    10030    2    1    2    0    0  0.00000000000E+00  0.00000000000E+00  0.13334288211E+04  0.35444003563E+04  0.32840130123E+04 0.  0.
        2    1    3    3  502    0 -0.10011015611E+04 -0.34182407358E+03  0.20221305681E+04  0.22821174525E+04  0.25500000920E-02 0. -1.
       -2    1    3    3    0  502  0.10011015611E+04  0.34182407358E+03 -0.68870174699E+03  0.12622829038E+04  0.25500000920E-02 0.  1.
</event>
<event>
 5   0  0.9530268E-07  0.3216997E+04  0.7818609E-02  0.8184343E-01
       -1   -1    0    0    0  501  0.00000000000E+00  0.00000000000E+00  0.18380242644E+04  0.18380242644E+04  0.50400001928E-02 0.  1.
        1   -1    0    0  501    0  0.00000000000E+00  0.00000000000E+00 -0.14076349960E+04  0.14076349960E+04  0.50400001928E-02 0. -1.
    10030    2    1    2    0    0  0.00000000000E+00  0.00000000000E+00  0.43038926840E+03  0.32456592604E+04  0.32169969090E+04 0.  0.
        5    1    3    3  502    0  0.48518383994E+02  0.12977342826E+04  0.11727433927E+04  0.17498049768E+04  0.46999998093E+01 0.  1.
       -5    1    3    3    0  502 -0.48518383994E+02 -0.12977342826E+04 -0.74235412433E+03  0.14958542836E+04  0.46999998093E+01 0. -1.
</event>
<event>
 5   0  0.8705956E-07  0.3361548E+04  0.7818609E-02  0.8147409E-01
       -1   -1    0    0    0  501  0.00000000000E+00  0.00000000000E+00  0.12107006075E+04  0.12107006075E+04  0.50400001928E-02 0. -1.
        1   -1    0    0  501    0  0.00000000000E+00  0.00000000000E+00 -0.23333605643E+04  0.23333605643E+04  0.50400001928E-02 0.  1.
    10030    2    1    2    0    0  0.00000000000E+00  0.00000000000E+00 -0.11226599568E+04  0.35440611718E+04  0.33615478891E+04 0.  0.
        2    1    3    3  502    0  0.36197422672E+03  0.13474212197E+04  0.42680420516E+03  0.14590171739E+04  0.25500000920E-02 0. -1.
       -2    1    3    3    0  502 -0.36197422672E+03 -0.13474212197E+04 -0.15494641620E+04  0.20850439979E+04  0.25500000920E-02 0.  1.
</event>
<event>
 5   0  0.2614212E-06  0.3209938E+04  0.7818609E-02  0.8186198E-01
        2   -1    0    0  501    0  0.00000000000E+00  0.00000000000E+00  0.21018878045E+04  0.21018878045E+04  0.25500000920E-02 0. -1.
       -2   -1    0    0    0  501  0.00000000000E+00  0.00000000000E+00 -0.12255294334E+04  0.12255294334E+04  0.25500000920E-02 0.  1.
    10030    2    1    2    0    0  0.00000000000E+00  0.00000000000E+00  0.87635837106E+03  0.33274172379E+04  0.32099379247E+04 0.  0.
        2    1    3    3  502    0  0.18722478802E+03 -0.68562887283E+03 -0.10535093939E+04  0.12708352039E+04  0.25500000920E-02 0.  1.
       -2    1    3    3    0  502 -0.18722478802E+03  0.68562887283E+03  0.19298677649E+04  0.20565820340E+04  0.25500000920E-02 0. -1.
</event>
<event>
 5   0  0.2674551E-06  0.3325978E+04  0.7818609E-02  0.8156317E-01
        2   -1    0    0  501    0  0.00000000000E+00  0.00000000000E+00  0.21375576707E+04  0.21375576707E+04  0.25500000920E-02 0. -1.
       -2   -1    0    0    0  501  0.00000000000E+00  0.00000000000E+00 -0.12937811501E+04  0.12937811501E+04  0.25500000920E-02 0.  1.
    10030    2    1    2    0    0  0.00000000000E+00  0.00000000000E+00  0.84377652067E+03  0.34313388208E+04  0.33259776437E+04 0.  0.
        3    1    3    3  502    0 -0.77178643636E+03 -0.13267670877E+04 -0.23835890608E+03  0.15533126494E+04  0.10100000352E+00 0.  1.
       -3    1    3    3    0  502  0.77178643636E+03  0.13267670877E+04  0.10821354267E+04  0.18780261714E+04  0.10100000352E+00 0. -1.
</event>
<event>
 5   0  0.2614212E-06  0.3321871E+04  0.7818609E-02  0.8157352E-01
       -2   -1    0    0    0  501  0.00000000000E+00  0.00000000000E+00  0.11743434959E+04  0.11743434959E+04  0.25500000920E-02 0. -1.
        2   -1    0    0  501    0  0.00000000000E+00  0.00000000000E+00 -0.23491484234E+04  0.23491484234E+04  0.25500000920E-02 0.  1.
    10030    2    1    2    0    0  0.00000000000E+00  0.00000000000E+00 -0.11748049275E+04  0.35234919194E+04  0.33218712630E+04 0.  0.
        2    1    3    3  502    0  0.66488163942E+03 -0.13428410604E+04 -0.13474238286E+04  0.20151527689E+04  0.25500000920E-02 0. -1.
       -2    1    3    3    0  502 -0.66488163942E+03  0.13428410604E+04  0.17261890107E+03  0.15083391505E+04  0.25500000920E-02 0.  1.
</event>
<event>
 5   0  0.9268670E-07  0.3306027E+04  0.7818609E-02  0.8161364E-01
        1   -1    0    0  501    0  0.00000000000E+00  0.00000000000E+00  0.96648282750E+03  0.96648282751E+03  0.50400001928E-02 0.  1.
       -1   -1    0    0    0  501  0.00000000000E+00  0.00000000000E+00 -0.28272131722E+04  0.28272131722E+04  0.50400001928E-02 0. -1.
    10030    2    1    2    0    0  0.00000000000E+00  0.00000000000E+00 -0.18607303447E+04  0.37936959997E+04  0.33060266065E+04 0.  0.
        3    1    3    3  502    0  0.94076497729E+03 -0.83019972344E+03  0.30457156131E+03  0.12911367741E+04  0.10100000352E+00 0.  1.
       -3    1    3    3    0  502 -0.94076497729E+03  0.83019972344E+03 -0.21653019060E+04  0.25025592256E+04  0.10100000352E+00 0. -1.
</event>
<event>
 5   0  0.9530268E-07  0.3306852E+04  0.7818609E-02  0.8161154E-01
       -1   -1    0    0    0  501  0.00000000000E+00  0.00000000000E+00  0.18671975720E+04  0.18671975720E+04  0.50400001928E-02 0.  1.
        1   -1    0    0  501    0  0.00000000000E+00  0.00000000000E+00 -0.14641287274E+04  0.14641287274E+04  0.50400001928E-02 0. -1.
    10030    2    1    2    0    0  0.00000000000E+00  0.00000000000E+00  0.40306884458E+03  0.33313262994E+04  0.33068520408E+04 0.  0.
        5    1    3    3  502    0  0.15618871908E+04  0.18295127892E+03  0.71603215819E+03  0.17279140340E+04  0.46999998093E+01 0.  1.
       -5    1    3    3    0  502 -0.15618871908E+04 -0.18295127892E+03 -0.31296331361E+03  0.16034122654E+04  0.46999998093E+01 0. -1.
</event>
<event>
 5   0  0.2658600E-06  0.3317717E+04  0.7818609E-02  0.8158402E-01
        2   -1    0    0  501    0  0.00000000000E+00  0.00000000000E+00  0.12255619595E+04  0.12255619595E+04  0.25500000920E-02 0.  1.
       -2   -1    0    0    0  501  0.00000000000E+00  0.00000000000E+00 -0.22453461623E+04  0.22453461623E+04  0.25500000920E-02 0. -1.
    10030    2    1    2    0    0  0.00000000000E+00  0.00000000000E+00 -0.10197842028E+04  0.34709081217E+04  0.33177165897E+04 0.  0.
        5    1    3    3  502    0 -0.13847587826E+04  0.54304149381E+03 -0.12781981704E+04  0.19611893338E+04  0.46999998093E+01 0. -1.
       -5    1    3    3    0  502  0.13847587826E+04 -0.54304149381E+03  0.25841396761E+03  0.15097187880E+04  0.46999998093E+01 0.  1.
</event>
<event>
 5   0  0.9530268E-07  0.3305679E+04  0.7818609E-02  0.8161452E-01
       -1   -1    0    0    0  501  0.00000000000E+00  0.00000000000E+00  0.12982743669E+04  0.12982743669E+04  0.50400001928E-02 0. -1.
        1   -1    0    0  501    0  0.00000000000E+00  0.00000000000E+00 -0.21042380147E+04  0.21042380147E+04  0.50400001928E-02 0.  1.
    10030    2    1    2    0    0  0.00000000000E+00  0.00000000000E+00 -0.80596364777E+03  0.34025123816E+04  0.33056789175E+04 0.  0.
        5    1    3    3  502    0  0.24245157988E+03  0.11282938621E+04 -0.16208692747E+04  0.19897409639E+04  0.46999998093E+01 0.  1.
       -5    1    3    3    0  502 -0.24245157988E+03 -0.11282938621E+04  0.81490562694E+03  0.14127714177E+04  0.46999998093E+01 0. -1.
</event>
<event>
 5   0  0.8705956E-07  0.3292281E+04  0.7818609E-02  0.8164862E-01
       -1   -1    0    0    0  501  0.00000000000E+00  0.00000000000E+00  0.10540069263E+04  0.10540069263E+04  0.50400001928E-02 0. -1.
        1   -1    0    0  501    0  0.00000000000E+00  0.00000000000E+00 -0.25709312206E+04  0.25709312206E+04  0.50400001928E-02 0.  1.
    10030    2    1    2    0    0  0.00000000000E+00  0.00000000000E+00 -0.15169242943E+04  0.36249381468E+04  0.32922814664E+04 0.  0.
        2    1    3    3  502    0 -0.11590162440E+04  0.11073722877E+04 -0.11707095629E+04  0.19849818432E+04  0.25500000920E-02 0.  1.
       -2    1    3    3    0  502  0.11590162440E+04 -0.11073722877E+04 -0.34621473147E+03  0.16399563036E+04  0.25500000920E-02 0. -1.
</event>
<event>
 5   0  0.2658600E-06  0.3258445E+04  0.7818609E-02  0.8173550E-01
       -2   -1    0    0    0  501  0.00000000000E+00  0.00000000000E+00  0.11234030907E+04  0.11234030907E+04  0.25500000920E-02 0. -1.
        2   -1    0    0  501    0  0.00000000000E+00  0.00000000000E+00 -0.23627899440E+04  0.23627899440E+04  0.25500000920E-02 0.  1.
    10030    2    1    2    0    0  0.00000000000E+00  0.00000000000E+00 -0.12393868533E+04  0.34861930347E+04  0.32584447368E+04 0.  0.
        5    1    3    3  502    0  0.12001890891E+04 -0.10809980932E+03 -0.17927802551E+04  0.21601441043E+04  0.46999998093E+01 0.  1.
       -5    1    3    3    0  502 -0.12001890891E+04  0.10809980932E+03  0.55339340180E+03  0.13260489303E+04  0.46999998093E+01 0. -1.
</event>
<event>
 5   0  0.8845526E-07  0.3294590E+04  0.7818609E-02  0.8164273E-01
       -1   -1    0    0    0  501  0.00000000000E+00  0.00000000000E+00  0.10007971720E+04  0.10007971720E+04  0.50400001928E-02 0.  1.
        1   -1    0    0  501    0  0.00000000000E+00  0.00000000000E+00 -0.27114200776E+04  0.27114200776E+04  0.50400001928E-02 0. -1.
    10030    2    1    2    0    0  0.00000000000E+00  0.00000000000E+00 -0.17106229056E+04  0.37122172496E+04  0.32945904424E+04 0.  0.
        1    1    3    3  502    0 -0.33086773162E+03 -0.35540343193E+03 -0.26289485628E+04  0.26734164661E+04  0.50400001928E-02 0. -1.
       -1    1    3    3    0  502  0.33086773162E+03  0.35540343193E+03  0.91832565720E+03  0.10388007836E+04  0.50400001928E-02 0.  1.
</event>
<event>
 5   0  0.2674551E-06  0.3286222E+04  0.7818609E-02  0.8166410E-01
       -2   -1    0    0    0  501  0.00000000000E+00  0.00000000000E+00  0.10222136817E+04  0.10222136817E+04  0.25500000920E-02 0. -1.
        2   -1    0    0  501    0  0.00000000000E+00  0.00000000000E+00 -0.26411439264E+04  0.26411439264E+04  0.25500000920E-02 0.  1.
    10030    2    1    2    0    0  0.00000000000E+00  0.00000000000E+00 -0.16189302448E+04  0.36633576081E+04  0.32862218165E+04 0.  0.
        3    1    3    3  502    0  0.15656124526E+04  0.46322665512E+03 -0.10152956118E+04  0.19226404956E+04  0.10100000352E+00 0.  1.
       -3    1    3    3    0  502 -0.15656124526E+04 -0.46322665512E+03 -0.60363463295E+03  0.17407171125E+04  0.10100000352E+00 0. -1.
</event>
<event>
 5   0  0.2705859E-06  0.3243952E+04  0.7818609E-02  0.8177305E-01
        2   -1    0    0  501    0  0.00000000000E+00  0.00000000000E+00  0.22968665230E+04  0.22968665230E+04  0.25500000920E-02 0.  1.
       -2   -1    0    0    0  501  0.00000000000E+00  0.00000000000E+00 -0.11453891387E+04  0.11453891387E+04  0.25500000920E-02 0. -1.
    10030    2    1    2    0    0  0.00000000000E+00  0.00000000000E+00  0.11514773842E+04  0.34422556617E+04  0.32439518915E+04 0.  0.
        1    1    3    3  502    0  0.15693616492E+04 -0.40856403736E+03  0.54242849620E+03  0.17099851555E+04  0.50400001928E-02 0.  1.
       -1    1    3    3    0  502 -0.15693616492E+04  0.40856403736E+03  0.60904888804E+03  0.17322705062E+04  0.50400001928E-02 0. -1.
</event>
<event>
 5   0  0.2674551E-06  0.3253108E+04  0.7818609E-02  0.8174931E-01
       -2   -1    0    0    0  501  0.00000000000E+00  0.00000000000E+00  0.11062205033E+04  0.11062205033E+04  0.25500000920E-02 0. -1.
        2   -1    0    0  501    0  0.00000000000E+00  0.00000000000E+00 -0.23916366726E+04  0.23916366726E+04  0.25500000920E-02 0.  1.
    10030    2    1    2    0    0  0.00000000000E+00  0.00000000000E+00 -0.12854161693E+04  0.34978571759E+04  0.32531077594E+04 0.  0.
        3    1    3    3  502    0 -0.88572095904E+03 -0.70403228566E+03 -0.18991770641E+04  0.22106642910E+04  0.10100000352E+00 0.  1.
       -3    1    3    3    0  502  0.88572095904E+03  0.70403228566E+03  0.61376089483E+03  0.12871928848E+04  0.10100000352E+00 0. -1.
</event>
<event>
 5   0  0.8705956E-07  0.3305114E+04  0.7818609E-02  0.8161595E-01
       -1   -1    0    0    0  501  0.00000000000E+00  0.00000000000E+00  0.15883600816E+04  0.15883600816E+04  0.50400001928E-02 0.  1.
        1   -1    0    0  501    0  0.00000000000E+00  0.00000000000E+00 -0.17193483534E+04  0.17193483534E+04  0.50400001928E-02 0. -1.
    10030    2    1    2    0    0  0.00000000000E+00  0.00000000000E+00 -0.13098827173E+03  0.33077084350E+04  0.33051137898E+04 0.  0.
        2    1    3    3  502    0  0.24462473342E+03 -0.79903644407E+03  0.13613332735E+04  0.15973505504E+04  0.25500000920E-02 0.  1.
       -2    1    3    3    0  502 -0.24462473342E+03  0.79903644407E+03 -0.14923215453E+04  0.17103578847E+04  0.25500000920E-02 0. -1.
</event>
<event>
 5   0  0.2574803E-06  0.3526827E+04  0.7818609E-02  0.8107462E-01
        2   -1    0    0  501    0  0.00000000000E+00  0.00000000000E+00  0.17834206579E+04  0.17834206579E+04  0.25500000920E-02 0.  1.
       -2   -1    0    0    0  501  0.00000000000E+00  0.00000000000E+00 -0.17436309306E+04  0.17436309306E+04  0.25500000920E-02 0. -1.
    10030    2    1    2    0    0  0.00000000000E+00  0.00000000000E+00  0.39789727331E+02  0.35270515885E+04  0.35268271414E+04 0.  0.
        4    1    3    3  502    0 -0.12029573906E+04  0.78009852561E+03  0.10465884733E+04  0.17751082329E+04  0.12699999809E+01 0.  1.
       -4    1    3    3    0  502  0.12029573906E+04 -0.78009852561E+03 -0.10067987460E+04  0.17519433556E+04  0.12699999809E+01 0. -1.
</event>
<event>
 5   0  0.9530268E-07  0.3326870E+04  0.7818609E-02  0.8156092E-01
        1   -1    0    0  501    0  0.00000000000E+00  0.00000000000E+00  0.22097592286E+04  0.22097592286E+04  0.50400001928E-02 0. -1.
       -1   -1    0    0    0  501  0.00000000000E+00  0.00000000000E+00 -0.12521799014E+04  0.12521799014E+04  0.50400001928E-02 0.  1.
    10030    2    1    2    0    0  0.00000000000E+00  0.00000000000E+00  0.95757932713E+03  0.34619391300E+04  0.33268700564E+04 0.  0.
        5    1    3    3  502    0  0.36660384476E+03  0.68752540410E+03 -0.10505391052E+04  0.13079541513E+04  0.46999998093E+01 0.  1.
       -5    1    3    3    0  502 -0.36660384476E+03 -0.68752540410E+03  0.20081184324E+04  0.21539849787E+04  0.46999998093E+01 0. -1.
</event>
<event>
 5   0  0.8705956E-07  0.3226656E+04  0.7818609E-02  0.8181813E-01
       -1   -1    0    0    0  501  0.00000000000E+00  0.00000000000E+00  0.15581030303E+04  0.15581030303E+04  0.50400001928E-02 0.  1.
        1   -1    0    0  501    0  0.00000000000E+00  0.00000000000E+00 -0.16705104775E+04  0.16705104775E+04  0.50400001928E-02 0. -1.
    10030    2    1    2    0    0  0.00000000000E+00  0.00000000000E+00 -0.11240744719E+03  0.32286135078E+04  0.32266561250E+04 0.  0.
        2    1    3    3  502    0 -0.94832434066E+03 -0.59784045399E+03  0.11047135127E+04  0.15738882453E+04  0.25500000920E-02 0.  1.
       -2    1    3    3    0  502  0.94832434066E+03  0.59784045399E+03 -0.12171209599E+04  0.16547252625E+04  0.25500000920E-02 0. -1.
</event>
<event>
 5   0  0.8705956E-07  0.3315322E+04  0.7818609E-02  0.8159008E-01
        1   -1    0    0  501    0  0.00000000000E+00  0.00000000000E+00  0.18626871112E+04  0.18626871112E+04  0.50400001928E-02 0.  1.
       -1   -1    0    0    0  501  0.00000000000E+00  0.00000000000E+00 -0.14752020604E+04  0.14752020604E+04  0.50400001928E-02 0. -1.
    10030    2    1    2    0    0  0.00000000000E+00  0.00000000000E+00  0.38748505080E+03  0.33378891716E+04  0.33153219236E+04 0.  0.
        2    1    3    3  502    0  0.11419729545E+04 -0.11665597269E+04  0.48358411325E+03  0.17025913837E+04  0.25500000920E-02 0. -1.
       -2    1    3    3    0  502 -0.11419729545E+04  0.11665597269E+04 -0.96099062445E+02  0.16352977879E+04  0.25500000920E-02 0.  1.
</event>
<event>
 5   0  0.9268670E-07  0.3273581E+04  0.7818609E-02  0.8169650E-01
       -1   -1    0    0    0  501  0.00000000000E+00  0.00000000000E+00  0.11518212137E+04  0.11518212137E+04  0.50400001928E-02 0.  1.
        1   -1    0    0  501    0  0.00000000000E+00  0.00000000000E+00 -0.23259543880E+04  0.23259543880E+04  0.50400001928E-02 0. -1.
    10030    2    1    2    0    0  0.00000000000E+00  0.00000000000E+00 -0.11741331743E+04  0.34777756017E+04  0.32735812843E+04 0.  0.
        3    1    3    3  502    0 -0.65652849595E+03 -0.10349010728E+04 -0.17396513553E+04  0.21280123930E+04  0.10100000352E+00 0. -1.
       -3    1    3    3    0  502  0.65652849595E+03  0.10349010728E+04  0.56551818101E+03  0.13497632088E+04  0.10100000352E+00 0.  1.
</event>
<event>
 5   0  0.9530268E-07  0.3457550E+04  0.7818609E-02  0.8123924E-01
       -1   -1    0    0    0  501  0.00000000000E+00  0.00000000000E+00  0.16181144984E+04  0.16181144984E+04  0.50400001928E-02 0. -1.
        1   -1    0    0  501    0  0.00000000000E+00  0.00000000000E+00 -0.18470029965E+04  0.18470029966E+04  0.50400001928E-02 0.  1.
    10030    2    1    2    0    0  0.00000000000E+00  0.00000000000E+00 -0.22888849818E+03  0.34651174949E+04  0.34575496105E+04 0.  0.
        5    1    3    3  502    0 -0.17230479591E+04  0.80043908461E+01  0.26155008993E+02  0.17232714569E+04  0.46999998093E+01 0. -1.
       -5    1    3    3    0  502  0.17230479591E+04 -0.80043908461E+01 -0.25504350717E+03  0.17418460380E+04  0.46999998093E+01 0.  1.
</event>
<event>
 5   0  0.2658600E-06  0.3345559E+04  0.7818609E-02  0.8151399E-01
        2   -1    0    0  501    0  0.00000000000E+00  0.00000000000E+00  0.16965665919E+04  0.16965665920E+04  0.25500000920E-02 0.  1.
       -2   -1    0    0    0  501  0.00000000000E+00  0.00000000000E+00 -0.16493263461E+04  0.16493263461E+04  0.25500000920E-02 0. -1.
    10030    2    1    2    0    0  0.00000000000E+00  0.00000000000E+00  0.47240245881E+02  0.33458929380E+04  0.33455594318E+04 0.  0.
        5    1    3    3  502    0 -0.51411524021E+01 -0.16164679113E+04 -0.40674236248E+03  0.16668702347E+04  0.46999998093E+01 0. -1.
       -5    1    3    3    0  502  0.51411524021E+01  0.16164679113E+04  0.45398260836E+03  0.16790227034E+04  0.46999998093E+01 0.  1.
</event>
<event>
 5   0  0.8845526E-07  0.3327050E+04  0.7818609E-02  0.8156046E-01
        1   -1    0    0  501    0  0.00000000000E+00  0.00000000000E+00  0.19113749543E+04  0.19113749544E+04  0.50400001928E-02 0. -1.
       -1   -1    0    0    0  501  0.00000000000E+00  0.00000000000E+00 -0.14478143485E+04  0.14478143485E+04  0.50400001928E-02 0.  1.
    10030    2    1    2    0    0  0.00000000000E+00  0.00000000000E+00  0.46356060588E+03  0.33591893028E+04  0.33270503959E+04 0.  0.
        1    1    3    3  502    0  0.93184939730E+03  0.13754555634E+04  0.31682446482E+03  0.16913305554E+04  0.50400001928E-02 0. -1.
       -1    1    3    3    0  502 -0.93184939730E+03 -0.13754555634E+04  0.14673614107E+03  0.16678587474E+04  0.50400001928E-02 0.  1.
</event>
<event>
 5   0  0.9530268E-07  0.3310293E+04  0.7818609E-02  0.8160281E-01
        1   -1    0    0  501    0  0.00000000000E+00  0.00000000000E+00  0.19843512905E+04  0.19843512906E+04  0.50400001928E-02 0.  1.
       -1   -1    0    0    0  501  0.00000000000E+00  0.00000000000E+00 -0.13805571420E+04  0.13805571420E+04  0.50400001928E-02 0. -1.
    10030    2    1    2    0    0  0.00000000000E+00  0.00000000000E+00  0.60379414857E+03  0.33649084325E+04  0.33102932477E+04 0.  0.
        5    1    3    3  502    0 -0.64736119722E+03  0.15004171375E+04  0.34575046951E+02  0.16344863505E+04  0.46999998093E+01 0. -1.
       -5    1    3    3    0  502  0.64736119722E+03 -0.15004171375E+04  0.56921910162E+03  0.17304220820E+04  0.46999998093E+01 0.  1.
</event>
<event>
 5   0  0.9295663E-07  0.2904564E+04  0.7818609E-02  0.8271521E-01
        1   -1    0    0  501    0  0.00000000000E+00  0.00000000000E+00  0.25898338510E+04  0.25898338510E+04  0.50400001928E-02 0. -1.
       -1   -1    0    0    0  501  0.00000000000E+00  0.00000000000E+00 -0.81438553287E+03  0.81438553289E+03  0.50400001928E-02 0.  1.
    10030    2    1    2    0    0  0.00000000000E+00  0.00000000000E+00  0.17754483181E+04  0.34042193839E+04  0.29045641469E+04 0.  0.
        4    1    3    3  502    0 -0.95971787584E+03 -0.10470319193E+04  0.12428056405E+04  0.18873001124E+04  0.12699999809E+01 0. -1.
       -4    1    3    3    0  502  0.95971787584E+03  0.10470319193E+04  0.53264267766E+03  0.15169192715E+04  0.12699999809E+01 0.  1.
</event>
<event>
 5   0  0.8705956E-07  0.2617601E+04  0.7818609E-02  0.8362247E-01
       -1   -1    0    0    0  501  0.00000000000E+00  0.00000000000E+00  0.93916536977E+03  0.93916536978E+03  0.50400001928E-02 0.  1.
        1   -1    0    0  501    0  0.00000000000E+00  0.00000000000E+00 -0.18239157596E+04  0.18239157596E+04  0.50400001928E-02 0. -1.
    10030    2    1    2    0    0  0.00000000000E+00  0.00000000000E+00 -0.88475038982E+03  0.27630811294E+04  0.26176008243E+04 0.  0.
        2    1    3    3  502    0  0.51899912389E+03 -0.84594266172E+03  0.45826178583E+03  0.10931527532E+04  0.25500000920E-02 0.  1.
       -2    1    3    3    0  502 -0.51899912389E+03  0.84594266172E+03 -0.13430121757E+04  0.16699283762E+04  0.25500000920E-02 0. -1.
</event>
<event>
 5   0  0.2614212E-06  0.3410706E+04  0.7818609E-02  0.8135284E-01
       -2   -1    0    0    0  501  0.00000000000E+00  0.00000000000E+00  0.13072228753E+04  0.13072228753E+04  0.25500000920E-02 0.  1.
        2   -1    0    0  501    0  0.00000000000E+00  0.00000000000E+00 -0.22247381087E+04  0.22247381087E+04  0.25500000920E-02 0. -1.
    10030    2    1    2    0    0  0.00000000000E+00  0.00000000000E+00 -0.91751523342E+03  0.35319609840E+04  0.34107058197E+04 0.  0.
        2    1    3    3  502    0 -0.27484658001E+03  0.25409063012E+03  0.12641601569E+04  0.13184094938E+04  0.25500000920E-02 0.  1.
       -2    1    3    3    0  502  0.27484658001E+03 -0.25409063012E+03 -0.21816753903E+04  0.22135514902E+04  0.25500000920E-02 0. -1.
</event>
<event>
 5   0  0.2674551E-06  0.3474950E+04  0.7818609E-02  0.8119752E-01
       -2   -1    0    0    0  501  0.00000000000E+00  0.00000000000E+00  0.10435656669E+04  0.10435656669E+04  0.25500000920E-02 0.  1.
        2   -1    0    0  501    0  0.00000000000E+00  0.00000000000E+00 -0.28927924269E+04  0.28927924269E+04  0.25500000920E-02 0. -1.
    10030    2    1    2    0    0  0.00000000000E+00  0.00000000000E+00 -0.18492267600E+04  0.39363580938E+04  0.34749497022E+04 0.  0.
        3    1    3    3  502    0 -0.12797108452E+04 -0.11747954006E+04 -0.96069859659E+03  0.19851312008E+04  0.10100000352E+00 0.  1.
       -3    1    3    3    0  502  0.12797108452E+04  0.11747954006E+04 -0.88852816341E+03  0.19512268930E+04  0.10100000352E+00 0. -1.
</event>
<event>
 5   0  0.2574803E-06  0.3319350E+04  0.7818609E-02  0.8157989E-01
       -2   -1    0    0    0  501  0.00000000000E+00  0.00000000000E+00  0.10320897491E+04  0.10320897491E+04  0.25500000920E-02 0. -1.
        2   -1    0    0  501    0  0.00000000000E+00  0.00000000000E+00 -0.26688768812E+04  0.26688768812E+04  0.25500000920E-02 0.  1.
    10030    2    1    2    0    0  0.00000000000E+00  0.00000000000E+00 -0.16367871321E+04  0.37009666303E+04  0.33193496174E+04 0.  0.
        4    1    3    3  502    0  0.13505937366E+04  0.18778960011E+03  0.23650377233E+03  0.13839450937E+04  0.12699999809E+01 0. -1.
       -4    1    3    3    0  502 -0.13505937366E+04 -0.18778960011E+03 -0.18732909045E+04  0.23170215365E+04  0.12699999809E+01 0.  1.
</event>
<event>
 5   0  0.9530268E-07  0.3360284E+04  0.7818609E-02  0.8147723E-01
        1   -1    0    0  501    0  0.00000000000E+00  0.00000000000E+00  0.17813908841E+04  0.17813908841E+04  0.50400001928E-02 0. -1.
       -1   -1    0    0    0  501  0.00000000000E+00  0.00000000000E+00 -0.15846476662E+04  0.15846476662E+04  0.50400001928E-02 0.  1.
    10030    2    1    2    0    0  0.00000000000E+00  0.00000000000E+00  0.19674321797E+03  0.33660385503E+04  0.33602838613E+04 0.  0.
        5    1    3    3  502    0  0.97285547896E+02  0.12770560684E+04  0.11876704078E+04  0.17466882284E+04  0.46999998093E+01 0. -1.
       -5    1    3    3    0  502 -0.97285547896E+02 -0.12770560684E+04 -0.99092718980E+03  0.16193503219E+04  0.46999998093E+01 0.  1.
</event>
<event>
 5   0  0.2705859E-06  0.3194434E+04  0.7818609E-02  0.8190289E-01
        2   -1    0    0  501    0  0.00000000000E+00  0.00000000000E+00  0.15257875526E+04  0.15257875526E+04  0.25500000920E-02 0. -1.
       -2   -1    0    0    0  501  0.00000000000E+00  0.00000000000E+00 -0.16719902295E+04  0.16719902295E+04  0.25500000920E-02 0.  1.
    10030    2    1    2    0    0  0.00000000000E+00  0.00000000000E+00 -0.14620267686E+03  0.31977777821E+04  0.31944338341E+04 0.  0.
        1    1    3    3  502    0 -0.14413913884E+04 -0.13720173080E+02 -0.76179280464E+03  0.16303759245E+04  0.50400001928E-02 0.  1.
       -1    1    3    3    0  502  0.14413913884E+04  0.13720173080E+02  0.61559012778E+03  0.15674018576E+04  0.50400001928E-02 0. -1.
</event>
<event>
 5   0  0.2658600E-06  0.3396245E+04  0.7818609E-02  0.8138829E-01
       -2   -1    0    0    0  501  0.00000000000E+00  0.00000000000E+00  0.12980420231E+04  0.12980420231E+04  0.25500000920E-02 0. -1.
        2   -1    0    0  501    0  0.00000000000E+00  0.00000000000E+00 -0.22215145474E+04  0.22215145474E+04  0.25500000920E-02 0.  1.
    10030    2    1    2    0    0  0.00000000000E+00  0.00000000000E+00 -0.92347252423E+03  0.35195565705E+04  0.33962445362E+04 0.  0.
        5    1    3    3  502    0 -0.12406581811E+04 -0.92141941316E+03 -0.11911020422E+04  0.19511516144E+04  0.46999998093E+01 0. -1.
       -5    1    3    3    0  502  0.12406581811E+04  0.92141941316E+03  0.26762951799E+03  0.15684049561E+04  0.46999998093E+01 0.  1.
</event>
<event>
 5   0  0.9295663E-07  0.3309300E+04  0.7818609E-02  0.8160533E-01
       -1   -1    0    0    0  501  0.00000000000E+00  0.00000000000E+00  0.14091733842E+04  0.14091733842E+04  0.50400001928E-02 0. -1.
        1   -1    0    0  501    0  0.00000000000E+00  0.00000000000E+00 -0.19428885236E+04  0.19428885236E+04  0.50400001928E-02 0.  1.
    10030    2    1    2    0    0  0.00000000000E+00  0.00000000000E+00 -0.53371513938E+03  0.33520619078E+04  0.33093001048E+04 0.  0.
        4    1    3    3  502    0 -0.68116010779E+03  0.12491527633E+03 -0.17890339884E+04  0.19183918117E+04  0.12699999809E+01 0.  1.
       -4    1    3    3    0  502  0.68116010779E+03 -0.12491527633E+03  0.12553188490E+04  0.14336700961E+04  0.12699999809E+01 0. -1.
</event>
<event>
 5   0  0.8705956E-07  0.3234378E+04  0.7818609E-02  0.8179797E-01
        1   -1    0    0  501    0  0.00000000000E+00  0.00000000000E+00  0.24769784251E+04  0.24769784251E+04  0.50400001928E-02 0.  1.
       -1   -1    0    0    0  501  0.00000000000E+00  0.00000000000E+00 -0.10558431611E+04  0.10558431611E+04  0.50400001928E-02 0. -1.
    10030    2    1    2    0    0  0.00000000000E+00  0.00000000000E+00  0.14211352640E+04  0.35328215862E+04  0.32343782898E+04 0.  0.
        2    1    3    3  502    0 -0.16440947106E+03 -0.47947541436E+03 -0.96683450861E+03  0.10916483473E+04  0.25500000920E-02 0. -1.
       -2    1    3    3    0  502  0.16440947106E+03  0.47947541436E+03  0.23879697727E+04  0.24411732389E+04  0.25500000920E-02 0.  1.
</event>
<event>
 5   0  0.8705956E-07  0.3145833E+04  0.7818609E-02  0.8203271E-01
       -1   -1    0    0    0  501  0.00000000000E+00  0.00000000000E+00  0.19741501127E+04  0.19741501128E+04  0.50400001928E-02 0. -1.
        1   -1    0    0  501    0  0.00000000000E+00  0.00000000000E+00 -0.12532311407E+04  0.12532311407E+04  0.50400001928E-02 0.  1.
    10030    2    1    2    0    0  0.00000000000E+00  0.00000000000E+00  0.72091897206E+03  0.32273812535E+04  0.31458330520E+04 0.  0.
        2    1    3    3  502    0  0.79105106342E+03 -0.12020691860E+04  0.10120086187E+04  0.17592309562E+04  0.25500000920E-02 0. -1.
       -2    1    3    3    0  502 -0.79105106342E+03  0.12020691860E+04 -0.29108964663E+03  0.14681502973E+04  0.25500000920E-02 0.  1.
</event>
<event>
 5   0  0.9530268E-07  0.3278265E+04  0.7818609E-02  0.8168448E-01
       -1   -1    0    0    0  501  0.00000000000E+00  0.00000000000E+00  0.17151144622E+04  0.17151144622E+04  0.50400001928E-02 0.  1.
        1   -1    0    0  501    0  0.00000000000E+00  0.00000000000E+00 -0.15665162287E+04  0.15665162287E+04  0.50400001928E-02 0. -1.
    10030    2    1    2    0    0  0.00000000000E+00  0.00000000000E+00  0.14859823343E+03  0.32816306909E+04  0.32782645647E+04 0.  0.
        5    1    3    3  502    0  0.34784615582E+03  0.13884931983E+04  0.87375689857E+03  0.16770162545E+04  0.46999998093E+01 0. -1.
       -5    1    3    3    0  502 -0.34784615582E+03 -0.13884931983E+04 -0.72515866513E+03  0.16046144364E+04  0.46999998093E+01 0.  1.
</event>
<event>
 5   0  0.8705956E-07  0.3307790E+04  0.7818609E-02  0.8160916E-01
       -1   -1    0    0    0  501  0.00000000000E+00  0.00000000000E+00  0.28218134027E+04  0.28218134027E+04  0.50400001928E-02 0. -1.
        1   -1    0    0  501    0  0.00000000000E+00  0.00000000000E+00 -0.96936577032E+03  0.96936577034E+03  0.50400001928E-02 0.  1.
    10030    2    1    2    0    0  0.00000000000E+00  0.00000000000E+00  0.18524476324E+04  0.37911791730E+04  0.33077903941E+04 0.  0.
        2    1    3    3  502    0  0.14261730889E+04  0.81839758914E+03  0.72240146985E+03  0.17959978221E+04  0.25500000920E-02 0. -1.
       -2    1    3    3    0  502 -0.14261730889E+04 -0.81839758914E+03  0.11300461625E+04  0.19951813509E+04  0.25500000920E-02 0.  1.
</event>
<event>
 5   0  0.2614212E-06  0.3235131E+04  0.7818609E-02  0.8179600E-01
        2   -1    0    0  501    0  0.00000000000E+00  0.00000000000E+00  0.20960807818E+04  0.20960807818E+04  0.25500000920E-02 0. -1.
       -2   -1    0    0    0  501  0.00000000000E+00  0.00000000000E+00 -0.12482903938E+04  0.12482903938E+04  0.25500000920E-02 0.  1.
    10030    2    1    2    0    0  0.00000000000E+00  0.00000000000E+00  0.84779038808E+03  0.33443711756E+04  0.32351306029E+04 0.  0.
        2    1    3    3  502    0 -0.56907430081E+01 -0.15729237308E+04  0.81399131836E+03  0.17710740566E+04  0.25500000920E-02 0. -1.
       -2    1    3    3    0  502  0.56907430081E+01  0.15729237308E+04  0.33799069721E+02  0.15732971190E+04  0.25500000920E-02 0.  1.
</event>
<event>
 5   0  0.2614212E-06  0.3326102E+04  0.7818609E-02  0.8156285E-01
       -2   -1    0    0    0  501  0.00000000000E+00  0.00000000000E+00  0.14800271402E+04  0.14800271402E+04  0.25500000920E-02 0. -1.
        2   -1    0    0  501    0  0.00000000000E+00  0.00000000000E+00 -0.18687079338E+04  0.18687079338E+04  0.25500000920E-02 0.  1.
    10030    2    1    2    0    0  0.00000000000E+00  0.00000000000E+00 -0.38868079353E+03  0.33487350740E+04  0.33261018981E+04 0.  0.
        2    1    3    3  502    0 -0.13546326865E+04  0.76532174805E+03  0.39701607456E+03  0.16057300075E+04  0.25500000920E-02 0. -1.
       -2    1    3    3    0  502  0.13546326865E+04 -0.76532174805E+03 -0.78569686809E+03  0.17430050665E+04  0.25500000920E-02 0.  1.
</event>
<event>
 5   0  0.2674551E-06  0.3304875E+04  0.7818609E-02  0.8161656E-01
        2   -1    0    0  501    0  0.00000000000E+00  0.00000000000E+00  0.27166045221E+04  0.27166045221E+04  0.25500000920E-02 0.  1.
       -2   -1    0    0    0  501  0.00000000000E+00  0.00000000000E+00 -0.10051332105E+04  0.10051332105E+04  0.25500000920E-02 0. -1.
    10030    2    1    2    0    0  0.00000000000E+00  0.00000000000E+00  0.17114713117E+04  0.37217377326E+04  0.33048748387E+04 0.  0.
        3    1    3    3  502    0 -0.45383138273E+03  0.15774151322E+04  0.10704351184E+04  0.19596001572E+04  0.10100000352E+00 0.  1.
       -3    1    3    3    0  502  0.45383138273E+03 -0.15774151322E+04  0.64103619325E+03  0.17621375754E+04  0.10100000352E+00 0. -1.
</event>
<event>
 5   0  0.8845526E-07  0.3274894E+04  0.7818609E-02  0.8169313E-01
        1   -1    0    0  501    0  0.00000000000E+00  0.00000000000E+00  0.16883273001E+04  0.16883273001E+04  0.50400001928E-02 0. -1.
       -1   -1    0    0    0  501  0.00000000000E+00  0.00000000000E+00 -0.15881001416E+04  0.15881001416E+04  0.50400001928E-02 0.  1.
    10030    2    1    2    0    0  0.00000000000E+00  0.00000000000E+00  0.10022715844E+03  0.32764274417E+04  0.32748940895E+04 0.  0.
        1    1    3    3  502    0  0.15180524958E+04  0.54687827021E+02 -0.56153073431E+03  0.16195032892E+04  0.50400001928E-02 0.  1.
       -1    1    3    3    0  502 -0.15180524958E+04 -0.54687827021E+02  0.66175789275E+03  0.16569241524E+04  0.50400001928E-02 0. -1.
</event>
<event>
 5   0  0.8705956E-07  0.3290534E+04  0.7818609E-02  0.8165308E-01
       -1   -1    0    0    0  501  0.00000000000E+00  0.00000000000E+00  0.15516540467E+04  0.15516540467E+04  0.50400001928E-02 0. -1.
        1   -1    0    0  501    0  0.00000000000E+00  0.00000000000E+00 -0.17445276965E+04  0.17445276965E+04  0.50400001928E-02 0.  1.
    10030    2    1    2    0    0  0.00000000000E+00  0.00000000000E+00 -0.19287364977E+03  0.32961817432E+04  0.32905339748E+04 0.  0.
        2    1    3    3  502    0 -0.47632712795E+03  0.68729471965E+03  0.13229079238E+04  0.15650389578E+04  0.25500000920E-02 0. -1.
       -2    1    3    3    0  502  0.47632712795E+03 -0.68729471965E+03 -0.15157815736E+04  0.17311427854E+04  0.25500000920E-02 0.  1.
</event>
<event>
 5   0  0.8705956E-07  0.2655528E+04  0.7818609E-02  0.8349580E-01
       -1   -1    0    0    0  501  0.00000000000E+00  0.00000000000E+00  0.75798918876E+03  0.75798918877E+03  0.50400001928E-02 0.  1.
        1   -1    0    0  501    0  0.00000000000E+00  0.00000000000E+00 -0.23258343321E+04  0.23258343321E+04  0.50400001928E-02 0. -1.
    10030    2    1    2    0    0  0.00000000000E+00  0.00000000000E+00 -0.15678451434E+04  0.30838235209E+04  0.26555280293E+04 0.  0.
        2    1    3    3  502    0  0.10649472734E+04 -0.64504082942E+03 -0.13195843661E+04  0.18142473001E+04  0.25500000920E-02 0.  1.
       -2    1    3    3    0  502 -0.10649472734E+04  0.64504082942E+03 -0.24826077732E+03  0.12695762208E+04  0.25500000920E-02 0. -1.
</event>
<event>
 5   0  0.2674551E-06  0.3226660E+04  0.7818609E-02  0.8181812E-01
       -2   -1    0    0    0  501  0.00000000000E+00  0.00000000000E+00  0.15092746777E+04  0.15092746777E+04  0.25500000920E-02 0.  1.
        2   -1    0    0  501    0  0.00000000000E+00  0.00000000000E+00 -0.17245592887E+04  0.17245592887E+04  0.25500000920E-02 0. -1.
    10030    2    1    2    0    0  0.00000000000E+00  0.00000000000E+00 -0.21528461098E+03  0.32338339665E+04  0.32266599850E+04 0.  0.
        3    1    3    3  502    0  0.28039418262E+03  0.31933320889E+03 -0.16674570327E+04  0.17207578453E+04  0.10100000352E+00 0. -1.
       -3    1    3    3    0  502 -0.28039418262E+03 -0.31933320889E+03  0.14521724217E+04  0.15130761212E+04  0.10100000352E+00 0.  1.
</event>
<event>
 5   0  0.2614212E-06  0.3260300E+04  0.7818609E-02  0.8173071E-01
        2   -1    0    0  501    0  0.00000000000E+00  0.00000000000E+00  0.18394556892E+04  0.18394556892E+04  0.25500000920E-02 0.  1.
       -2   -1    0    0    0  501  0.00000000000E+00  0.00000000000E+00 -0.14446600900E+04  0.14446600900E+04  0.25500000920E-02 0. -1.
    10030    2    1    2    0    0  0.00000000000E+00  0.00000000000E+00  0.39479559916E+03  0.32841157792E+04  0.32602995086E+04 0.  0.
        2    1    3    3  502    0 -0.10468353705E+04 -0.55152116302E+03 -0.93210878357E+03  0.15062757618E+04  0.25500000920E-02 0. -1.
       -2    1    3    3    0  502  0.10468353705E+04  0.55152116302E+03  0.13269043827E+04  0.17778400173E+04  0.25500000920E-02 0.  1.
</event>
<event>
 5   0  0.2614212E-06  0.2866950E+04  0.7818609E-02  0.8282779E-01
       -2   -1    0    0    0  501  0.00000000000E+00  0.00000000000E+00  0.10043112465E+04  0.10043112465E+04  0.25500000920E-02 0. -1.
        2   -1    0    0  501    0  0.00000000000E+00  0.00000000000E+00 -0.20460300127E+04  0.20460300127E+04  0.25500000920E-02 0.  1.
    10030    2    1    2    0    0  0.00000000000E+00  0.00000000000E+00 -0.10417187662E+04  0.30503412591E+04  0.28669502628E+04 0.  0.
        2    1    3    3  502    0  0.11554332069E+04  0.80058018074E+03 -0.81971192136E+03  0.16272314388E+04  0.25500000920E-02 0.  1.
       -2    1    3    3    0  502 -0.11554332069E+04 -0.80058018074E+03 -0.22200684481E+03  0.14231098203E+04  0.25500000920E-02 0. -1.
</event>
<event>
 5   0  0.9295663E-07  0.3283573E+04  0.7818609E-02  0.8167088E-01
       -1   -1    0    0    0  501  0.00000000000E+00  0.00000000000E+00  0.10503188664E+04  0.10503188664E+04  0.50400001928E-02 0. -1.
        1   -1    0    0  501    0  0.00000000000E+00  0.00000000000E+00 -0.25663281621E+04  0.25663281621E+04  0.50400001928E-02 0.  1.
    10030    2    1    2    0    0  0.00000000000E+00  0.00000000000E+00 -0.15160092957E+04  0.36166470285E+04  0.32835729844E+04 0.  0.
        4    1    3    3  502    0  0.11598222313E+04  0.17821691897E+03  0.50673624191E+03  0.12781753050E+04  0.12699999809E+01 0. -1.
       -4    1    3    3    0  502 -0.11598222313E+04 -0.17821691897E+03 -0.20227455377E+04  0.23384717235E+04  0.12699999809E+01 0.  1.
</event>
<event>
 5   0  0.2705859E-06  0.3263217E+04  0.7818609E-02  0.8172318E-01
       -2   -1    0    0    0  501  0.00000000000E+00  0.00000000000E+00  0.15222465769E+04  0.15222465769E+04  0.25500000920E-02 0.  1.
        2   -1    0    0  501    0  0.00000000000E+00  0.00000000000E+00 -0.17488269976E+04  0.17488269976E+04  0.25500000920E-02 0. -1.
    10030    2    1    2    0    0  0.00000000000E+00  0.00000000000E+00 -0.22658042067E+03  0.32710735745E+04  0.32632167631E+04 0.  0.
        1    1    3    3  502    0  0.39233955312E+03 -0.82490095268E+03  0.12419093787E+04  0.15416649479E+04  0.50400001928E-02 0.  1.
       -1    1    3    3    0  502 -0.39233955312E+03  0.82490095268E+03 -0.14684897994E+04  0.17294086266E+04  0.50400001928E-02 0. -1.
</event>
<event>
 5   0  0.2674551E-06  0.3283569E+04  0.7818609E-02  0.8167089E-01
       -2   -1    0    0    0  501  0.00000000000E+00  0.00000000000E+00  0.17769430264E+04  0.17769430264E+04  0.25500000920E-02 0. -1.
        2   -1    0    0  501    0  0.00000000000E+00  0.00000000000E+00 -0.15169066717E+04  0.15169066717E+04  0.25500000920E-02 0.  1.
    10030    2    1    2    0    0  0.00000000000E+00  0.00000000000E+00  0.26003635470E+03  0.32938496982E+04  0.32835692361E+04 0.  0.
        3    1    3    3  502    0 -0.27885759816E+03 -0.83541214117E+03  0.15199180831E+04  0.17566519277E+04  0.10100000352E+00 0. -1.
       -3    1    3    3    0  502  0.27885759816E+03  0.83541214117E+03 -0.12598817284E+04  0.15371977704E+04  0.10100000352E+00 0.  1.
</event>
<event>
 5   0  0.8705956E-07  0.3257584E+04  0.7818609E-02  0.8173773E-01
       -1   -1    0    0    0  501  0.00000000000E+00  0.00000000000E+00  0.13832671439E+04  0.13832671439E+04  0.50400001928E-02 0. -1.
        1   -1    0    0  501    0  0.00000000000E+00  0.00000000000E+00 -0.19178968344E+04  0.19178968344E+04  0.50400001928E-02 0.  1.
    10030    2    1    2    0    0  0.00000000000E+00  0.00000000000E+00 -0.53462969046E+03  0.33011639783E+04  0.32575841825E+04 0.  0.
        2    1    3    3  502    0 -0.15528098145E+04 -0.44196793477E+03 -0.48562595388E+03  0.16859378822E+04  0.25500000920E-02 0. -1.
       -2    1    3    3    0  502  0.15528098145E+04  0.44196793477E+03 -0.49003736575E+02  0.16152260961E+04  0.25500000920E-02 0.  1.
</event>
<event>
 5   0  0.2674551E-06  0.3265629E+04  0.7818609E-02  0.8171696E-01
        2   -1    0    0  501    0  0.00000000000E+00  0.00000000000E+00  0.19160608681E+04  0.19160608681E+04  0.25500000920E-02 0.  1.
       -2   -1    0    0    0  501  0.00000000000E+00  0.00000000000E+00 -0.13914400356E+04  0.13914400357E+04  0.25500000920E-02 0. -1.
    10030    2    1    2    0    0  0.00000000000E+00  0.00000000000E+00  0.52462083247E+03  0.33075009038E+04  0.32656293743E+04 0.  0.
        3    1    3    3  502    0 -0.87943235988E+03 -0.11533783582E+03  0.16507927023E+04  0.18739852315E+04  0.10100000352E+00 0.  1.
       -3    1    3    3    0  502  0.87943235988E+03  0.11533783582E+03 -0.11261718698E+04  0.14335156722E+04  0.10100000352E+00 0. -1.
</event>
<event>
 5   0  0.2614212E-06  0.3242049E+04  0.7818609E-02  0.8177799E-01
       -2   -1    0    0    0  501  0.00000000000E+00  0.00000000000E+00  0.20896709354E+04  0.20896709354E+04  0.25500000920E-02 0.  1.
        2   -1    0    0  501    0  0.00000000000E+00  0.00000000000E+00 -0.12574807685E+04  0.12574807685E+04  0.25500000920E-02 0. -1.
    10030    2    1    2    0    0  0.00000000000E+00  0.00000000000E+00  0.83219016688E+03  0.33471517039E+04  0.32420493604E+04 0.  0.
        2    1    3    3  502    0  0.30386867165E+03 -0.75209055141E+02 -0.12259789198E+04  0.12653129587E+04  0.25500000920E-02 0. -1.
       -2    1    3    3    0  502 -0.30386867165E+03  0.75209055141E+02  0.20581690867E+04  0.20818387452E+04  0.25500000920E-02 0.  1.
</event>
<event>
 5   0  0.2658600E-06  0.3431696E+04  0.7818609E-02  0.8130171E-01
        2   -1    0    0  501    0  0.00000000000E+00  0.00000000000E+00  0.10859946260E+04  0.10859946260E+04  0.25500000920E-02 0. -1.
       -2   -1    0    0    0  501  0.00000000000E+00  0.00000000000E+00 -0.27110022818E+04  0.27110022818E+04  0.25500000920E-02 0.  1.
    10030    2    1    2    0    0  0.00000000000E+00  0.00000000000E+00 -0.16250076558E+04  0.37969969077E+04  0.34316957377E+04 0.  0.
        5    1    3    3  502    0 -0.80770642160E+03 -0.14293289144E+04 -0.26067400863E+03  0.16623308449E+04  0.46999998093E+01 0. -1.
       -5    1    3    3    0  502  0.80770642160E+03  0.14293289144E+04 -0.13643336471E+04  0.21346660628E+04  0.46999998093E+01 0.  1.
</event>
<event>
 5   0  0.9530268E-07  0.3354125E+04  0.7818609E-02  0.8149258E-01
       -1   -1    0    0    0  501  0.00000000000E+00  0.00000000000E+00  0.17266700073E+04  0.17266700073E+04  0.50400001928E-02 0.  1.
        1   -1    0    0  501    0  0.00000000000E+00  0.00000000000E+00 -0.16288802228E+04  0.16288802228E+04  0.50400001928E-02 0. -1.
    10030    2    1    2    0    0  0.00000000000E+00  0.00000000000E+00  0.97789784438E+02  0.33555502301E+04  0.33541249984E+04 0.  0.
        5    1    3    3  502    0 -0.99362353385E+03 -0.40233143617E+03 -0.12413655894E+04  0.16401734445E+04  0.46999998093E+01 0. -1.
       -5    1    3    3    0  502  0.99362353385E+03  0.40233143617E+03  0.13391553738E+04  0.17153767856E+04  0.46999998093E+01 0.  1.
</event>
<event>
 5   0  0.9530268E-07  0.3305391E+04  0.7818609E-02  0.8161525E-01
        1   -1    0    0  501    0  0.00000000000E+00  0.00000000000E+00  0.11146736268E+04  0.11146736269E+04  0.50400001928E-02 0.  1.
       -1   -1    0    0    0  501  0.00000000000E+00  0.00000000000E+00 -0.24504049059E+04  0.24504049059E+04  0.50400001928E-02 0. -1.
    10030    2    1    2    0    0  0.00000000000E+00  0.00000000000E+00 -0.13357312791E+04  0.35650785328E+04  0.33053905813E+04 0.  0.
        5    1    3    3  502    0  0.76996324764E+03 -0.61630903721E+02  0.90799784521E+03  0.11921090336E+04  0.46999998093E+01 0.  1.
       -5    1    3    3    0  502 -0.76996324764E+03  0.61630903721E+02 -0.22437291243E+04  0.23729694992E+04  0.46999998093E+01 0. -1.
</event>
<event>
 5   0  0.2705859E-06  0.3291489E+04  0.7818609E-02  0.8165064E-01
       -2   -1    0    0    0  501  0.00000000000E+00  0.00000000000E+00  0.20012961780E+04  0.20012961780E+04  0.25500000920E-02 0. -1.
        2   -1    0    0  501    0  0.00000000000E+00  0.00000000000E+00 -0.13533606159E+04  0.13533606159E+04  0.25500000920E-02 0.  1.
    10030    2    1    2    0    0  0.00000000000E+00  0.00000000000E+00  0.64793556211E+03  0.33546567939E+04  0.32914892849E+04 0.  0.
        1    1    3    3  502    0  0.15540195161E+04  0.31207363820E+03 -0.12737261779E+03  0.15901542051E+04  0.50400001928E-02 0. -1.
       -1    1    3    3    0  502 -0.15540195161E+04 -0.31207363820E+03  0.77530817990E+03  0.17645025888E+04  0.50400001928E-02 0.  1.
</event>
<event>
 5   0  0.9295663E-07  0.3287566E+04  0.7818609E-02  0.8166067E-01
       -1   -1    0    0    0  501  0.00000000000E+00  0.00000000000E+00  0.20171021608E+04  0.20171021608E+04  0.50400001928E-02 0. -1.
        1   -1    0    0  501    0  0.00000000000E+00  0.00000000000E+00 -0.13395563537E+04  0.13395563537E+04  0.50400001928E-02 0.  1.
    10030    2    1    2    0    0  0.00000000000E+00  0.00000000000E+00  0.67754580713E+03  0.33566585145E+04  0.32875656742E+04 0.  0.
        4    1    3    3  502    0 -0.79624540294E+03  0.71393380002E+03 -0.93578613698E+03  0.14210578875E+04  0.12699999809E+01 0.  1.
       -4    1    3    3    0  502  0.79624540294E+03 -0.71393380002E+03  0.16133319441E+04  0.19356006270E+04  0.12699999809E+01 0. -1.
</event>
<event>
 5   0  0.2614212E-06  0.3252176E+04  0.7818609E-02  0.8175172E-01
       -2   -1    0    0    0  501  0.00000000000E+00  0.00000000000E+00  0.11594658602E+04  0.11594658602E+04  0.25500000920E-02 0.  1.
        2   -1    0    0  501    0  0.00000000000E+00  0.00000000000E+00 -0.22805004471E+04  0.22805004471E+04  0.25500000920E-02 0. -1.
    10030    2    1    2    0    0  0.00000000000E+00  0.00000000000E+00 -0.11210345870E+04  0.34399663073E+04  0.32521761407E+04 0.  0.
        2    1    3    3  502    0 -0.13519335485E+04  0.68985532973E+02  0.39243752084E+03  0.14094291507E+04  0.25500000920E-02 0.  1.
       -2    1    3    3    0  502  0.13519335485E+04 -0.68985532973E+02 -0.15134721078E+04  0.20305371566E+04  0.25500000920E-02 0. -1.
</event>
<event>
 5   0  0.8845526E-07  0.3153409E+04  0.7818609E-02  0.8201231E-01
        1   -1    0    0  501    0  0.00000000000E+00  0.00000000000E+00  0.21393406114E+04  0.21393406114E+04  0.50400001928E-02 0. -1.
       -1   -1    0    0    0  501  0.00000000000E+00  0.00000000000E+00 -0.11620391537E+04  0.11620391537E+04  0.50400001928E-02 0.  1.
    10030    2    1    2    0    0  0.00000000000E+00  0.00000000000E+00  0.97730145771E+03  0.33013797651E+04  0.31534093002E+04 0.  0.
        1    1    3    3  502    0  0.96109269495E+03  0.64570159957E+03  0.16090882172E+04  0.19823709579E+04  0.50400001928E-02 0. -1.
       -1    1    3    3    0  502 -0.96109269495E+03 -0.64570159957E+03 -0.63178675953E+03  0.13190088072E+04  0.50400001928E-02 0.  1.
</event>
<event>
 5   0  0.2574803E-06  0.3302196E+04  0.7818609E-02  0.8162337E-01
       -2   -1    0    0    0  501  0.00000000000E+00  0.00000000000E+00  0.24946239623E+04  0.24946239623E+04  0.25500000920E-02 0.  1.
        2   -1    0    0  501    0  0.00000000000E+00  0.00000000000E+00 -0.10927996492E+04  0.10927996492E+04  0.25500000920E-02 0. -1.
    10030    2    1    2    0    0  0.00000000000E+00  0.00000000000E+00  0.14018243131E+04  0.35874236115E+04  0.33021957488E+04 0.  0.
        4    1    3    3  502    0  0.69999001630E+03  0.75399265163E+03 -0.70199816679E+03  0.12455095265E+04  0.12699999809E+01 0. -1.
       -4    1    3    3    0  502 -0.69999001630E+03 -0.75399265163E+03  0.21038224799E+04  0.23419140850E+04  0.12699999809E+01 0.  1.
</event>
<event>
 5   0  0.9295663E-07  0.3295653E+04  0.7818609E-02  0.8164002E-01
        1   -1    0    0  501    0  0.00000000000E+00  0.00000000000E+00  0.18293772488E+04  0.18293772488E+04  0.50400001928E-02 0. -1.
       -1   -1    0    0    0  501  0.00000000000E+00  0.00000000000E+00 -0.14842936244E+04  0.14842936244E+04  0.50400001928E-02 0.  1.
    10030    2    1    2    0    0  0.00000000000E+00  0.00000000000E+00  0.34508362436E+03  0.33136708733E+04  0.32956534934E+04 0.  0.
        4    1    3    3  502    0  0.83092394616E+03  0.81194103579E+03 -0.10024566461E+04  0.15344718278E+04  0.12699999809E+01 0.  1.
       -4    1    3    3    0  502 -0.83092394616E+03 -0.81194103579E+03  0.13475402705E+04  0.17791990455E+04  0.12699999809E+01 0. -1.
</event>
<event>
 5   0  0.2658600E-06  0.3273634E+04  0.7818609E-02  0.8169637E-01
        2   -1    0    0  501    0  0.00000000000E+00  0.00000000000E+00  0.20142460642E+04  0.20142460642E+04  0.25500000920E-02 0. -1.
       -2   -1    0    0    0  501  0.00000000000E+00  0.00000000000E+00 -0.13301101959E+04  0.13301101959E+04  0.25500000920E-02 0.  1.
    10030    2    1    2    0    0  0.00000000000E+00  0.00000000000E+00  0.68413586828E+03  0.33443562601E+04  0.32736335940E+04 0.  0.
        5    1    3    3  502    0 -0.14450005016E+04 -0.76315621050E+03  0.43742951582E+03  0.16916857044E+04  0.46999998093E+01 0.  1.
       -5    1    3    3    0  502  0.14450005016E+04  0.76315621050E+03  0.24670635247E+03  0.16526705557E+04  0.46999998093E+01 0. -1.
</event>
<event>
 5   0  0.9295663E-07  0.3345678E+04  0.7818609E-02  0.8151369E-01
        1   -1    0    0  501    0  0.00000000000E+00  0.00000000000E+00  0.26454359459E+04  0.26454359459E+04  0.50400001928E-02 0.  1.
       -1   -1    0    0    0  501  0.00000000000E+00  0.00000000000E+00 -0.10578179051E+04  0.10578179051E+04  0.50400001928E-02 0. -1.
    10030    2    1    2    0    0  0.00000000000E+00  0.00000000000E+00  0.15876180408E+04  0.37032538510E+04  0.33456775161E+04 0.  0.
        4    1    3    3  502    0  0.45395753323E+02  0.10622307805E+04  0.22233496501E+04  0.24644837766E+04  0.12699999809E+01 0.  1.
       -4    1    3    3    0  502 -0.45395753323E+02 -0.10622307805E+04 -0.63573160934E+03  0.12387700745E+04  0.12699999809E+01 0. -1.
</event>
<event>
 5   0  0.9530268E-07  0.3311361E+04  0.7818609E-02  0.8160011E-01
        1   -1    0    0  501    0  0.00000000000E+00  0.00000000000E+00  0.15168103847E+04  0.15168103847E+04  0.50400001928E-02 0.  1.
       -1   -1    0    0    0  501  0.00000000000E+00  0.00000000000E+00 -0.18072649106E+04  0.18072649106E+04  0.50400001928E-02 0. -1.
    10030    2    1    2    0    0  0.00000000000E+00  0.00000000000E+00 -0.29045452581E+03  0.33240752953E+04  0.33113611608E+04 0.  0.
        5    1    3    3  502    0  0.92707224022E+03 -0.10675357812E+04  0.71956784372E+03  0.15864726769E+04  0.46999998093E+01 0.  1.
       -5    1    3    3    0  502 -0.92707224022E+03  0.10675357812E+04 -0.10100223695E+04  0.17376026185E+04  0.46999998093E+01 0. -1.
</event>
<event>
 5   0  0.2705859E-06  0.3217121E+04  0.7818609E-02  0.8184310E-01
       -2   -1    0    0    0  501  0.00000000000E+00  0.00000000000E+00  0.17320702458E+04  0.17320702458E+04  0.25500000920E-02 0. -1.
        2   -1    0    0  501    0  0.00000000000E+00  0.00000000000E+00 -0.14938581801E+04  0.14938581801E+04  0.25500000920E-02 0.  1.
    10030    2    1    2    0    0  0.00000000000E+00  0.00000000000E+00  0.23821206567E+03  0.32259284259E+04  0.32171212630E+04 0.  0.
        1    1    3    3  502    0 -0.64450047126E+03 -0.12134613192E+04 -0.71960353835E+03  0.15510314255E+04  0.50400001928E-02 0.  1.
       -1    1    3    3    0  502  0.64450047126E+03  0.12134613192E+04  0.95781560402E+03  0.16748970004E+04  0.50400001928E-02 0. -1.
</event>
<event>
 5   0  0.9530268E-07  0.3224022E+04  0.7818609E-02  0.8182502E-01
        1   -1    0    0  501    0  0.00000000000E+00  0.00000000000E+00  0.13984234354E+04  0.13984234354E+04  0.50400001928E-02 0.  1.
       -1   -1    0    0    0  501  0.00000000000E+00  0.00000000000E+00 -0.18582204899E+04  0.18582204899E+04  0.50400001928E-02 0. -1.
    10030    2    1    2    0    0  0.00000000000E+00  0.00000000000E+00 -0.45979705454E+03  0.32566439253E+04  0.32240217625E+04 0.  0.
        5    1    3    3  502    0 -0.15158450357E+04 -0.54797814359E+03 -0.25227608590E+03  0.16314813917E+04  0.46999998093E+01 0.  1.
       -5    1    3    3    0  502  0.15158450357E+04  0.54797814359E+03 -0.20752096864E+03  0.16251625336E+04  0.46999998093E+01 0. -1.
</event>
<event>
 5   0  0.2705859E-06  0.3260573E+04  0.7818609E-02  0.8173001E-01
       -2   -1    0    0    0  501  0.00000000000E+00  0.00000000000E+00  0.17985871504E+04  0.17985871504E+04  0.25500000920E-02 0.  1.
        2   -1    0    0  501    0  0.00000000000E+00  0.00000000000E+00 -0.14777348325E+04  0.14777348325E+04  0.25500000920E-02 0. -1.
    10030    2    1    2    0    0  0.00000000000E+00  0.00000000000E+00  0.32085231783E+03  0.32763219829E+04  0.32605734965E+04 0.  0.
        1    1    3    3  502    0  0.91190161092E+03  0.13472868704E+04  0.26623634119E+03  0.16485230506E+04  0.50400001928E-02 0.  1.
       -1    1    3    3    0  502 -0.91190161092E+03 -0.13472868704E+04  0.54615976647E+02  0.16277989323E+04  0.50400001928E-02 0. -1.
</event>
<event>
 5   0  0.9268670E-07  0.3331287E+04  0.7818609E-02  0.8154980E-01
       -1   -1    0    0    0  501  0.00000000000E+00  0.00000000000E+00  0.11606196438E+04  0.11606196438E+04  0.50400001928E-02 0. -1.
        1   -1    0    0  501    0  0.00000000000E+00  0.00000000000E+00 -0.23904203775E+04  0.23904203775E+04  0.50400001928E-02 0.  1.
    10030    2    1    2    0    0  0.00000000000E+00  0.00000000000E+00 -0.12298007337E+04  0.35510400212E+04  0.33312873469E+04 0.  0.
        3    1    3    3  502    0 -0.13245165472E+04 -0.62782207479E+02  0.45960377977E+03  0.14033963567E+04  0.10100000352E+00 0. -1.
       -3    1    3    3    0  502  0.13245165472E+04  0.62782207479E+02 -0.16894045135E+04  0.21476436645E+04  0.10100000352E+00 0.  1.
</event>
<event>
 5   0  0.9530268E-07  0.3475522E+04  0.7818609E-02  0.8119616E-01
        1   -1    0    0  501    0  0.00000000000E+00  0.00000000000E+00  0.20978834132E+04  0.20978834132E+04  0.50400001928E-02 0. -1.
       -1   -1    0    0    0  501  0.00000000000E+00  0.00000000000E+00 -0.14394568966E+04  0.14394568966E+04  0.50400001928E-02 0.  1.
    10030    2    1    2    0    0  0.00000000000E+00  0.00000000000E+00  0.65842651657E+03  0.35373403098E+04  0.34755216860E+04 0.  0.
        5    1    3    3  502    0 -0.40417336731E+03 -0.90455274655E+03 -0.11238424001E+04  0.14982041291E+04  0.46999998093E+01 0.  1.
       -5    1    3    3    0  502  0.40417336731E+03  0.90455274655E+03  0.17822689167E+04  0.20391361807E+04  0.46999998093E+01 0. -1.
</event>
<event>
 5   0  0.2574803E-06  0.3626260E+04  0.7818609E-02  0.8084503E-01
        2   -1    0    0  501    0  0.00000000000E+00  0.00000000000E+00  0.18281984630E+04  0.18281984630E+04  0.25500000920E-02 0.  1.
       -2   -1    0    0    0  501  0.00000000000E+00  0.00000000000E+00 -0.17981858751E+04  0.17981858751E+04  0.25500000920E-02 0. -1.
    10030    2    1    2    0    0  0.00000000000E+00  0.00000000000E+00  0.30012587823E+02  0.36263843381E+04  0.36262601413E+04 0.  0.
        4    1    3    3  502    0 -0.98941208799E+03 -0.54592757136E+03 -0.14029512384E+04  0.18014569058E+04  0.12699999809E+01 0. -1.
       -4    1    3    3    0  502  0.98941208799E+03  0.54592757136E+03  0.14329638263E+04  0.18249274323E+04  0.12699999809E+01 0.  1.
</event>
<event>
 5   0  0.2614212E-06  0.3303657E+04  0.7818609E-02  0.8161966E-01
       -2   -1    0    0    0  501  0.00000000000E+00  0.00000000000E+00  0.11938060305E+04  0.11938060305E+04  0.25500000920E-02 0. -1.
        2   -1    0    0  501    0  0.00000000000E+00  0.00000000000E+00 -0.22855781152E+04  0.22855781152E+04  0.25500000920E-02 0.  1.
    10030    2    1    2    0    0  0.00000000000E+00  0.00000000000E+00 -0.10917720848E+04  0.34793841457E+04  0.33036567238E+04 0.  0.
        2    1    3    3  502    0 -0.49353333029E+03  0.60895757243E+03  0.98546078624E+03  0.12591812556E+04  0.25500000920E-02 0. -1.
       -2    1    3    3    0  502  0.49353333029E+03 -0.60895757243E+03 -0.20772328710E+04  0.22202028902E+04  0.25500000920E-02 0.  1.
</event>
<event>
 5   0  0.9295663E-07  0.3301222E+04  0.7818609E-02  0.8162584E-01
       -1   -1    0    0    0  501  0.00000000000E+00  0.00000000000E+00  0.13641933815E+04  0.13641933815E+04  0.50400001928E-02 0.  1.
        1   -1    0    0  501    0  0.00000000000E+00  0.00000000000E+00 -0.19971632456E+04  0.19971632456E+04  0.50400001928E-02 0. -1.
    10030    2    1    2    0    0  0.00000000000E+00  0.00000000000E+00 -0.63296986409E+03  0.33613566271E+04  0.33012221261E+04 0.  0.
        4    1    3    3  502    0 -0.12007042971E+04  0.43661882069E+03  0.74763024484E+03  0.14802970647E+04  0.12699999809E+01 0.  1.
       -4    1    3    3    0  502  0.12007042971E+04 -0.43661882069E+03 -0.13806001089E+04  0.18810595624E+04  0.12699999809E+01 0. -1.
</event>
<event>
 5   0  0.2658600E-06  0.3170780E+04  0.7818609E-02  0.8196577E-01
        2   -1    0    0  501    0  0.00000000000E+00  0.00000000000E+00  0.15031262012E+04  0.15031262012E+04  0.25500000920E-02 0. -1.
       -2   -1    0    0    0  501  0.00000000000E+00  0.00000000000E+00 -0.16721557923E+04  0.16721557923E+04  0.25500000920E-02 0.  1.
    10030    2    1    2    0    0  0.00000000000E+00  0.00000000000E+00 -0.16902959116E+03  0.31752819935E+04  0.31707798308E+04 0.  0.
        5    1    3    3  502    0 -0.95893439532E+03 -0.49104977894E+03 -0.12492457897E+04  0.16496430501E+04  0.46999998093E+01 0.  1.
       -5    1    3    3    0  502  0.95893439532E+03  0.49104977894E+03  0.10802161985E+04  0.15256389433E+04  0.46999998093E+01 0. -1.
</event>
<event>
 5   0  0.8845526E-07  0.3323776E+04  0.7818609E-02  0.8156872E-01
       -1   -1    0    0    0  501  0.00000000000E+00  0.00000000000E+00  0.21691440339E+04  0.21691440339E+04  0.50400001928E-02 0.  1.
        1   -1    0    0  501    0  0.00000000000E+00  0.00000000000E+00 -0.12732538821E+04  0.12732538822E+04  0.50400001928E-02 0. -1.
    10030    2    1    2    0    0  0.00000000000E+00  0.00000000000E+00  0.89589015177E+03  0.34423979161E+04  0.33237756014E+04 0.  0.
        1    1    3    3  502    0 -0.41973191149E+03  0.80495600387E+03 -0.99376307161E+03  0.13459918604E+04  0.50400001928E-02 0. -1.
       -1    1    3    3    0  502  0.41973191149E+03 -0.80495600387E+03  0.18896532234E+04  0.20964060557E+04  0.50400001928E-02 0.  1.
</event>
<event>
 5   0  0.2574803E-06  0.3316308E+04  0.7818609E-02  0.8158758E-01
       -2   -1    0    0    0  501  0.00000000000E+00  0.00000000000E+00  0.12503880706E+04  0.12503880706E+04  0.25500000920E-02 0. -1.
        2   -1    0    0  501    0  0.00000000000E+00  0.00000000000E+00 -0.21988974548E+04  0.21988974548E+04  0.25500000920E-02 0.  1.
    10030    2    1    2    0    0  0.00000000000E+00  0.00000000000E+00 -0.94850938422E+03  0.34492855255E+04  0.33163082764E+04 0.  0.
        4    1    3    3  502    0 -0.47973389736E+03 -0.72252754200E+02 -0.21234278438E+04  0.21781442775E+04  0.12699999809E+01 0.  1.
       -4    1    3    3    0  502  0.47973389736E+03  0.72252754200E+02  0.11749184596E+04  0.12711412480E+04  0.12699999809E+01 0. -1.
</event>
<event>
 5   0  0.8705956E-07  0.3318874E+04  0.7818609E-02  0.8158109E-01
       -1   -1    0    0    0  501  0.00000000000E+00  0.00000000000E+00  0.30682160794E+04  0.30682160794E+04  0.50400001928E-02 0. -1.
        1   -1    0    0  501    0  0.00000000000E+00  0.00000000000E+00 -0.89750254412E+03  0.89750254413E+03  0.50400001928E-02 0.  1.
    10030    2    1    2    0    0  0.00000000000E+00  0.00000000000E+00  0.21707135352E+04  0.39657186235E+04  0.33188743496E+04 0.  0.
        2    1    3    3  502    0  0.15198864165E+04 -0.66462520847E+03  0.11381268044E+04  0.20117440219E+04  0.25500000920E-02 0. -1.
       -2    1    3    3    0  502 -0.15198864165E+04  0.66462520847E+03  0.10325867309E+04  0.19539746016E+04  0.25500000920E-02 0.  1.
</event>
<event>
 5   0  0.8705956E-07  0.3392983E+04  0.7818609E-02  0.8139631E-01
       -1   -1    0    0    0  501  0.00000000000E+00  0.00000000000E+00  0.31130980670E+04  0.31130980670E+04  0.50400001928E-02 0.  1.
        1   -1    0    0  501    0  0.00000000000E+00  0.00000000000E+00 -0.92450787363E+03  0.92450787364E+03  0.50400001928E-02 0. -1.
    10030    2    1    2    0    0  0.00000000000E+00  0.00000000000E+00  0.21885901934E+04  0.40376059407E+04  0.33929831561E+04 0.  0.
        2    1    3    3  502    0  0.25034794895E+03  0.36111329754E+03  0.30442066801E+04  0.30757553902E+04  0.25500000920E-02 0.  1.
       -2    1    3    3    0  502 -0.25034794895E+03 -0.36111329754E+03 -0.85561648668E+03  0.96185055049E+03  0.25500000920E-02 0. -1.
</event>
<event>
 5   0  0.2614212E-06  0.3402062E+04  0.7818609E-02  0.8137400E-01
        2   -1    0    0  501    0  0.00000000000E+00  0.00000000000E+00  0.13585439881E+04  0.13585439881E+04  0.25500000920E-02 0. -1.
       -2   -1    0    0    0  501  0.00000000000E+00  0.00000000000E+00 -0.21298589467E+04  0.21298589467E+04  0.25500000920E-02 0.  1.
    10030    2    1    2    0    0  0.00000000000E+00  0.00000000000E+00 -0.77131495863E+03  0.34884029348E+04  0.34020623554E+04 0.  0.
        2    1    3    3  502    0 -0.11963055633E+04 -0.12091055411E+04 -0.40676776495E+03  0.17488691275E+04  0.25500000920E-02 0. -1.
       -2    1    3    3    0  502  0.11963055633E+04  0.12091055411E+04 -0.36454719368E+03  0.17395338073E+04  0.25500000920E-02 0.  1.
</event>
<event>
 5   0  0.8520125E-07  0.3321238E+04  0.7818609E-02  0.8157512E-01
        3   -1    0    0  501    0  0.00000000000E+00  0.00000000000E+00  0.25689481020E+04  0.25689481040E+04  0.10100000352E+00 0.  1.
       -3   -1    0    0    0  501  0.00000000000E+00  0.00000000000E+00 -0.10734573437E+04  0.10734573485E+04  0.10100000352E+00 0. -1.
    10030    2    1    2    0    0  0.00000000000E+00  0.00000000000E+00  0.14954907583E+04  0.36424054524E+04  0.33212384545E+04 0.  0.
        2    1    3    3  502    0 -0.16395756322E+04 -0.12369289291E+03  0.49254602517E+03  0.17164235410E+04  0.25500000920E-02 0.  1.
       -2    1    3    3    0  502  0.16395756322E+04  0.12369289291E+03  0.10029447331E+04  0.19259819114E+04  0.25500000920E-02 0. -1.
</event>
<event>
 5   0  0.8845526E-07  0.3322585E+04  0.7818609E-02  0.8157172E-01
        1   -1    0    0  501    0  0.00000000000E+00  0.00000000000E+00  0.28830914026E+04  0.28830914026E+04  0.50400001928E-02 0.  1.
       -1   -1    0    0    0  501  0.00000000000E+00  0.00000000000E+00 -0.95726864452E+03  0.95726864453E+03  0.50400001928E-02 0. -1.
    10030    2    1    2    0    0  0.00000000000E+00  0.00000000000E+00  0.19258227581E+04  0.38403600472E+04  0.33225851375E+04 0.  0.
        1    1    3    3  502    0  0.92091702483E+03  0.11207606190E+04  0.26970165821E+02  0.14508342158E+04  0.50400001928E-02 0. -1.
       -1    1    3    3    0  502 -0.92091702483E+03 -0.11207606190E+04  0.18988525923E+04  0.23895258314E+04  0.50400001928E-02 0.  1.
</event>
<event>
 5   0  0.9530268E-07  0.2445142E+04  0.7818609E-02  0.8422794E-01
        1   -1    0    0  501    0  0.00000000000E+00  0.00000000000E+00  0.13557879451E+04  0.13557879451E+04  0.50400001928E-02 0.  1.
       -1   -1    0    0    0  501  0.00000000000E+00  0.00000000000E+00 -0.11024435645E+04  0.11024435645E+04  0.50400001928E-02 0. -1.
    10030    2    1    2    0    0  0.00000000000E+00  0.00000000000E+00  0.25334438060E+03  0.24582315096E+04  0.24451418731E+04 0.  0.
        5    1    3    3  502    0  0.79021879552E+03  0.67359403739E+03  0.77548187322E+03  0.12959818277E+04  0.46999998093E+01 0.  1.
       -5    1    3    3    0  502 -0.79021879552E+03 -0.67359403739E+03 -0.52213749262E+03  0.11622496820E+04  0.46999998093E+01 0. -1.
</event>
<event>
 5   0  0.2614212E-06  0.3296975E+04  0.7818609E-02  0.8163665E-01
        2   -1    0    0  501    0  0.00000000000E+00  0.00000000000E+00  0.20517694281E+04  0.20517694281E+04  0.25500000920E-02 0.  1.
       -2   -1    0    0    0  501  0.00000000000E+00  0.00000000000E+00 -0.13244723304E+04  0.13244723304E+04  0.25500000920E-02 0. -1.
    10030    2    1    2    0    0  0.00000000000E+00  0.00000000000E+00  0.72729709766E+03  0.33762417585E+04  0.32969754842E+04 0.  0.
        2    1    3    3  502    0  0.10853576374E+04  0.87028805419E+03 -0.54198302377E+03  0.14930331867E+04  0.25500000920E-02 0. -1.
       -2    1    3    3    0  502 -0.10853576374E+04 -0.87028805419E+03  0.12692801214E+04  0.18832085718E+04  0.25500000920E-02 0.  1.
</event>
<event>
 5   0  0.2614212E-06  0.3256610E+04  0.7818609E-02  0.8174025E-01
        2   -1    0    0  501    0  0.00000000000E+00  0.00000000000E+00  0.14071926801E+04  0.14071926801E+04  0.25500000920E-02 0.  1.
       -2   -1    0    0    0  501  0.00000000000E+00  0.00000000000E+00 -0.18841606059E+04  0.18841606059E+04  0.25500000920E-02 0. -1.
    10030    2    1    2    0    0  0.00000000000E+00  0.00000000000E+00 -0.47696792581E+03  0.32913532861E+04  0.32566099016E+04 0.  0.
        2    1    3    3  502    0 -0.42146344880E+03  0.13821936044E+04  0.52004715213E+03  0.15357537690E+04  0.25500000920E-02 0. -1.
       -2    1    3    3    0  502  0.42146344880E+03 -0.13821936044E+04 -0.99701507795E+03  0.17555995170E+04  0.25500000920E-02 0.  1.
</event>
<event>
 5   0  0.8845526E-07  0.3265907E+04  0.7818609E-02  0.8171625E-01
       -1   -1    0    0    0  501  0.00000000000E+00  0.00000000000E+00  0.17756955493E+04  0.17756955493E+04  0.50400001928E-02 0.  1.
        1   -1    0    0  501    0  0.00000000000E+00  0.00000000000E+00 -0.15016859258E+04  0.15016859258E+04  0.50400001928E-02 0. -1.
    10030    2    1    2    0    0  0.00000000000E+00  0.00000000000E+00  0.27400962347E+03  0.32773814750E+04  0.32659069275E+04 0.  0.
        1    1    3    3  502    0 -0.82277935596E+03 -0.11438696187E+04 -0.69120294246E+03  0.15694473807E+04  0.50400001928E-02 0. -1.
       -1    1    3    3    0  502  0.82277935596E+03  0.11438696187E+04  0.96521256592E+03  0.17079340943E+04  0.50400001928E-02 0.  1.
</event>
<event>
 5   0  0.2674551E-06  0.3134026E+04  0.7818609E-02  0.8206461E-01
        2   -1    0    0  501    0  0.00000000000E+00  0.00000000000E+00  0.18491592969E+04  0.18491592969E+04  0.25500000920E-02 0. -1.
       -2   -1    0    0    0  501  0.00000000000E+00  0.00000000000E+00 -0.13279170365E+04  0.13279170365E+04  0.25500000920E-02 0.  1.
    10030    2    1    2    0    0  0.00000000000E+00  0.00000000000E+00  0.52124226039E+03  0.31770763333E+04  0.31340262497E+04 0.  0.
        3    1    3    3  502    0  0.13588840795E+04  0.75893240058E+03  0.44473583866E+03  0.16187446700E+04  0.10100000352E+00 0.  1.
       -3    1    3    3    0  502 -0.13588840795E+04 -0.75893240058E+03  0.76506421731E+02  0.15583316633E+04  0.10100000352E+00 0. -1.
</event>
<event>
 5   0  0.2674551E-06  0.2676585E+04  0.7818609E-02  0.8342642E-01
       -2   -1    0    0    0  501  0.00000000000E+00  0.00000000000E+00  0.10824454621E+04  0.10824454621E+04  0.25500000920E-02 0. -1.
        2   -1    0    0  501    0  0.00000000000E+00  0.00000000000E+00 -0.16546120082E+04  0.16546120082E+04  0.25500000920E-02 0.  1.
    10030    2    1    2    0    0  0.00000000000E+00  0.00000000000E+00 -0.57216654609E+03  0.27370574703E+04  0.26765853319E+04 0.  0.
        3    1    3    3  502    0  0.10723438147E+04 -0.65720746928E+02  0.52993491885E+03  0.11979446990E+04  0.10100000352E+00 0. -1.
       -3    1    3    3    0  502 -0.10723438147E+04  0.65720746928E+02 -0.11021014649E+04  0.15391127713E+04  0.10100000352E+00 0.  1.
</event>
<event>
 5   0  0.2574803E-06  0.3337723E+04  0.7818609E-02  0.8153363E-01
       -2   -1    0    0    0  501  0.00000000000E+00  0.00000000000E+00  0.21064803704E+04  0.21064803704E+04  0.25500000920E-02 0. -1.
        2   -1    0    0  501    0  0.00000000000E+00  0.00000000000E+00 -0.13221574318E+04  0.13221574318E+04  0.25500000920E-02 0.  1.
    10030    2    1    2    0    0  0.00000000000E+00  0.00000000000E+00  0.78432293855E+03  0.34286378022E+04  0.33377229824E+04 0.  0.
        4    1    3    3  502    0 -0.71763377162E+03  0.13030116374E+04 -0.38492228199E+03  0.15365559975E+04  0.12699999809E+01 0.  1.
       -4    1    3    3    0  502  0.71763377162E+03 -0.13030116374E+04  0.11692452205E+04  0.18920818048E+04  0.12699999809E+01 0. -1.
</event>
<event>
 5   0  0.9295663E-07  0.3144739E+04  0.7818609E-02  0.8203566E-01
        1   -1    0    0  501    0  0.00000000000E+00  0.00000000000E+00  0.15723928828E+04  0.15723928828E+04  0.50400001928E-02 0. -1.
       -1   -1    0    0    0  501  0.00000000000E+00  0.00000000000E+00 -0.15723457066E+04  0.15723457067E+04  0.50400001928E-02 0.  1.
    10030    2    1    2    0    0  0.00000000000E+00  0.00000000000E+00  0.47176139674E-01  0.31447385894E+04  0.31447385891E+04 0.  0.
        4    1    3    3  502    0  0.67733683920E+02  0.77705304108E+02 -0.15689625877E+04  0.15723457574E+04  0.12699999809E+01 0.  1.
       -4    1    3    3    0  502 -0.67733683920E+02 -0.77705304108E+02  0.15690097639E+04  0.15723928320E+04  0.12699999809E+01 0. -1.
</event>
<event>
 5   0  0.9295663E-07  0.3245382E+04  0.7818609E-02  0.8176934E-01
       -1   -1    0    0    0  501  0.00000000000E+00  0.00000000000E+00  0.16279890546E+04  0.16279890547E+04  0.50400001928E-02 0. -1.
        1   -1    0    0  501    0  0.00000000000E+00  0.00000000000E+00 -0.16174101373E+04  0.16174101373E+04  0.50400001928E-02 0.  1.
    10030    2    1    2    0    0  0.00000000000E+00  0.00000000000E+00  0.10578917326E+02  0.32453991920E+04  0.32453819501E+04 0.  0.
        4    1    3    3  502    0 -0.55024701820E+03 -0.71728144408E+03  0.13528350909E+04  0.16270921446E+04  0.12699999809E+01 0. -1.
       -4    1    3    3    0  502  0.55024701820E+03  0.71728144408E+03 -0.13422561736E+04  0.16183070473E+04  0.12699999809E+01 0.  1.
</event>
<event>
 5   0  0.2658600E-06  0.3327169E+04  0.7818609E-02  0.8156016E-01
       -2   -1    0    0    0  501  0.00000000000E+00  0.00000000000E+00  0.13852338081E+04  0.13852338081E+04  0.25500000920E-02 0. -1.
        2   -1    0    0  501    0  0.00000000000E+00  0.00000000000E+00 -0.19978675398E+04  0.19978675398E+04  0.25500000920E-02 0.  1.
    10030    2    1    2    0    0  0.00000000000E+00  0.00000000000E+00 -0.61263373167E+03  0.33831013479E+04  0.33271691633E+04 0.  0.
        5    1    3    3  502    0 -0.12217588143E+04 -0.74001661926E+01 -0.14543417686E+04  0.18994424005E+04  0.46999998093E+01 0.  1.
       -5    1    3    3    0  502  0.12217588143E+04  0.74001661926E+01  0.84170803696E+03  0.14836589474E+04  0.46999998093E+01 0. -1.
</event>
<event>
 5   0  0.9295663E-07  0.3351570E+04  0.7818609E-02  0.8149896E-01
        1   -1    0    0  501    0  0.00000000000E+00  0.00000000000E+00  0.27183935951E+04  0.27183935951E+04  0.50400001928E-02 0. -1.
       -1   -1    0    0    0  501  0.00000000000E+00  0.00000000000E+00 -0.10330567926E+04  0.10330567926E+04  0.50400001928E-02 0.  1.
    10030    2    1    2    0    0  0.00000000000E+00  0.00000000000E+00  0.16853368025E+04  0.37514503877E+04  0.33515697626E+04 0.  0.
        4    1    3    3  502    0  0.36706424064E+03 -0.95973465074E+02  0.26696872127E+04  0.26965122825E+04  0.12699999809E+01 0. -1.
       -4    1    3    3    0  502 -0.36706424064E+03  0.95973465074E+02 -0.98435041027E+03  0.10549381052E+04  0.12699999809E+01 0.  1.
</event>
<event>
 5   0  0.2674551E-06  0.3313111E+04  0.7818609E-02  0.8159567E-01
        2   -1    0    0  501    0  0.00000000000E+00  0.00000000000E+00  0.25989706214E+04  0.25989706214E+04  0.25500000920E-02 0. -1.
       -2   -1    0    0    0  501  0.00000000000E+00  0.00000000000E+00 -0.10558700883E+04  0.10558700883E+04  0.25500000920E-02 0.  1.
    10030    2    1    2    0    0  0.00000000000E+00  0.00000000000E+00  0.15431005331E+04  0.36548407097E+04  0.33131105261E+04 0.  0.
        3    1    3    3  502    0  0.73032636837E+03  0.11291608605E+04  0.18386936305E+04  0.22779761039E+04  0.10100000352E+00 0. -1.
       -3    1    3    3    0  502 -0.73032636837E+03 -0.11291608605E+04 -0.29559309732E+03  0.13768646058E+04  0.10100000352E+00 0.  1.
</event>
<event>
 5   0  0.2674551E-06  0.3291194E+04  0.7818609E-02  0.8165140E-01
       -2   -1    0    0    0  501  0.00000000000E+00  0.00000000000E+00  0.26740021439E+04  0.26740021439E+04  0.25500000920E-02 0. -1.
        2   -1    0    0  501    0  0.00000000000E+00  0.00000000000E+00 -0.10127104167E+04  0.10127104167E+04  0.25500000920E-02 0.  1.
    10030    2    1    2    0    0  0.00000000000E+00  0.00000000000E+00  0.16612917272E+04  0.36867125606E+04  0.32911942060E+04 0.  0.
        3    1    3    3  502    0 -0.35819559426E+03 -0.47287677545E+03 -0.88876697970E+03  0.10685613145E+04  0.10100000352E+00 0.  1.
       -3    1    3    3    0  502  0.35819559426E+03  0.47287677545E+03  0.25500587069E+04  0.26181512460E+04  0.10100000352E+00 0. -1.
</event>
<event>
 5   0  0.9295663E-07  0.3206524E+04  0.7818609E-02  0.8187096E-01
       -1   -1    0    0    0  501  0.00000000000E+00  0.00000000000E+00  0.15454288611E+04  0.15454288611E+04  0.50400001928E-02 0.  1.
        1   -1    0    0  501    0  0.00000000000E+00  0.00000000000E+00 -0.16632596084E+04  0.16632596084E+04  0.50400001928E-02 0. -1.
    10030    2    1    2    0    0  0.00000000000E+00  0.00000000000E+00 -0.11783074726E+03  0.32086884695E+04  0.32065242256E+04 0.  0.
        4    1    3    3  502    0  0.16322763424E+03 -0.15047951367E+04 -0.58785148484E+03  0.16237680392E+04  0.12699999809E+01 0. -1.
       -4    1    3    3    0  502 -0.16322763424E+03  0.15047951367E+04  0.47002073758E+03  0.15849204303E+04  0.12699999809E+01 0.  1.
</event>
<event>
 5   0  0.9268670E-07  0.3309005E+04  0.7818609E-02  0.8160608E-01
       -1   -1    0    0    0  501  0.00000000000E+00  0.00000000000E+00  0.16072198580E+04  0.16072198580E+04  0.50400001928E-02 0.  1.
        1   -1    0    0  501    0  0.00000000000E+00  0.00000000000E+00 -0.17031764708E+04  0.17031764709E+04  0.50400001928E-02 0. -1.
    10030    2    1    2    0    0  0.00000000000E+00  0.00000000000E+00 -0.95956612814E+02  0.33103963289E+04  0.33090053162E+04 0.  0.
        3    1    3    3  502    0 -0.13575407766E+03 -0.10925448250E+04 -0.12835260892E+04  0.16910122992E+04  0.10100000352E+00 0. -1.
       -3    1    3    3    0  502  0.13575407766E+03  0.10925448250E+04  0.11875694764E+04  0.16193840297E+04  0.10100000352E+00 0.  1.
</event>
<event>
 5   0  0.9295663E-07  0.2985555E+04  0.7818609E-02  0.8247868E-01
        1   -1    0    0  501    0  0.00000000000E+00  0.00000000000E+00  0.26956464059E+04  0.26956464059E+04  0.50400001928E-02 0. -1.
       -1   -1    0    0    0  501  0.00000000000E+00  0.00000000000E+00 -0.82666086593E+03  0.82666086595E+03  0.50400001928E-02 0.  1.
    10030    2    1    2    0    0  0.00000000000E+00  0.00000000000E+00  0.18689855400E+04  0.35223072719E+04  0.29855554875E+04 0.  0.
        4    1    3    3  502    0 -0.35223387418E+03 -0.11209927026E+04 -0.15173458187E+03  0.11847861992E+04  0.12699999809E+01 0.  1.
       -4    1    3    3    0  502  0.35223387418E+03  0.11209927026E+04  0.20207201219E+04  0.23375210727E+04  0.12699999809E+01 0. -1.
</event>
<event>
 5   0  0.2658600E-06  0.3287260E+04  0.7818609E-02  0.8166145E-01
        2   -1    0    0  501    0  0.00000000000E+00  0.00000000000E+00  0.29807738354E+04  0.29807738354E+04  0.25500000920E-02 0. -1.
       -2   -1    0    0    0  501  0.00000000000E+00  0.00000000000E+00 -0.90631505343E+03  0.90631505343E+03  0.25500000920E-02 0.  1.
    10030    2    1    2    0    0  0.00000000000E+00  0.00000000000E+00  0.20744587820E+04  0.38870888888E+04  0.32872603778E+04 0.  0.
        5    1    3    3  502    0 -0.92477834606E+03 -0.10272582450E+04 -0.14454185562E+02  0.13822827152E+04  0.46999998093E+01 0.  1.
       -5    1    3    3    0  502  0.92477834606E+03  0.10272582450E+04  0.20889129675E+04  0.25048061736E+04  0.46999998093E+01 0. -1.
</event>
<event>
 5   0  0.9295663E-07  0.3296774E+04  0.7818609E-02  0.8163717E-01
       -1   -1    0    0    0  501  0.00000000000E+00  0.00000000000E+00  0.16561504074E+04  0.16561504074E+04  0.50400001928E-02 0. -1.
        1   -1    0    0  501    0  0.00000000000E+00  0.00000000000E+00 -0.16406603991E+04  0.16406603991E+04  0.50400001928E-02 0.  1.
    10030    2    1    2    0    0  0.00000000000E+00  0.00000000000E+00  0.15490008343E+02  0.32968108065E+04  0.32967744165E+04 0.  0.
        4    1    3    3  502    0 -0.87268295540E+03 -0.12777814674E+04  0.57597460938E+03  0.16510752202E+04  0.12699999809E+01 0. -1.
       -4    1    3    3    0  502  0.87268295540E+03  0.12777814674E+04 -0.56048460103E+03  0.16457355863E+04  0.12699999809E+01 0.  1.
</event>
<event>
 5   0  0.8705956E-07  0.2469358E+04  0.7818609E-02  0.8413984E-01
        1   -1    0    0  501    0  0.00000000000E+00  0.00000000000E+00  0.16207520697E+04  0.16207520697E+04  0.50400001928E-02 0.  1.
       -1   -1    0    0    0  501  0.00000000000E+00  0.00000000000E+00 -0.94057084592E+03  0.94057084593E+03  0.50400001928E-02 0. -1.
    10030    2    1    2    0    0  0.00000000000E+00  0.00000000000E+00  0.68018122381E+03  0.25613229157E+04  0.24693579289E+04 0.  0.
        2    1    3    3  502    0 -0.12345434729E+04 -0.17799862649E+02  0.33572387405E+03  0.12795018332E+04  0.25500000920E-02 0.  1.
       -2    1    3    3    0  502  0.12345434729E+04  0.17799862649E+02  0.34445734977E+03  0.12818210825E+04  0.25500000920E-02 0. -1.
</event>
<event>
 5   0  0.9530268E-07  0.3547973E+04  0.7818609E-02  0.8102514E-01
        1   -1    0    0  501    0  0.00000000000E+00  0.00000000000E+00  0.29035729058E+04  0.29035729058E+04  0.50400001928E-02 0.  1.
       -1   -1    0    0    0  501  0.00000000000E+00  0.00000000000E+00 -0.10838466600E+04  0.10838466600E+04  0.50400001928E-02 0. -1.
    10030    2    1    2    0    0  0.00000000000E+00  0.00000000000E+00  0.18197262458E+04  0.39874195658E+04  0.35479728274E+04 0.  0.
        5    1    3    3  502    0  0.24612120572E+03  0.15080964811E+04  0.19226305789E+04  0.24559033119E+04  0.46999998093E+01 0.  1.
       -5    1    3    3    0  502 -0.24612120572E+03 -0.15080964811E+04 -0.10290433311E+03  0.15315162539E+04  0.46999998093E+01 0. -1.
</event>
<event>
 5   0  0.2614212E-06  0.3244047E+04  0.7818609E-02  0.8177280E-01
        2   -1    0    0  501    0  0.00000000000E+00  0.00000000000E+00  0.23610094449E+04  0.23610094449E+04  0.25500000920E-02 0.  1.
       -2   -1    0    0    0  501  0.00000000000E+00  0.00000000000E+00 -0.11143367920E+04  0.11143367920E+04  0.25500000920E-02 0. -1.
    10030    2    1    2    0    0  0.00000000000E+00  0.00000000000E+00  0.12466726529E+04  0.34753462369E+04  0.32440466647E+04 0.  0.
        2    1    3    3  502    0  0.13558852708E+04  0.17733170740E+03 -0.31126954538E+03  0.14024122546E+04  0.25500000920E-02 0. -1.
       -2    1    3    3    0  502 -0.13558852708E+04 -0.17733170740E+03  0.15579421983E+04  0.20729339824E+04  0.25500000920E-02 0.  1.
</event>
<event>
 5   0  0.2574803E-06  0.3321201E+04  0.7818609E-02  0.8157522E-01
       -2   -1    0    0    0  501  0.00000000000E+00  0.00000000000E+00  0.26474650565E+04  0.26474650565E+04  0.25500000920E-02 0. -1.
        2   -1    0    0  501    0  0.00000000000E+00  0.00000000000E+00 -0.10415978789E+04  0.10415978789E+04  0.25500000920E-02 0.  1.
    10030    2    1    2    0    0  0.00000000000E+00  0.00000000000E+00  0.16058671776E+04  0.36890629354E+04  0.33212009799E+04 0.  0.
        4    1    3    3  502    0 -0.15418393215E+04 -0.31393977809E+03  0.21332341804E+03  0.15878712704E+04  0.12699999809E+01 0.  1.
       -4    1    3    3    0  502  0.15418393215E+04  0.31393977809E+03  0.13925437596E+04  0.21011916650E+04  0.12699999809E+01 0. -1.
</event>
<event>
 5   0  0.2674551E-06  0.3273980E+04  0.7818609E-02  0.8169548E-01
        2   -1    0    0  501    0  0.00000000000E+00  0.00000000000E+00  0.24405023666E+04  0.24405023666E+04  0.25500000920E-02 0. -1.
       -2   -1    0    0    0  501  0.00000000000E+00  0.00000000000E+00 -0.10980267536E+04  0.10980267536E+04  0.25500000920E-02 0.  1.
    10030    2    1    2    0    0  0.00000000000E+00  0.00000000000E+00  0.13424756130E+04  0.35385291202E+04  0.32739803853E+04 0.  0.
        3    1    3    3  502    0 -0.12687039950E+04 -0.85557132027E+02 -0.44298978887E+03  0.13465399411E+04  0.10100000352E+00 0.  1.
       -3    1    3    3    0  502  0.12687039950E+04  0.85557132027E+02  0.17854654019E+04  0.21919891791E+04  0.10100000352E+00 0. -1.
</event>
<event>
 5   0  0.8845526E-07  0.3411732E+04  0.7818609E-02  0.8135033E-01
       -1   -1    0    0    0  501  0.00000000000E+00  0.00000000000E+00  0.16291223650E+04  0.16291223650E+04  0.50400001928E-02 0. -1.
        1   -1    0    0  501    0  0.00000000000E+00  0.00000000000E+00 -0.17862250107E+04  0.17862250107E+04  0.50400001928E-02 0.  1.
    10030    2    1    2    0    0  0.00000000000E+00  0.00000000000E+00 -0.15710264570E+03  0.34153473758E+04  0.34117321782E+04 0.  0.
        1    1    3    3  502    0  0.13736182181E+03 -0.75787675142E+03 -0.16022461965E+04  0.17777621649E+04  0.50400001928E-02 0.  1.
       -1    1    3    3    0  502 -0.13736182181E+03  0.75787675142E+03  0.14451435508E+04  0.16375852109E+04  0.50400001928E-02 0. -1.
</event>
<event>
 5   0  0.9268670E-07  0.3327844E+04  0.7818609E-02  0.8155846E-01
        1   -1    0    0  501    0  0.00000000000E+00  0.00000000000E+00  0.22140167708E+04  0.22140167708E+04  0.50400001928E-02 0. -1.
       -1   -1    0    0    0  501  0.00000000000E+00  0.00000000000E+00 -0.12505036415E+04  0.12505036415E+04  0.50400001928E-02 0.  1.
    10030    2    1    2    0    0  0.00000000000E+00  0.00000000000E+00  0.96351312923E+03  0.34645204123E+04  0.33278437669E+04 0.  0.
        3    1    3    3  502    0  0.13340295534E+04  0.26674589729E+03  0.14791477625E+04  0.20096433357E+04  0.10100000352E+00 0. -1.
       -3    1    3    3    0  502 -0.13340295534E+04 -0.26674589729E+03 -0.51563463329E+03  0.14548770767E+04  0.10100000352E+00 0.  1.
</event>
<event>
 5   0  0.9530268E-07  0.3288019E+04  0.7818609E-02  0.8165951E-01
        1   -1    0    0  501    0  0.00000000000E+00  0.00000000000E+00  0.22893072725E+04  0.22893072725E+04  0.50400001928E-02 0.  1.
       -1   -1    0    0    0  501  0.00000000000E+00  0.00000000000E+00 -0.11806046976E+04  0.11806046976E+04  0.50400001928E-02 0. -1.
    10030    2    1    2    0    0  0.00000000000E+00  0.00000000000E+00  0.11087025749E+04  0.34699119701E+04  0.32880188079E+04 0.  0.
        5    1    3    3  502    0 -0.14777482714E+04 -0.71394350812E+03  0.45263714118E+03  0.17024563894E+04  0.46999998093E+01 0.  1.
       -5    1    3    3    0  502  0.14777482714E+04  0.71394350812E+03  0.65606543376E+03  0.17674555807E+04  0.46999998093E+01 0. -1.
</event>
<event>
 5   0  0.9530268E-07  0.3300363E+04  0.7818609E-02  0.8162803E-01
       -1   -1    0    0    0  501  0.00000000000E+00  0.00000000000E+00  0.19753958752E+04  0.19753958752E+04  0.50400001928E-02 0.  1.
        1   -1    0    0  501    0  0.00000000000E+00  0.00000000000E+00 -0.13785079375E+04  0.13785079375E+04  0.50400001928E-02 0. -1.
    10030    2    1    2    0    0  0.00000000000E+00  0.00000000000E+00  0.59688793775E+03  0.33539038128E+04  0.33003629459E+04 0.  0.
        5    1    3    3  502    0  0.54148781885E+02  0.15169082106E+03  0.19673820009E+04  0.19739696611E+04  0.46999998093E+01 0.  1.
       -5    1    3    3    0  502 -0.54148781885E+02 -0.15169082106E+03 -0.13704940631E+04  0.13799341516E+04  0.46999998093E+01 0. -1.
</event>
<event>
 5   0  0.2614212E-06  0.3282099E+04  0.7818609E-02  0.8167465E-01
       -2   -1    0    0    0  501  0.00000000000E+00  0.00000000000E+00  0.13177770948E+04  0.13177770948E+04  0.25500000920E-02 0.  1.
        2   -1    0    0  501    0  0.00000000000E+00  0.00000000000E+00 -0.20436253796E+04  0.20436253796E+04  0.25500000920E-02 0. -1.
    10030    2    1    2    0    0  0.00000000000E+00  0.00000000000E+00 -0.72584828481E+03  0.33614024744E+04  0.32820985455E+04 0.  0.
        2    1    3    3  502    0  0.20955123188E+03 -0.15702172344E+04 -0.80170201002E+03  0.17754492375E+04  0.25500000920E-02 0. -1.
       -2    1    3    3    0  502 -0.20955123188E+03  0.15702172344E+04  0.75853725213E+02  0.15859532369E+04  0.25500000920E-02 0.  1.
</event>
<event>
 5   0  0.2614212E-06  0.3360194E+04  0.7818609E-02  0.8147746E-01
        2   -1    0    0  501    0  0.00000000000E+00  0.00000000000E+00  0.17652012903E+04  0.17652012903E+04  0.25500000920E-02 0.  1.
       -2   -1    0    0    0  501  0.00000000000E+00  0.00000000000E+00 -0.15990955927E+04  0.15990955927E+04  0.25500000920E-02 0. -1.
    10030    2    1    2    0    0  0.00000000000E+00  0.00000000000E+00  0.16610569764E+03  0.33642968830E+04  0.33601938061E+04 0.  0.
        2    1    3    3  502    0  0.73551909006E+03 -0.30216228062E+03  0.15648719681E+04  0.17553104148E+04  0.25500000920E-02 0.  1.
       -2    1    3    3    0  502 -0.73551909006E+03  0.30216228062E+03 -0.13987662704E+04  0.16089864683E+04  0.25500000920E-02 0. -1.
</event>
<event>
 5   0  0.9268670E-07  0.3309589E+04  0.7818609E-02  0.8160460E-01
       -1   -1    0    0    0  501  0.00000000000E+00  0.00000000000E+00  0.11897362375E+04  0.11897362375E+04  0.50400001928E-02 0.  1.
        1   -1    0    0  501    0  0.00000000000E+00  0.00000000000E+00 -0.23016403538E+04  0.23016403538E+04  0.50400001928E-02 0. -1.
    10030    2    1    2    0    0  0.00000000000E+00  0.00000000000E+00 -0.11119041163E+04  0.34913765914E+04  0.33095890589E+04 0.  0.
        3    1    3    3  502    0 -0.13893444046E+03 -0.10300432980E+04 -0.19143337559E+04  0.21782942211E+04  0.10100000352E+00 0. -1.
       -3    1    3    3    0  502  0.13893444046E+03  0.10300432980E+04  0.80242963957E+03  0.13130823703E+04  0.10100000352E+00 0.  1.
</event>
<event>
 5   0  0.8845526E-07  0.3198355E+04  0.7818609E-02  0.8189252E-01
       -1   -1    0    0    0  501  0.00000000000E+00  0.00000000000E+00  0.29780860107E+04  0.29780860107E+04  0.50400001928E-02 0.  1.
        1   -1    0    0  501    0  0.00000000000E+00  0.00000000000E+00 -0.85872916929E+03  0.85872916930E+03  0.50400001928E-02 0. -1.
    10030    2    1    2    0    0  0.00000000000E+00  0.00000000000E+00  0.21193568414E+04  0.38368151800E+04  0.31983554062E+04 0.  0.
        1    1    3    3  502    0 -0.11786371832E+04  0.83169301385E+03  0.23161777945E+03  0.14610084444E+04  0.50400001928E-02 0.  1.
       -1    1    3    3    0  502  0.11786371832E+04 -0.83169301385E+03  0.18877390619E+04  0.23758067356E+04  0.50400001928E-02 0. -1.
</event>
<event>
 5   0  0.2705859E-06  0.3295818E+04  0.7818609E-02  0.8163960E-01
       -2   -1    0    0    0  501  0.00000000000E+00  0.00000000000E+00  0.10843755649E+04  0.10843755649E+04  0.25500000920E-02 0. -1.
        2   -1    0    0  501    0  0.00000000000E+00  0.00000000000E+00 -0.25043016431E+04  0.25043016431E+04  0.25500000920E-02 0.  1.
    10030    2    1    2    0    0  0.00000000000E+00  0.00000000000E+00 -0.14199260782E+04  0.35886772080E+04  0.32958176581E+04 0.  0.
        1    1    3    3  502    0 -0.48632260192E+03 -0.13964005544E+03  0.99770313541E+03  0.11186691042E+04  0.50400001928E-02 0. -1.
       -1    1    3    3    0  502  0.48632260192E+03  0.13964005544E+03 -0.24176292137E+04  0.24700081038E+04  0.50400001928E-02 0.  1.
</event>
<event>
 5   0  0.2658600E-06  0.3353807E+04  0.7818609E-02  0.8149338E-01
        2   -1    0    0  501    0  0.00000000000E+00  0.00000000000E+00  0.24702015440E+04  0.24702015440E+04  0.25500000920E-02 0.  1.
       -2   -1    0    0    0  501  0.00000000000E+00  0.00000000000E+00 -0.11383708016E+04  0.11383708016E+04  0.25500000920E-02 0. -1.
    10030    2    1    2    0    0  0.00000000000E+00  0.00000000000E+00  0.13318307425E+04  0.36085723456E+04  0.33538069782E+04 0.  0.
        5    1    3    3  502    0  0.10764547859E+04  0.11970510301E+04  0.16090326509E+03  0.16178992630E+04  0.46999998093E+01 0. -1.
       -5    1    3    3    0  502 -0.10764547859E+04 -0.11970510301E+04  0.11709274774E+04  0.19906730826E+04  0.46999998093E+01 0.  1.
</event>
<event>
 5   0  0.8705956E-07  0.3267513E+04  0.7818609E-02  0.8171211E-01
       -1   -1    0    0    0  501  0.00000000000E+00  0.00000000000E+00  0.14290086818E+04  0.14290086818E+04  0.50400001928E-02 0. -1.
        1   -1    0    0  501    0  0.00000000000E+00  0.00000000000E+00 -0.18678400042E+04  0.18678400042E+04  0.50400001928E-02 0.  1.
    10030    2    1    2    0    0  0.00000000000E+00  0.00000000000E+00 -0.43883132238E+03  0.32968486860E+04  0.32675125598E+04 0.  0.
        2    1    3    3  502    0 -0.44644117097E+03  0.53836241230E+02  0.13653390700E+04  0.14374835081E+04  0.25500000920E-02 0. -1.
       -2    1    3    3    0  502  0.44644117097E+03 -0.53836241230E+02 -0.18041703924E+04  0.18593651779E+04  0.25500000920E-02 0.  1.
</event>
<event>
 5   0  0.8705956E-07  0.3060251E+04  0.7818609E-02  0.8226732E-01
        1   -1    0    0  501    0  0.00000000000E+00  0.00000000000E+00  0.17608005301E+04  0.17608005301E+04  0.50400001928E-02 0.  1.
       -1   -1    0    0    0  501  0.00000000000E+00  0.00000000000E+00 -0.13296699882E+04  0.13296699882E+04  0.50400001928E-02 0. -1.
    10030    2    1    2    0    0  0.00000000000E+00  0.00000000000E+00  0.43113054196E+03  0.30904705183E+04  0.30602507218E+04 0.  0.
        2    1    3    3  502    0 -0.16355063752E+02 -0.13534666170E+04  0.93615491611E+03  0.16457598241E+04  0.25500000920E-02 0.  1.
       -2    1    3    3    0  502  0.16355063752E+02  0.13534666170E+04 -0.50502437415E+03  0.14447106942E+04  0.25500000920E-02 0. -1.
</event>
<event>
 5   0  0.9268670E-07  0.3145530E+04  0.7818609E-02  0.8203353E-01
       -1   -1    0    0    0  501  0.00000000000E+00  0.00000000000E+00  0.19713097771E+04  0.19713097771E+04  0.50400001928E-02 0.  1.
        1   -1    0    0  501    0  0.00000000000E+00  0.00000000000E+00 -0.12547950155E+04  0.12547950155E+04  0.50400001928E-02 0. -1.
    10030    2    1    2    0    0  0.00000000000E+00  0.00000000000E+00  0.71651476160E+03  0.32261047927E+04  0.31455299601E+04 0.  0.
        3    1    3    3  502    0 -0.81630469744E+03  0.89661309023E+03  0.13855748092E+04  0.18412186059E+04  0.10100000352E+00 0.  1.
       -3    1    3    3    0  502  0.81630469744E+03 -0.89661309023E+03 -0.66906004765E+03  0.13848861867E+04  0.10100000352E+00 0. -1.
</event>
<event>
 5   0  0.2674551E-06  0.3296519E+04  0.7818609E-02  0.8163782E-01
        2   -1    0    0  501    0  0.00000000000E+00  0.00000000000E+00  0.16626245007E+04  0.16626245007E+04  0.25500000920E-02 0.  1.
       -2   -1    0    0    0  501  0.00000000000E+00  0.00000000000E+00 -0.16340190303E+04  0.16340190304E+04  0.25500000920E-02 0. -1.
    10030    2    1    2    0    0  0.00000000000E+00  0.00000000000E+00  0.28605470381E+02  0.32966435311E+04  0.32965194218E+04 0.  0.
        3    1    3    3  502    0  0.42246447118E+02 -0.66679028683E+03 -0.14925273716E+04  0.16352467747E+04  0.10100000352E+00 0. -1.
       -3    1    3    3    0  502 -0.42246447118E+02  0.66679028683E+03  0.15211328420E+04  0.16613967564E+04  0.10100000352E+00 0.  1.
</event>
<event>
 5   0  0.9530268E-07  0.3428896E+04  0.7818609E-02  0.8130850E-01
        1   -1    0    0  501    0  0.00000000000E+00  0.00000000000E+00  0.23020066719E+04  0.23020066719E+04  0.50400001928E-02 0. -1.
       -1   -1    0    0    0  501  0.00000000000E+00  0.00000000000E+00 -0.12768566436E+04  0.12768566437E+04  0.50400001928E-02 0.  1.
    10030    2    1    2    0    0  0.00000000000E+00  0.00000000000E+00  0.10251500282E+04  0.35788633156E+04  0.34288963313E+04 0.  0.
        5    1    3    3  502    0 -0.12733946328E+04  0.11460346189E+04  0.44348957608E+03  0.17696424307E+04  0.46999998093E+01 0.  1.
       -5    1    3    3    0  502  0.12733946328E+04 -0.11460346189E+04  0.58166045217E+03  0.18092208848E+04  0.46999998093E+01 0. -1.
</event>
<event>
 5   0  0.8705956E-07  0.3355803E+04  0.7818609E-02  0.8148840E-01
        1   -1    0    0  501    0  0.00000000000E+00  0.00000000000E+00  0.21906114322E+04  0.21906114322E+04  0.50400001928E-02 0. -1.
       -1   -1    0    0    0  501  0.00000000000E+00  0.00000000000E+00 -0.12851903432E+04  0.12851903432E+04  0.50400001928E-02 0.  1.
    10030    2    1    2    0    0  0.00000000000E+00  0.00000000000E+00  0.90542108903E+03  0.34758017754E+04  0.33558025320E+04 0.  0.
        2    1    3    3  502    0 -0.13698256068E+04 -0.24439688341E+03 -0.51847586934E+03  0.14849138886E+04  0.25500000920E-02 0.  1.
       -2    1    3    3    0  502  0.13698256068E+04  0.24439688341E+03  0.14238969584E+04  0.19908878868E+04  0.25500000920E-02 0. -1.
</event>
<event>
 5   0  0.2674551E-06  0.3344812E+04  0.7818609E-02  0.8151586E-01
       -2   -1    0    0    0  501  0.00000000000E+00  0.00000000000E+00  0.15025528894E+04  0.15025528894E+04  0.25500000920E-02 0. -1.
        2   -1    0    0  501    0  0.00000000000E+00  0.00000000000E+00 -0.18614597651E+04  0.18614597651E+04  0.25500000920E-02 0.  1.
    10030    2    1    2    0    0  0.00000000000E+00  0.00000000000E+00 -0.35890687575E+03  0.33640126545E+04  0.33448119520E+04 0.  0.
        3    1    3    3  502    0  0.13400896236E+04 -0.99344319901E+03 -0.59723219559E+02  0.16692322973E+04  0.10100000352E+00 0.  1.
       -3    1    3    3    0  502 -0.13400896236E+04  0.99344319901E+03 -0.29918365619E+03  0.16947803573E+04  0.10100000352E+00 0. -1.
</event>
<event>
 5   0  0.2658600E-06  0.2999734E+04  0.7818609E-02  0.8243807E-01
        2   -1    0    0  501    0  0.00000000000E+00  0.00000000000E+00  0.14839650602E+04  0.14839650602E+04  0.25500000920E-02 0. -1.
       -2   -1    0    0    0  501  0.00000000000E+00  0.00000000000E+00 -0.15159391179E+04  0.15159391179E+04  0.25500000920E-02 0.  1.
    10030    2    1    2    0    0  0.00000000000E+00  0.00000000000E+00 -0.31974057709E+02  0.29999041781E+04  0.29997337778E+04 0.  0.
        5    1    3    3  502    0  0.29125333904E+02  0.11368933138E+04 -0.99389936651E+03  0.15103750305E+04  0.46999998093E+01 0.  1.
       -5    1    3    3    0  502 -0.29125333904E+02 -0.11368933138E+04  0.96192530880E+03  0.14895291477E+04  0.46999998093E+01 0. -1.
</event>
<event>
 5   0  0.2658600E-06  0.3212471E+04  0.7818609E-02  0.8185531E-01
       -2   -1    0    0    0  501  0.00000000000E+00  0.00000000000E+00  0.16732185851E+04  0.16732185851E+04  0.25500000920E-02 0. -1.
        2   -1    0    0  501    0  0.00000000000E+00  0.00000000000E+00 -0.15419334586E+04  0.15419334586E+04  0.25500000920E-02 0.  1.
    10030    2    1    2    0    0  0.00000000000E+00  0.00000000000E+00  0.13128512654E+03  0.32151520437E+04  0.32124705259E+04 0.  0.
        5    1    3    3  502    0  0.38251200093E+03  0.99862760248E+03 -0.11338557044E+04  0.15585966020E+04  0.46999998093E+01 0.  1.
       -5    1    3    3    0  502 -0.38251200093E+03 -0.99862760248E+03  0.12651408310E+04  0.16565554417E+04  0.46999998093E+01 0. -1.
</event>
<event>
 5   0  0.2658600E-06  0.3065753E+04  0.7818609E-02  0.8225200E-01
        2   -1    0    0  501    0  0.00000000000E+00  0.00000000000E+00  0.17614734218E+04  0.17614734218E+04  0.25500000920E-02 0. -1.
       -2   -1    0    0    0  501  0.00000000000E+00  0.00000000000E+00 -0.13339461837E+04  0.13339461837E+04  0.25500000920E-02 0.  1.
    10030    2    1    2    0    0  0.00000000000E+00  0.00000000000E+00  0.42752723808E+03  0.30954196055E+04  0.30657532508E+04 0.  0.
        5    1    3    3  502    0  0.10479077355E+04  0.13014404798E+03  0.13356596258E+04  0.17026616872E+04  0.46999998093E+01 0. -1.
       -5    1    3    3    0  502 -0.10479077355E+04 -0.13014404798E+03 -0.90813238767E+03  0.13927579182E+04  0.46999998093E+01 0.  1.
</event>
<event>
 5   0  0.2614212E-06  0.3234270E+04  0.7818609E-02  0.8179825E-01
       -2   -1    0    0    0  501  0.00000000000E+00  0.00000000000E+00  0.11273096204E+04  0.11273096204E+04  0.25500000920E-02 0.  1.
        2   -1    0    0  501    0  0.00000000000E+00  0.00000000000E+00 -0.23197931809E+04  0.23197931809E+04  0.25500000920E-02 0. -1.
    10030    2    1    2    0    0  0.00000000000E+00  0.00000000000E+00 -0.11924835605E+04  0.34471028014E+04  0.32342697292E+04 0.  0.
        2    1    3    3  502    0  0.10851732861E+04 -0.64647068515E+03  0.47995790862E+03  0.13512531228E+04  0.25500000920E-02 0.  1.
       -2    1    3    3    0  502 -0.10851732861E+04  0.64647068515E+03 -0.16724414691E+04  0.20958496786E+04  0.25500000920E-02 0. -1.
</event>
<event>
 5   0  0.2574803E-06  0.3291787E+04  0.7818609E-02  0.8164988E-01
       -2   -1    0    0    0  501  0.00000000000E+00  0.00000000000E+00  0.10786251068E+04  0.10786251068E+04  0.25500000920E-02 0. -1.
        2   -1    0    0  501    0  0.00000000000E+00  0.00000000000E+00 -0.25114982354E+04  0.25114982354E+04  0.25500000920E-02 0.  1.
    10030    2    1    2    0    0  0.00000000000E+00  0.00000000000E+00 -0.14328731287E+04  0.35901233422E+04  0.32917867807E+04 0.  0.
        4    1    3    3  502    0 -0.73956596112E+03 -0.42345403396E+03  0.81925972060E+03  0.11821417988E+04  0.12699999809E+01 0. -1.
       -4    1    3    3    0  502  0.73956596112E+03  0.42345403396E+03 -0.22521328493E+04  0.24079815434E+04  0.12699999809E+01 0.  1.
</event>
<event>
 5   0  0.2674551E-06  0.3283970E+04  0.7818609E-02  0.8166986E-01
       -2   -1    0    0    0  501  0.00000000000E+00  0.00000000000E+00  0.13572569832E+04  0.13572569832E+04  0.25500000920E-02 0.  1.
        2   -1    0    0  501    0  0.00000000000E+00  0.00000000000E+00 -0.19864435792E+04  0.19864435792E+04  0.25500000920E-02 0. -1.
    10030    2    1    2    0    0  0.00000000000E+00  0.00000000000E+00 -0.62918659598E+03  0.33437005623E+04  0.32839698047E+04 0.  0.
        3    1    3    3  502    0 -0.76717427575E+01 -0.73698087881E+03 -0.18085624785E+04  0.19529715615E+04  0.10100000352E+00 0. -1.
       -3    1    3    3    0  502  0.76717427575E+01  0.73698087881E+03  0.11793758825E+04  0.13907290008E+04  0.10100000352E+00 0.  1.
</event>
<event>
 5   0  0.2658600E-06  0.3235322E+04  0.7818609E-02  0.8179551E-01
       -2   -1    0    0    0  501  0.00000000000E+00  0.00000000000E+00  0.12765578731E+04  0.12765578731E+04  0.25500000920E-02 0. -1.
        2   -1    0    0  501    0  0.00000000000E+00  0.00000000000E+00 -0.20499087444E+04  0.20499087444E+04  0.25500000920E-02 0.  1.
    10030    2    1    2    0    0  0.00000000000E+00  0.00000000000E+00 -0.77335087133E+03  0.33264666175E+04  0.32353220222E+04 0.  0.
        5    1    3    3  502    0  0.83486730752E+02  0.69490012345E+01 -0.20476698239E+04  0.20493882308E+04  0.46999998093E+01 0.  1.
       -5    1    3    3    0  502 -0.83486730752E+02 -0.69490012345E+01  0.12743189526E+04  0.12770783867E+04  0.46999998093E+01 0. -1.
</event>
<event>
 5   0  0.2574803E-06  0.3073881E+04  0.7818609E-02  0.8222943E-01
       -2   -1    0    0    0  501  0.00000000000E+00  0.00000000000E+00  0.14687819938E+04  0.14687819938E+04  0.25500000920E-02 0.  1.
        2   -1    0    0  501    0  0.00000000000E+00  0.00000000000E+00 -0.16082617973E+04  0.16082617973E+04  0.25500000920E-02 0. -1.
    10030    2    1    2    0    0  0.00000000000E+00  0.00000000000E+00 -0.13947980350E+03  0.30770437911E+04  0.30738809145E+04 0.  0.
        4    1    3    3  502    0 -0.11351991797E+04  0.30459847370E+03 -0.10610754802E+04  0.15834583024E+04  0.12699999809E+01 0. -1.
       -4    1    3    3    0  502  0.11351991797E+04 -0.30459847370E+03  0.92159567672E+03  0.14935854887E+04  0.12699999809E+01 0.  1.
</event>
<event>
 5   0  0.2705859E-06  0.3243770E+04  0.7818609E-02  0.8177352E-01
       -2   -1    0    0    0  501  0.00000000000E+00  0.00000000000E+00  0.15941874897E+04  0.15941874897E+04  0.25500000920E-02 0. -1.
        2   -1    0    0  501    0  0.00000000000E+00  0.00000000000E+00 -0.16500633574E+04  0.16500633574E+04  0.25500000920E-02 0.  1.
    10030    2    1    2    0    0  0.00000000000E+00  0.00000000000E+00 -0.55875867646E+02  0.32442508471E+04  0.32437696352E+04 0.  0.
        1    1    3    3  502    0  0.15457613407E+04  0.48209981214E+03 -0.12128992974E+03  0.16237332289E+04  0.50400001928E-02 0.  1.
       -1    1    3    3    0  502 -0.15457613407E+04 -0.48209981214E+03  0.65414062095E+02  0.16205176182E+04  0.50400001928E-02 0. -1.
</event>
<event>
 5   0  0.8705956E-07  0.3361158E+04  0.7818609E-02  0.8147506E-01
       -1   -1    0    0    0  501  0.00000000000E+00  0.00000000000E+00  0.12510125356E+04  0.12510125356E+04  0.50400001928E-02 0. -1.
        1   -1    0    0  501    0  0.00000000000E+00  0.00000000000E+00 -0.22576481897E+04  0.22576481897E+04  0.50400001928E-02 0.  1.
    10030    2    1    2    0    0  0.00000000000E+00  0.00000000000E+00 -0.10066356542E+04  0.35086607253E+04  0.33611582446E+04 0.  0.
        2    1    3    3  502    0 -0.59063944195E+03  0.86698330408E+03  0.86724763203E+03  0.13611147840E+04  0.25500000920E-02 0. -1.
       -2    1    3    3    0  502  0.59063944195E+03 -0.86698330408E+03 -0.18738832862E+04  0.21475459413E+04  0.25500000920E-02 0.  1.
</event>
<event>
 5   0  0.2674551E-06  0.3294962E+04  0.7818609E-02  0.8164178E-01
        2   -1    0    0  501    0  0.00000000000E+00  0.00000000000E+00  0.17086121241E+04  0.17086121241E+04  0.25500000920E-02 0.  1.
       -2   -1    0    0    0  501  0.00000000000E+00  0.00000000000E+00 -0.15885369929E+04  0.15885369929E+04  0.25500000920E-02 0. -1.
    10030    2    1    2    0    0  0.00000000000E+00  0.00000000000E+00  0.12007513126E+03  0.32971491170E+04  0.32949619516E+04 0.  0.
        3    1    3    3  502    0 -0.10308617347E+04  0.12551154798E+04 -0.21619416777E+03  0.16385147885E+04  0.10100000352E+00 0. -1.
       -3    1    3    3    0  502  0.10308617347E+04 -0.12551154798E+04  0.33626929903E+03  0.16586343285E+04  0.10100000352E+00 0.  1.
</event>
<event>
 5   0  0.9295663E-07  0.3275560E+04  0.7818609E-02  0.8169142E-01
       -1   -1    0    0    0  501  0.00000000000E+00  0.00000000000E+00  0.94488545768E+03  0.94488545769E+03  0.50400001928E-02 0.  1.
        1   -1    0    0  501    0  0.00000000000E+00  0.00000000000E+00 -0.28387821909E+04  0.28387821909E+04  0.50400001928E-02 0. -1.
    10030    2    1    2    0    0  0.00000000000E+00  0.00000000000E+00 -0.18938967332E+04  0.37836676486E+04  0.32755604160E+04 0.  0.
        4    1    3    3  502    0  0.14041659961E+04  0.83804631651E+03 -0.84159386409E+03  0.18390991323E+04  0.12699999809E+01 0. -1.
       -4    1    3    3    0  502 -0.14041659961E+04 -0.83804631651E+03 -0.10523028691E+04  0.19445685163E+04  0.12699999809E+01 0.  1.
</event>
<event>
 5   0  0.8845526E-07  0.3314817E+04  0.7818609E-02  0.8159135E-01
        1   -1    0    0  501    0  0.00000000000E+00  0.00000000000E+00  0.25189472303E+04  0.25189472303E+04  0.50400001928E-02 0.  1.
       -1   -1    0    0    0  501  0.00000000000E+00  0.00000000000E+00 -0.10905359371E+04  0.10905359371E+04  0.50400001928E-02 0. -1.
    10030    2    1    2    0    0  0.00000000000E+00  0.00000000000E+00  0.14284112932E+04  0.36094831674E+04  0.33148167239E+04 0.  0.
        1    1    3    3  502    0  0.98437347410E+02  0.11859687846E+04 -0.54194105792E+03  0.13076360272E+04  0.50400001928E-02 0. -1.
       -1    1    3    3    0  502 -0.98437347410E+02 -0.11859687846E+04  0.19703523511E+04  0.23018471402E+04  0.50400001928E-02 0.  1.
</event>
<event>
 5   0  0.9530268E-07  0.3215639E+04  0.7818609E-02  0.8184699E-01
        1   -1    0    0  501    0  0.00000000000E+00  0.00000000000E+00  0.11999526250E+04  0.11999526250E+04  0.50400001928E-02 0. -1.
       -1   -1    0    0    0  501  0.00000000000E+00  0.00000000000E+00 -0.21543219176E+04  0.21543219176E+04  0.50400001928E-02 0.  1.
    10030    2    1    2    0    0  0.00000000000E+00  0.00000000000E+00 -0.95436929266E+03  0.33542745426E+04  0.32156394326E+04 0.  0.
        5    1    3    3  502    0  0.13344413289E+04  0.57339850070E+03  0.24214174921E+03  0.14724721449E+04  0.46999998093E+01 0.  1.
       -5    1    3    3    0  502 -0.13344413289E+04 -0.57339850070E+03 -0.11965110419E+04  0.18818023977E+04  0.46999998093E+01 0. -1.
</event>
<event>
 5   0  0.2574803E-06  0.3293868E+04  0.7818609E-02  0.8164457E-01
        2   -1    0    0  501    0  0.00000000000E+00  0.00000000000E+00  0.18997419089E+04  0.18997419089E+04  0.25500000920E-02 0. -1.
       -2   -1    0    0    0  501  0.00000000000E+00  0.00000000000E+00 -0.14277688310E+04  0.14277688310E+04  0.25500000920E-02 0.  1.
    10030    2    1    2    0    0  0.00000000000E+00  0.00000000000E+00  0.47197307787E+03  0.33275107399E+04  0.32938684153E+04 0.  0.
        4    1    3    3  502    0  0.23072174236E+03  0.11980106987E+04 -0.88162595084E+03  0.15052335655E+04  0.12699999809E+01 0.  1.
       -4    1    3    3    0  502 -0.23072174236E+03 -0.11980106987E+04  0.13535990287E+04  0.18222771743E+04  0.12699999809E+01 0. -1.
</event>
<event>
 5   0  0.8705956E-07  0.3310603E+04  0.7818609E-02  0.8160203E-01
       -1   -1    0    0    0  501  0.00000000000E+00  0.00000000000E+00  0.27145975085E+04  0.27145975085E+04  0.50400001928E-02 0.  1.
        1   -1    0    0  501    0  0.00000000000E+00  0.00000000000E+00 -0.10093662606E+04  0.10093662607E+04  0.50400001928E-02 0. -1.
    10030    2    1    2    0    0  0.00000000000E+00  0.00000000000E+00  0.17052312479E+04  0.37239637691E+04  0.33106030486E+04 0.  0.
        2    1    3    3  502    0 -0.11011000266E+04 -0.64293435334E+03 -0.33475740522E+03  0.13182747710E+04  0.25500000920E-02 0. -1.
       -2    1    3    3    0  502  0.11011000266E+04  0.64293435334E+03  0.20399886531E+04  0.24056889982E+04  0.25500000920E-02 0.  1.
</event>
<event>
 5   0  0.2614212E-06  0.3159203E+04  0.7818609E-02  0.8199675E-01
       -2   -1    0    0    0  501  0.00000000000E+00  0.00000000000E+00  0.12770314792E+04  0.12770314793E+04  0.25500000920E-02 0. -1.
        2   -1    0    0  501    0  0.00000000000E+00  0.00000000000E+00 -0.19538604873E+04  0.19538604873E+04  0.25500000920E-02 0.  1.
    10030    2    1    2    0    0  0.00000000000E+00  0.00000000000E+00 -0.67682900802E+03  0.32308919665E+04  0.31592032846E+04 0.  0.
        2    1    3    3  502    0 -0.13149628323E+04 -0.26094123738E+03 -0.11927901468E+04  0.17944263468E+04  0.25500000920E-02 0.  1.
       -2    1    3    3    0  502  0.13149628323E+04  0.26094123738E+03  0.51596113880E+03  0.14364656197E+04  0.25500000920E-02 0. -1.
</event>
<event>
 5   0  0.2705859E-06  0.3292032E+04  0.7818609E-02  0.8164926E-01
        2   -1    0    0  501    0  0.00000000000E+00  0.00000000000E+00  0.10545397924E+04  0.10545397924E+04  0.25500000920E-02 0. -1.
       -2   -1    0    0    0  501  0.00000000000E+00  0.00000000000E+00 -0.25692421177E+04  0.25692421177E+04  0.25500000920E-02 0.  1.
    10030    2    1    2    0    0  0.00000000000E+00  0.00000000000E+00 -0.15147023253E+04  0.36237819101E+04  0.32920316216E+04 0.  0.
        1    1    3    3  502    0 -0.12003143690E+04 -0.81554516679E+03 -0.16124897978E+04  0.21693298163E+04  0.50400001928E-02 0.  1.
       -1    1    3    3    0  502  0.12003143690E+04  0.81554516679E+03  0.97787472514E+02  0.14544520939E+04  0.50400001928E-02 0. -1.
</event>
<event>
 5   0  0.2658600E-06  0.3319116E+04  0.7818609E-02  0.8158048E-01
       -2   -1    0    0    0  501  0.00000000000E+00  0.00000000000E+00  0.10992722634E+04  0.10992722634E+04  0.25500000920E-02 0. -1.
        2   -1    0    0  501    0  0.00000000000E+00  0.00000000000E+00 -0.25054145872E+04  0.25054145872E+04  0.25500000920E-02 0.  1.
    10030    2    1    2    0    0  0.00000000000E+00  0.00000000000E+00 -0.14061423238E+04  0.36046868506E+04  0.33191160052E+04 0.  0.
        5    1    3    3  502    0  0.10265117351E+04 -0.56809266483E+03  0.57165047037E+03  0.13050907893E+04  0.46999998093E+01 0. -1.
       -5    1    3    3    0  502 -0.10265117351E+04  0.56809266483E+03 -0.19777927942E+04  0.22995960612E+04  0.46999998093E+01 0.  1.
</event>
<event>
 5   0  0.8705956E-07  0.2364949E+04  0.7818609E-02  0.8452744E-01
        1   -1    0    0  501    0  0.00000000000E+00  0.00000000000E+00  0.12854042883E+04  0.12854042883E+04  0.50400001928E-02 0.  1.
       -1   -1    0    0    0  501  0.00000000000E+00  0.00000000000E+00 -0.10877868707E+04  0.10877868707E+04  0.50400001928E-02 0. -1.
    10030    2    1    2    0    0  0.00000000000E+00  0.00000000000E+00  0.19761741766E+03  0.23731911590E+04  0.23649489706E+04 0.  0.
        2    1    3    3  502    0 -0.51776469001E+03  0.90918174151E+03  0.65168640091E+03  0.12326341219E+04  0.25500000920E-02 0.  1.
       -2    1    3    3    0  502  0.51776469001E+03 -0.90918174151E+03 -0.45406898324E+03  0.11405570371E+04  0.25500000920E-02 0. -1.
</event>
<event>
 5   0  0.9295663E-07  0.3259247E+04  0.7818609E-02  0.8173343E-01
        1   -1    0    0  501    0  0.00000000000E+00  0.00000000000E+00  0.18910129820E+04  0.18910129820E+04  0.50400001928E-02 0.  1.
       -1   -1    0    0    0  501  0.00000000000E+00  0.00000000000E+00 -0.14043654605E+04  0.14043654605E+04  0.50400001928E-02 0. -1.
    10030    2    1    2    0    0  0.00000000000E+00  0.00000000000E+00  0.48664752146E+03  0.32953784425E+04  0.32592473470E+04 0.  0.
        4    1    3    3  502    0 -0.70785074928E+03  0.82305562013E+03 -0.98555036411E+03  0.14662142989E+04  0.12699999809E+01 0. -1.
       -4    1    3    3    0  502  0.70785074928E+03 -0.82305562013E+03  0.14721978856E+04  0.18291641436E+04  0.12699999809E+01 0.  1.
</event>
<event>
 5   0  0.2574803E-06  0.3297988E+04  0.7818609E-02  0.8163408E-01
        2   -1    0    0  501    0  0.00000000000E+00  0.00000000000E+00  0.13233025042E+04  0.13233025042E+04  0.25500000920E-02 0. -1.
       -2   -1    0    0    0  501  0.00000000000E+00  0.00000000000E+00 -0.20548448632E+04  0.20548448632E+04  0.25500000920E-02 0.  1.
    10030    2    1    2    0    0  0.00000000000E+00  0.00000000000E+00 -0.73154235895E+03  0.33781473674E+04  0.32979880856E+04 0.  0.
        4    1    3    3  502    0  0.15902902125E+04  0.14681098845E+03 -0.78636468474E+03  0.17801537733E+04  0.12699999809E+01 0.  1.
       -4    1    3    3    0  502 -0.15902902125E+04 -0.14681098845E+03  0.54822325785E+02  0.15979935941E+04  0.12699999809E+01 0. -1.
</event>
<event>
 5   0  0.2674551E-06  0.3234807E+04  0.7818609E-02  0.8179685E-01
       -2   -1    0    0    0  501  0.00000000000E+00  0.00000000000E+00  0.19802758878E+04  0.19802758878E+04  0.25500000920E-02 0.  1.
        2   -1    0    0  501    0  0.00000000000E+00  0.00000000000E+00 -0.13210250360E+04  0.13210250360E+04  0.25500000920E-02 0. -1.
    10030    2    1    2    0    0  0.00000000000E+00  0.00000000000E+00  0.65925085176E+03  0.33013009238E+04  0.32348069655E+04 0.  0.
        3    1    3    3  502    0  0.15606438709E+04  0.22409554672E+03 -0.38575921423E+02  0.15771227656E+04  0.10100000352E+00 0. -1.
       -3    1    3    3    0  502 -0.15606438709E+04 -0.22409554672E+03  0.69782677318E+03  0.17241781582E+04  0.10100000352E+00 0.  1.
</event>
<event>
 5   0  0.8845526E-07  0.3095318E+04  0.7818609E-02  0.8217024E-01
       -1   -1    0    0    0  501  0.00000000000E+00  0.00000000000E+00  0.12235548065E+04  0.12235548065E+04  0.50400001928E-02 0.  1.
        1   -1    0    0  501    0  0.00000000000E+00  0.00000000000E+00 -0.19576138809E+04  0.19576138809E+04  0.50400001928E-02 0. -1.
    10030    2    1    2    0    0  0.00000000000E+00  0.00000000000E+00 -0.73405907441E+03  0.31811686874E+04  0.30953176724E+04 0.  0.
        1    1    3    3  502    0 -0.27048243114E+03  0.57132713118E+02 -0.19320328804E+04  0.19517110297E+04  0.50400001928E-02 0. -1.
       -1    1    3    3    0  502  0.27048243114E+03 -0.57132713118E+02  0.11979738059E+04  0.12294576578E+04  0.50400001928E-02 0.  1.
</event>
<event>
 5   0  0.9268670E-07  0.3393470E+04  0.7818609E-02  0.8139511E-01
        1   -1    0    0  501    0  0.00000000000E+00  0.00000000000E+00  0.20226094506E+04  0.20226094506E+04  0.50400001928E-02 0.  1.
       -1   -1    0    0    0  501  0.00000000000E+00  0.00000000000E+00 -0.14233645024E+04  0.14233645024E+04  0.50400001928E-02 0. -1.
    10030    2    1    2    0    0  0.00000000000E+00  0.00000000000E+00  0.59924494823E+03  0.34459739530E+04  0.33934704915E+04 0.  0.
        3    1    3    3  502    0  0.86768511862E+03  0.10407669361E+04  0.13366163022E+04  0.19033172173E+04  0.10100000352E+00 0.  1.
       -3    1    3    3    0  502 -0.86768511862E+03 -0.10407669361E+04 -0.73737135396E+03  0.15426567357E+04  0.10100000352E+00 0. -1.
</event>
<event>
 5   0  0.8705956E-07  0.3215406E+04  0.7818609E-02  0.8184760E-01
        1   -1    0    0  501    0  0.00000000000E+00  0.00000000000E+00  0.22549939304E+04  0.22549939304E+04  0.50400001928E-02 0.  1.
       -1   -1    0    0    0  501  0.00000000000E+00  0.00000000000E+00 -0.11462153471E+04  0.11462153471E+04  0.50400001928E-02 0. -1.
    10030    2    1    2    0    0  0.00000000000E+00  0.00000000000E+00  0.11087785833E+04  0.34012092775E+04  0.32154058224E+04 0.  0.
        2    1    3    3  502    0 -0.18819451290E+03  0.13606970320E+04 -0.32922250929E+03  0.14125512551E+04  0.25500000920E-02 0. -1.
       -2    1    3    3    0  502  0.18819451290E+03 -0.13606970320E+04  0.14380010926E+04  0.19886580224E+04  0.25500000920E-02 0.  1.
</event>
<event>
 5   0  0.8705956E-07  0.3395084E+04  0.7818609E-02  0.8139114E-01
       -1   -1    0    0    0  501  0.00000000000E+00  0.00000000000E+00  0.24298048644E+04  0.24298048644E+04  0.50400001928E-02 0.  1.
        1   -1    0    0  501    0  0.00000000000E+00  0.00000000000E+00 -0.11859587618E+04  0.11859587619E+04  0.50400001928E-02 0. -1.
    10030    2    1    2    0    0  0.00000000000E+00  0.00000000000E+00  0.12438461025E+04  0.36157636262E+04  0.33950837212E+04 0.  0.
        2    1    3    3  502    0  0.12908207817E+04  0.94669917619E+03  0.20230423313E+02  0.16008956526E+04  0.25500000920E-02 0. -1.
       -2    1    3    3    0  502 -0.12908207817E+04 -0.94669917619E+03  0.12236156792E+04  0.20148679736E+04  0.25500000920E-02 0.  1.
</event>
<event>
 5   0  0.2658600E-06  0.3171551E+04  0.7818609E-02  0.8196371E-01
        2   -1    0    0  501    0  0.00000000000E+00  0.00000000000E+00  0.28565696809E+04  0.28565696809E+04  0.25500000920E-02 0.  1.
       -2   -1    0    0    0  501  0.00000000000E+00  0.00000000000E+00 -0.88031622283E+03  0.88031622283E+03  0.25500000920E-02 0. -1.
    10030    2    1    2    0    0  0.00000000000E+00  0.00000000000E+00  0.19762534580E+04  0.37368859037E+04  0.31715514385E+04 0.  0.
        5    1    3    3  502    0  0.14085889551E+03  0.81353702812E+03  0.25833328284E+04  0.27120682729E+04  0.46999998093E+01 0.  1.
       -5    1    3    3    0  502 -0.14085889551E+03 -0.81353702812E+03 -0.60707937034E+03  0.10248176308E+04  0.46999998093E+01 0. -1.
</event>
<event>
 5   0  0.9530268E-07  0.3252230E+04  0.7818609E-02  0.8175158E-01
       -1   -1    0    0    0  501  0.00000000000E+00  0.00000000000E+00  0.18357643350E+04  0.18357643350E+04  0.50400001928E-02 0. -1.
        1   -1    0    0  501    0  0.00000000000E+00  0.00000000000E+00 -0.14404078344E+04  0.14404078344E+04  0.50400001928E-02 0.  1.
    10030    2    1    2    0    0  0.00000000000E+00  0.00000000000E+00  0.39535650060E+03  0.32761721694E+04  0.32522295923E+04 0.  0.
        5    1    3    3  502    0 -0.52692045738E+02 -0.16234106163E+04  0.11972145855E+03  0.16286785436E+04  0.46999998093E+01 0. -1.
       -5    1    3    3    0  502  0.52692045738E+02  0.16234106163E+04  0.27563504205E+03  0.16474936258E+04  0.46999998093E+01 0.  1.
</event>
<event>
 5   0  0.9268670E-07  0.3310041E+04  0.7818609E-02  0.8160345E-01
        1   -1    0    0  501    0  0.00000000000E+00  0.00000000000E+00  0.25292275776E+04  0.25292275776E+04  0.50400001928E-02 0. -1.
       -1   -1    0    0    0  501  0.00000000000E+00  0.00000000000E+00 -0.10829757293E+04  0.10829757293E+04  0.50400001928E-02 0.  1.
    10030    2    1    2    0    0  0.00000000000E+00  0.00000000000E+00  0.14462518483E+04  0.36122033069E+04  0.33100405317E+04 0.  0.
        3    1    3    3  502    0 -0.14049829494E+04 -0.87470509781E+03  0.72045866282E+03  0.18050337369E+04  0.10100000352E+00 0.  1.
       -3    1    3    3    0  502  0.14049829494E+04  0.87470509781E+03  0.72579318549E+03  0.18071695700E+04  0.10100000352E+00 0. -1.
</event>
<event>
 5   0  0.9530268E-07  0.3307312E+04  0.7818609E-02  0.8161037E-01
       -1   -1    0    0    0  501  0.00000000000E+00  0.00000000000E+00  0.11594940324E+04  0.11594940325E+04  0.50400001928E-02 0.  1.
        1   -1    0    0  501    0  0.00000000000E+00  0.00000000000E+00 -0.23584229794E+04  0.23584229794E+04  0.50400001928E-02 0. -1.
    10030    2    1    2    0    0  0.00000000000E+00  0.00000000000E+00 -0.11989289469E+04  0.35179170118E+04  0.33073115188E+04 0.  0.
        5    1    3    3  502    0 -0.13174213971E+04  0.91828326900E+03 -0.17973303323E+03  0.16159113073E+04  0.46999998093E+01 0.  1.
       -5    1    3    3    0  502  0.13174213971E+04 -0.91828326900E+03 -0.10191959137E+04  0.19020057046E+04  0.46999998093E+01 0. -1.
</event>
<event>
 5   0  0.8845526E-07  0.2963129E+04  0.7818609E-02  0.8254339E-01
        1   -1    0    0  501    0  0.00000000000E+00  0.00000000000E+00  0.27002906911E+04  0.27002906911E+04  0.50400001928E-02 0. -1.
       -1   -1    0    0    0  501  0.00000000000E+00  0.00000000000E+00 -0.81288756108E+03  0.81288756110E+03  0.50400001928E-02 0.  1.
    10030    2    1    2    0    0  0.00000000000E+00  0.00000000000E+00  0.18874031300E+04  0.35131782522E+04  0.29631285589E+04 0.  0.
        1    1    3    3  502    0 -0.42225934879E+03 -0.38283908605E+03  0.25650992054E+04  0.26276610621E+04  0.50400001928E-02 0. -1.
       -1    1    3    3    0  502  0.42225934879E+03  0.38283908605E+03 -0.67769607538E+03  0.88551719015E+03  0.50400001928E-02 0.  1.
</event>
<event>
 5   0  0.2614212E-06  0.2883622E+04  0.7818609E-02  0.8277767E-01
       -2   -1    0    0    0  501  0.00000000000E+00  0.00000000000E+00  0.12926103353E+04  0.12926103353E+04  0.25500000920E-02 0.  1.
        2   -1    0    0  501    0  0.00000000000E+00  0.00000000000E+00 -0.16082337951E+04  0.16082337951E+04  0.25500000920E-02 0. -1.
    10030    2    1    2    0    0  0.00000000000E+00  0.00000000000E+00 -0.31562345983E+03  0.29008441303E+04  0.28836224614E+04 0.  0.
        2    1    3    3  502    0  0.81815091661E+03  0.78361249257E+03 -0.10549901773E+04  0.15480386736E+04  0.25500000920E-02 0. -1.
       -2    1    3    3    0  502 -0.81815091661E+03 -0.78361249257E+03  0.73936671745E+03  0.13528054567E+04  0.25500000920E-02 0.  1.
</event>
<event>
 5   0  0.2705859E-06  0.3276200E+04  0.7818609E-02  0.8168978E-01
        2   -1    0    0  501    0  0.00000000000E+00  0.00000000000E+00  0.21447039034E+04  0.21447039034E+04  0.25500000920E-02 0.  1.
       -2   -1    0    0    0  501  0.00000000000E+00  0.00000000000E+00 -0.12511621743E+04  0.12511621744E+04  0.25500000920E-02 0. -1.
    10030    2    1    2    0    0  0.00000000000E+00  0.00000000000E+00  0.89354172909E+03  0.33958660778E+04  0.32762004818E+04 0.  0.
        1    1    3    3  502    0  0.14996615948E+04 -0.64400237973E+03  0.59206365664E+03  0.17361633960E+04  0.50400001928E-02 0.  1.
       -1    1    3    3    0  502 -0.14996615948E+04  0.64400237973E+03  0.30147807246E+03  0.16597026818E+04  0.50400001928E-02 0. -1.
</event>
<event>
 5   0  0.8520125E-07  0.3224282E+04  0.7818609E-02  0.8182434E-01
        3   -1    0    0  501    0  0.00000000000E+00  0.00000000000E+00  0.11713728826E+04  0.11713728870E+04  0.10100000352E+00 0.  1.
       -3   -1    0    0    0  501  0.00000000000E+00  0.00000000000E+00 -0.22187634122E+04  0.22187634145E+04  0.10100000352E+00 0. -1.
    10030    2    1    2    0    0  0.00000000000E+00  0.00000000000E+00 -0.10473905296E+04  0.33901363015E+04  0.32242824351E+04 0.  0.
        1    1    3    3  502    0 -0.31847098625E+03 -0.13906168388E+04  0.26576694111E+03  0.14511619581E+04  0.50400001928E-02 0.  1.
       -1    1    3    3    0  502  0.31847098625E+03  0.13906168388E+04 -0.13131574707E+04  0.19389743434E+04  0.50400001928E-02 0. -1.
</event>
<event>
 5   0  0.8705956E-07  0.3378790E+04  0.7818609E-02  0.8143132E-01
       -1   -1    0    0    0  501  0.00000000000E+00  0.00000000000E+00  0.14945697738E+04  0.14945697738E+04  0.50400001928E-02 0. -1.
        1   -1    0    0  501    0  0.00000000000E+00  0.00000000000E+00 -0.19096169291E+04  0.19096169291E+04  0.50400001928E-02 0.  1.
    10030    2    1    2    0    0  0.00000000000E+00  0.00000000000E+00 -0.41504715534E+03  0.34041867029E+04  0.33787901633E+04 0.  0.
        2    1    3    3  502    0  0.14024853655E+04  0.74185779376E+02  0.73846249244E+03  0.15867563087E+04  0.25500000920E-02 0. -1.
       -2    1    3    3    0  502 -0.14024853655E+04 -0.74185779376E+02 -0.11535096478E+04  0.18174303943E+04  0.25500000920E-02 0.  1.
</event>
<event>
 5   0  0.9268670E-07  0.3311023E+04  0.7818609E-02  0.8160096E-01
        1   -1    0    0  501    0  0.00000000000E+00  0.00000000000E+00  0.10371594736E+04  0.10371594736E+04  0.50400001928E-02 0.  1.
       -1   -1    0    0    0  501  0.00000000000E+00  0.00000000000E+00 -0.26425235500E+04  0.26425235500E+04  0.50400001928E-02 0. -1.
    10030    2    1    2    0    0  0.00000000000E+00  0.00000000000E+00 -0.16053640764E+04  0.36796830236E+04  0.33110230045E+04 0.  0.
        3    1    3    3  502    0  0.11364081533E+04 -0.80623733471E+03  0.19088379773E+03  0.14063707780E+04  0.10100000352E+00 0.  1.
       -3    1    3    3    0  502 -0.11364081533E+04  0.80623733471E+03 -0.17962478741E+04  0.22733122456E+04  0.10100000352E+00 0. -1.
</event>
<event>
 5   0  0.2614212E-06  0.3247890E+04  0.7818609E-02  0.8176283E-01
        2   -1    0    0  501    0  0.00000000000E+00  0.00000000000E+00  0.20177559304E+04  0.20177559304E+04  0.25500000920E-02 0.  1.
       -2   -1    0    0    0  501  0.00000000000E+00  0.00000000000E+00 -0.13069949140E+04  0.13069949140E+04  0.25500000920E-02 0. -1.
    10030    2    1    2    0    0  0.00000000000E+00  0.00000000000E+00  0.71076101638E+03  0.33247508445E+04  0.32478896156E+04 0.  0.
        2    1    3    3  502    0  0.60401283887E+03  0.97515930156E+03 -0.82135769747E+03  0.14108138219E+04  0.25500000920E-02 0. -1.
       -2    1    3    3    0  502 -0.60401283887E+03 -0.97515930156E+03  0.15321187139E+04  0.19139370225E+04  0.25500000920E-02 0.  1.
</event>
<event>
 5   0  0.2705859E-06  0.3303411E+04  0.7818609E-02  0.8162028E-01
        2   -1    0    0  501    0  0.00000000000E+00  0.00000000000E+00  0.12204905556E+04  0.12204905556E+04  0.25500000920E-02 0. -1.
       -2   -1    0    0    0  501  0.00000000000E+00  0.00000000000E+00 -0.22352745702E+04  0.22352745702E+04  0.25500000920E-02 0.  1.
    10030    2    1    2    0    0  0.00000000000E+00  0.00000000000E+00 -0.10147840145E+04  0.34557651258E+04  0.33034112685E+04 0.  0.
        1    1    3    3  502    0  0.11816101794E+04  0.32173687211E+03 -0.16668472758E+04  0.20683561279E+04  0.50400001928E-02 0.  1.
       -1    1    3    3    0  502 -0.11816101794E+04 -0.32173687211E+03  0.65206326124E+03  0.13874089979E+04  0.50400001928E-02 0. -1.
</event>
<event>
 5   0  0.8845526E-07  0.3280364E+04  0.7818609E-02  0.8167910E-01
       -1   -1    0    0    0  501  0.00000000000E+00  0.00000000000E+00  0.13590370126E+04  0.13590370126E+04  0.50400001928E-02 0.  1.
        1   -1    0    0  501    0  0.00000000000E+00  0.00000000000E+00 -0.19794882553E+04  0.19794882553E+04  0.50400001928E-02 0. -1.
    10030    2    1    2    0    0  0.00000000000E+00  0.00000000000E+00 -0.62045124269E+03  0.33385252679E+04  0.32803644950E+04 0.  0.
        1    1    3    3  502    0 -0.11165750167E+04 -0.11098747904E+04  0.15796997394E+03  0.15822504008E+04  0.50400001928E-02 0.  1.
       -1    1    3    3    0  502  0.11165750167E+04  0.11098747904E+04 -0.77842121663E+03  0.17562748671E+04  0.50400001928E-02 0. -1.
</event>
<event>
 5   0  0.2614212E-06  0.3301261E+04  0.7818609E-02  0.8162575E-01
        2   -1    0    0  501    0  0.00000000000E+00  0.00000000000E+00  0.20685032824E+04  0.20685032824E+04  0.25500000920E-02 0. -1.
       -2   -1    0    0    0  501  0.00000000000E+00  0.00000000000E+00 -0.13171751575E+04  0.13171751575E+04  0.25500000920E-02 0.  1.
    10030    2    1    2    0    0  0.00000000000E+00  0.00000000000E+00  0.75132812498E+03  0.33856784399E+04  0.33012610540E+04 0.  0.
        2    1    3    3  502    0  0.99921311607E+03 -0.82513000735E+03  0.14242146312E+04  0.19255268619E+04  0.25500000920E-02 0. -1.
       -2    1    3    3    0  502 -0.99921311607E+03  0.82513000735E+03 -0.67288650620E+03  0.14601515780E+04  0.25500000920E-02 0.  1.
</event>
<event>
 5   0  0.9295663E-07  0.3232617E+04  0.7818609E-02  0.8180256E-01
       -1   -1    0    0    0  501  0.00000000000E+00  0.00000000000E+00  0.92491382958E+03  0.92491382960E+03  0.50400001928E-02 0.  1.
        1   -1    0    0  501    0  0.00000000000E+00  0.00000000000E+00 -0.28245375403E+04  0.28245375403E+04  0.50400001928E-02 0. -1.
    10030    2    1    2    0    0  0.00000000000E+00  0.00000000000E+00 -0.18996237107E+04  0.37494513699E+04  0.32326174121E+04 0.  0.
        4    1    3    3  502    0 -0.11643456826E+04 -0.10769825933E+04 -0.58883005789E+03  0.16918377064E+04  0.12699999809E+01 0.  1.
       -4    1    3    3    0  502  0.11643456826E+04  0.10769825933E+04 -0.13107936528E+04  0.20576136635E+04  0.12699999809E+01 0. -1.
</event>
<event>
 5   0  0.9268670E-07  0.3072163E+04  0.7818609E-02  0.8223419E-01
       -1   -1    0    0    0  501  0.00000000000E+00  0.00000000000E+00  0.25719794312E+04  0.25719794312E+04  0.50400001928E-02 0.  1.
        1   -1    0    0  501    0  0.00000000000E+00  0.00000000000E+00 -0.91740475610E+03  0.91740475611E+03  0.50400001928E-02 0. -1.
    10030    2    1    2    0    0  0.00000000000E+00  0.00000000000E+00  0.16545746751E+04  0.34893841874E+04  0.30721628621E+04 0.  0.
        3    1    3    3  502    0 -0.88904172549E+03  0.33503652316E+03  0.21982311245E+04  0.23947577640E+04  0.10100000352E+00 0.  1.
       -3    1    3    3    0  502  0.88904172549E+03 -0.33503652316E+03 -0.54365644935E+03  0.10946264233E+04  0.10100000352E+00 0. -1.
</event>
<event>
 5   0  0.2658600E-06  0.2927933E+04  0.7818609E-02  0.8264615E-01
       -2   -1    0    0    0  501  0.00000000000E+00  0.00000000000E+00  0.96868592608E+03  0.96868592609E+03  0.25500000920E-02 0. -1.
        2   -1    0    0  501    0  0.00000000000E+00  0.00000000000E+00 -0.22124793886E+04  0.22124793886E+04  0.25500000920E-02 0.  1.
    10030    2    1    2    0    0  0.00000000000E+00  0.00000000000E+00 -0.12437934625E+04  0.31811653147E+04  0.29279328172E+04 0.  0.
        5    1    3    3  502    0 -0.96050478386E+03 -0.72232616228E+03 -0.15301718896E+04  0.19457062025E+04  0.46999998093E+01 0.  1.
       -5    1    3    3    0  502  0.96050478386E+03  0.72232616228E+03  0.28637842709E+03  0.12354591122E+04  0.46999998093E+01 0. -1.
</event>
<event>
 5   0  0.2614212E-06  0.3327464E+04  0.7818609E-02  0.8155942E-01
        2   -1    0    0  501    0  0.00000000000E+00  0.00000000000E+00  0.15669536490E+04  0.15669536490E+04  0.25500000920E-02 0.  1.
       -2   -1    0    0    0  501  0.00000000000E+00  0.00000000000E+00 -0.17664871064E+04  0.17664871064E+04  0.25500000920E-02 0. -1.
    10030    2    1    2    0    0  0.00000000000E+00  0.00000000000E+00 -0.19953345745E+03  0.33334407554E+04  0.33274635489E+04 0.  0.
        2    1    3    3  502    0 -0.43308600512E+03  0.15546417849E+04  0.30534668712E+03  0.16424710550E+04  0.25500000920E-02 0.  1.
       -2    1    3    3    0  502  0.43308600512E+03 -0.15546417849E+04 -0.50488014457E+03  0.16909697004E+04  0.25500000920E-02 0. -1.
</event>
<event>
 5   0  0.8520125E-07  0.3316088E+04  0.7818609E-02  0.8158814E-01
       -3   -1    0    0    0  501  0.00000000000E+00  0.00000000000E+00  0.18507285494E+04  0.18507285522E+04  0.10100000352E+00 0. -1.
        3   -1    0    0  501    0  0.00000000000E+00  0.00000000000E+00 -0.14854207300E+04  0.14854207334E+04  0.10100000352E+00 0.  1.
    10030    2    1    2    0    0  0.00000000000E+00  0.00000000000E+00  0.36530781945E+03  0.33361492856E+04  0.33160883964E+04 0.  0.
        2    1    3    3  502    0  0.13176150552E+04  0.25700056924E+03  0.11616553318E+04  0.17752751438E+04  0.25500000920E-02 0. -1.
       -2    1    3    3    0  502 -0.13176150552E+04 -0.25700056924E+03 -0.79634751230E+03  0.15608741418E+04  0.25500000920E-02 0.  1.
</event>
<event>
 5   0  0.8705956E-07  0.3336810E+04  0.7818609E-02  0.8153592E-01
        1   -1    0    0  501    0  0.00000000000E+00  0.00000000000E+00  0.18623796245E+04  0.18623796245E+04  0.50400001928E-02 0.  1.
       -1   -1    0    0    0  501  0.00000000000E+00  0.00000000000E+00 -0.14946339147E+04  0.14946339147E+04  0.50400001928E-02 0. -1.
    10030    2    1    2    0    0  0.00000000000E+00  0.00000000000E+00  0.36774570981E+03  0.33570135392E+04  0.33368103025E+04 0.  0.
        2    1    3    3  502    0  0.16539680829E+04  0.68855751723E+02  0.39303598462E+03  0.17014196482E+04  0.25500000920E-02 0.  1.
       -2    1    3    3    0  502 -0.16539680829E+04 -0.68855751723E+02 -0.25290274811E+02  0.16555938910E+04  0.25500000920E-02 0. -1.
</event>
<event>
 5   0  0.8845526E-07  0.3157584E+04  0.7818609E-02  0.8200110E-01
        1   -1    0    0  501    0  0.00000000000E+00  0.00000000000E+00  0.23374035473E+04  0.23374035473E+04  0.50400001928E-02 0.  1.
       -1   -1    0    0    0  501  0.00000000000E+00  0.00000000000E+00 -0.10663900562E+04  0.10663900562E+04  0.50400001928E-02 0. -1.
    10030    2    1    2    0    0  0.00000000000E+00  0.00000000000E+00  0.12710134911E+04  0.34037936035E+04  0.31575838232E+04 0.  0.
        1    1    3    3  502    0  0.13647397460E+04  0.30150177120E+03  0.14270407580E+04  0.19974641967E+04  0.50400001928E-02 0.  1.
       -1    1    3    3    0  502 -0.13647397460E+04 -0.30150177120E+03 -0.15602726684E+03  0.14063294068E+04  0.50400001928E-02 0. -1.
</event>
<event>
 5   0  0.2614212E-06  0.3259041E+04  0.7818609E-02  0.8173396E-01
       -2   -1    0    0    0  501  0.00000000000E+00  0.00000000000E+00  0.25892136290E+04  0.25892136290E+04  0.25500000920E-02 0. -1.
        2   -1    0    0  501    0  0.00000000000E+00  0.00000000000E+00 -0.10255380852E+04  0.10255380852E+04  0.25500000920E-02 0.  1.
    10030    2    1    2    0    0  0.00000000000E+00  0.00000000000E+00  0.15636755438E+04  0.36147517141E+04  0.32590410780E+04 0.  0.
        2    1    3    3  502    0  0.97280979708E+03  0.10954834192E+04  0.15730672489E+04  0.21496472717E+04  0.25500000920E-02 0. -1.
       -2    1    3    3    0  502 -0.97280979708E+03 -0.10954834192E+04 -0.93917051307E+01  0.14651044424E+04  0.25500000920E-02 0.  1.
</event>
<event>
 5   0  0.8845526E-07  0.3325357E+04  0.7818609E-02  0.8156473E-01
        1   -1    0    0  501    0  0.00000000000E+00  0.00000000000E+00  0.24425089728E+04  0.24425089728E+04  0.50400001928E-02 0. -1.
       -1   -1    0    0    0  501  0.00000000000E+00  0.00000000000E+00 -0.11318280068E+04  0.11318280068E+04  0.50400001928E-02 0.  1.
    10030    2    1    2    0    0  0.00000000000E+00  0.00000000000E+00  0.13106809660E+04  0.35743369796E+04  0.33253571612E+04 0.  0.
        1    1    3    3  502    0  0.16534627804E+03  0.97057178904E+03  0.20954903814E+04  0.23152600130E+04  0.50400001928E-02 0. -1.
       -1    1    3    3    0  502 -0.16534627804E+03 -0.97057178904E+03 -0.78480941541E+03  0.12590769666E+04  0.50400001928E-02 0.  1.
</event>
<event>
 5   0  0.2658600E-06  0.3326436E+04  0.7818609E-02  0.8156201E-01
       -2   -1    0    0    0  501  0.00000000000E+00  0.00000000000E+00  0.15220537728E+04  0.15220537728E+04  0.25500000920E-02 0. -1.
        2   -1    0    0  501    0  0.00000000000E+00  0.00000000000E+00 -0.18174749058E+04  0.18174749058E+04  0.25500000920E-02 0.  1.
    10030    2    1    2    0    0  0.00000000000E+00  0.00000000000E+00 -0.29542113301E+03  0.33395286786E+04  0.33264362536E+04 0.  0.
        5    1    3    3  502    0 -0.18965111754E+03 -0.29379234952E+02 -0.18063152531E+04  0.18164877015E+04  0.46999998093E+01 0.  1.
       -5    1    3    3    0  502  0.18965111754E+03  0.29379234952E+02  0.15108941201E+04  0.15230409772E+04  0.46999998093E+01 0. -1.
</event>
<event>
 5   0  0.9268670E-07  0.3259853E+04  0.7818609E-02  0.8173187E-01
        1   -1    0    0  501    0  0.00000000000E+00  0.00000000000E+00  0.25440104424E+04  0.25440104424E+04  0.50400001928E-02 0. -1.
       -1   -1    0    0    0  501  0.00000000000E+00  0.00000000000E+00 -0.10442803983E+04  0.10442803983E+04  0.50400001928E-02 0.  1.
    10030    2    1    2    0    0  0.00000000000E+00  0.00000000000E+00  0.14997300441E+04  0.35882908408E+04  0.32598529036E+04 0.  0.
        3    1    3    3  502    0 -0.46048854065E+03  0.11230546745E+04 -0.44755865830E+03  0.12936808960E+04  0.10100000352E+00 0. -1.
       -3    1    3    3    0  502  0.46048854065E+03 -0.11230546745E+04  0.19472887024E+04  0.22946099447E+04  0.10100000352E+00 0.  1.
</event>
<event>
 5   0  0.8520125E-07  0.3323344E+04  0.7818609E-02  0.8156981E-01
        3   -1    0    0  501    0  0.00000000000E+00  0.00000000000E+00  0.15384478563E+04  0.15384478597E+04  0.10100000352E+00 0.  1.
       -3   -1    0    0    0  501  0.00000000000E+00  0.00000000000E+00 -0.17947654700E+04  0.17947654729E+04  0.10100000352E+00 0. -1.
    10030    2    1    2    0    0  0.00000000000E+00  0.00000000000E+00 -0.25631761368E+03  0.33332133325E+04  0.33233435575E+04 0.  0.
        5    1    3    3  502    0 -0.15369139960E+04  0.62566726839E+03 -0.21540478028E+03  0.16733157117E+04  0.46999998093E+01 0. -1.
       -5    1    3    3    0  502  0.15369139960E+04 -0.62566726839E+03 -0.40912833407E+02  0.16598976208E+04  0.46999998093E+01 0.  1.
</event>
<event>
 5   0  0.9530268E-07  0.3138913E+04  0.7818609E-02  0.8205139E-01
       -1   -1    0    0    0  501  0.00000000000E+00  0.00000000000E+00  0.14032686916E+04  0.14032686916E+04  0.50400001928E-02 0.  1.
        1   -1    0    0  501    0  0.00000000000E+00  0.00000000000E+00 -0.17553253265E+04  0.17553253265E+04  0.50400001928E-02 0. -1.
    10030    2    1    2    0    0  0.00000000000E+00  0.00000000000E+00 -0.35205663491E+03  0.31585940181E+04  0.31389125978E+04 0.  0.
        5    1    3    3  502    0 -0.14596218255E+04 -0.55211373738E+03 -0.34394441908E+03  0.15980129242E+04  0.46999998093E+01 0. -1.
       -5    1    3    3    0  502  0.14596218255E+04  0.55211373738E+03 -0.81122158245E+01  0.15605810939E+04  0.46999998093E+01 0.  1.
</event>
<event>
 5   0  0.2614212E-06  0.3247194E+04  0.7818609E-02  0.8176463E-01
       -2   -1    0    0    0  501  0.00000000000E+00  0.00000000000E+00  0.15547167879E+04  0.15547167879E+04  0.25500000920E-02 0.  1.
        2   -1    0    0  501    0  0.00000000000E+00  0.00000000000E+00 -0.16955290353E+04  0.16955290353E+04  0.25500000920E-02 0. -1.
    10030    2    1    2    0    0  0.00000000000E+00  0.00000000000E+00 -0.14081224735E+03  0.32502458232E+04  0.32471941460E+04 0.  0.
        2    1    3    3  502    0 -0.95113649177E+03 -0.82042531268E+03  0.95930220639E+03  0.15805122723E+04  0.25500000920E-02 0. -1.
       -2    1    3    3    0  502  0.95113649177E+03  0.82042531268E+03 -0.11001144537E+04  0.16697335509E+04  0.25500000920E-02 0.  1.
</event>
<event>
 5   0  0.8845526E-07  0.2650244E+04  0.7818609E-02  0.8351332E-01
       -1   -1    0    0    0  501  0.00000000000E+00  0.00000000000E+00  0.14945815411E+04  0.14945815412E+04  0.50400001928E-02 0. -1.
        1   -1    0    0  501    0  0.00000000000E+00  0.00000000000E+00 -0.11748759612E+04  0.11748759612E+04  0.50400001928E-02 0.  1.
    10030    2    1    2    0    0  0.00000000000E+00  0.00000000000E+00  0.31970557999E+03  0.26694575023E+04  0.26502437056E+04 0.  0.
        1    1    3    3  502    0 -0.81246236230E+03  0.27523810357E+02 -0.89420191708E+03  0.12084906780E+04  0.50400001928E-02 0.  1.
       -1    1    3    3    0  502  0.81246236230E+03 -0.27523810357E+02  0.12139074971E+04  0.14609668243E+04  0.50400001928E-02 0. -1.
</event>
<event>
 5   0  0.2614212E-06  0.3308043E+04  0.7818609E-02  0.8160852E-01
       -2   -1    0    0    0  501  0.00000000000E+00  0.00000000000E+00  0.86840694932E+03  0.86840694933E+03  0.25500000920E-02 0.  1.
        2   -1    0    0  501    0  0.00000000000E+00  0.00000000000E+00 -0.31503521154E+04  0.31503521154E+04  0.25500000920E-02 0. -1.
    10030    2    1    2    0    0  0.00000000000E+00  0.00000000000E+00 -0.22819451661E+04  0.40187590647E+04  0.33080433309E+04 0.  0.
        2    1    3    3  502    0  0.99659471865E+02  0.53861976271E+01 -0.31466906973E+04  0.31482730768E+04  0.25500000920E-02 0. -1.
       -2    1    3    3    0  502 -0.99659471865E+02 -0.53861976271E+01  0.86474553122E+03  0.87048598796E+03  0.25500000920E-02 0.  1.
</event>
<event>
 5   0  0.8705956E-07  0.3344666E+04  0.7818609E-02  0.8151622E-01
        1   -1    0    0  501    0  0.00000000000E+00  0.00000000000E+00  0.17131341710E+04  0.17131341711E+04  0.50400001928E-02 0. -1.
       -1   -1    0    0    0  501  0.00000000000E+00  0.00000000000E+00 -0.16325031793E+04  0.16325031793E+04  0.50400001928E-02 0.  1.
    10030    2    1    2    0    0  0.00000000000E+00  0.00000000000E+00  0.80630991764E+02  0.33456373503E+04  0.33446655921E+04 0.  0.
        2    1    3    3  502    0  0.64277019878E+03 -0.14111945376E+04 -0.58602409924E+03  0.16577236791E+04  0.25500000920E-02 0.  1.
       -2    1    3    3    0  502 -0.64277019878E+03  0.14111945376E+04  0.66665509101E+03  0.16879136713E+04  0.25500000920E-02 0. -1.
</event>
<event>
 5   0  0.8705956E-07  0.3361945E+04  0.7818609E-02  0.8147310E-01
        1   -1    0    0  501    0  0.00000000000E+00  0.00000000000E+00  0.20503401518E+04  0.20503401518E+04  0.50400001928E-02 0.  1.
       -1   -1    0    0    0  501  0.00000000000E+00  0.00000000000E+00 -0.13781461040E+04  0.13781461040E+04  0.50400001928E-02 0. -1.
    10030    2    1    2    0    0  0.00000000000E+00  0.00000000000E+00  0.67219404783E+03  0.34284862558E+04  0.33619448491E+04 0.  0.
        2    1    3    3  502    0 -0.56140378304E+02 -0.13138019914E+04  0.14039327266E+04  0.19236045632E+04  0.25500000920E-02 0.  1.
       -2    1    3    3    0  502  0.56140378304E+02  0.13138019914E+04 -0.73173867876E+03  0.15048816926E+04  0.25500000920E-02 0. -1.
</event>
<event>
 5   0  0.9295663E-07  0.3305549E+04  0.7818609E-02  0.8161485E-01
        1   -1    0    0  501    0  0.00000000000E+00  0.00000000000E+00  0.24856328581E+04  0.24856328582E+04  0.50400001928E-02 0.  1.
       -1   -1    0    0    0  501  0.00000000000E+00  0.00000000000E+00 -0.10989809480E+04  0.10989809480E+04  0.50400001928E-02 0. -1.
    10030    2    1    2    0    0  0.00000000000E+00  0.00000000000E+00  0.13866519102E+04  0.35846138061E+04  0.33055487622E+04 0.  0.
        4    1    3    3  502    0  0.43192776143E+03 -0.94774777394E+03 -0.69832078257E+03  0.12539700803E+04  0.12699999809E+01 0. -1.
       -4    1    3    3    0  502 -0.43192776143E+03  0.94774777394E+03  0.20849726928E+04  0.23306437258E+04  0.12699999809E+01 0.  1.
</event>
<event>
 5   0  0.9295663E-07  0.3308929E+04  0.7818609E-02  0.8160627E-01
       -1   -1    0    0    0  501  0.00000000000E+00  0.00000000000E+00  0.13455063101E+04  0.13455063102E+04  0.50400001928E-02 0.  1.
        1   -1    0    0  501    0  0.00000000000E+00  0.00000000000E+00 -0.20343668019E+04  0.20343668019E+04  0.50400001928E-02 0. -1.
    10030    2    1    2    0    0  0.00000000000E+00  0.00000000000E+00 -0.68886049174E+03  0.33798731120E+04  0.33089293550E+04 0.  0.
        4    1    3    3  502    0  0.13498625587E+04  0.35761134337E+03 -0.12507170107E+04  0.18746491549E+04  0.12699999809E+01 0. -1.
       -4    1    3    3    0  502 -0.13498625587E+04 -0.35761134337E+03  0.56185651891E+03  0.15052239571E+04  0.12699999809E+01 0.  1.
</event>
<event>
 5   0  0.9530268E-07  0.3236962E+04  0.7818609E-02  0.8179123E-01
       -1   -1    0    0    0  501  0.00000000000E+00  0.00000000000E+00  0.14278923798E+04  0.14278923798E+04  0.50400001928E-02 0. -1.
        1   -1    0    0  501    0  0.00000000000E+00  0.00000000000E+00 -0.18345080306E+04  0.18345080306E+04  0.50400001928E-02 0.  1.
    10030    2    1    2    0    0  0.00000000000E+00  0.00000000000E+00 -0.40661565086E+03  0.32624004104E+04  0.32369615614E+04 0.  0.
        5    1    3    3  502    0 -0.22804813026E+02 -0.14886251573E+04  0.43645080786E+03  0.15514626377E+04  0.46999998093E+01 0.  1.
       -5    1    3    3    0  502  0.22804813026E+02  0.14886251573E+04 -0.84306645872E+03  0.17109377727E+04  0.46999998093E+01 0. -1.
</event>
<event>
 5   0  0.9268670E-07  0.3257630E+04  0.7818609E-02  0.8173761E-01
       -1   -1    0    0    0  501  0.00000000000E+00  0.00000000000E+00  0.23083728436E+04  0.23083728436E+04  0.50400001928E-02 0. -1.
        1   -1    0    0  501    0  0.00000000000E+00  0.00000000000E+00 -0.11493113000E+04  0.11493113000E+04  0.50400001928E-02 0.  1.
    10030    2    1    2    0    0  0.00000000000E+00  0.00000000000E+00  0.11590615436E+04  0.34576841436E+04  0.32576304234E+04 0.  0.
        3    1    3    3  502    0  0.16024821678E+03 -0.45507926268E+03  0.22307879904E+04  0.22823653727E+04  0.10100000352E+00 0. -1.
       -3    1    3    3    0  502 -0.16024821678E+03  0.45507926268E+03 -0.10717264468E+04  0.11753187709E+04  0.10100000352E+00 0.  1.
</event>
<event>
 5   0  0.2658600E-06  0.3570580E+04  0.7818609E-02  0.8097264E-01
        2   -1    0    0  501    0  0.00000000000E+00  0.00000000000E+00  0.11883340473E+04  0.11883340473E+04  0.25500000920E-02 0. -1.
       -2   -1    0    0    0  501  0.00000000000E+00  0.00000000000E+00 -0.26821246431E+04  0.26821246431E+04  0.25500000920E-02 0.  1.
    10030    2    1    2    0    0  0.00000000000E+00  0.00000000000E+00 -0.14937905958E+04  0.38704586905E+04  0.35705798031E+04 0.  0.
        5    1    3    3  502    0 -0.11258504009E+04 -0.98786554287E+03  0.30620174297E+03  0.15287900619E+04  0.46999998093E+01 0. -1.
       -5    1    3    3    0  502  0.11258504009E+04  0.98786554287E+03 -0.17999923388E+04  0.23416686285E+04  0.46999998093E+01 0.  1.
</event>
<event>
 5   0  0.9530268E-07  0.3279087E+04  0.7818609E-02  0.8168237E-01
        1   -1    0    0  501    0  0.00000000000E+00  0.00000000000E+00  0.13082729926E+04  0.13082729926E+04  0.50400001928E-02 0.  1.
       -1   -1    0    0    0  501  0.00000000000E+00  0.00000000000E+00 -0.20546955626E+04  0.20546955626E+04  0.50400001928E-02 0. -1.
    10030    2    1    2    0    0  0.00000000000E+00  0.00000000000E+00 -0.74642257001E+03  0.33629685552E+04  0.32790868928E+04 0.  0.
        5    1    3    3  502    0  0.11627116857E+04  0.11055525187E+04 -0.71938967975E+03  0.17583197766E+04  0.46999998093E+01 0.  1.
       -5    1    3    3    0  502 -0.11627116857E+04 -0.11055525187E+04 -0.27032890264E+02  0.16046487786E+04  0.46999998093E+01 0. -1.
</event>
<event>
 5   0  0.2705859E-06  0.3300274E+04  0.7818609E-02  0.8162826E-01
       -2   -1    0    0    0  501  0.00000000000E+00  0.00000000000E+00  0.17475963140E+04  0.17475963140E+04  0.25500000920E-02 0.  1.
        2   -1    0    0  501    0  0.00000000000E+00  0.00000000000E+00 -0.15581127635E+04  0.15581127635E+04  0.25500000920E-02 0. -1.
    10030    2    1    2    0    0  0.00000000000E+00  0.00000000000E+00  0.18948355056E+03  0.33057090775E+04  0.33002740021E+04 0.  0.
        1    1    3    3  502    0 -0.30178717871E+03 -0.14864894426E+04  0.74560089443E+03  0.16901618438E+04  0.50400001928E-02 0.  1.
       -1    1    3    3    0  502  0.30178717871E+03  0.14864894426E+04 -0.55611734387E+03  0.16155472338E+04  0.50400001928E-02 0. -1.
</event>
<event>
 5   0  0.9268670E-07  0.3383221E+04  0.7818609E-02  0.8142037E-01
        1   -1    0    0  501    0  0.00000000000E+00  0.00000000000E+00  0.24628320995E+04  0.24628320995E+04  0.50400001928E-02 0. -1.
       -1   -1    0    0    0  501  0.00000000000E+00  0.00000000000E+00 -0.11618928072E+04  0.11618928073E+04  0.50400001928E-02 0.  1.
    10030    2    1    2    0    0  0.00000000000E+00  0.00000000000E+00  0.13009392922E+04  0.36247249067E+04  0.33832214836E+04 0.  0.
        3    1    3    3  502    0 -0.34274143476E+03 -0.13938879117E+04  0.16094329723E+04  0.21565411436E+04  0.10100000352E+00 0. -1.
       -3    1    3    3    0  502  0.34274143476E+03  0.13938879117E+04 -0.30849368009E+03  0.14681837631E+04  0.10100000352E+00 0.  1.
</event>
<event>
 5   0  0.9295663E-07  0.3276138E+04  0.7818609E-02  0.8168994E-01
        1   -1    0    0  501    0  0.00000000000E+00  0.00000000000E+00  0.22874206844E+04  0.22874206844E+04  0.50400001928E-02 0.  1.
       -1   -1    0    0    0  501  0.00000000000E+00  0.00000000000E+00 -0.11730550711E+04  0.11730550711E+04  0.50400001928E-02 0. -1.
    10030    2    1    2    0    0  0.00000000000E+00  0.00000000000E+00  0.11143656134E+04  0.34604757555E+04  0.32761382349E+04 0.  0.
        4    1    3    3  502    0  0.20818798240E+03  0.14840015546E+04  0.12559700738E+04  0.19552660405E+04  0.12699999809E+01 0.  1.
       -4    1    3    3    0  502 -0.20818798240E+03 -0.14840015546E+04 -0.14160446049E+03  0.15052097150E+04  0.12699999809E+01 0. -1.
</event>
<event>
 5   0  0.2705859E-06  0.3322371E+04  0.7818609E-02  0.8157226E-01
       -2   -1    0    0    0  501  0.00000000000E+00  0.00000000000E+00  0.15755657047E+04  0.15755657047E+04  0.25500000920E-02 0. -1.
        2   -1    0    0  501    0  0.00000000000E+00  0.00000000000E+00 -0.17514585773E+04  0.17514585773E+04  0.25500000920E-02 0.  1.
    10030    2    1    2    0    0  0.00000000000E+00  0.00000000000E+00 -0.17589287262E+03  0.33270242820E+04  0.33223714829E+04 0.  0.
        1    1    3    3  502    0  0.11020122533E+04 -0.10612711618E+04 -0.73600850590E+03  0.16977738383E+04  0.50400001928E-02 0. -1.
       -1    1    3    3    0  502 -0.11020122533E+04  0.10612711618E+04  0.56011563329E+03  0.16292504436E+04  0.50400001928E-02 0.  1.
</event>
<event>
 5   0  0.2674551E-06  0.2709763E+04  0.7818609E-02  0.8331844E-01
        2   -1    0    0  501    0  0.00000000000E+00  0.00000000000E+00  0.13618917359E+04  0.13618917359E+04  0.25500000920E-02 0.  1.
       -2   -1    0    0    0  501  0.00000000000E+00  0.00000000000E+00 -0.13479074034E+04  0.13479074034E+04  0.25500000920E-02 0. -1.
    10030    2    1    2    0    0  0.00000000000E+00  0.00000000000E+00  0.13984332561E+02  0.27097991393E+04  0.27097630550E+04 0.  0.
        3    1    3    3  502    0 -0.24264558952E+02  0.10345132704E+04  0.88158798118E+03  0.13594130550E+04  0.10100000352E+00 0.  1.
       -3    1    3    3    0  502  0.24264558952E+02 -0.10345132704E+04 -0.86760364862E+03  0.13503860843E+04  0.10100000352E+00 0. -1.
</event>
<event>
 5   0  0.2705859E-06  0.3272781E+04  0.7818609E-02  0.8169856E-01
       -2   -1    0    0    0  501  0.00000000000E+00  0.00000000000E+00  0.16595193191E+04  0.16595193191E+04  0.25500000920E-02 0. -1.
        2   -1    0    0  501    0  0.00000000000E+00  0.00000000000E+00 -0.16135844717E+04  0.16135844717E+04  0.25500000920E-02 0.  1.
    10030    2    1    2    0    0  0.00000000000E+00  0.00000000000E+00  0.45934847424E+02  0.32731037907E+04  0.32727814493E+04 0.  0.
        1    1    3    3  502    0  0.10602819850E+04 -0.65349700114E+03 -0.10385128171E+04  0.16216550464E+04  0.50400001928E-02 0.  1.
       -1    1    3    3    0  502 -0.10602819850E+04  0.65349700114E+03  0.10844476645E+04  0.16514487444E+04  0.50400001928E-02 0. -1.
</event>
<event>
 5   0  0.2674551E-06  0.3336791E+04  0.7818609E-02  0.8153597E-01
       -2   -1    0    0    0  501  0.00000000000E+00  0.00000000000E+00  0.83348971573E+03  0.83348971573E+03  0.25500000920E-02 0.  1.
        2   -1    0    0  501    0  0.00000000000E+00  0.00000000000E+00 -0.33396247664E+04  0.33396247664E+04  0.25500000920E-02 0. -1.
    10030    2    1    2    0    0  0.00000000000E+00  0.00000000000E+00 -0.25061350506E+04  0.41731144821E+04  0.33367906120E+04 0.  0.
        3    1    3    3  502    0 -0.98811265844E+03 -0.93267989767E+03 -0.42282462455E+02  0.13594286425E+04  0.10100000352E+00 0.  1.
       -3    1    3    3    0  502  0.98811265844E+03  0.93267989767E+03 -0.24638525882E+04  0.28136858396E+04  0.10100000352E+00 0. -1.
</event>
<event>
 5   0  0.2614212E-06  0.3262329E+04  0.7818609E-02  0.8172547E-01
        2   -1    0    0  501    0  0.00000000000E+00  0.00000000000E+00  0.23261766895E+04  0.23261766895E+04  0.25500000920E-02 0.  1.
       -2   -1    0    0    0  501  0.00000000000E+00  0.00000000000E+00 -0.11438073735E+04  0.11438073735E+04  0.25500000920E-02 0. -1.
    10030    2    1    2    0    0  0.00000000000E+00  0.00000000000E+00  0.11823693160E+04  0.34699840630E+04  0.32623292596E+04 0.  0.
        2    1    3    3  502    0 -0.61777435547E+03  0.10690394158E+04  0.17249639961E+04  0.21213182728E+04  0.25500000920E-02 0.  1.
       -2    1    3    3    0  502  0.61777435547E+03 -0.10690394158E+04 -0.54259468005E+03  0.13486657902E+04  0.25500000920E-02 0. -1.
</event>
<event>
 5   0  0.2705859E-06  0.3305725E+04  0.7818609E-02  0.8161440E-01
       -2   -1    0    0    0  501  0.00000000000E+00  0.00000000000E+00  0.19433131867E+04  0.19433131867E+04  0.25500000920E-02 0.  1.
        2   -1    0    0  501    0  0.00000000000E+00  0.00000000000E+00 -0.14058227918E+04  0.14058227918E+04  0.25500000920E-02 0. -1.
    10030    2    1    2    0    0  0.00000000000E+00  0.00000000000E+00  0.53749039491E+03  0.33491359786E+04  0.33057247130E+04 0.  0.
        1    1    3    3  502    0  0.11108529112E+04  0.65991966382E+03 -0.77555071777E+03  0.15069728162E+04  0.50400001928E-02 0. -1.
       -1    1    3    3    0  502 -0.11108529112E+04 -0.65991966382E+03  0.13130411127E+04  0.18421631623E+04  0.50400001928E-02 0.  1.
</event>
<event>
 5   0  0.9530268E-07  0.2549152E+04  0.7818609E-02  0.8385681E-01
       -1   -1    0    0    0  501  0.00000000000E+00  0.00000000000E+00  0.64962262731E+03  0.64962262733E+03  0.50400001928E-02 0.  1.
        1   -1    0    0  501    0  0.00000000000E+00  0.00000000000E+00 -0.25007508723E+04  0.25007508724E+04  0.50400001928E-02 0. -1.
    10030    2    1    2    0    0  0.00000000000E+00  0.00000000000E+00 -0.18511282450E+04  0.31503734997E+04  0.25491522920E+04 0.  0.
        5    1    3    3  502    0 -0.70746895008E+03  0.10518897477E+04 -0.76189938263E+03  0.14790189708E+04  0.46999998093E+01 0. -1.
       -5    1    3    3    0  502  0.70746895008E+03 -0.10518897477E+04 -0.10892288624E+04  0.16713545289E+04  0.46999998093E+01 0.  1.
</event>
<event>
 5   0  0.9530268E-07  0.3331246E+04  0.7818609E-02  0.8154990E-01
        1   -1    0    0  501    0  0.00000000000E+00  0.00000000000E+00  0.15575762725E+04  0.15575762725E+04  0.50400001928E-02 0. -1.
       -1   -1    0    0    0  501  0.00000000000E+00  0.00000000000E+00 -0.17811642545E+04  0.17811642545E+04  0.50400001928E-02 0.  1.
    10030    2    1    2    0    0  0.00000000000E+00  0.00000000000E+00 -0.22358798200E+03  0.33387405270E+04  0.33312455209E+04 0.  0.
        5    1    3    3  502    0 -0.10285437753E+04  0.36130379568E+03  0.11503384742E+04  0.15848480766E+04  0.46999998093E+01 0. -1.
       -5    1    3    3    0  502  0.10285437753E+04 -0.36130379568E+03 -0.13739264562E+04  0.17538924504E+04  0.46999998093E+01 0.  1.
</event>
<event>
 5   0  0.2614212E-06  0.2971931E+04  0.7818609E-02  0.8251792E-01
       -2   -1    0    0    0  501  0.00000000000E+00  0.00000000000E+00  0.86769626506E+03  0.86769626507E+03  0.25500000920E-02 0.  1.
        2   -1    0    0  501    0  0.00000000000E+00  0.00000000000E+00 -0.25447772304E+04  0.25447772304E+04  0.25500000920E-02 0. -1.
    10030    2    1    2    0    0  0.00000000000E+00  0.00000000000E+00 -0.16770809653E+04  0.34124734955E+04  0.29719311555E+04 0.  0.
        2    1    3    3  502    0  0.10201596676E+04  0.82559924430E+03 -0.16388144003E+04  0.20995362579E+04  0.25500000920E-02 0. -1.
       -2    1    3    3    0  502 -0.10201596676E+04 -0.82559924430E+03 -0.38266565011E+02  0.13129372375E+04  0.25500000920E-02 0.  1.
</event>
<event>
 5   0  0.9268670E-07  0.3311540E+04  0.7818609E-02  0.8159965E-01
       -1   -1    0    0    0  501  0.00000000000E+00  0.00000000000E+00  0.22403832022E+04  0.22403832022E+04  0.50400001928E-02 0.  1.
        1   -1    0    0  501    0  0.00000000000E+00  0.00000000000E+00 -0.12237079269E+04  0.12237079269E+04  0.50400001928E-02 0. -1.
    10030    2    1    2    0    0  0.00000000000E+00  0.00000000000E+00  0.10166752753E+04  0.34640911291E+04  0.33115402360E+04 0.  0.
        3    1    3    3  502    0 -0.79086850335E+02  0.12499190660E+04 -0.62461668618E+03  0.13995350715E+04  0.10100000352E+00 0. -1.
       -3    1    3    3    0  502  0.79086850335E+02 -0.12499190660E+04  0.16412919615E+04  0.20645560575E+04  0.10100000352E+00 0.  1.
</event>
<event>
 5   0  0.9530268E-07  0.3304000E+04  0.7818609E-02  0.8161878E-01
        1   -1    0    0  501    0  0.00000000000E+00  0.00000000000E+00  0.27656731428E+04  0.27656731428E+04  0.50400001928E-02 0. -1.
       -1   -1    0    0    0  501  0.00000000000E+00  0.00000000000E+00 -0.98677747343E+03  0.98677747345E+03  0.50400001928E-02 0.  1.
    10030    2    1    2    0    0  0.00000000000E+00  0.00000000000E+00  0.17788956693E+04  0.37524506162E+04  0.33039999735E+04 0.  0.
        5    1    3    3  502    0  0.92301280703E+03 -0.77882087263E+03 -0.39074025554E+03  0.12693362954E+04  0.46999998093E+01 0.  1.
       -5    1    3    3    0  502 -0.92301280703E+03  0.77882087263E+03  0.21696359249E+04  0.24831143208E+04  0.46999998093E+01 0. -1.
</event>
<event>
 5   0  0.8520125E-07  0.3220016E+04  0.7818609E-02  0.8183551E-01
       -4   -1    0    0    0  501  0.00000000000E+00  0.00000000000E+00  0.15012344748E+04  0.15012350120E+04  0.12699999809E+01 0.  1.
        4   -1    0    0  501    0  0.00000000000E+00  0.00000000000E+00 -0.17266621624E+04  0.17266626294E+04  0.12699999809E+01 0. -1.
    10030    2    1    2    0    0  0.00000000000E+00  0.00000000000E+00 -0.22542768753E+03  0.32278976415E+04  0.32200163884E+04 0.  0.
        2    1    3    3  502    0 -0.65540046322E+03 -0.13983266066E+04 -0.56908554462E+03  0.16458205926E+04  0.25500000920E-02 0. -1.
       -2    1    3    3    0  502  0.65540046322E+03  0.13983266066E+04  0.34365785709E+03  0.15820770489E+04  0.25500000920E-02 0.  1.
</event>
<event>
 5   0  0.2674551E-06  0.3351955E+04  0.7818609E-02  0.8149800E-01
       -2   -1    0    0    0  501  0.00000000000E+00  0.00000000000E+00  0.10328179501E+04  0.10328179501E+04  0.25500000920E-02 0.  1.
        2   -1    0    0  501    0  0.00000000000E+00  0.00000000000E+00 -0.27196465527E+04  0.27196465527E+04  0.25500000920E-02 0. -1.
    10030    2    1    2    0    0  0.00000000000E+00  0.00000000000E+00 -0.16868286026E+04  0.37524645029E+04  0.33519545210E+04 0.  0.
        3    1    3    3  502    0 -0.16180231960E+04  0.37599192477E+03 -0.10925615219E+04  0.19882302884E+04  0.10100000352E+00 0. -1.
       -3    1    3    3    0  502  0.16180231960E+04 -0.37599192477E+03 -0.59426708068E+03  0.17642342145E+04  0.10100000352E+00 0.  1.
</event>
<event>
 5   0  0.8520125E-07  0.3290309E+04  0.7818609E-02  0.8165366E-01
        3   -1    0    0  501    0  0.00000000000E+00  0.00000000000E+00  0.16931029905E+04  0.16931029935E+04  0.10100000352E+00 0.  1.
       -3   -1    0    0    0  501  0.00000000000E+00  0.00000000000E+00 -0.15985640485E+04  0.15985640517E+04  0.10100000352E+00 0. -1.
    10030    2    1    2    0    0  0.00000000000E+00  0.00000000000E+00  0.94538942020E+02  0.32916670452E+04  0.32903091534E+04 0.  0.
        4    1    3    3  502    0  0.14414722847E+04 -0.18576207278E+03 -0.72388071242E+03  0.16236855588E+04  0.12699999809E+01 0. -1.
       -4    1    3    3    0  502 -0.14414722847E+04  0.18576207278E+03  0.81841965444E+03  0.16679814864E+04  0.12699999809E+01 0.  1.
</event>
<event>
 5   0  0.2614212E-06  0.3283635E+04  0.7818609E-02  0.8167072E-01
        2   -1    0    0  501    0  0.00000000000E+00  0.00000000000E+00  0.12794898973E+04  0.12794898973E+04  0.25500000920E-02 0.  1.
       -2   -1    0    0    0  501  0.00000000000E+00  0.00000000000E+00 -0.21067496400E+04  0.21067496400E+04  0.25500000920E-02 0. -1.
    10030    2    1    2    0    0  0.00000000000E+00  0.00000000000E+00 -0.82725974272E+03  0.33862395373E+04  0.32836351079E+04 0.  0.
        2    1    3    3  502    0  0.40713588307E+03 -0.12470713882E+04 -0.14317055105E+04  0.19418360753E+04  0.25500000920E-02 0. -1.
       -2    1    3    3    0  502 -0.40713588307E+03  0.12470713882E+04  0.60444576781E+03  0.14444034619E+04  0.25500000920E-02 0.  1.
</event>
<event>
 5   0  0.8845526E-07  0.3128126E+04  0.7818609E-02  0.8208061E-01
       -1   -1    0    0    0  501  0.00000000000E+00  0.00000000000E+00  0.20453149509E+04  0.20453149509E+04  0.50400001928E-02 0.  1.
        1   -1    0    0  501    0  0.00000000000E+00  0.00000000000E+00 -0.11960472601E+04  0.11960472601E+04  0.50400001928E-02 0. -1.
    10030    2    1    2    0    0  0.00000000000E+00  0.00000000000E+00  0.84926769077E+03  0.32413622110E+04  0.31281261759E+04 0.  0.
        1    1    3    3  502    0  0.10736616016E+04  0.10184297931E+04  0.94926685553E+03  0.17581399379E+04  0.50400001928E-02 0.  1.
       -1    1    3    3    0  502 -0.10736616016E+04 -0.10184297931E+04 -0.99999164760E+02  0.14832222731E+04  0.50400001928E-02 0. -1.
</event>
<event>
 5   0  0.2674551E-06  0.3329266E+04  0.7818609E-02  0.8155488E-01
       -2   -1    0    0    0  501  0.00000000000E+00  0.00000000000E+00  0.27272314871E+04  0.27272314871E+04  0.25500000920E-02 0.  1.
        2   -1    0    0  501    0  0.00000000000E+00  0.00000000000E+00 -0.10160500153E+04  0.10160500153E+04  0.25500000920E-02 0. -1.
    10030    2    1    2    0    0  0.00000000000E+00  0.00000000000E+00  0.17111814718E+04  0.37432815024E+04  0.33292663421E+04 0.  0.
        3    1    3    3  502    0  0.45870785500E+03 -0.14796492468E+04  0.15406446868E+04  0.21848022452E+04  0.10100000352E+00 0.  1.
       -3    1    3    3    0  502 -0.45870785500E+03  0.14796492468E+04  0.17053678503E+03  0.15584792571E+04  0.10100000352E+00 0. -1.
</event>
<event>
 5   0  0.8705956E-07  0.3243383E+04  0.7818609E-02  0.8177453E-01
        1   -1    0    0  501    0  0.00000000000E+00  0.00000000000E+00  0.32612829979E+04  0.32612829979E+04  0.50400001928E-02 0.  1.
       -1   -1    0    0    0  501  0.00000000000E+00  0.00000000000E+00 -0.80639508739E+03  0.80639508741E+03  0.50400001928E-02 0. -1.
    10030    2    1    2    0    0  0.00000000000E+00  0.00000000000E+00  0.24548879105E+04  0.40676780853E+04  0.32433825480E+04 0.  0.
        2    1    3    3  502    0  0.13776441829E+04  0.78373090724E+03  0.79709618143E+03  0.17741194864E+04  0.25500000920E-02 0. -1.
       -2    1    3    3    0  502 -0.13776441829E+04 -0.78373090724E+03  0.16577917291E+04  0.22935585989E+04  0.25500000920E-02 0.  1.
</event>
<event>
 5   0  0.9268670E-07  0.3400383E+04  0.7818609E-02  0.8137812E-01
       -1   -1    0    0    0  501  0.00000000000E+00  0.00000000000E+00  0.19154972059E+04  0.19154972059E+04  0.50400001928E-02 0.  1.
        1   -1    0    0  501    0  0.00000000000E+00  0.00000000000E+00 -0.15090868116E+04  0.15090868116E+04  0.50400001928E-02 0. -1.
    10030    2    1    2    0    0  0.00000000000E+00  0.00000000000E+00  0.40641039430E+03  0.34245840176E+04  0.34003832556E+04 0.  0.
        3    1    3    3  502    0 -0.21375730643E+01  0.16412052894E+04  0.65031548622E+03  0.17653525463E+04  0.10100000352E+00 0.  1.
       -3    1    3    3    0  502  0.21375730643E+01 -0.16412052894E+04 -0.24390509192E+03  0.16592314712E+04  0.10100000352E+00 0. -1.
</event>
<event>
 5   0  0.9530268E-07  0.3278243E+04  0.7818609E-02  0.8168454E-01
        1   -1    0    0  501    0  0.00000000000E+00  0.00000000000E+00  0.19149468445E+04  0.19149468445E+04  0.50400001928E-02 0.  1.
       -1   -1    0    0    0  501  0.00000000000E+00  0.00000000000E+00 -0.14030258614E+04  0.14030258614E+04  0.50400001928E-02 0. -1.
    10030    2    1    2    0    0  0.00000000000E+00  0.00000000000E+00  0.51192098304E+03  0.33179727059E+04  0.32782433992E+04 0.  0.
        5    1    3    3  502    0  0.11681901409E+04  0.11007087785E+04 -0.80437556971E+02  0.16070844131E+04  0.46999998093E+01 0. -1.
       -5    1    3    3    0  502 -0.11681901409E+04 -0.11007087785E+04  0.59235854002E+03  0.17108882928E+04  0.46999998093E+01 0.  1.
</event>
<event>
 5   0  0.8705956E-07  0.3356950E+04  0.7818609E-02  0.8148554E-01
        1   -1    0    0  501    0  0.00000000000E+00  0.00000000000E+00  0.17896787049E+04  0.17896787049E+04  0.50400001928E-02 0. -1.
       -1   -1    0    0    0  501  0.00000000000E+00  0.00000000000E+00 -0.15741806674E+04  0.15741806674E+04  0.50400001928E-02 0.  1.
    10030    2    1    2    0    0  0.00000000000E+00  0.00000000000E+00  0.21549803751E+03  0.33638593723E+04  0.33569495785E+04 0.  0.
        2    1    3    3  502    0  0.26562030317E+03  0.62771904201E+03  0.16447550684E+04  0.17803945001E+04  0.25500000920E-02 0. -1.
       -2    1    3    3    0  502 -0.26562030317E+03 -0.62771904201E+03 -0.14292570308E+04  0.15834648722E+04  0.25500000920E-02 0.  1.
</event>
<event>
 5   0  0.2574803E-06  0.3193785E+04  0.7818609E-02  0.8190460E-01
        2   -1    0    0  501    0  0.00000000000E+00  0.00000000000E+00  0.97607736319E+03  0.97607736319E+03  0.25500000920E-02 0.  1.
       -2   -1    0    0    0  501  0.00000000000E+00  0.00000000000E+00 -0.26125656353E+04  0.26125656353E+04  0.25500000920E-02 0. -1.
    10030    2    1    2    0    0  0.00000000000E+00  0.00000000000E+00 -0.16364882721E+04  0.35886429985E+04  0.31937853256E+04 0.  0.
        4    1    3    3  502    0  0.77998811844E+02 -0.10060510710E+04  0.57244967061E+03  0.11601391340E+04  0.12699999809E+01 0.  1.
       -4    1    3    3    0  502 -0.77998811844E+02  0.10060510710E+04 -0.22089379427E+04  0.24285038645E+04  0.12699999809E+01 0. -1.
</event>
<event>
 5   0  0.9295663E-07  0.3047637E+04  0.7818609E-02  0.8230257E-01
       -1   -1    0    0    0  501  0.00000000000E+00  0.00000000000E+00  0.14295178859E+04  0.14295178860E+04  0.50400001928E-02 0.  1.
        1   -1    0    0  501    0  0.00000000000E+00  0.00000000000E+00 -0.16243396999E+04  0.16243396999E+04  0.50400001928E-02 0. -1.
    10030    2    1    2    0    0  0.00000000000E+00  0.00000000000E+00 -0.19482181398E+03  0.30538575859E+04  0.30476368904E+04 0.  0.
        4    1    3    3  502    0  0.48266261958E+03  0.52272693715E+03  0.12528611633E+04  0.14407877576E+04  0.12699999809E+01 0.  1.
       -4    1    3    3    0  502 -0.48266261958E+03 -0.52272693715E+03 -0.14476829773E+04  0.16130698282E+04  0.12699999809E+01 0. -1.
</event>
<event>
 5   0  0.9530268E-07  0.3297915E+04  0.7818609E-02  0.8163426E-01
       -1   -1    0    0    0  501  0.00000000000E+00  0.00000000000E+00  0.17295360020E+04  0.17295360020E+04  0.50400001928E-02 0.  1.
        1   -1    0    0  501    0  0.00000000000E+00  0.00000000000E+00 -0.15721326795E+04  0.15721326795E+04  0.50400001928E-02 0. -1.
    10030    2    1    2    0    0  0.00000000000E+00  0.00000000000E+00  0.15740332249E+03  0.33016686815E+04  0.32979145344E+04 0.  0.
        5    1    3    3  502    0 -0.58666637366E+03  0.25814530405E+03  0.15997143563E+04  0.17233469018E+04  0.46999998093E+01 0.  1.
       -5    1    3    3    0  502  0.58666637366E+03 -0.25814530405E+03 -0.14423110338E+04  0.15783217797E+04  0.46999998093E+01 0. -1.
</event>
<event>
 5   0  0.8705956E-07  0.3278861E+04  0.7818609E-02  0.8168295E-01
       -1   -1    0    0    0  501  0.00000000000E+00  0.00000000000E+00  0.21246414275E+04  0.21246414275E+04  0.50400001928E-02 0. -1.
        1   -1    0    0  501    0  0.00000000000E+00  0.00000000000E+00 -0.12650286134E+04  0.12650286134E+04  0.50400001928E-02 0.  1.
    10030    2    1    2    0    0  0.00000000000E+00  0.00000000000E+00  0.85961281411E+03  0.33896700410E+04  0.32788608992E+04 0.  0.
        2    1    3    3  502    0  0.46361103138E+03 -0.15699008170E+04  0.52346866641E+03  0.17185875620E+04  0.25500000920E-02 0. -1.
       -2    1    3    3    0  502 -0.46361103138E+03  0.15699008170E+04  0.33614414770E+03  0.16710824790E+04  0.25500000920E-02 0.  1.
</event>
<event>
 5   0  0.2705859E-06  0.3326846E+04  0.7818609E-02  0.8156098E-01
       -2   -1    0    0    0  501  0.00000000000E+00  0.00000000000E+00  0.15993328642E+04  0.15993328642E+04  0.25500000920E-02 0. -1.
        2   -1    0    0  501    0  0.00000000000E+00  0.00000000000E+00 -0.17300816550E+04  0.17300816550E+04  0.25500000920E-02 0.  1.
    10030    2    1    2    0    0  0.00000000000E+00  0.00000000000E+00 -0.13074879080E+03  0.33294145193E+04  0.33268462235E+04 0.  0.
        1    1    3    3  502    0 -0.36916191436E+02  0.90190786598E+03 -0.14636558882E+04  0.17196189005E+04  0.50400001928E-02 0.  1.
       -1    1    3    3    0  502  0.36916191436E+02 -0.90190786598E+03  0.13329070974E+04  0.16097956188E+04  0.50400001928E-02 0. -1.
</event>
<event>
 5   0  0.2674551E-06  0.3292749E+04  0.7818609E-02  0.8164743E-01
       -2   -1    0    0    0  501  0.00000000000E+00  0.00000000000E+00  0.13917769262E+04  0.13917769262E+04  0.25500000920E-02 0. -1.
        2   -1    0    0  501    0  0.00000000000E+00  0.00000000000E+00 -0.19475458424E+04  0.19475458424E+04  0.25500000920E-02 0.  1.
    10030    2    1    2    0    0  0.00000000000E+00  0.00000000000E+00 -0.55576891628E+03  0.33393227686E+04  0.32927492259E+04 0.  0.
        3    1    3    3  502    0  0.93139446606E+02 -0.86077118145E+03  0.11422606151E+04  0.14333043314E+04  0.10100000352E+00 0. -1.
       -3    1    3    3    0  502 -0.93139446606E+02  0.86077118145E+03 -0.16980295314E+04  0.19060184372E+04  0.10100000352E+00 0.  1.
</event>
<event>
 5   0  0.2674551E-06  0.2912613E+04  0.7818609E-02  0.8269135E-01
        2   -1    0    0  501    0  0.00000000000E+00  0.00000000000E+00  0.15199604844E+04  0.15199604844E+04  0.25500000920E-02 0. -1.
       -2   -1    0    0    0  501  0.00000000000E+00  0.00000000000E+00 -0.13953178468E+04  0.13953178468E+04  0.25500000920E-02 0.  1.
    10030    2    1    2    0    0  0.00000000000E+00  0.00000000000E+00  0.12464263757E+03  0.29152783312E+04  0.29126125663E+04 0.  0.
        3    1    3    3  502    0 -0.71975908142E+03  0.10499335091E+04  0.77036856142E+03  0.14879117042E+04  0.10100000352E+00 0. -1.
       -3    1    3    3    0  502  0.71975908142E+03 -0.10499335091E+04 -0.64572592385E+03  0.14273666270E+04  0.10100000352E+00 0.  1.
</event>
<event>
 5   0  0.9295663E-07  0.3323313E+04  0.7818609E-02  0.8156988E-01
       -1   -1    0    0    0  501  0.00000000000E+00  0.00000000000E+00  0.10139672219E+04  0.10139672220E+04  0.50400001928E-02 0.  1.
        1   -1    0    0  501    0  0.00000000000E+00  0.00000000000E+00 -0.27230693484E+04  0.27230693484E+04  0.50400001928E-02 0. -1.
    10030    2    1    2    0    0  0.00000000000E+00  0.00000000000E+00 -0.17091021264E+04  0.37370365703E+04  0.33233134443E+04 0.  0.
        4    1    3    3  502    0 -0.20386358106E+01  0.99397940136E+03  0.64279757847E+03  0.11837185249E+04  0.12699999809E+01 0. -1.
       -4    1    3    3    0  502  0.20386358106E+01 -0.99397940136E+03 -0.23518997049E+04  0.25533180454E+04  0.12699999809E+01 0.  1.
</event>
<event>
 5   0  0.2705859E-06  0.3225574E+04  0.7818609E-02  0.8182096E-01
       -2   -1    0    0    0  501  0.00000000000E+00  0.00000000000E+00  0.11461417933E+04  0.11461417933E+04  0.25500000920E-02 0. -1.
        2   -1    0    0  501    0  0.00000000000E+00  0.00000000000E+00 -0.22694241333E+04  0.22694241333E+04  0.25500000920E-02 0.  1.
    10030    2    1    2    0    0  0.00000000000E+00  0.00000000000E+00 -0.11232823400E+04  0.34155659265E+04  0.32255739618E+04 0.  0.
        1    1    3    3  502    0  0.63113609644E+03  0.14830636498E+04 -0.50107713448E+03  0.16878651772E+04  0.50400001928E-02 0.  1.
       -1    1    3    3    0  502 -0.63113609644E+03 -0.14830636498E+04 -0.62220520552E+03  0.17277007494E+04  0.50400001928E-02 0. -1.
</event>
<event>
 5   0  0.8705956E-07  0.3296699E+04  0.7818609E-02  0.8163736E-01
       -1   -1    0    0    0  501  0.00000000000E+00  0.00000000000E+00  0.26608872796E+04  0.26608872796E+04  0.50400001928E-02 0. -1.
        1   -1    0    0  501    0  0.00000000000E+00  0.00000000000E+00 -0.10211089191E+04  0.10211089191E+04  0.50400001928E-02 0.  1.
    10030    2    1    2    0    0  0.00000000000E+00  0.00000000000E+00  0.16397783605E+04  0.36819961988E+04  0.32966987937E+04 0.  0.
        2    1    3    3  502    0 -0.24307782924E+03 -0.62442708317E+02 -0.99964508121E+03  0.10306678472E+04  0.25500000920E-02 0.  1.
       -2    1    3    3    0  502  0.24307782924E+03  0.62442708317E+02  0.26394234417E+04  0.26513283515E+04  0.25500000920E-02 0. -1.
</event>
<event>
 5   0  0.8845526E-07  0.3300880E+04  0.7818609E-02  0.8162671E-01
        1   -1    0    0  501    0  0.00000000000E+00  0.00000000000E+00  0.16447770126E+04  0.16447770126E+04  0.50400001928E-02 0. -1.
       -1   -1    0    0    0  501  0.00000000000E+00  0.00000000000E+00 -0.16561226121E+04  0.16561226121E+04  0.50400001928E-02 0.  1.
    10030    2    1    2    0    0  0.00000000000E+00  0.00000000000E+00 -0.11345599572E+02  0.33008996247E+04  0.33008801265E+04 0.  0.
        1    1    3    3  502    0  0.22718395086E+03 -0.30592391312E+03 -0.16115310997E+04  0.16559693456E+04  0.50400001928E-02 0.  1.
       -1    1    3    3    0  502 -0.22718395086E+03  0.30592391312E+03  0.16001855002E+04  0.16449302791E+04  0.50400001928E-02 0. -1.
</event>
<event>
 5   0  0.9530268E-07  0.3289836E+04  0.7818609E-02  0.8165486E-01
       -1   -1    0    0    0  501  0.00000000000E+00  0.00000000000E+00  0.15642612482E+04  0.15642612482E+04  0.50400001928E-02 0.  1.
        1   -1    0    0  501    0  0.00000000000E+00  0.00000000000E+00 -0.17297335921E+04  0.17297335921E+04  0.50400001928E-02 0. -1.
    10030    2    1    2    0    0  0.00000000000E+00  0.00000000000E+00 -0.16547234395E+03  0.32939948403E+04  0.32898360007E+04 0.  0.
        5    1    3    3  502    0 -0.10821588892E+04 -0.91639504424E+03  0.75191548335E+03  0.16050690710E+04  0.46999998093E+01 0.  1.
       -5    1    3    3    0  502  0.10821588892E+04  0.91639504424E+03 -0.91738782731E+03  0.16889257693E+04  0.46999998093E+01 0. -1.
</event>
<event>
 5   0  0.2614212E-06  0.3309967E+04  0.7818609E-02  0.8160364E-01
       -2   -1    0    0    0  501  0.00000000000E+00  0.00000000000E+00  0.15179558237E+04  0.15179558237E+04  0.25500000920E-02 0.  1.
        2   -1    0    0  501    0  0.00000000000E+00  0.00000000000E+00 -0.18043806239E+04  0.18043806239E+04  0.25500000920E-02 0. -1.
    10030    2    1    2    0    0  0.00000000000E+00  0.00000000000E+00 -0.28642480018E+03  0.33223364476E+04  0.33099668133E+04 0.  0.
        2    1    3    3  502    0 -0.79553012271E+03 -0.34824322970E+02  0.13130330708E+04  0.15356225951E+04  0.25500000920E-02 0.  1.
       -2    1    3    3    0  502  0.79553012271E+03  0.34824322970E+02 -0.15994578710E+04  0.17867138525E+04  0.25500000920E-02 0. -1.
</event>
<event>
 5   0  0.2705859E-06  0.3296116E+04  0.7818609E-02  0.8163884E-01
       -2   -1    0    0    0  501  0.00000000000E+00  0.00000000000E+00  0.21599963436E+04  0.21599963436E+04  0.25500000920E-02 0. -1.
        2   -1    0    0  501    0  0.00000000000E+00  0.00000000000E+00 -0.12574533668E+04  0.12574533668E+04  0.25500000920E-02 0.  1.
    10030    2    1    2    0    0  0.00000000000E+00  0.00000000000E+00  0.90254297677E+03  0.34174497105E+04  0.32961156986E+04 0.  0.
        1    1    3    3  502    0 -0.86350108978E+03 -0.13461004204E+04  0.86401377883E+03  0.18177294309E+04  0.50400001928E-02 0.  1.
       -1    1    3    3    0  502  0.86350108978E+03  0.13461004204E+04  0.38529197939E+02  0.15997202796E+04  0.50400001928E-02 0. -1.
</event>
<event>
 5   0  0.2658600E-06  0.3281660E+04  0.7818609E-02  0.8167578E-01
       -2   -1    0    0    0  501  0.00000000000E+00  0.00000000000E+00  0.14162141253E+04  0.14162141253E+04  0.25500000920E-02 0. -1.
        2   -1    0    0  501    0  0.00000000000E+00  0.00000000000E+00 -0.19010701306E+04  0.19010701306E+04  0.25500000920E-02 0.  1.
    10030    2    1    2    0    0  0.00000000000E+00  0.00000000000E+00 -0.48485600528E+03  0.33172842560E+04  0.32816595632E+04 0.  0.
        5    1    3    3  502    0 -0.14422027763E+04  0.29071866414E+03  0.49198081183E+03  0.15513005508E+04  0.46999998093E+01 0. -1.
       -5    1    3    3    0  502  0.14422027763E+04 -0.29071866414E+03 -0.97683681711E+03  0.17659837052E+04  0.46999998093E+01 0.  1.
</event>
<event>
 5   0  0.8705956E-07  0.2946594E+04  0.7818609E-02  0.8259148E-01
        1   -1    0    0  501    0  0.00000000000E+00  0.00000000000E+00  0.13305142383E+04  0.13305142383E+04  0.50400001928E-02 0. -1.
       -1   -1    0    0    0  501  0.00000000000E+00  0.00000000000E+00 -0.16314018473E+04  0.16314018473E+04  0.50400001928E-02 0.  1.
    10030    2    1    2    0    0  0.00000000000E+00  0.00000000000E+00 -0.30088760897E+03  0.29619160855E+04  0.29465935493E+04 0.  0.
        2    1    3    3  502    0  0.71582722058E+03 -0.25408222824E+03  0.11185141089E+04  0.13520503690E+04  0.25500000920E-02 0. -1.
       -2    1    3    3    0  502 -0.71582722058E+03  0.25408222824E+03 -0.14194017179E+04  0.16098657165E+04  0.25500000920E-02 0.  1.
</event>
<event>
 5   0  0.2574803E-06  0.3302498E+04  0.7818609E-02  0.8162260E-01
        2   -1    0    0  501    0  0.00000000000E+00  0.00000000000E+00  0.15114401994E+04  0.15114401994E+04  0.25500000920E-02 0. -1.
       -2   -1    0    0    0  501  0.00000000000E+00  0.00000000000E+00 -0.18039897393E+04  0.18039897393E+04  0.25500000920E-02 0.  1.
    10030    2    1    2    0    0  0.00000000000E+00  0.00000000000E+00 -0.29254953992E+03  0.33154299387E+04  0.33024976071E+04 0.  0.
        4    1    3    3  502    0  0.15388341135E+04 -0.25564422709E+03  0.39737754259E+03  0.16097437449E+04  0.12699999809E+01 0.  1.
       -4    1    3    3    0  502 -0.15388341135E+04  0.25564422709E+03 -0.68992708251E+03  0.17056861939E+04  0.12699999809E+01 0. -1.
</event>
<event>
 5   0  0.2705859E-06  0.3295966E+04  0.7818609E-02  0.8163923E-01
        2   -1    0    0  501    0  0.00000000000E+00  0.00000000000E+00  0.19649814239E+04  0.19649814239E+04  0.25500000920E-02 0.  1.
       -2   -1    0    0    0  501  0.00000000000E+00  0.00000000000E+00 -0.13821237928E+04  0.13821237928E+04  0.25500000920E-02 0. -1.
    10030    2    1    2    0    0  0.00000000000E+00  0.00000000000E+00  0.58285763105E+03  0.33471052167E+04  0.32959657635E+04 0.  0.
        1    1    3    3  502    0 -0.59521164503E+01 -0.66206201782E+03 -0.12411207672E+04  0.14066777534E+04  0.50400001928E-02 0. -1.
       -1    1    3    3    0  502  0.59521164503E+01  0.66206201782E+03  0.18239783983E+04  0.19404274633E+04  0.50400001928E-02 0.  1.
</event>
<event>
 5   0  0.8845526E-07  0.3315556E+04  0.7818609E-02  0.8158948E-01
        1   -1    0    0  501    0  0.00000000000E+00  0.00000000000E+00  0.17454168877E+04  0.17454168877E+04  0.50400001928E-02 0.  1.
       -1   -1    0    0    0  501  0.00000000000E+00  0.00000000000E+00 -0.15745395699E+04  0.15745395699E+04  0.50400001928E-02 0. -1.
    10030    2    1    2    0    0  0.00000000000E+00  0.00000000000E+00  0.17087731780E+03  0.33199564576E+04  0.33155560352E+04 0.  0.
        1    1    3    3  502    0 -0.70066549501E+02  0.23614022475E+03 -0.15561139717E+04  0.15754879308E+04  0.50400001928E-02 0. -1.
       -1    1    3    3    0  502  0.70066549501E+02 -0.23614022475E+03  0.17269912895E+04  0.17444685268E+04  0.50400001928E-02 0.  1.
</event>
<event>
 5   0  0.9530268E-07  0.3296864E+04  0.7818609E-02  0.8163694E-01
        1   -1    0    0  501    0  0.00000000000E+00  0.00000000000E+00  0.20784098399E+04  0.20784098399E+04  0.50400001928E-02 0.  1.
       -1   -1    0    0    0  501  0.00000000000E+00  0.00000000000E+00 -0.13074074490E+04  0.13074074490E+04  0.50400001928E-02 0. -1.
    10030    2    1    2    0    0  0.00000000000E+00  0.00000000000E+00  0.77100239092E+03  0.33858172889E+04  0.32968642718E+04 0.  0.
        5    1    3    3  502    0  0.60298545098E+03 -0.55103634540E+03 -0.10849384700E+04  0.13580670387E+04  0.46999998093E+01 0. -1.
       -5    1    3    3    0  502 -0.60298545098E+03  0.55103634540E+03  0.18559408609E+04  0.20277502502E+04  0.46999998093E+01 0.  1.
</event>
<event>
 5   0  0.2658600E-06  0.3123720E+04  0.7818609E-02  0.8209258E-01
       -2   -1    0    0    0  501  0.00000000000E+00  0.00000000000E+00  0.97035793125E+03  0.97035793126E+03  0.25500000920E-02 0. -1.
        2   -1    0    0  501    0  0.00000000000E+00  0.00000000000E+00 -0.25139248044E+04  0.25139248044E+04  0.25500000920E-02 0.  1.
    10030    2    1    2    0    0  0.00000000000E+00  0.00000000000E+00 -0.15435668732E+04  0.34842827357E+04  0.31237201363E+04 0.  0.
        5    1    3    3  502    0 -0.10920935856E+04 -0.79969886245E+03  0.97390066363E+02  0.13570901168E+04  0.46999998093E+01 0. -1.
       -5    1    3    3    0  502  0.10920935856E+04  0.79969886245E+03 -0.16409569395E+04  0.21271926188E+04  0.46999998093E+01 0.  1.
</event>
<event>
 5   0  0.2658600E-06  0.3102746E+04  0.7818609E-02  0.8214985E-01
       -2   -1    0    0    0  501  0.00000000000E+00  0.00000000000E+00  0.16528044755E+04  0.16528044755E+04  0.25500000920E-02 0. -1.
        2   -1    0    0  501    0  0.00000000000E+00  0.00000000000E+00 -0.14561664341E+04  0.14561664341E+04  0.25500000920E-02 0.  1.
    10030    2    1    2    0    0  0.00000000000E+00  0.00000000000E+00  0.19663804139E+03  0.31089709097E+04  0.31027461382E+04 0.  0.
        5    1    3    3  502    0  0.62263337581E+03  0.13576641643E+04 -0.32182160611E+03  0.15279121506E+04  0.46999998093E+01 0.  1.
       -5    1    3    3    0  502 -0.62263337581E+03 -0.13576641643E+04  0.51845964751E+03  0.15810587591E+04  0.46999998093E+01 0. -1.
</event>
<event>
 5   0  0.2658600E-06  0.3275962E+04  0.7818609E-02  0.8169039E-01
        2   -1    0    0  501    0  0.00000000000E+00  0.00000000000E+00  0.23462377023E+04  0.23462377023E+04  0.25500000920E-02 0. -1.
       -2   -1    0    0    0  501  0.00000000000E+00  0.00000000000E+00 -0.11435249435E+04  0.11435249435E+04  0.25500000920E-02 0.  1.
    10030    2    1    2    0    0  0.00000000000E+00  0.00000000000E+00  0.12027127588E+04  0.34897626457E+04  0.32759617433E+04 0.  0.
        5    1    3    3  502    0  0.69465301913E+02  0.10642403203E+04  0.19256835103E+04  0.22012977898E+04  0.46999998093E+01 0. -1.
       -5    1    3    3    0  502 -0.69465301913E+02 -0.10642403203E+04 -0.72297075143E+03  0.12884648560E+04  0.46999998093E+01 0.  1.
</event>
<event>
 5   0  0.2574803E-06  0.3556813E+04  0.7818609E-02  0.8100456E-01
        2   -1    0    0  501    0  0.00000000000E+00  0.00000000000E+00  0.23974033162E+04  0.23974033162E+04  0.25500000920E-02 0.  1.
       -2   -1    0    0    0  501  0.00000000000E+00  0.00000000000E+00 -0.13192315529E+04  0.13192315529E+04  0.25500000920E-02 0. -1.
    10030    2    1    2    0    0  0.00000000000E+00  0.00000000000E+00  0.10781717633E+04  0.37166348691E+04  0.35568132365E+04 0.  0.
        4    1    3    3  502    0  0.17667312409E+04 -0.11292500996E+03  0.36225677882E+03  0.18070204543E+04  0.12699999809E+01 0. -1.
       -4    1    3    3    0  502 -0.17667312409E+04  0.11292500996E+03  0.71591498447E+03  0.19096144149E+04  0.12699999809E+01 0.  1.
</event>
<event>
 5   0  0.2574803E-06  0.3032451E+04  0.7818609E-02  0.8234524E-01
       -2   -1    0    0    0  501  0.00000000000E+00  0.00000000000E+00  0.11393908468E+04  0.11393908468E+04  0.25500000920E-02 0. -1.
        2   -1    0    0  501    0  0.00000000000E+00  0.00000000000E+00 -0.20176924972E+04  0.20176924972E+04  0.25500000920E-02 0.  1.
    10030    2    1    2    0    0  0.00000000000E+00  0.00000000000E+00 -0.87830165043E+03  0.31570833441E+04  0.30324513932E+04 0.  0.
        4    1    3    3  502    0  0.30832894114E+03  0.14752557617E+04 -0.26652771574E+03  0.15305178648E+04  0.12699999809E+01 0.  1.
       -4    1    3    3    0  502 -0.30832894114E+03 -0.14752557617E+04 -0.61177393469E+03  0.16265654793E+04  0.12699999809E+01 0. -1.
</event>
<event>
 5   0  0.9530268E-07  0.3224627E+04  0.7818609E-02  0.8182343E-01
       -1   -1    0    0    0  501  0.00000000000E+00  0.00000000000E+00  0.13897282729E+04  0.13897282729E+04  0.50400001928E-02 0.  1.
        1   -1    0    0  501    0  0.00000000000E+00  0.00000000000E+00 -0.18705494203E+04  0.18705494203E+04  0.50400001928E-02 0. -1.
    10030    2    1    2    0    0  0.00000000000E+00  0.00000000000E+00 -0.48082114739E+03  0.32602776932E+04  0.32246273678E+04 0.  0.
        5    1    3    3  502    0  0.30739721330E+03  0.15803839113E+04 -0.15327792076E+03  0.16172886461E+04  0.46999998093E+01 0.  1.
       -5    1    3    3    0  502 -0.30739721330E+03 -0.15803839113E+04 -0.32754322663E+03  0.16429890472E+04  0.46999998093E+01 0. -1.
</event>
<event>
 5   0  0.2674551E-06  0.3364872E+04  0.7818609E-02  0.8146582E-01
       -2   -1    0    0    0  501  0.00000000000E+00  0.00000000000E+00  0.18852964695E+04  0.18852964695E+04  0.25500000920E-02 0.  1.
        2   -1    0    0  501    0  0.00000000000E+00  0.00000000000E+00 -0.15014037216E+04  0.15014037217E+04  0.25500000920E-02 0. -1.
    10030    2    1    2    0    0  0.00000000000E+00  0.00000000000E+00  0.38389274782E+03  0.33867001911E+04  0.33648721436E+04 0.  0.
        3    1    3    3  502    0  0.17709881224E+03 -0.78003118201E+03  0.16816758802E+04  0.18622154575E+04  0.10100000352E+00 0.  1.
       -3    1    3    3    0  502 -0.17709881224E+03  0.78003118201E+03 -0.12977831323E+04  0.15244847336E+04  0.10100000352E+00 0. -1.
</event>
<event>
 5   0  0.2614212E-06  0.3264333E+04  0.7818609E-02  0.8172031E-01
       -2   -1    0    0    0  501  0.00000000000E+00  0.00000000000E+00  0.13311729351E+04  0.13311729351E+04  0.25500000920E-02 0.  1.
        2   -1    0    0  501    0  0.00000000000E+00  0.00000000000E+00 -0.20012184361E+04  0.20012184361E+04  0.25500000920E-02 0. -1.
    10030    2    1    2    0    0  0.00000000000E+00  0.00000000000E+00 -0.67004550093E+03  0.33323913712E+04  0.32643332057E+04 0.  0.
        2    1    3    3  502    0 -0.29920732280E+03  0.15936609730E+04 -0.14489390004E+03  0.16279663882E+04  0.25500000920E-02 0.  1.
       -2    1    3    3    0  502  0.29920732280E+03 -0.15936609730E+04 -0.52515160089E+03  0.17044249830E+04  0.25500000920E-02 0. -1.
</event>
<event>
 5   0  0.9268670E-07  0.3275137E+04  0.7818609E-02  0.8169251E-01
       -1   -1    0    0    0  501  0.00000000000E+00  0.00000000000E+00  0.19455871621E+04  0.19455871621E+04  0.50400001928E-02 0. -1.
        1   -1    0    0  501    0  0.00000000000E+00  0.00000000000E+00 -0.13783145798E+04  0.13783145798E+04  0.50400001928E-02 0.  1.
    10030    2    1    2    0    0  0.00000000000E+00  0.00000000000E+00  0.56727258236E+03  0.33239017419E+04  0.32751373417E+04 0.  0.
        3    1    3    3  502    0 -0.11170737004E+03  0.12383983638E+04 -0.79783863655E+03  0.14773813130E+04  0.10100000352E+00 0.  1.
       -3    1    3    3    0  502  0.11170737004E+03 -0.12383983638E+04  0.13651112189E+04  0.18465204288E+04  0.10100000352E+00 0. -1.
</event>
<event>
 5   0  0.2658600E-06  0.2752025E+04  0.7818609E-02  0.8318319E-01
        2   -1    0    0  501    0  0.00000000000E+00  0.00000000000E+00  0.14574843803E+04  0.14574843803E+04  0.25500000920E-02 0. -1.
       -2   -1    0    0    0  501  0.00000000000E+00  0.00000000000E+00 -0.12990945310E+04  0.12990945310E+04  0.25500000920E-02 0.  1.
    10030    2    1    2    0    0  0.00000000000E+00  0.00000000000E+00  0.15838984924E+03  0.27565789113E+04  0.27520247001E+04 0.  0.
        5    1    3    3  502    0  0.10420318552E+04  0.64301117394E+03 -0.54961312215E+03  0.13421588695E+04  0.46999998093E+01 0.  1.
       -5    1    3    3    0  502 -0.10420318552E+04 -0.64301117394E+03  0.70800297139E+03  0.14144200418E+04  0.46999998093E+01 0. -1.
</event>
<event>
 5   0  0.2614212E-06  0.3257392E+04  0.7818609E-02  0.8173822E-01
       -2   -1    0    0    0  501  0.00000000000E+00  0.00000000000E+00  0.10518426541E+04  0.10518426541E+04  0.25500000920E-02 0. -1.
        2   -1    0    0  501    0  0.00000000000E+00  0.00000000000E+00 -0.25219079636E+04  0.25219079636E+04  0.25500000920E-02 0.  1.
    10030    2    1    2    0    0  0.00000000000E+00  0.00000000000E+00 -0.14700653094E+04  0.35737506177E+04  0.32573918192E+04 0.  0.
        2    1    3    3  502    0  0.15052690108E+04  0.35515585781E+03 -0.17487792833E+03  0.15564551931E+04  0.25500000920E-02 0. -1.
       -2    1    3    3    0  502 -0.15052690108E+04 -0.35515585781E+03 -0.12951873811E+04  0.20172954247E+04  0.25500000920E-02 0.  1.
</event>
<event>
 5   0  0.8845526E-07  0.2671946E+04  0.7818609E-02  0.8344165E-01
        1   -1    0    0  501    0  0.00000000000E+00  0.00000000000E+00  0.13601526835E+04  0.13601526835E+04  0.50400001928E-02 0.  1.
       -1   -1    0    0    0  501  0.00000000000E+00  0.00000000000E+00 -0.13122230321E+04  0.13122230322E+04  0.50400001928E-02 0. -1.
    10030    2    1    2    0    0  0.00000000000E+00  0.00000000000E+00  0.47929651334E+02  0.26723757157E+04  0.26719458666E+04 0.  0.
        1    1    3    3  502    0  0.12581284386E+04 -0.24880551521E+03 -0.35030430886E+03  0.13294752579E+04  0.50400001928E-02 0. -1.
       -1    1    3    3    0  502 -0.12581284386E+04  0.24880551521E+03  0.39823396019E+03  0.13429004578E+04  0.50400001928E-02 0.  1.
</event>
<event>
 5   0  0.2658600E-06  0.3350530E+04  0.7818609E-02  0.8150156E-01
        2   -1    0    0  501    0  0.00000000000E+00  0.00000000000E+00  0.14917869349E+04  0.14917869349E+04  0.25500000920E-02 0.  1.
       -2   -1    0    0    0  501  0.00000000000E+00  0.00000000000E+00 -0.18813089645E+04  0.18813089645E+04  0.25500000920E-02 0. -1.
    10030    2    1    2    0    0  0.00000000000E+00  0.00000000000E+00 -0.38952202952E+03  0.33730958994E+04  0.33505295903E+04 0.  0.
        5    1    3    3  502    0 -0.35402125884E+03  0.10841025467E+04  0.10406472681E+04  0.15438841311E+04  0.46999998093E+01 0.  1.
       -5    1    3    3    0  502  0.35402125884E+03 -0.10841025467E+04 -0.14301692976E+04  0.18292117683E+04  0.46999998093E+01 0. -1.
</event>
<event>
 5   0  0.2658600E-06  0.3203092E+04  0.7818609E-02  0.8188001E-01
       -2   -1    0    0    0  501  0.00000000000E+00  0.00000000000E+00  0.12828852329E+04  0.12828852329E+04  0.25500000920E-02 0. -1.
        2   -1    0    0  501    0  0.00000000000E+00  0.00000000000E+00 -0.19993595648E+04  0.19993595648E+04  0.25500000920E-02 0.  1.
    10030    2    1    2    0    0  0.00000000000E+00  0.00000000000E+00 -0.71647433194E+03  0.32822447977E+04  0.32030915447E+04 0.  0.
        5    1    3    3  502    0  0.84533442321E+03  0.23111545048E+03 -0.17318560305E+04  0.19409667795E+04  0.46999998093E+01 0.  1.
       -5    1    3    3    0  502 -0.84533442321E+03 -0.23111545048E+03  0.10153816986E+04  0.13412780183E+04  0.46999998093E+01 0. -1.
</event>
<event>
 5   0  0.2674551E-06  0.3301219E+04  0.7818609E-02  0.8162585E-01
       -2   -1    0    0    0  501  0.00000000000E+00  0.00000000000E+00  0.19422813621E+04  0.19422813621E+04  0.25500000920E-02 0.  1.
        2   -1    0    0  501    0  0.00000000000E+00  0.00000000000E+00 -0.14027380792E+04  0.14027380792E+04  0.25500000920E-02 0. -1.
    10030    2    1    2    0    0  0.00000000000E+00  0.00000000000E+00  0.53954328289E+03  0.33450194414E+04  0.33012191852E+04 0.  0.
        3    1    3    3  502    0  0.47563647306E+03  0.70582131503E+03  0.17027840435E+04  0.19036510427E+04  0.10100000352E+00 0.  1.
       -3    1    3    3    0  502 -0.47563647306E+03 -0.70582131503E+03 -0.11632407606E+04  0.14413683987E+04  0.10100000352E+00 0. -1.
</event>
<event>
 5   0  0.8705956E-07  0.3164020E+04  0.7818609E-02  0.8198384E-01
       -1   -1    0    0    0  501  0.00000000000E+00  0.00000000000E+00  0.75581906852E+03  0.75581906854E+03  0.50400001928E-02 0. -1.
        1   -1    0    0  501    0  0.00000000000E+00  0.00000000000E+00 -0.33113163988E+04  0.33113163988E+04  0.50400001928E-02 0.  1.
    10030    2    1    2    0    0  0.00000000000E+00  0.00000000000E+00 -0.25554973302E+04  0.40671354673E+04  0.31640202756E+04 0.  0.
        2    1    3    3  502    0  0.56949067600E+03 -0.13731568617E+04 -0.19734002454E+04  0.24706654823E+04  0.25500000920E-02 0. -1.
       -2    1    3    3    0  502 -0.56949067600E+03  0.13731568617E+04 -0.58209708485E+03  0.15964699850E+04  0.25500000920E-02 0.  1.
</event>
<event>
 5   0  0.9530268E-07  0.3288948E+04  0.7818609E-02  0.8165713E-01
       -1   -1    0    0    0  501  0.00000000000E+00  0.00000000000E+00  0.90962025851E+03  0.90962025852E+03  0.50400001928E-02 0. -1.
        1   -1    0    0  501    0  0.00000000000E+00  0.00000000000E+00 -0.29729928784E+04  0.29729928784E+04  0.50400001928E-02 0.  1.
    10030    2    1    2    0    0  0.00000000000E+00  0.00000000000E+00 -0.20633726198E+04  0.38826131369E+04  0.32889478868E+04 0.  0.
        5    1    3    3  502    0  0.41149294671E+03 -0.41776556747E+03 -0.28453701415E+04  0.29051691597E+04  0.46999998093E+01 0.  1.
       -5    1    3    3    0  502 -0.41149294671E+03  0.41776556747E+03  0.78199752166E+03  0.97744397713E+03  0.46999998093E+01 0. -1.
</event>
<event>
 5   0  0.2614212E-06  0.3420784E+04  0.7818609E-02  0.8132824E-01
       -2   -1    0    0    0  501  0.00000000000E+00  0.00000000000E+00  0.22051339775E+04  0.22051339775E+04  0.25500000920E-02 0. -1.
        2   -1    0    0  501    0  0.00000000000E+00  0.00000000000E+00 -0.13266498539E+04  0.13266498539E+04  0.25500000920E-02 0.  1.
    10030    2    1    2    0    0  0.00000000000E+00  0.00000000000E+00  0.87848412368E+03  0.35317838314E+04  0.34207839271E+04 0.  0.
        2    1    3    3  502    0 -0.60680490007E+03 -0.14871693184E+04  0.10461567214E+04  0.19168538427E+04  0.25500000920E-02 0. -1.
       -2    1    3    3    0  502  0.60680490007E+03  0.14871693184E+04 -0.16767259776E+03  0.16149299887E+04  0.25500000920E-02 0.  1.
</event>
<event>
 5   0  0.2705859E-06  0.2995107E+04  0.7818609E-02  0.8245129E-01
        2   -1    0    0  501    0  0.00000000000E+00  0.00000000000E+00  0.16136161202E+04  0.16136161202E+04  0.25500000920E-02 0.  1.
       -2   -1    0    0    0  501  0.00000000000E+00  0.00000000000E+00 -0.13898393642E+04  0.13898393642E+04  0.25500000920E-02 0. -1.
    10030    2    1    2    0    0  0.00000000000E+00  0.00000000000E+00  0.22377675596E+03  0.30034554844E+04  0.29951074789E+04 0.  0.
        1    1    3    3  502    0  0.98805478346E+02 -0.60741938854E+03 -0.12571811167E+04  0.13997232571E+04  0.50400001928E-02 0. -1.
       -1    1    3    3    0  502 -0.98805478346E+02  0.60741938854E+03  0.14809578727E+04  0.16037322273E+04  0.50400001928E-02 0.  1.
</event>
<event>
 5   0  0.9295663E-07  0.3277735E+04  0.7818609E-02  0.8168584E-01
        1   -1    0    0  501    0  0.00000000000E+00  0.00000000000E+00  0.22825594240E+04  0.22825594240E+04  0.50400001928E-02 0. -1.
       -1   -1    0    0    0  501  0.00000000000E+00  0.00000000000E+00 -0.11766998575E+04  0.11766998575E+04  0.50400001928E-02 0.  1.
    10030    2    1    2    0    0  0.00000000000E+00  0.00000000000E+00  0.11058595666E+04  0.34592592815E+04  0.32777354066E+04 0.  0.
        4    1    3    3  502    0  0.56087226575E+03 -0.45697289957E+03  0.21049081183E+04  0.22257676718E+04  0.12699999809E+01 0. -1.
       -4    1    3    3    0  502 -0.56087226575E+03  0.45697289957E+03 -0.99904855177E+03  0.12334916097E+04  0.12699999809E+01 0.  1.
</event>
<event>
 5   0  0.9268670E-07  0.3327129E+04  0.7818609E-02  0.8156026E-01
       -1   -1    0    0    0  501  0.00000000000E+00  0.00000000000E+00  0.18414470644E+04  0.18414470644E+04  0.50400001928E-02 0.  1.
        1   -1    0    0  501    0  0.00000000000E+00  0.00000000000E+00 -0.15028656432E+04  0.15028656432E+04  0.50400001928E-02 0. -1.
    10030    2    1    2    0    0  0.00000000000E+00  0.00000000000E+00  0.33858142116E+03  0.33443127076E+04  0.33271294095E+04 0.  0.
        3    1    3    3  502    0  0.11659695791E+04 -0.27209232945E+02  0.13616812227E+04  0.17928751111E+04  0.10100000352E+00 0.  1.
       -3    1    3    3    0  502 -0.11659695791E+04  0.27209232945E+02 -0.10230998015E+04  0.15514375965E+04  0.10100000352E+00 0. -1.
</event>
<event>
 5   0  0.2614212E-06  0.3355961E+04  0.7818609E-02  0.8148800E-01
       -2   -1    0    0    0  501  0.00000000000E+00  0.00000000000E+00  0.13895409691E+04  0.13895409691E+04  0.25500000920E-02 0.  1.
        2   -1    0    0  501    0  0.00000000000E+00  0.00000000000E+00 -0.20262941850E+04  0.20262941850E+04  0.25500000920E-02 0. -1.
    10030    2    1    2    0    0  0.00000000000E+00  0.00000000000E+00 -0.63675321597E+03  0.34158351541E+04  0.33559611354E+04 0.  0.
        2    1    3    3  502    0  0.35759258822E+03 -0.14432408655E+04  0.47318849069E+03  0.15603602157E+04  0.25500000920E-02 0.  1.
       -2    1    3    3    0  502 -0.35759258822E+03  0.14432408655E+04 -0.11099417067E+04  0.18554749384E+04  0.25500000920E-02 0. -1.
</event>
<event>
 5   0  0.8845526E-07  0.3241827E+04  0.7818609E-02  0.8177857E-01
        1   -1    0    0  501    0  0.00000000000E+00  0.00000000000E+00  0.26562031368E+04  0.26562031368E+04  0.50400001928E-02 0.  1.
       -1   -1    0    0    0  501  0.00000000000E+00  0.00000000000E+00 -0.98914133756E+03  0.98914133757E+03  0.50400001928E-02 0. -1.
    10030    2    1    2    0    0  0.00000000000E+00  0.00000000000E+00  0.16670617993E+04  0.36453444744E+04  0.32418268452E+04 0.  0.
        1    1    3    3  502    0  0.54254495358E+03 -0.64805629097E+03 -0.72175223241E+03  0.11114217327E+04  0.50400001928E-02 0. -1.
       -1    1    3    3    0  502 -0.54254495358E+03  0.64805629097E+03  0.23888140317E+04  0.25339227417E+04  0.50400001928E-02 0.  1.
</event>
<event>
 5   0  0.8845526E-07  0.2893418E+04  0.7818609E-02  0.8274839E-01
        1   -1    0    0  501    0  0.00000000000E+00  0.00000000000E+00  0.13952578732E+04  0.13952578732E+04  0.50400001928E-02 0. -1.
       -1   -1    0    0    0  501  0.00000000000E+00  0.00000000000E+00 -0.15000573537E+04  0.15000573537E+04  0.50400001928E-02 0.  1.
    10030    2    1    2    0    0  0.00000000000E+00  0.00000000000E+00 -0.10479948046E+03  0.28953152269E+04  0.28934179325E+04 0.  0.
        1    1    3    3  502    0  0.10622706797E+04  0.48274606162E+03 -0.90824068673E+03  0.14786358246E+04  0.50400001928E-02 0.  1.
       -1    1    3    3    0  502 -0.10622706797E+04 -0.48274606162E+03  0.80344120627E+03  0.14166794023E+04  0.50400001928E-02 0. -1.
</event>
<event>
 5   0  0.8705956E-07  0.3291737E+04  0.7818609E-02  0.8165001E-01
       -1   -1    0    0    0  501  0.00000000000E+00  0.00000000000E+00  0.10756693372E+04  0.10756693372E+04  0.50400001928E-02 0. -1.
        1   -1    0    0  501    0  0.00000000000E+00  0.00000000000E+00 -0.25183236878E+04  0.25183236878E+04  0.50400001928E-02 0.  1.
    10030    2    1    2    0    0  0.00000000000E+00  0.00000000000E+00 -0.14426543507E+04  0.35939930250E+04  0.32917372751E+04 0.  0.
        2    1    3    3  502    0 -0.12395027900E+04  0.71740292801E+03 -0.16068817293E+04  0.21524644061E+04  0.25500000920E-02 0.  1.
       -2    1    3    3    0  502  0.12395027900E+04 -0.71740292801E+03  0.16422737861E+03  0.14415286190E+04  0.25500000920E-02 0. -1.
</event>
<event>
 5   0  0.2574803E-06  0.3270066E+04  0.7818609E-02  0.8170554E-01
       -2   -1    0    0    0  501  0.00000000000E+00  0.00000000000E+00  0.16608035187E+04  0.16608035187E+04  0.25500000920E-02 0.  1.
        2   -1    0    0  501    0  0.00000000000E+00  0.00000000000E+00 -0.16096619346E+04  0.16096619346E+04  0.25500000920E-02 0. -1.
    10030    2    1    2    0    0  0.00000000000E+00  0.00000000000E+00  0.51141584128E+02  0.32704654533E+04  0.32700655681E+04 0.  0.
        4    1    3    3  502    0  0.60186875231E+03 -0.25769636367E+03 -0.14728370972E+04  0.16118015196E+04  0.12699999809E+01 0. -1.
       -4    1    3    3    0  502 -0.60186875231E+03  0.25769636367E+03  0.15239786813E+04  0.16586639337E+04  0.12699999809E+01 0.  1.
</event>
<event>
 5   0  0.8520125E-07  0.3306221E+04  0.7818609E-02  0.8161314E-01
        4   -1    0    0  501    0  0.00000000000E+00  0.00000000000E+00  0.24552111343E+04  0.24552114628E+04  0.12699999809E+01 0.  1.
       -4   -1    0    0    0  501  0.00000000000E+00  0.00000000000E+00 -0.11130496985E+04  0.11130504231E+04  0.12699999809E+01 0. -1.
    10030    2    1    2    0    0  0.00000000000E+00  0.00000000000E+00  0.13421614358E+04  0.35682618859E+04  0.33062207377E+04 0.  0.
        3    1    3    3  502    0  0.78656438897E+03  0.77823797713E+03 -0.65444549035E+03  0.12855492200E+04  0.10100000352E+00 0. -1.
       -3    1    3    3    0  502 -0.78656438897E+03 -0.77823797713E+03  0.19966069261E+04  0.22827126658E+04  0.10100000352E+00 0.  1.
</event>
<event>
 5   0  0.2574803E-06  0.3321057E+04  0.7818609E-02  0.8157558E-01
       -2   -1    0    0    0  501  0.00000000000E+00  0.00000000000E+00  0.16058529595E+04  0.16058529595E+04  0.25500000920E-02 0.  1.
        2   -1    0    0  501    0  0.00000000000E+00  0.00000000000E+00 -0.17170651312E+04  0.17170651312E+04  0.25500000920E-02 0. -1.
    10030    2    1    2    0    0  0.00000000000E+00  0.00000000000E+00 -0.11121217167E+03  0.33229180907E+04  0.33210565322E+04 0.  0.
        4    1    3    3  502    0  0.14042047387E+04  0.84699785208E+02 -0.93836334269E+03  0.16910033642E+04  0.12699999809E+01 0. -1.
       -4    1    3    3    0  502 -0.14042047387E+04 -0.84699785208E+02  0.82715117102E+03  0.16319147265E+04  0.12699999809E+01 0.  1.
</event>
<event>
 5   0  0.2705859E-06  0.3395184E+04  0.7818609E-02  0.8139089E-01
        2   -1    0    0  501    0  0.00000000000E+00  0.00000000000E+00  0.19783748239E+04  0.19783748239E+04  0.25500000920E-02 0. -1.
       -2   -1    0    0    0  501  0.00000000000E+00  0.00000000000E+00 -0.14566596628E+04  0.14566596628E+04  0.25500000920E-02 0.  1.
    10030    2    1    2    0    0  0.00000000000E+00  0.00000000000E+00  0.52171516109E+03  0.34350344867E+04  0.33951841210E+04 0.  0.
        1    1    3    3  502    0  0.77108268373E+02  0.65540068619E+03 -0.13215730290E+04  0.14771767042E+04  0.50400001928E-02 0.  1.
       -1    1    3    3    0  502 -0.77108268373E+02 -0.65540068619E+03  0.18432881901E+04  0.19578577825E+04  0.50400001928E-02 0. -1.
</event>
<event>
 5   0  0.2658600E-06  0.3250650E+04  0.7818609E-02  0.8175567E-01
       -2   -1    0    0    0  501  0.00000000000E+00  0.00000000000E+00  0.81422644422E+03  0.81422644422E+03  0.25500000920E-02 0.  1.
        2   -1    0    0  501    0  0.00000000000E+00  0.00000000000E+00 -0.32444054189E+04  0.32444054189E+04  0.25500000920E-02 0. -1.
    10030    2    1    2    0    0  0.00000000000E+00  0.00000000000E+00 -0.24301789747E+04  0.40586318631E+04  0.32506495891E+04 0.  0.
        5    1    3    3  502    0 -0.27527753998E+03  0.70872872319E+03  0.57849000571E+03  0.95537788534E+03  0.46999998093E+01 0.  1.
       -5    1    3    3    0  502  0.27527753998E+03 -0.70872872319E+03 -0.30086689804E+04  0.31032539778E+04  0.46999998093E+01 0. -1.
</event>
<event>
 5   0  0.2674551E-06  0.3341540E+04  0.7818609E-02  0.8152405E-01
        2   -1    0    0  501    0  0.00000000000E+00  0.00000000000E+00  0.21107322603E+04  0.21107322603E+04  0.25500000920E-02 0. -1.
       -2   -1    0    0    0  501  0.00000000000E+00  0.00000000000E+00 -0.13225137241E+04  0.13225137241E+04  0.25500000920E-02 0.  1.
    10030    2    1    2    0    0  0.00000000000E+00  0.00000000000E+00  0.78821853626E+03  0.34332459844E+04  0.33415399936E+04 0.  0.
        3    1    3    3  502    0  0.12101229302E+04  0.22983457474E+03  0.15539163004E+04  0.19828961942E+04  0.10100000352E+00 0. -1.
       -3    1    3    3    0  502 -0.12101229302E+04 -0.22983457474E+03 -0.76569776416E+03  0.14503497903E+04  0.10100000352E+00 0.  1.
</event>
<event>
 5   0  0.2574803E-06  0.2499582E+04  0.7818609E-02  0.8403134E-01
        2   -1    0    0  501    0  0.00000000000E+00  0.00000000000E+00  0.17094527887E+04  0.17094527887E+04  0.25500000920E-02 0. -1.
       -2   -1    0    0    0  501  0.00000000000E+00  0.00000000000E+00 -0.91372975770E+03  0.91372975770E+03  0.25500000920E-02 0.  1.
    10030    2    1    2    0    0  0.00000000000E+00  0.00000000000E+00  0.79572303098E+03  0.26231825464E+04  0.24995822710E+04 0.  0.
        4    1    3    3  502    0  0.27328945549E+03  0.12005991785E+04  0.62257768718E+03  0.13797572624E+04  0.12699999809E+01 0.  1.
       -4    1    3    3    0  502 -0.27328945549E+03 -0.12005991785E+04  0.17314534380E+03  0.12434252839E+04  0.12699999809E+01 0. -1.
</event>
<event>
 5   0  0.9268670E-07  0.3337504E+04  0.7818609E-02  0.8153418E-01
        1   -1    0    0  501    0  0.00000000000E+00  0.00000000000E+00  0.29018646629E+04  0.29018646629E+04  0.50400001928E-02 0.  1.
       -1   -1    0    0    0  501  0.00000000000E+00  0.00000000000E+00 -0.95963568349E+03  0.95963568350E+03  0.50400001928E-02 0. -1.
    10030    2    1    2    0    0  0.00000000000E+00  0.00000000000E+00  0.19422289794E+04  0.38615003464E+04  0.33375037853E+04 0.  0.
        3    1    3    3  502    0  0.11641507767E+04 -0.10151612475E+04  0.17018909572E+04  0.22983107339E+04  0.10100000352E+00 0.  1.
       -3    1    3    3    0  502 -0.11641507767E+04  0.10151612475E+04  0.24033802223E+03  0.15631896125E+04  0.10100000352E+00 0. -1.
</event>
<event>
 5   0  0.8705956E-07  0.3388950E+04  0.7818609E-02  0.8140624E-01
       -1   -1    0    0    0  501  0.00000000000E+00  0.00000000000E+00  0.21886138338E+04  0.21886138339E+04  0.50400001928E-02 0.  1.
        1   -1    0    0  501    0  0.00000000000E+00  0.00000000000E+00 -0.13119015075E+04  0.13119015075E+04  0.50400001928E-02 0. -1.
    10030    2    1    2    0    0  0.00000000000E+00  0.00000000000E+00  0.87671232638E+03  0.35005153413E+04  0.33889501548E+04 0.  0.
        2    1    3    3  502    0  0.61136738421E+03 -0.71440844087E+03 -0.10176937415E+04  0.13855865366E+04  0.25500000920E-02 0. -1.
       -2    1    3    3    0  502 -0.61136738421E+03  0.71440844087E+03  0.18944060679E+04  0.21149288047E+04  0.25500000920E-02 0.  1.
</event>
<event>
 5   0  0.9530268E-07  0.3301364E+04  0.7818609E-02  0.8162548E-01
        1   -1    0    0  501    0  0.00000000000E+00  0.00000000000E+00  0.23444265432E+04  0.23444265432E+04  0.50400001928E-02 0.  1.
       -1   -1    0    0    0  501  0.00000000000E+00  0.00000000000E+00 -0.11622251383E+04  0.11622251384E+04  0.50400001928E-02 0. -1.
    10030    2    1    2    0    0  0.00000000000E+00  0.00000000000E+00  0.11822014048E+04  0.35066516815E+04  0.33013642413E+04 0.  0.
        5    1    3    3  502    0 -0.64961902213E+03  0.14971545760E+04  0.85398322662E+03  0.18419517203E+04  0.46999998093E+01 0.  1.
       -5    1    3    3    0  502  0.64961902213E+03 -0.14971545760E+04  0.32821817821E+03  0.16646999613E+04  0.46999998093E+01 0. -1.
</event>
<event>
 5   0  0.2574803E-06  0.3247982E+04  0.7818609E-02  0.8176259E-01
        2   -1    0    0  501    0  0.00000000000E+00  0.00000000000E+00  0.25754130333E+04  0.25754130333E+04  0.25500000920E-02 0. -1.
       -2   -1    0    0    0  501  0.00000000000E+00  0.00000000000E+00 -0.10240479869E+04  0.10240479869E+04  0.25500000920E-02 0.  1.
    10030    2    1    2    0    0  0.00000000000E+00  0.00000000000E+00  0.15513650464E+04  0.35994610202E+04  0.32479818548E+04 0.  0.
        4    1    3    3  502    0 -0.36258949624E+03  0.62939499062E+03 -0.83399140067E+03  0.11059622355E+04  0.12699999809E+01 0.  1.
       -4    1    3    3    0  502  0.36258949624E+03 -0.62939499062E+03  0.23853564471E+04  0.24934987847E+04  0.12699999809E+01 0. -1.
</event>
<event>
 5   0  0.8845526E-07  0.3314448E+04  0.7818609E-02  0.8159229E-01
        1   -1    0    0  501    0  0.00000000000E+00  0.00000000000E+00  0.19297725533E+04  0.19297725533E+04  0.50400001928E-02 0.  1.
       -1   -1    0    0    0  501  0.00000000000E+00  0.00000000000E+00 -0.14231682683E+04  0.14231682683E+04  0.50400001928E-02 0. -1.
    10030    2    1    2    0    0  0.00000000000E+00  0.00000000000E+00  0.50660428506E+03  0.33529408216E+04  0.33144478049E+04 0.  0.
        1    1    3    3  502    0 -0.15903278821E+04  0.42938743652E+03  0.69882546445E+02  0.16487570814E+04  0.50400001928E-02 0. -1.
       -1    1    3    3    0  502  0.15903278821E+04 -0.42938743652E+03  0.43672173862E+03  0.17041837402E+04  0.50400001928E-02 0.  1.
</event>
<event>
 5   0  0.9530268E-07  0.3298044E+04  0.7818609E-02  0.8163393E-01
       -1   -1    0    0    0  501  0.00000000000E+00  0.00000000000E+00  0.12666230151E+04  0.12666230151E+04  0.50400001928E-02 0.  1.
        1   -1    0    0  501    0  0.00000000000E+00  0.00000000000E+00 -0.21468692427E+04  0.21468692427E+04  0.50400001928E-02 0. -1.
    10030    2    1    2    0    0  0.00000000000E+00  0.00000000000E+00 -0.88024622759E+03  0.34134922578E+04  0.32980442648E+04 0.  0.
        5    1    3    3  502    0  0.83875305026E+03  0.86353684343E+03  0.72629092775E+03  0.14059598718E+04  0.46999998093E+01 0. -1.
       -5    1    3    3    0  502 -0.83875305026E+03 -0.86353684343E+03 -0.16065371553E+04  0.20075323860E+04  0.46999998093E+01 0.  1.
</event>
<event>
 5   0  0.8845526E-07  0.2820613E+04  0.7818609E-02  0.8296897E-01
        1   -1    0    0  501    0  0.00000000000E+00  0.00000000000E+00  0.14445936790E+04  0.14445936790E+04  0.50400001928E-02 0. -1.
       -1   -1    0    0    0  501  0.00000000000E+00  0.00000000000E+00 -0.13768329569E+04  0.13768329569E+04  0.50400001928E-02 0.  1.
    10030    2    1    2    0    0  0.00000000000E+00  0.00000000000E+00  0.67760722089E+02  0.28214266359E+04  0.28206128317E+04 0.  0.
        1    1    3    3  502    0  0.70941183529E+03 -0.11421201110E+04 -0.39198968544E+03  0.14004854207E+04  0.50400001928E-02 0.  1.
       -1    1    3    3    0  502 -0.70941183529E+03  0.11421201110E+04  0.45975040753E+03  0.14209412153E+04  0.50400001928E-02 0. -1.
</event>
<event>
 5   0  0.8705956E-07  0.3320308E+04  0.7818609E-02  0.8157747E-01
        1   -1    0    0  501    0  0.00000000000E+00  0.00000000000E+00  0.13043929483E+04  0.13043929483E+04  0.50400001928E-02 0.  1.
       -1   -1    0    0    0  501  0.00000000000E+00  0.00000000000E+00 -0.21129452336E+04  0.21129452336E+04  0.50400001928E-02 0. -1.
    10030    2    1    2    0    0  0.00000000000E+00  0.00000000000E+00 -0.80855228528E+03  0.34173381819E+04  0.33203077344E+04 0.  0.
        2    1    3    3  502    0 -0.12931697791E+04  0.73362626597E+03 -0.11645199424E+04  0.18885450145E+04  0.25500000920E-02 0. -1.
       -2    1    3    3    0  502  0.12931697791E+04 -0.73362626597E+03  0.35596765710E+03  0.15287931674E+04  0.25500000920E-02 0.  1.
</event>
<event>
 5   0  0.2658600E-06  0.3229624E+04  0.7818609E-02  0.8181037E-01
       -2   -1    0    0    0  501  0.00000000000E+00  0.00000000000E+00  0.12546837656E+04  0.12546837656E+04  0.25500000920E-02 0. -1.
        2   -1    0    0  501    0  0.00000000000E+00  0.00000000000E+00 -0.20783068187E+04  0.20783068187E+04  0.25500000920E-02 0.  1.
    10030    2    1    2    0    0  0.00000000000E+00  0.00000000000E+00 -0.82362305304E+03  0.33329905843E+04  0.32296240186E+04 0.  0.
        5    1    3    3  502    0 -0.34439085733E+03 -0.12795226835E+04  0.54066458714E+03  0.14311267050E+04  0.46999998093E+01 0. -1.
       -5    1    3    3    0  502  0.34439085733E+03  0.12795226835E+04 -0.13642876402E+04  0.19018638793E+04  0.46999998093E+01 0.  1.
</event>
<event>
 5   0  0.2574803E-06  0.3342250E+04  0.7818609E-02  0.8152227E-01
       -2   -1    0    0    0  501  0.00000000000E+00  0.00000000000E+00  0.16988824493E+04  0.16988824493E+04  0.25500000920E-02 0.  1.
        2   -1    0    0  501    0  0.00000000000E+00  0.00000000000E+00 -0.16438207887E+04  0.16438207887E+04  0.25500000920E-02 0. -1.
    10030    2    1    2    0    0  0.00000000000E+00  0.00000000000E+00  0.55061660555E+02  0.33427032380E+04  0.33422497140E+04 0.  0.
        4    1    3    3  502    0  0.97638727180E+03  0.12368274239E+04  0.58400770903E+03  0.16805180148E+04  0.12699999809E+01 0.  1.
       -4    1    3    3    0  502 -0.97638727180E+03 -0.12368274239E+04 -0.52894604847E+03  0.16621852232E+04  0.12699999809E+01 0. -1.
</event>
<event>
 5   0  0.9268670E-07  0.3264003E+04  0.7818609E-02  0.8172116E-01
       -1   -1    0    0    0  501  0.00000000000E+00  0.00000000000E+00  0.11986850329E+04  0.11986850329E+04  0.50400001928E-02 0. -1.
        1   -1    0    0  501    0  0.00000000000E+00  0.00000000000E+00 -0.22219588048E+04  0.22219588048E+04  0.50400001928E-02 0.  1.
    10030    2    1    2    0    0  0.00000000000E+00  0.00000000000E+00 -0.10232737720E+04  0.34206438377E+04  0.32640029185E+04 0.  0.
        3    1    3    3  502    0  0.83241019030E+03  0.38991469107E+02 -0.19821888096E+04  0.21502324401E+04  0.10100000352E+00 0.  1.
       -3    1    3    3    0  502 -0.83241019030E+03 -0.38991469107E+02  0.95891503761E+03  0.12704113976E+04  0.10100000352E+00 0. -1.
</event>
<event>
 5   0  0.8705956E-07  0.2381212E+04  0.7818609E-02  0.8446571E-01
        1   -1    0    0  501    0  0.00000000000E+00  0.00000000000E+00  0.11720505052E+04  0.11720505052E+04  0.50400001928E-02 0. -1.
       -1   -1    0    0    0  501  0.00000000000E+00  0.00000000000E+00 -0.12094552825E+04  0.12094552825E+04  0.50400001928E-02 0.  1.
    10030    2    1    2    0    0  0.00000000000E+00  0.00000000000E+00 -0.37404777259E+02  0.23815057877E+04  0.23812120232E+04 0.  0.
        2    1    3    3  502    0  0.33663436520E+03 -0.44395799698E+03  0.10336257250E+04  0.11742246541E+04  0.25500000920E-02 0. -1.
       -2    1    3    3    0  502 -0.33663436520E+03  0.44395799698E+03 -0.10710305022E+04  0.12072811336E+04  0.25500000920E-02 0.  1.
</event>
<event>
 5   0  0.2574803E-06  0.3325888E+04  0.7818609E-02  0.8156339E-01
       -2   -1    0    0    0  501  0.00000000000E+00  0.00000000000E+00  0.17907651939E+04  0.17907651939E+04  0.25500000920E-02 0. -1.
        2   -1    0    0  501    0  0.00000000000E+00  0.00000000000E+00 -0.15442462366E+04  0.15442462366E+04  0.25500000920E-02 0.  1.
    10030    2    1    2    0    0  0.00000000000E+00  0.00000000000E+00  0.24651895729E+03  0.33350114305E+04  0.33258877981E+04 0.  0.
        4    1    3    3  502    0 -0.24907183251E+03 -0.65938682677E+03  0.16335628826E+04  0.17791450389E+04  0.12699999809E+01 0. -1.
       -4    1    3    3    0  502  0.24907183251E+03  0.65938682677E+03 -0.13870439253E+04  0.15558663917E+04  0.12699999809E+01 0.  1.
</event>
<event>
 5   0  0.8845526E-07  0.3300503E+04  0.7818609E-02  0.8162767E-01
       -1   -1    0    0    0  501  0.00000000000E+00  0.00000000000E+00  0.17416337516E+04  0.17416337516E+04  0.50400001928E-02 0.  1.
        1   -1    0    0  501    0  0.00000000000E+00  0.00000000000E+00 -0.15636636825E+04  0.15636636825E+04  0.50400001928E-02 0. -1.
    10030    2    1    2    0    0  0.00000000000E+00  0.00000000000E+00  0.17797006911E+03  0.33052974341E+04  0.33005026560E+04 0.  0.
        1    1    3    3  502    0 -0.58338679032E+02 -0.82874926137E+03 -0.13389547882E+04  0.15757628833E+04  0.50400001928E-02 0. -1.
       -1    1    3    3    0  502  0.58338679032E+02  0.82874926137E+03  0.15169248573E+04  0.17295345508E+04  0.50400001928E-02 0.  1.
</event>
<event>
 5   0  0.2574803E-06  0.3170597E+04  0.7818609E-02  0.8196626E-01
        2   -1    0    0  501    0  0.00000000000E+00  0.00000000000E+00  0.19190647882E+04  0.19190647882E+04  0.25500000920E-02 0.  1.
       -2   -1    0    0    0  501  0.00000000000E+00  0.00000000000E+00 -0.13095808934E+04  0.13095808934E+04  0.25500000920E-02 0. -1.
    10030    2    1    2    0    0  0.00000000000E+00  0.00000000000E+00  0.60948389480E+03  0.32286456816E+04  0.31705965242E+04 0.  0.
        4    1    3    3  502    0  0.38215547698E+03  0.65529297425E+03 -0.11127630991E+04  0.13467349473E+04  0.12699999809E+01 0. -1.
       -4    1    3    3    0  502 -0.38215547698E+03 -0.65529297425E+03  0.17222469939E+04  0.18819107343E+04  0.12699999809E+01 0.  1.
</event>
<event>
 5   0  0.8845526E-07  0.3303371E+04  0.7818609E-02  0.8162038E-01
       -1   -1    0    0    0  501  0.00000000000E+00  0.00000000000E+00  0.14180988355E+04  0.14180988355E+04  0.50400001928E-02 0. -1.
        1   -1    0    0  501    0  0.00000000000E+00  0.00000000000E+00 -0.19237484561E+04  0.19237484561E+04  0.50400001928E-02 0.  1.
    10030    2    1    2    0    0  0.00000000000E+00  0.00000000000E+00 -0.50564962057E+03  0.33418472917E+04  0.33033712752E+04 0.  0.
        1    1    3    3  502    0 -0.89703224489E+03 -0.53821508211E+03 -0.15458841051E+04  0.18665743997E+04  0.50400001928E-02 0.  1.
       -1    1    3    3    0  502  0.89703224489E+03  0.53821508211E+03  0.10402344846E+04  0.14752728920E+04  0.50400001928E-02 0. -1.
</event>
<event>
 5   0  0.8845526E-07  0.3274185E+04  0.7818609E-02  0.8169495E-01
       -1   -1    0    0    0  501  0.00000000000E+00  0.00000000000E+00  0.13020084382E+04  0.13020084382E+04  0.50400001928E-02 0.  1.
        1   -1    0    0  501    0  0.00000000000E+00  0.00000000000E+00 -0.20584141038E+04  0.20584141038E+04  0.50400001928E-02 0. -1.
    10030    2    1    2    0    0  0.00000000000E+00  0.00000000000E+00 -0.75640566562E+03  0.33604225420E+04  0.32741854147E+04 0.  0.
        1    1    3    3  502    0  0.11157136935E+04  0.13141843937E+03  0.84395244952E+03  0.14051133723E+04  0.50400001928E-02 0.  1.
       -1    1    3    3    0  502 -0.11157136935E+04 -0.13141843937E+03 -0.16003581151E+04  0.19553091696E+04  0.50400001928E-02 0. -1.
</event>
<event>
 5   0  0.2674551E-06  0.3287445E+04  0.7818609E-02  0.8166097E-01
        2   -1    0    0  501    0  0.00000000000E+00  0.00000000000E+00  0.11354674959E+04  0.11354674959E+04  0.25500000920E-02 0.  1.
       -2   -1    0    0    0  501  0.00000000000E+00  0.00000000000E+00 -0.23794811426E+04  0.23794811426E+04  0.25500000920E-02 0. -1.
    10030    2    1    2    0    0  0.00000000000E+00  0.00000000000E+00 -0.12440136466E+04  0.35149486385E+04  0.32874449012E+04 0.  0.
        3    1    3    3  502    0  0.92172641774E+03  0.82698103839E+03 -0.17777099456E+04  0.21665017628E+04  0.10100000352E+00 0. -1.
       -3    1    3    3    0  502 -0.92172641774E+03 -0.82698103839E+03  0.53369629900E+03  0.13484468758E+04  0.10100000352E+00 0.  1.
</event>
<event>
 5   0  0.8520125E-07  0.3295530E+04  0.7818609E-02  0.8164034E-01
        3   -1    0    0  501    0  0.00000000000E+00  0.00000000000E+00  0.20247496939E+04  0.20247496964E+04  0.10100000352E+00 0. -1.
       -3   -1    0    0    0  501  0.00000000000E+00  0.00000000000E+00 -0.13409706690E+04  0.13409706728E+04  0.10100000352E+00 0.  1.
    10030    2    1    2    0    0  0.00000000000E+00  0.00000000000E+00  0.68377902492E+03  0.33657203692E+04  0.32955302834E+04 0.  0.
        4    1    3    3  502    0 -0.12785624981E+04 -0.55484381745E+03  0.12395607766E+04  0.18652308852E+04  0.12699999809E+01 0. -1.
       -4    1    3    3    0  502  0.12785624981E+04  0.55484381745E+03 -0.55578175169E+03  0.15004894840E+04  0.12699999809E+01 0.  1.
</event>
<event>
 5   0  0.2674551E-06  0.3308432E+04  0.7818609E-02  0.8160753E-01
       -2   -1    0    0    0  501  0.00000000000E+00  0.00000000000E+00  0.11307908877E+04  0.11307908877E+04  0.25500000920E-02 0. -1.
        2   -1    0    0  501    0  0.00000000000E+00  0.00000000000E+00 -0.24199265802E+04  0.24199265802E+04  0.25500000920E-02 0.  1.
    10030    2    1    2    0    0  0.00000000000E+00  0.00000000000E+00 -0.12891356925E+04  0.35507174679E+04  0.33084322122E+04 0.  0.
        3    1    3    3  502    0  0.13700857190E+04 -0.86120355482E+03 -0.10126482746E+04  0.19089952798E+04  0.10100000352E+00 0. -1.
       -3    1    3    3    0  502 -0.13700857190E+04  0.86120355482E+03 -0.27648741788E+03  0.16417221880E+04  0.10100000352E+00 0.  1.
</event>
<event>
 5   0  0.2574803E-06  0.3305028E+04  0.7818609E-02  0.8161617E-01
       -2   -1    0    0    0  501  0.00000000000E+00  0.00000000000E+00  0.13582371271E+04  0.13582371271E+04  0.25500000920E-02 0. -1.
        2   -1    0    0  501    0  0.00000000000E+00  0.00000000000E+00 -0.20105492134E+04  0.20105492134E+04  0.25500000920E-02 0.  1.
    10030    2    1    2    0    0  0.00000000000E+00  0.00000000000E+00 -0.65231208631E+03  0.33687863406E+04  0.33050280408E+04 0.  0.
        4    1    3    3  502    0 -0.12818544377E+04 -0.73470635782E+03 -0.10806084088E+04  0.18304809143E+04  0.12699999809E+01 0.  1.
       -4    1    3    3    0  502  0.12818544377E+04  0.73470635782E+03  0.42829632246E+03  0.15383054262E+04  0.12699999809E+01 0. -1.
</event>
<event>
 5   0  0.2674551E-06  0.3304987E+04  0.7818609E-02  0.8161628E-01
       -2   -1    0    0    0  501  0.00000000000E+00  0.00000000000E+00  0.15692984697E+04  0.15692984697E+04  0.25500000920E-02 0. -1.
        2   -1    0    0  501    0  0.00000000000E+00  0.00000000000E+00 -0.17400988257E+04  0.17400988257E+04  0.25500000920E-02 0.  1.
    10030    2    1    2    0    0  0.00000000000E+00  0.00000000000E+00 -0.17080035607E+03  0.33093972954E+04  0.33049867923E+04 0.  0.
        3    1    3    3  502    0  0.11136197395E+04  0.51691192599E+03  0.10221443807E+04  0.15975374827E+04  0.10100000352E+00 0. -1.
       -3    1    3    3    0  502 -0.11136197395E+04 -0.51691192599E+03 -0.11929447367E+04  0.17118598127E+04  0.10100000352E+00 0.  1.
</event>
<event>
 5   0  0.2705859E-06  0.3272452E+04  0.7818609E-02  0.8169941E-01
        2   -1    0    0  501    0  0.00000000000E+00  0.00000000000E+00  0.22088894738E+04  0.22088894738E+04  0.25500000920E-02 0.  1.
       -2   -1    0    0    0  501  0.00000000000E+00  0.00000000000E+00 -0.12120274829E+04  0.12120274829E+04  0.25500000920E-02 0. -1.
    10030    2    1    2    0    0  0.00000000000E+00  0.00000000000E+00  0.99686199086E+03  0.34209169567E+04  0.32724515269E+04 0.  0.
        1    1    3    3  502    0  0.76957392828E+03  0.13112416338E+04  0.11305427127E+04  0.18946570874E+04  0.50400001928E-02 0.  1.
       -1    1    3    3    0  502 -0.76957392828E+03 -0.13112416338E+04 -0.13368072187E+03  0.15262598694E+04  0.50400001928E-02 0. -1.
</event>
<event>
 5   0  0.8705956E-07  0.3322218E+04  0.7818609E-02  0.8157265E-01
        1   -1    0    0  501    0  0.00000000000E+00  0.00000000000E+00  0.14374488006E+04  0.14374488006E+04  0.50400001928E-02 0. -1.
       -1   -1    0    0    0  501  0.00000000000E+00  0.00000000000E+00 -0.19195697808E+04  0.19195697808E+04  0.50400001928E-02 0.  1.
    10030    2    1    2    0    0  0.00000000000E+00  0.00000000000E+00 -0.48212098019E+03  0.33570185813E+04  0.33222181018E+04 0.  0.
        2    1    3    3  502    0  0.14699322577E+04 -0.70939285676E+03 -0.55307354838E+03  0.17233193022E+04  0.25500000920E-02 0.  1.
       -2    1    3    3    0  502 -0.14699322577E+04  0.70939285676E+03  0.70952568186E+02  0.16336992791E+04  0.25500000920E-02 0. -1.
</event>
<event>
 5   0  0.9295663E-07  0.3275113E+04  0.7818609E-02  0.8169257E-01
        1   -1    0    0  501    0  0.00000000000E+00  0.00000000000E+00  0.19055729924E+04  0.19055729924E+04  0.50400001928E-02 0. -1.
       -1   -1    0    0    0  501  0.00000000000E+00  0.00000000000E+00 -0.14072359799E+04  0.14072359799E+04  0.50400001928E-02 0.  1.
    10030    2    1    2    0    0  0.00000000000E+00  0.00000000000E+00  0.49833701253E+03  0.33128089723E+04  0.32751127475E+04 0.  0.
        4    1    3    3  502    0  0.78129178256E+02 -0.92070111459E+03 -0.11183519381E+04  0.14506920353E+04  0.12699999809E+01 0.  1.
       -4    1    3    3    0  502 -0.78129178256E+02  0.92070111459E+03  0.16166889507E+04  0.18621169370E+04  0.12699999809E+01 0. -1.
</event>
<event>
 5   0  0.2658600E-06  0.3275747E+04  0.7818609E-02  0.8169094E-01
       -2   -1    0    0    0  501  0.00000000000E+00  0.00000000000E+00  0.18605791092E+04  0.18605791092E+04  0.25500000920E-02 0. -1.
        2   -1    0    0  501    0  0.00000000000E+00  0.00000000000E+00 -0.14418247545E+04  0.14418247545E+04  0.25500000920E-02 0.  1.
    10030    2    1    2    0    0  0.00000000000E+00  0.00000000000E+00  0.41875435470E+03  0.33024038638E+04  0.32757466431E+04 0.  0.
        5    1    3    3  502    0 -0.13672053356E+04  0.88539958913E+03  0.36446828178E+02  0.16292738638E+04  0.46999998093E+01 0. -1.
       -5    1    3    3    0  502  0.13672053356E+04 -0.88539958913E+03  0.38230752652E+03  0.16731300000E+04  0.46999998093E+01 0.  1.
</event>
<event>
 5   0  0.8845526E-07  0.3352966E+04  0.7818609E-02  0.8149547E-01
       -1   -1    0    0    0  501  0.00000000000E+00  0.00000000000E+00  0.11467474613E+04  0.11467474613E+04  0.50400001928E-02 0. -1.
        1   -1    0    0  501    0  0.00000000000E+00  0.00000000000E+00 -0.24509281475E+04  0.24509281475E+04  0.50400001928E-02 0.  1.
    10030    2    1    2    0    0  0.00000000000E+00  0.00000000000E+00 -0.13041806862E+04  0.35976756088E+04  0.33529662277E+04 0.  0.
        1    1    3    3  502    0 -0.12292866119E+04  0.26226028409E+03  0.53822918649E+03  0.13673392732E+04  0.50400001928E-02 0. -1.
       -1    1    3    3    0  502  0.12292866119E+04 -0.26226028409E+03 -0.18424098727E+04  0.22303363356E+04  0.50400001928E-02 0.  1.
</event>
<event>
 5   0  0.9295663E-07  0.3331411E+04  0.7818609E-02  0.8154948E-01
       -1   -1    0    0    0  501  0.00000000000E+00  0.00000000000E+00  0.11006690716E+04  0.11006690716E+04  0.50400001928E-02 0.  1.
        1   -1    0    0  501    0  0.00000000000E+00  0.00000000000E+00 -0.25208081577E+04  0.25208081577E+04  0.50400001928E-02 0. -1.
    10030    2    1    2    0    0  0.00000000000E+00  0.00000000000E+00 -0.14201390861E+04  0.36214772293E+04  0.33314114574E+04 0.  0.
        4    1    3    3  502    0  0.44923905137E+03 -0.14010335601E+03  0.10269067356E+04  0.11295944990E+04  0.12699999809E+01 0.  1.
       -4    1    3    3    0  502 -0.44923905137E+03  0.14010335601E+03 -0.24470458216E+04  0.24918827303E+04  0.12699999809E+01 0. -1.
</event>
<event>
 5   0  0.9530268E-07  0.3279077E+04  0.7818609E-02  0.8168240E-01
        1   -1    0    0  501    0  0.00000000000E+00  0.00000000000E+00  0.19138172067E+04  0.19138172067E+04  0.50400001928E-02 0. -1.
       -1   -1    0    0    0  501  0.00000000000E+00  0.00000000000E+00 -0.14045676843E+04  0.14045676843E+04  0.50400001928E-02 0.  1.
    10030    2    1    2    0    0  0.00000000000E+00  0.00000000000E+00  0.50924952249E+03  0.33183848910E+04  0.32790765787E+04 0.  0.
        5    1    3    3  502    0 -0.13275372884E+04  0.83453444198E+03  0.73917635808E+03  0.17335532196E+04  0.46999998093E+01 0.  1.
       -5    1    3    3    0  502  0.13275372884E+04 -0.83453444198E+03 -0.22992683559E+03  0.15848316714E+04  0.46999998093E+01 0. -1.
</event>
<event>
 5   0  0.2574803E-06  0.3275119E+04  0.7818609E-02  0.8169255E-01
       -2   -1    0    0    0  501  0.00000000000E+00  0.00000000000E+00  0.32418659423E+04  0.32418659423E+04  0.25500000920E-02 0. -1.
        2   -1    0    0  501    0  0.00000000000E+00  0.00000000000E+00 -0.82717814730E+03  0.82717814731E+03  0.25500000920E-02 0.  1.
    10030    2    1    2    0    0  0.00000000000E+00  0.00000000000E+00  0.24146877950E+04  0.40690440896E+04  0.32751187239E+04 0.  0.
        4    1    3    3  502    0  0.42052726266E+03 -0.37551914914E+03 -0.70279660747E+03  0.90098973046E+03  0.12699999809E+01 0.  1.
       -4    1    3    3    0  502 -0.42052726266E+03  0.37551914914E+03  0.31174844025E+04  0.31680543592E+04  0.12699999809E+01 0. -1.
</event>
<event>
 5   0  0.8845526E-07  0.3246682E+04  0.7818609E-02  0.8176596E-01
        1   -1    0    0  501    0  0.00000000000E+00  0.00000000000E+00  0.18750159102E+04  0.18750159102E+04  0.50400001928E-02 0.  1.
       -1   -1    0    0    0  501  0.00000000000E+00  0.00000000000E+00 -0.14054474935E+04  0.14054474935E+04  0.50400001928E-02 0. -1.
    10030    2    1    2    0    0  0.00000000000E+00  0.00000000000E+00  0.46956841668E+03  0.32804634038E+04  0.32466822520E+04 0.  0.
        1    1    3    3  502    0 -0.13786583719E+04  0.79898188140E+03 -0.78547944409E+02  0.15953810620E+04  0.50400001928E-02 0. -1.
       -1    1    3    3    0  502  0.13786583719E+04 -0.79898188140E+03  0.54811636109E+03  0.16850823418E+04  0.50400001928E-02 0.  1.
</event>
<event>
 5   0  0.2614212E-06  0.3334380E+04  0.7818609E-02  0.8154202E-01
       -2   -1    0    0    0  501  0.00000000000E+00  0.00000000000E+00  0.14791244432E+04  0.14791244432E+04  0.25500000920E-02 0.  1.
        2   -1    0    0  501    0  0.00000000000E+00  0.00000000000E+00 -0.18791678047E+04  0.18791678047E+04  0.25500000920E-02 0. -1.
    10030    2    1    2    0    0  0.00000000000E+00  0.00000000000E+00 -0.40004336151E+03  0.33582922479E+04  0.33343803220E+04 0.  0.
        2    1    3    3  502    0 -0.73176169235E+03  0.32411912098E+02 -0.17084258726E+04  0.18588288433E+04  0.25500000920E-02 0. -1.
       -2    1    3    3    0  502  0.73176169235E+03 -0.32411912098E+02  0.13083825111E+04  0.14994634046E+04  0.25500000920E-02 0.  1.
</event>
<event>
 5   0  0.2658600E-06  0.3320333E+04  0.7818609E-02  0.8157741E-01
       -2   -1    0    0    0  501  0.00000000000E+00  0.00000000000E+00  0.14150367702E+04  0.14150367702E+04  0.25500000920E-02 0. -1.
        2   -1    0    0  501    0  0.00000000000E+00  0.00000000000E+00 -0.19477609301E+04  0.19477609301E+04  0.25500000920E-02 0.  1.
    10030    2    1    2    0    0  0.00000000000E+00  0.00000000000E+00 -0.53272415994E+03  0.33627977003E+04  0.33203333180E+04 0.  0.
        5    1    3    3  502    0 -0.84813855255E+03  0.97082932332E+03  0.79309609974E+03  0.15135627152E+04  0.46999998093E+01 0. -1.
       -5    1    3    3    0  502  0.84813855255E+03 -0.97082932332E+03 -0.13258202597E+04  0.18492349852E+04  0.46999998093E+01 0.  1.
</event>
<event>
 5   0  0.9268670E-07  0.3295172E+04  0.7818609E-02  0.8164125E-01
       -1   -1    0    0    0  501  0.00000000000E+00  0.00000000000E+00  0.11835258547E+04  0.11835258548E+04  0.50400001928E-02 0. -1.
        1   -1    0    0  501    0  0.00000000000E+00  0.00000000000E+00 -0.22936045571E+04  0.22936045571E+04  0.50400001928E-02 0.  1.
    10030    2    1    2    0    0  0.00000000000E+00  0.00000000000E+00 -0.11100787024E+04  0.34771304119E+04  0.32951724046E+04 0.  0.
        3    1    3    3  502    0  0.16325502483E+04  0.18348275571E+02 -0.32149632287E+03  0.16640062705E+04  0.10100000352E+00 0. -1.
       -3    1    3    3    0  502 -0.16325502483E+04 -0.18348275571E+02 -0.78858237952E+03  0.18131241414E+04  0.10100000352E+00 0.  1.
</event>
<event>
 5   0  0.9530268E-07  0.3311571E+04  0.7818609E-02  0.8159957E-01
       -1   -1    0    0    0  501  0.00000000000E+00  0.00000000000E+00  0.17065097773E+04  0.17065097773E+04  0.50400001928E-02 0. -1.
        1   -1    0    0  501    0  0.00000000000E+00  0.00000000000E+00 -0.16065686337E+04  0.16065686337E+04  0.50400001928E-02 0.  1.
    10030    2    1    2    0    0  0.00000000000E+00  0.00000000000E+00  0.99941143631E+02  0.33130784110E+04  0.33115706734E+04 0.  0.
        5    1    3    3  502    0 -0.49931338320E+03  0.89042908076E+02  0.16268736252E+04  0.17041075015E+04  0.46999998093E+01 0. -1.
       -5    1    3    3    0  502  0.49931338320E+03 -0.89042908076E+02 -0.15269324816E+04  0.16089709095E+04  0.46999998093E+01 0.  1.
</event>
<event>
 5   0  0.2614212E-06  0.3312249E+04  0.7818609E-02  0.8159786E-01
       -2   -1    0    0    0  501  0.00000000000E+00  0.00000000000E+00  0.14368903165E+04  0.14368903165E+04  0.25500000920E-02 0.  1.
        2   -1    0    0  501    0  0.00000000000E+00  0.00000000000E+00 -0.19088085399E+04  0.19088085399E+04  0.25500000920E-02 0. -1.
    10030    2    1    2    0    0  0.00000000000E+00  0.00000000000E+00 -0.47191822338E+03  0.33456988564E+04  0.33122490891E+04 0.  0.
        2    1    3    3  502    0 -0.16159910794E+04 -0.27941804700E+03 -0.46904232467E+03  0.17057263309E+04  0.25500000920E-02 0.  1.
       -2    1    3    3    0  502  0.16159910794E+04  0.27941804700E+03 -0.28758987047E+01  0.16399725255E+04  0.25500000920E-02 0. -1.
</event>
<event>
 5   0  0.9295663E-07  0.3311789E+04  0.7818609E-02  0.8159902E-01
       -1   -1    0    0    0  501  0.00000000000E+00  0.00000000000E+00  0.15828594973E+04  0.15828594973E+04  0.50400001928E-02 0. -1.
        1   -1    0    0  501    0  0.00000000000E+00  0.00000000000E+00 -0.17322999415E+04  0.17322999415E+04  0.50400001928E-02 0.  1.
    10030    2    1    2    0    0  0.00000000000E+00  0.00000000000E+00 -0.14944044421E+03  0.33151594389E+04  0.33117894949E+04 0.  0.
        4    1    3    3  502    0 -0.44833974904E+03  0.15589682262E+04 -0.40761739858E+03  0.16725860269E+04  0.12699999809E+01 0.  1.
       -4    1    3    3    0  502  0.44833974904E+03 -0.15589682262E+04  0.25817695437E+03  0.16425734119E+04  0.12699999809E+01 0. -1.
</event>
<event>
 5   0  0.2674551E-06  0.3280274E+04  0.7818609E-02  0.8167933E-01
        2   -1    0    0  501    0  0.00000000000E+00  0.00000000000E+00  0.23910328628E+04  0.23910328628E+04  0.25500000920E-02 0.  1.
       -2   -1    0    0    0  501  0.00000000000E+00  0.00000000000E+00 -0.11250573054E+04  0.11250573054E+04  0.25500000920E-02 0. -1.
    10030    2    1    2    0    0  0.00000000000E+00  0.00000000000E+00  0.12659755573E+04  0.35160901682E+04  0.32802737629E+04 0.  0.
        3    1    3    3  502    0  0.14614084505E+04 -0.15189568312E+03  0.14142634467E+04  0.20393450087E+04  0.10100000352E+00 0.  1.
       -3    1    3    3    0  502 -0.14614084505E+04  0.15189568312E+03 -0.14828788943E+03  0.14767451595E+04  0.10100000352E+00 0. -1.
</event>
<event>
 5   0  0.2658600E-06  0.3297692E+04  0.7818609E-02  0.8163483E-01
       -2   -1    0    0    0  501  0.00000000000E+00  0.00000000000E+00  0.15822970268E+04  0.15822970269E+04  0.25500000920E-02 0.  1.
        2   -1    0    0  501    0  0.00000000000E+00  0.00000000000E+00 -0.17181939903E+04  0.17181939903E+04  0.25500000920E-02 0. -1.
    10030    2    1    2    0    0  0.00000000000E+00  0.00000000000E+00 -0.13589696341E+03  0.33004910171E+04  0.32976920671E+04 0.  0.
        5    1    3    3  502    0  0.13407601705E+04  0.23398484565E+03  0.86358550545E+03  0.16118898095E+04  0.46999998093E+01 0.  1.
       -5    1    3    3    0  502 -0.13407601705E+04 -0.23398484565E+03 -0.99948246885E+03  0.16886012076E+04  0.46999998093E+01 0. -1.
</event>
<event>
 5   0  0.2574803E-06  0.3211089E+04  0.7818609E-02  0.8185895E-01
       -2   -1    0    0    0  501  0.00000000000E+00  0.00000000000E+00  0.82693855270E+03  0.82693855270E+03  0.25500000920E-02 0.  1.
        2   -1    0    0  501    0  0.00000000000E+00  0.00000000000E+00 -0.31172492032E+04  0.31172492032E+04  0.25500000920E-02 0. -1.
    10030    2    1    2    0    0  0.00000000000E+00  0.00000000000E+00 -0.22903106505E+04  0.39441877559E+04  0.32110892510E+04 0.  0.
        4    1    3    3  502    0  0.39872330238E+03 -0.33630919635E+03  0.71995897996E+03  0.88905944298E+03  0.12699999809E+01 0.  1.
       -4    1    3    3    0  502 -0.39872330238E+03  0.33630919635E+03 -0.30102696305E+04  0.30551283129E+04  0.12699999809E+01 0. -1.
</event>
<event>
 5   0  0.8845526E-07  0.3350100E+04  0.7818609E-02  0.8150263E-01
       -1   -1    0    0    0  501  0.00000000000E+00  0.00000000000E+00  0.89500816210E+03  0.89500816211E+03  0.50400001928E-02 0. -1.
        1   -1    0    0  501    0  0.00000000000E+00  0.00000000000E+00 -0.31349344532E+04  0.31349344532E+04  0.50400001928E-02 0.  1.
    10030    2    1    2    0    0  0.00000000000E+00  0.00000000000E+00 -0.22399262911E+04  0.40299426153E+04  0.33500996542E+04 0.  0.
        1    1    3    3  502    0  0.75648893618E+03 -0.14934599141E+04 -0.11868736192E+04  0.20521615467E+04  0.50400001928E-02 0.  1.
       -1    1    3    3    0  502 -0.75648893618E+03  0.14934599141E+04 -0.10530526718E+04  0.19777810686E+04  0.50400001928E-02 0. -1.
</event>
<event>
 5   0  0.2705859E-06  0.3287319E+04  0.7818609E-02  0.8166130E-01
        2   -1    0    0  501    0  0.00000000000E+00  0.00000000000E+00  0.24093517535E+04  0.24093517535E+04  0.25500000920E-02 0. -1.
       -2   -1    0    0    0  501  0.00000000000E+00  0.00000000000E+00 -0.11213040150E+04  0.11213040150E+04  0.25500000920E-02 0.  1.
    10030    2    1    2    0    0  0.00000000000E+00  0.00000000000E+00  0.12880477385E+04  0.35306557685E+04  0.32873185393E+04 0.  0.
        1    1    3    3  502    0  0.96479308037E+02  0.15796839293E+04  0.11206120928E+04  0.19391959767E+04  0.50400001928E-02 0. -1.
       -1    1    3    3    0  502 -0.96479308037E+02 -0.15796839293E+04  0.16743564561E+03  0.15914597918E+04  0.50400001928E-02 0.  1.
</event>
<event>
 5   0  0.8845526E-07  0.3277635E+04  0.7818609E-02  0.8168610E-01
       -1   -1    0    0    0  501  0.00000000000E+00  0.00000000000E+00  0.17797413553E+04  0.17797413553E+04  0.50400001928E-02 0.  1.
        1   -1    0    0  501    0  0.00000000000E+00  0.00000000000E+00 -0.15090521348E+04  0.15090521348E+04  0.50400001928E-02 0. -1.
    10030    2    1    2    0    0  0.00000000000E+00  0.00000000000E+00  0.27068922047E+03  0.32887934901E+04  0.32776348128E+04 0.  0.
        1    1    3    3  502    0 -0.88527857455E+03 -0.93085877478E+03  0.11564073034E+04  0.17284368848E+04  0.50400001928E-02 0.  1.
       -1    1    3    3    0  502  0.88527857455E+03  0.93085877478E+03 -0.88571808297E+03  0.15603566053E+04  0.50400001928E-02 0. -1.
</event>
<event>
 5   0  0.2574803E-06  0.3321183E+04  0.7818609E-02  0.8157526E-01
       -2   -1    0    0    0  501  0.00000000000E+00  0.00000000000E+00  0.98312891239E+03  0.98312891239E+03  0.25500000920E-02 0. -1.
        2   -1    0    0  501    0  0.00000000000E+00  0.00000000000E+00 -0.28048853813E+04  0.28048853813E+04  0.25500000920E-02 0.  1.
    10030    2    1    2    0    0  0.00000000000E+00  0.00000000000E+00 -0.18217564690E+04  0.37880142937E+04  0.33211828702E+04 0.  0.
        4    1    3    3  502    0 -0.10118272408E+04  0.64428255980E+03  0.39886613529E+03  0.12641163668E+04  0.12699999809E+01 0. -1.
       -4    1    3    3    0  502  0.10118272408E+04 -0.64428255980E+03 -0.22206226042E+04  0.25238979269E+04  0.12699999809E+01 0.  1.
</event>
<event>
 5   0  0.8845526E-07  0.3294125E+04  0.7818609E-02  0.8164392E-01
       -1   -1    0    0    0  501  0.00000000000E+00  0.00000000000E+00  0.14499351735E+04  0.14499351735E+04  0.50400001928E-02 0.  1.
        1   -1    0    0  501    0  0.00000000000E+00  0.00000000000E+00 -0.18709907434E+04  0.18709907434E+04  0.50400001928E-02 0. -1.
    10030    2    1    2    0    0  0.00000000000E+00  0.00000000000E+00 -0.42105556987E+03  0.33209259169E+04  0.32941252485E+04 0.  0.
        1    1    3    3  502    0 -0.12099376254E+04  0.85170161125E+03  0.51887131931E+03  0.15679834623E+04  0.50400001928E-02 0.  1.
       -1    1    3    3    0  502  0.12099376254E+04 -0.85170161125E+03 -0.93992688918E+03  0.17529424546E+04  0.50400001928E-02 0. -1.
</event>
<event>
 5   0  0.2658600E-06  0.3265353E+04  0.7818609E-02  0.8171768E-01
        2   -1    0    0  501    0  0.00000000000E+00  0.00000000000E+00  0.23357901822E+04  0.23357901822E+04  0.25500000920E-02 0. -1.
       -2   -1    0    0    0  501  0.00000000000E+00  0.00000000000E+00 -0.11412124224E+04  0.11412124224E+04  0.25500000920E-02 0.  1.
    10030    2    1    2    0    0  0.00000000000E+00  0.00000000000E+00  0.11945777598E+04  0.34770026046E+04  0.32653531337E+04 0.  0.
        5    1    3    3  502    0 -0.62976640530E+03  0.12716869340E+04 -0.26239305719E+03  0.14431443413E+04  0.46999998093E+01 0.  1.
       -5    1    3    3    0  502  0.62976640530E+03 -0.12716869340E+04  0.14569708170E+04  0.20338582632E+04  0.46999998093E+01 0. -1.
</event>
<event>
 5   0  0.2658600E-06  0.3308936E+04  0.7818609E-02  0.8160625E-01
        2   -1    0    0  501    0  0.00000000000E+00  0.00000000000E+00  0.21189046553E+04  0.21189046553E+04  0.25500000920E-02 0.  1.
       -2   -1    0    0    0  501  0.00000000000E+00  0.00000000000E+00 -0.12918297203E+04  0.12918297203E+04  0.25500000920E-02 0. -1.
    10030    2    1    2    0    0  0.00000000000E+00  0.00000000000E+00  0.82707493497E+03  0.34107343756E+04  0.33089357856E+04 0.  0.
        5    1    3    3  502    0 -0.94909904829E+02 -0.10988920820E+04 -0.85755480876E+03  0.13971378020E+04  0.46999998093E+01 0. -1.
       -5    1    3    3    0  502  0.94909904829E+02  0.10988920820E+04  0.16846297437E+04  0.20135965736E+04  0.46999998093E+01 0.  1.
</event>
<event>
 5   0  0.2614212E-06  0.3271972E+04  0.7818609E-02  0.8170064E-01
        2   -1    0    0  501    0  0.00000000000E+00  0.00000000000E+00  0.17006330787E+04  0.17006330787E+04  0.25500000920E-02 0. -1.
       -2   -1    0    0    0  501  0.00000000000E+00  0.00000000000E+00 -0.15737967972E+04  0.15737967972E+04  0.25500000920E-02 0.  1.
    10030    2    1    2    0    0  0.00000000000E+00  0.00000000000E+00  0.12683628152E+03  0.32744298759E+04  0.32719724280E+04 0.  0.
        2    1    3    3  502    0 -0.65581871636E+03  0.78728844370E+03  0.13397307085E+04  0.16866533887E+04  0.25500000920E-02 0. -1.
       -2    1    3    3    0  502  0.65581871636E+03 -0.78728844370E+03 -0.12128944270E+04  0.15877764872E+04  0.25500000920E-02 0.  1.
</event>
<event>
 5   0  0.2614212E-06  0.3245599E+04  0.7818609E-02  0.8176877E-01
       -2   -1    0    0    0  501  0.00000000000E+00  0.00000000000E+00  0.14691296919E+04  0.14691296919E+04  0.25500000920E-02 0. -1.
        2   -1    0    0  501    0  0.00000000000E+00  0.00000000000E+00 -0.17925428360E+04  0.17925428360E+04  0.25500000920E-02 0.  1.
    10030    2    1    2    0    0  0.00000000000E+00  0.00000000000E+00 -0.32341314414E+03  0.32616725279E+04  0.32455988073E+04 0.  0.
        2    1    3    3  502    0 -0.38455395093E+03 -0.13993947419E+04  0.56803737619E+03  0.15584780543E+04  0.25500000920E-02 0.  1.
       -2    1    3    3    0  502  0.38455395093E+03  0.13993947419E+04 -0.89145052033E+03  0.17031944737E+04  0.25500000920E-02 0. -1.
</event>
<event>
 5   0  0.2705859E-06  0.3293554E+04  0.7818609E-02  0.8164537E-01
       -2   -1    0    0    0  501  0.00000000000E+00  0.00000000000E+00  0.24679253494E+04  0.24679253494E+04  0.25500000920E-02 0. -1.
        2   -1    0    0  501    0  0.00000000000E+00  0.00000000000E+00 -0.10988480903E+04  0.10988480903E+04  0.25500000920E-02 0.  1.
    10030    2    1    2    0    0  0.00000000000E+00  0.00000000000E+00  0.13690772591E+04  0.35667734398E+04  0.32935543459E+04 0.  0.
        1    1    3    3  502    0  0.10311476257E+04 -0.13460228196E+03 -0.69829523676E+03  0.12525970773E+04  0.50400001928E-02 0.  1.
       -1    1    3    3    0  502 -0.10311476257E+04  0.13460228196E+03  0.20673724959E+04  0.23141763625E+04  0.50400001928E-02 0. -1.
</event>
<event>
 5   0  0.9530268E-07  0.3289190E+04  0.7818609E-02  0.8165651E-01
       -1   -1    0    0    0  501  0.00000000000E+00  0.00000000000E+00  0.19041501765E+04  0.19041501765E+04  0.50400001928E-02 0. -1.
        1   -1    0    0  501    0  0.00000000000E+00  0.00000000000E+00 -0.14204200487E+04  0.14204200487E+04  0.50400001928E-02 0.  1.
    10030    2    1    2    0    0  0.00000000000E+00  0.00000000000E+00  0.48373012777E+03  0.33245702252E+04  0.32891902264E+04 0.  0.
        5    1    3    3  502    0  0.66778752290E+03  0.41880850342E+03 -0.12170351256E+04  0.14500128707E+04  0.46999998093E+01 0.  1.
       -5    1    3    3    0  502 -0.66778752290E+03 -0.41880850342E+03  0.17007652533E+04  0.18745573545E+04  0.46999998093E+01 0. -1.
</event>
<event>
 5   0  0.9268670E-07  0.3255915E+04  0.7818609E-02  0.8174204E-01
       -1   -1    0    0    0  501  0.00000000000E+00  0.00000000000E+00  0.15123925051E+04  0.15123925051E+04  0.50400001928E-02 0. -1.
        1   -1    0    0  501    0  0.00000000000E+00  0.00000000000E+00 -0.17523530640E+04  0.17523530640E+04  0.50400001928E-02 0.  1.
    10030    2    1    2    0    0  0.00000000000E+00  0.00000000000E+00 -0.23996055892E+03  0.32647455691E+04  0.32559150113E+04 0.  0.
        3    1    3    3  502    0  0.74745950198E+02  0.13243617162E+04 -0.10663221009E+04  0.17019294185E+04  0.10100000352E+00 0.  1.
       -3    1    3    3    0  502 -0.74745950198E+02 -0.13243617162E+04  0.82636154196E+03  0.15628161506E+04  0.10100000352E+00 0. -1.
</event>
<event>
 5   0  0.2674551E-06  0.3284506E+04  0.7818609E-02  0.8166849E-01
       -2   -1    0    0    0  501  0.00000000000E+00  0.00000000000E+00  0.12465411533E+04  0.12465411533E+04  0.25500000920E-02 0. -1.
        2   -1    0    0  501    0  0.00000000000E+00  0.00000000000E+00 -0.21635828473E+04  0.21635828473E+04  0.25500000920E-02 0.  1.
    10030    2    1    2    0    0  0.00000000000E+00  0.00000000000E+00 -0.91704169403E+03  0.34101240006E+04  0.32845060863E+04 0.  0.
        3    1    3    3  502    0  0.14216978217E+03 -0.14354147397E+04 -0.12736377599E+04  0.19242611246E+04  0.10100000352E+00 0.  1.
       -3    1    3    3    0  502 -0.14216978217E+03  0.14354147397E+04  0.35659606587E+03  0.14858628760E+04  0.10100000352E+00 0. -1.
</event>
<event>
 5   0  0.8845526E-07  0.2632029E+04  0.7818609E-02  0.8357402E-01
       -1   -1    0    0    0  501  0.00000000000E+00  0.00000000000E+00  0.70222273169E+03  0.70222273171E+03  0.50400001928E-02 0.  1.
        1   -1    0    0  501    0  0.00000000000E+00  0.00000000000E+00 -0.24663027606E+04  0.24663027606E+04  0.50400001928E-02 0. -1.
    10030    2    1    2    0    0  0.00000000000E+00  0.00000000000E+00 -0.17640800289E+04  0.31685254923E+04  0.26320287702E+04 0.  0.
        1    1    3    3  502    0  0.51141251230E+03  0.11467990115E+03 -0.23352423887E+04  0.23933347554E+04  0.50400001928E-02 0. -1.
       -1    1    3    3    0  502 -0.51141251230E+03 -0.11467990115E+03  0.57116235974E+03  0.77519073696E+03  0.50400001928E-02 0.  1.
</event>
<event>
 5   0  0.2614212E-06  0.3307264E+04  0.7818609E-02  0.8161050E-01
       -2   -1    0    0    0  501  0.00000000000E+00  0.00000000000E+00  0.14707304441E+04  0.14707304441E+04  0.25500000920E-02 0. -1.
        2   -1    0    0  501    0  0.00000000000E+00  0.00000000000E+00 -0.18592789738E+04  0.18592789738E+04  0.25500000920E-02 0.  1.
    10030    2    1    2    0    0  0.00000000000E+00  0.00000000000E+00 -0.38854852970E+03  0.33300094180E+04  0.33072636369E+04 0.  0.
        2    1    3    3  502    0 -0.49381568733E+03 -0.15601037120E+04  0.45524701165E+02  0.16370247474E+04  0.25500000920E-02 0. -1.
       -2    1    3    3    0  502  0.49381568733E+03  0.15601037120E+04 -0.43407323087E+03  0.16929846706E+04  0.25500000920E-02 0.  1.
</event>
<event>
 5   0  0.9295663E-07  0.3392083E+04  0.7818609E-02  0.8139852E-01
        1   -1    0    0  501    0  0.00000000000E+00  0.00000000000E+00  0.18528499249E+04  0.18528499249E+04  0.50400001928E-02 0.  1.
       -1   -1    0    0    0  501  0.00000000000E+00  0.00000000000E+00 -0.15525034948E+04  0.15525034948E+04  0.50400001928E-02 0. -1.
    10030    2    1    2    0    0  0.00000000000E+00  0.00000000000E+00  0.30034643015E+03  0.34053534197E+04  0.33920825366E+04 0.  0.
        4    1    3    3  502    0 -0.11924310061E+04 -0.11024600563E+04  0.64121308191E+03  0.17459855982E+04  0.12699999809E+01 0.  1.
       -4    1    3    3    0  502  0.11924310061E+04  0.11024600563E+04 -0.34086665176E+03  0.16593678215E+04  0.12699999809E+01 0. -1.
</event>
<event>
 5   0  0.8845526E-07  0.3263196E+04  0.7818609E-02  0.8172324E-01
       -1   -1    0    0    0  501  0.00000000000E+00  0.00000000000E+00  0.36416420758E+04  0.36416420758E+04  0.50400001928E-02 0. -1.
        1   -1    0    0  501    0  0.00000000000E+00  0.00000000000E+00 -0.73101949425E+03  0.73101949427E+03  0.50400001928E-02 0.  1.
    10030    2    1    2    0    0  0.00000000000E+00  0.00000000000E+00  0.29106225815E+04  0.43726615700E+04  0.32631955801E+04 0.  0.
        1    1    3    3  502    0  0.83442871170E+03  0.13990583831E+04  0.15786759922E+04  0.22684473815E+04  0.50400001928E-02 0.  1.
       -1    1    3    3    0  502 -0.83442871170E+03 -0.13990583831E+04  0.13319465893E+04  0.21042141885E+04  0.50400001928E-02 0. -1.
</event>
<event>
 5   0  0.8705956E-07  0.3291583E+04  0.7818609E-02  0.8165040E-01
        1   -1    0    0  501    0  0.00000000000E+00  0.00000000000E+00  0.19609320597E+04  0.19609320597E+04  0.50400001928E-02 0. -1.
       -1   -1    0    0    0  501  0.00000000000E+00  0.00000000000E+00 -0.13812969808E+04  0.13812969809E+04  0.50400001928E-02 0.  1.
    10030    2    1    2    0    0  0.00000000000E+00  0.00000000000E+00  0.57963507883E+03  0.33422290405E+04  0.32915829224E+04 0.  0.
        2    1    3    3  502    0  0.33343378292E+03  0.50861479619E+01 -0.13466333046E+04  0.13873086223E+04  0.25500000920E-02 0.  1.
       -2    1    3    3    0  502 -0.33343378292E+03 -0.50861479619E+01  0.19262683834E+04  0.19549204182E+04  0.25500000920E-02 0. -1.
</event>
<event>
 5   0  0.9530268E-07  0.3337642E+04  0.7818609E-02  0.8153383E-01
        1   -1    0    0  501    0  0.00000000000E+00  0.00000000000E+00  0.18638484447E+04  0.18638484447E+04  0.50400001928E-02 0.  1.
       -1   -1    0    0    0  501  0.00000000000E+00  0.00000000000E+00 -0.14942007312E+04  0.14942007312E+04  0.50400001928E-02 0. -1.
    10030    2    1    2    0    0  0.00000000000E+00  0.00000000000E+00  0.36964771355E+03  0.33580491759E+04  0.33376421072E+04 0.  0.
        5    1    3    3  502    0  0.13667375426E+04  0.41557501089E+03  0.10528080553E+04  0.17745706498E+04  0.46999998093E+01 0.  1.
       -5    1    3    3    0  502 -0.13667375426E+04 -0.41557501089E+03 -0.68316034177E+03  0.15834785261E+04  0.46999998093E+01 0. -1.
</event>
<event>
 5   0  0.2574803E-06  0.2676139E+04  0.7818609E-02  0.8342789E-01
       -2   -1    0    0    0  501  0.00000000000E+00  0.00000000000E+00  0.11789617734E+04  0.11789617734E+04  0.25500000920E-02 0.  1.
        2   -1    0    0  501    0  0.00000000000E+00  0.00000000000E+00 -0.15186499053E+04  0.15186499053E+04  0.25500000920E-02 0. -1.
    10030    2    1    2    0    0  0.00000000000E+00  0.00000000000E+00 -0.33968813193E+03  0.26976116787E+04  0.26761391485E+04 0.  0.
        4    1    3    3  502    0 -0.71972691969E+03  0.95689459516E+03  0.43225454481E+03  0.12729884955E+04  0.12699999809E+01 0.  1.
       -4    1    3    3    0  502  0.71972691969E+03 -0.95689459516E+03 -0.77194267674E+03  0.14246231832E+04  0.12699999809E+01 0. -1.
</event>
<event>
 5   0  0.2574803E-06  0.3317840E+04  0.7818609E-02  0.8158371E-01
       -2   -1    0    0    0  501  0.00000000000E+00  0.00000000000E+00  0.18109419977E+04  0.18109419977E+04  0.25500000920E-02 0.  1.
        2   -1    0    0  501    0  0.00000000000E+00  0.00000000000E+00 -0.15196597286E+04  0.15196597286E+04  0.25500000920E-02 0. -1.
    10030    2    1    2    0    0  0.00000000000E+00  0.00000000000E+00  0.29128226910E+03  0.33306017262E+04  0.33178400351E+04 0.  0.
        4    1    3    3  502    0 -0.13901606997E+04  0.23344318812E+03 -0.73234951834E+03  0.15885150056E+04  0.12699999809E+01 0. -1.
       -4    1    3    3    0  502  0.13901606997E+04 -0.23344318812E+03  0.10236317874E+04  0.17420867206E+04  0.12699999809E+01 0.  1.
</event>
<event>
 5   0  0.8705956E-07  0.3294153E+04  0.7818609E-02  0.8164385E-01
        1   -1    0    0  501    0  0.00000000000E+00  0.00000000000E+00  0.82143897750E+03  0.82143897752E+03  0.50400001928E-02 0. -1.
       -1   -1    0    0    0  501  0.00000000000E+00  0.00000000000E+00 -0.33025709236E+04  0.33025709236E+04  0.50400001928E-02 0.  1.
    10030    2    1    2    0    0  0.00000000000E+00  0.00000000000E+00 -0.24811319461E+04  0.41240099011E+04  0.32941526878E+04 0.  0.
        2    1    3    3  502    0 -0.24124950746E+03  0.14925561946E+04 -0.20585728164E+04  0.25541431752E+04  0.25500000920E-02 0.  1.
       -2    1    3    3    0  502  0.24124950746E+03 -0.14925561946E+04 -0.42255912964E+03  0.15698667259E+04  0.25500000920E-02 0. -1.
</event>
<event>
 5   0  0.2574803E-06  0.3310067E+04  0.7818609E-02  0.8160339E-01
        2   -1    0    0  501    0  0.00000000000E+00  0.00000000000E+00  0.19919006455E+04  0.19919006455E+04  0.25500000920E-02 0. -1.
       -2   -1    0    0    0  501  0.00000000000E+00  0.00000000000E+00 -0.13751365215E+04  0.13751365215E+04  0.25500000920E-02 0.  1.
    10030    2    1    2    0    0  0.00000000000E+00  0.00000000000E+00  0.61676412401E+03  0.33670371669E+04  0.33100666608E+04 0.  0.
        4    1    3    3  502    0  0.12543932926E+04 -0.84027337741E+02  0.14032769283E+04  0.18840782564E+04  0.12699999809E+01 0. -1.
       -4    1    3    3    0  502 -0.12543932926E+04  0.84027337741E+02 -0.78651280425E+03  0.14829589105E+04  0.12699999809E+01 0.  1.
</event>
<event>
 5   0  0.2705859E-06  0.3288895E+04  0.7818609E-02  0.8165727E-01
       -2   -1    0    0    0  501  0.00000000000E+00  0.00000000000E+00  0.18077487381E+04  0.18077487381E+04  0.25500000920E-02 0.  1.
        2   -1    0    0  501    0  0.00000000000E+00  0.00000000000E+00 -0.14958981188E+04  0.14958981188E+04  0.25500000920E-02 0. -1.
    10030    2    1    2    0    0  0.00000000000E+00  0.00000000000E+00  0.31185061927E+03  0.33036468568E+04  0.32888952166E+04 0.  0.
        1    1    3    3  502    0 -0.25387510727E+03 -0.88652288126E+03 -0.12117368511E+04  0.15227217689E+04  0.50400001928E-02 0. -1.
       -1    1    3    3    0  502  0.25387510727E+03  0.88652288126E+03  0.15235874704E+04  0.17809250880E+04  0.50400001928E-02 0.  1.
</event>
<event>
 5   0  0.2574803E-06  0.3289377E+04  0.7818609E-02  0.8165604E-01
       -2   -1    0    0    0  501  0.00000000000E+00  0.00000000000E+00  0.11612255143E+04  0.11612255143E+04  0.25500000920E-02 0.  1.
        2   -1    0    0  501    0  0.00000000000E+00  0.00000000000E+00 -0.23294354840E+04  0.23294354840E+04  0.25500000920E-02 0. -1.
    10030    2    1    2    0    0  0.00000000000E+00  0.00000000000E+00 -0.11682099697E+04  0.34906609983E+04  0.32893767907E+04 0.  0.
        4    1    3    3  502    0 -0.88865628563E+03  0.50900771470E+03 -0.19497894485E+04  0.22023803836E+04  0.12699999809E+01 0. -1.
       -4    1    3    3    0  502  0.88865628563E+03 -0.50900771470E+03  0.78157947877E+03  0.12882806147E+04  0.12699999809E+01 0.  1.
</event>
<event>
 5   0  0.9530268E-07  0.2917596E+04  0.7818609E-02  0.8267661E-01
       -1   -1    0    0    0  501  0.00000000000E+00  0.00000000000E+00  0.11088789731E+04  0.11088789731E+04  0.50400001928E-02 0.  1.
        1   -1    0    0  501    0  0.00000000000E+00  0.00000000000E+00 -0.19191381527E+04  0.19191381527E+04  0.50400001928E-02 0. -1.
    10030    2    1    2    0    0  0.00000000000E+00  0.00000000000E+00 -0.81025917952E+03  0.30280171258E+04  0.29175962325E+04 0.  0.
        5    1    3    3  502    0 -0.62143290725E+03  0.85384449300E+03 -0.14496181404E+04  0.17935005211E+04  0.46999998093E+01 0. -1.
       -5    1    3    3    0  502  0.62143290725E+03 -0.85384449300E+03  0.63935896084E+03  0.12345166047E+04  0.46999998093E+01 0.  1.
</event>
<event>
 5   0  0.2658600E-06  0.3302871E+04  0.7818609E-02  0.8162165E-01
       -2   -1    0    0    0  501  0.00000000000E+00  0.00000000000E+00  0.21172791769E+04  0.21172791769E+04  0.25500000920E-02 0.  1.
        2   -1    0    0  501    0  0.00000000000E+00  0.00000000000E+00 -0.12880869658E+04  0.12880869658E+04  0.25500000920E-02 0. -1.
    10030    2    1    2    0    0  0.00000000000E+00  0.00000000000E+00  0.82919221115E+03  0.34053661427E+04  0.33028713028E+04 0.  0.
        5    1    3    3  502    0  0.12864754790E+04  0.57537290275E+03  0.13022090007E+04  0.19188130463E+04  0.46999998093E+01 0.  1.
       -5    1    3    3    0  502 -0.12864754790E+04 -0.57537290275E+03 -0.47301678955E+03  0.14865530964E+04  0.46999998093E+01 0. -1.
</event>
<event>
 5   0  0.9530268E-07  0.2891979E+04  0.7818609E-02  0.8275268E-01
       -1   -1    0    0    0  501  0.00000000000E+00  0.00000000000E+00  0.92816529878E+03  0.92816529879E+03  0.50400001928E-02 0. -1.
        1   -1    0    0  501    0  0.00000000000E+00  0.00000000000E+00 -0.22527085871E+04  0.22527085871E+04  0.50400001928E-02 0.  1.
    10030    2    1    2    0    0  0.00000000000E+00  0.00000000000E+00 -0.13245432883E+04  0.31808738859E+04  0.28919792107E+04 0.  0.
        5    1    3    3  502    0  0.12227662766E+04  0.58640140764E+03 -0.11030411765E+03  0.13605929099E+04  0.46999998093E+01 0. -1.
       -5    1    3    3    0  502 -0.12227662766E+04 -0.58640140764E+03 -0.12142391707E+04  0.18202809760E+04  0.46999998093E+01 0.  1.
</event>
<event>
 5   0  0.9268670E-07  0.3358944E+04  0.7818609E-02  0.8148057E-01
       -1   -1    0    0    0  501  0.00000000000E+00  0.00000000000E+00  0.11245898070E+04  0.11245898070E+04  0.50400001928E-02 0. -1.
        1   -1    0    0  501    0  0.00000000000E+00  0.00000000000E+00 -0.25081383132E+04  0.25081383132E+04  0.50400001928E-02 0.  1.
    10030    2    1    2    0    0  0.00000000000E+00  0.00000000000E+00 -0.13835485062E+04  0.36327281202E+04  0.33589443470E+04 0.  0.
        3    1    3    3  502    0  0.84782578252E+03 -0.27405278513E+03 -0.22314392785E+04  0.24027556577E+04  0.10100000352E+00 0.  1.
       -3    1    3    3    0  502 -0.84782578252E+03  0.27405278513E+03  0.84789077233E+03  0.12299724625E+04  0.10100000352E+00 0. -1.
</event>
<event>
 5   0  0.2674551E-06  0.3288410E+04  0.7818609E-02  0.8165851E-01
        2   -1    0    0  501    0  0.00000000000E+00  0.00000000000E+00  0.22959822651E+04  0.22959822651E+04  0.25500000920E-02 0. -1.
       -2   -1    0    0    0  501  0.00000000000E+00  0.00000000000E+00 -0.11774528009E+04  0.11774528009E+04  0.25500000920E-02 0.  1.
    10030    2    1    2    0    0  0.00000000000E+00  0.00000000000E+00  0.11185294642E+04  0.34734350660E+04  0.32884104055E+04 0.  0.
        3    1    3    3  502    0 -0.67311191096E+03  0.33656612248E+03  0.21033843945E+04  0.22339611278E+04  0.10100000352E+00 0. -1.
       -3    1    3    3    0  502  0.67311191096E+03 -0.33656612248E+03 -0.98485493027E+03  0.12394739381E+04  0.10100000352E+00 0.  1.
</event>
<event>
 5   0  0.8845526E-07  0.2863287E+04  0.7818609E-02  0.8283885E-01
       -1   -1    0    0    0  501  0.00000000000E+00  0.00000000000E+00  0.10663466453E+04  0.10663466453E+04  0.50400001928E-02 0.  1.
        1   -1    0    0  501    0  0.00000000000E+00  0.00000000000E+00 -0.19220795617E+04  0.19220795617E+04  0.50400001928E-02 0. -1.
    10030    2    1    2    0    0  0.00000000000E+00  0.00000000000E+00 -0.85573291633E+03  0.29884262070E+04  0.28632869871E+04 0.  0.
        1    1    3    3  502    0  0.25826664776E+03  0.39281384826E+03  0.98349047665E+03  0.10900724281E+04  0.50400001928E-02 0.  1.
       -1    1    3    3    0  502 -0.25826664776E+03 -0.39281384826E+03 -0.18392233930E+04  0.18983537789E+04  0.50400001928E-02 0. -1.
</event>
<event>
 5   0  0.9295663E-07  0.3339703E+04  0.7818609E-02  0.8152866E-01
       -1   -1    0    0    0  501  0.00000000000E+00  0.00000000000E+00  0.12335077971E+04  0.12335077971E+04  0.50400001928E-02 0.  1.
        1   -1    0    0  501    0  0.00000000000E+00  0.00000000000E+00 -0.22605490096E+04  0.22605490096E+04  0.50400001928E-02 0. -1.
    10030    2    1    2    0    0  0.00000000000E+00  0.00000000000E+00 -0.10270412125E+04  0.34940568067E+04  0.33397034773E+04 0.  0.
        4    1    3    3  502    0 -0.78914839240E+03 -0.22677465321E+03  0.10077177720E+04  0.12998763978E+04  0.12699999809E+01 0.  1.
       -4    1    3    3    0  502  0.78914839240E+03  0.22677465321E+03 -0.20347589846E+04  0.21941804089E+04  0.12699999809E+01 0. -1.
</event>
<event>
 5   0  0.9530268E-07  0.2517507E+04  0.7818609E-02  0.8396775E-01
       -1   -1    0    0    0  501  0.00000000000E+00  0.00000000000E+00  0.15732706418E+04  0.15732706418E+04  0.50400001928E-02 0.  1.
        1   -1    0    0  501    0  0.00000000000E+00  0.00000000000E+00 -0.10071121751E+04  0.10071121751E+04  0.50400001928E-02 0. -1.
    10030    2    1    2    0    0  0.00000000000E+00  0.00000000000E+00  0.56615846666E+03  0.25803828169E+04  0.25175067174E+04 0.  0.
        5    1    3    3  502    0 -0.74071805886E+03  0.47374765498E+03 -0.64016025192E+03  0.10876246234E+04  0.46999998093E+01 0. -1.
       -5    1    3    3    0  502  0.74071805886E+03 -0.47374765498E+03  0.12063187186E+04  0.14927581935E+04  0.46999998093E+01 0.  1.
</event>
<event>
 5   0  0.8845526E-07  0.3322929E+04  0.7818609E-02  0.8157086E-01
        1   -1    0    0  501    0  0.00000000000E+00  0.00000000000E+00  0.26095374633E+04  0.26095374633E+04  0.50400001928E-02 0.  1.
       -1   -1    0    0    0  501  0.00000000000E+00  0.00000000000E+00 -0.10578365344E+04  0.10578365345E+04  0.50400001928E-02 0. -1.
    10030    2    1    2    0    0  0.00000000000E+00  0.00000000000E+00  0.15517009289E+04  0.36673739978E+04  0.33229288688E+04 0.  0.
        1    1    3    3  502    0 -0.11605151514E+04 -0.43626345525E+03  0.19965485129E+04  0.23501759899E+04  0.50400001928E-02 0.  1.
       -1    1    3    3    0  502  0.11605151514E+04  0.43626345525E+03 -0.44484758405E+03  0.13171980079E+04  0.50400001928E-02 0. -1.
</event>
<event>
 5   0  0.8845526E-07  0.3314583E+04  0.7818609E-02  0.8159195E-01
       -1   -1    0    0    0  501  0.00000000000E+00  0.00000000000E+00  0.11813895844E+04  0.11813895844E+04  0.50400001928E-02 0.  1.
        1   -1    0    0  501    0  0.00000000000E+00  0.00000000000E+00 -0.23249016216E+04  0.23249016216E+04  0.50400001928E-02 0. -1.
    10030    2    1    2    0    0  0.00000000000E+00  0.00000000000E+00 -0.11435120372E+04  0.35062912060E+04  0.33145826649E+04 0.  0.
        1    1    3    3  502    0  0.12695526235E+04 -0.93676261819E+03 -0.35142784407E+02  0.15781391200E+04  0.50400001928E-02 0.  1.
       -1    1    3    3    0  502 -0.12695526235E+04  0.93676261819E+03 -0.11083692528E+04  0.19281520861E+04  0.50400001928E-02 0. -1.
</event>
<event>
 5   0  0.2574803E-06  0.3289528E+04  0.7818609E-02  0.8165565E-01
       -2   -1    0    0    0  501  0.00000000000E+00  0.00000000000E+00  0.16907616873E+04  0.16907616873E+04  0.25500000920E-02 0. -1.
        2   -1    0    0  501    0  0.00000000000E+00  0.00000000000E+00 -0.16000175607E+04  0.16000175607E+04  0.25500000920E-02 0.  1.
    10030    2    1    2    0    0  0.00000000000E+00  0.00000000000E+00  0.90744126551E+02  0.32907792480E+04  0.32895278632E+04 0.  0.
        4    1    3    3  502    0 -0.14811838047E+04 -0.30909366246E+03 -0.59970067463E+03  0.16276015690E+04  0.12699999809E+01 0.  1.
       -4    1    3    3    0  502  0.14811838047E+04  0.30909366246E+03  0.69044480119E+03  0.16631776790E+04  0.12699999809E+01 0. -1.
</event>
<event>
 5   0  0.9295663E-07  0.3411680E+04  0.7818609E-02  0.8135046E-01
        1   -1    0    0  501    0  0.00000000000E+00  0.00000000000E+00  0.17570559470E+04  0.17570559470E+04  0.50400001928E-02 0. -1.
       -1   -1    0    0    0  501  0.00000000000E+00  0.00000000000E+00 -0.16561171487E+04  0.16561171487E+04  0.50400001928E-02 0.  1.
    10030    2    1    2    0    0  0.00000000000E+00  0.00000000000E+00  0.10093879830E+03  0.34131730956E+04  0.34116802224E+04 0.  0.
        4    1    3    3  502    0  0.11052998357E+04 -0.49298119403E+03 -0.11522091579E+04  0.16710193718E+04  0.12699999809E+01 0.  1.
       -4    1    3    3    0  502 -0.11052998357E+04  0.49298119403E+03  0.12531479562E+04  0.17421537238E+04  0.12699999809E+01 0. -1.
</event>
<event>
 5   0  0.8845526E-07  0.3149245E+04  0.7818609E-02  0.8202352E-01
       -1   -1    0    0    0  501  0.00000000000E+00  0.00000000000E+00  0.13108683483E+04  0.13108683483E+04  0.50400001928E-02 0. -1.
        1   -1    0    0  501    0  0.00000000000E+00  0.00000000000E+00 -0.18914450073E+04  0.18914450073E+04  0.50400001928E-02 0.  1.
    10030    2    1    2    0    0  0.00000000000E+00  0.00000000000E+00 -0.58057665907E+03  0.32023133556E+04  0.31492446031E+04 0.  0.
        1    1    3    3  502    0  0.13597709899E+04 -0.10036382421E+03  0.51062993904E+03  0.14559508841E+04  0.50400001928E-02 0. -1.
       -1    1    3    3    0  502 -0.13597709899E+04  0.10036382421E+03 -0.10912065981E+04  0.17463624715E+04  0.50400001928E-02 0.  1.
</event>
<event>
 5   0  0.9268670E-07  0.3385838E+04  0.7818609E-02  0.8141391E-01
        1   -1    0    0  501    0  0.00000000000E+00  0.00000000000E+00  0.28170562602E+04  0.28170562602E+04  0.50400001928E-02 0. -1.
       -1   -1    0    0    0  501  0.00000000000E+00  0.00000000000E+00 -0.10173653610E+04  0.10173653610E+04  0.50400001928E-02 0.  1.
    10030    2    1    2    0    0  0.00000000000E+00  0.00000000000E+00  0.17996908992E+04  0.38344216212E+04  0.33858384245E+04 0.  0.
        3    1    3    3  502    0 -0.92453211415E+03  0.22932741563E+03 -0.68508151870E+03  0.11733232253E+04  0.10100000352E+00 0.  1.
       -3    1    3    3    0  502  0.92453211415E+03 -0.22932741563E+03  0.24847724179E+04  0.26610983959E+04  0.10100000352E+00 0. -1.
</event>
<event>
 5   0  0.9268670E-07  0.3293940E+04  0.7818609E-02  0.8164439E-01
        1   -1    0    0  501    0  0.00000000000E+00  0.00000000000E+00  0.27031679051E+04  0.27031679051E+04  0.50400001928E-02 0. -1.
       -1   -1    0    0    0  501  0.00000000000E+00  0.00000000000E+00 -0.10034558906E+04  0.10034558907E+04  0.50400001928E-02 0.  1.
    10030    2    1    2    0    0  0.00000000000E+00  0.00000000000E+00  0.16997120145E+04  0.37066237958E+04  0.32939397431E+04 0.  0.
        3    1    3    3  502    0  0.31675195371E+03 -0.96287781170E+03  0.23105811900E+04  0.25231430650E+04  0.10100000352E+00 0. -1.
       -3    1    3    3    0  502 -0.31675195371E+03  0.96287781170E+03 -0.61086917552E+03  0.11834807308E+04  0.10100000352E+00 0.  1.
</event>
<event>
 5   0  0.2574803E-06  0.3245191E+04  0.7818609E-02  0.8176983E-01
        2   -1    0    0  501    0  0.00000000000E+00  0.00000000000E+00  0.74606721541E+03  0.74606721542E+03  0.25500000920E-02 0.  1.
       -2   -1    0    0    0  501  0.00000000000E+00  0.00000000000E+00 -0.35289251755E+04  0.35289251755E+04  0.25500000920E-02 0. -1.
    10030    2    1    2    0    0  0.00000000000E+00  0.00000000000E+00 -0.27828579601E+04  0.42749923909E+04  0.32451905208E+04 0.  0.
        4    1    3    3  502    0 -0.13819550975E+04  0.42938991918E+03 -0.23582447175E+04  0.27668565837E+04  0.12699999809E+01 0. -1.
       -4    1    3    3    0  502  0.13819550975E+04 -0.42938991918E+03 -0.42461324256E+03  0.15081358072E+04  0.12699999809E+01 0.  1.
</event>
<event>
 5   0  0.8705956E-07  0.3359334E+04  0.7818609E-02  0.8147960E-01
        1   -1    0    0  501    0  0.00000000000E+00  0.00000000000E+00  0.18350502560E+04  0.18350502560E+04  0.50400001928E-02 0.  1.
       -1   -1    0    0    0  501  0.00000000000E+00  0.00000000000E+00 -0.15374404596E+04  0.15374404596E+04  0.50400001928E-02 0. -1.
    10030    2    1    2    0    0  0.00000000000E+00  0.00000000000E+00  0.29760979640E+03  0.33724907156E+04  0.33593335702E+04 0.  0.
        2    1    3    3  502    0  0.10432666450E+04 -0.95366227046E+03 -0.76216491209E+03  0.16058556510E+04  0.25500000920E-02 0. -1.
       -2    1    3    3    0  502 -0.10432666450E+04  0.95366227046E+03  0.10597747085E+04  0.17666350646E+04  0.25500000920E-02 0.  1.
</event>
<event>
 5   0  0.9295663E-07  0.3295464E+04  0.7818609E-02  0.8164051E-01
        1   -1    0    0  501    0  0.00000000000E+00  0.00000000000E+00  0.31504454415E+04  0.31504454415E+04  0.50400001928E-02 0. -1.
       -1   -1    0    0    0  501  0.00000000000E+00  0.00000000000E+00 -0.86178924225E+03  0.86178924226E+03  0.50400001928E-02 0.  1.
    10030    2    1    2    0    0  0.00000000000E+00  0.00000000000E+00  0.22886561993E+04  0.40122346838E+04  0.32954635424E+04 0.  0.
        4    1    3    3  502    0  0.32607201940E+03  0.13616796301E+04  0.22018913371E+04  0.26093718497E+04  0.12699999809E+01 0. -1.
       -4    1    3    3    0  502 -0.32607201940E+03 -0.13616796301E+04  0.86764862166E+02  0.14028628340E+04  0.12699999809E+01 0.  1.
</event>
<event>
 5   0  0.2574803E-06  0.3355244E+04  0.7818609E-02  0.8148979E-01
        2   -1    0    0  501    0  0.00000000000E+00  0.00000000000E+00  0.15892106355E+04  0.15892106355E+04  0.25500000920E-02 0. -1.
       -2   -1    0    0    0  501  0.00000000000E+00  0.00000000000E+00 -0.17709521750E+04  0.17709521750E+04  0.25500000920E-02 0.  1.
    10030    2    1    2    0    0  0.00000000000E+00  0.00000000000E+00 -0.18174153945E+03  0.33601628105E+04  0.33552442721E+04 0.  0.
        4    1    3    3  502    0 -0.13344904352E+04 -0.96375418901E+03 -0.41496154498E+03  0.16976105429E+04  0.12699999809E+01 0.  1.
       -4    1    3    3    0  502  0.13344904352E+04  0.96375418901E+03  0.23322000553E+03  0.16625522676E+04  0.12699999809E+01 0. -1.
</event>
<event>
 5   0  0.2658600E-06  0.3308432E+04  0.7818609E-02  0.8160753E-01
       -2   -1    0    0    0  501  0.00000000000E+00  0.00000000000E+00  0.14935532048E+04  0.14935532048E+04  0.25500000920E-02 0. -1.
        2   -1    0    0  501    0  0.00000000000E+00  0.00000000000E+00 -0.18321612731E+04  0.18321612731E+04  0.25500000920E-02 0.  1.
    10030    2    1    2    0    0  0.00000000000E+00  0.00000000000E+00 -0.33860806839E+03  0.33257144779E+04  0.33084318588E+04 0.  0.
        5    1    3    3  502    0  0.67319166602E+03 -0.87780478156E+03  0.10670313496E+04  0.15369795850E+04  0.46999998093E+01 0. -1.
       -5    1    3    3    0  502 -0.67319166602E+03  0.87780478156E+03 -0.14056394180E+04  0.17887348929E+04  0.46999998093E+01 0.  1.
</event>
<event>
 5   0  0.9295663E-07  0.3283997E+04  0.7818609E-02  0.8166979E-01
       -1   -1    0    0    0  501  0.00000000000E+00  0.00000000000E+00  0.28176045794E+04  0.28176045794E+04  0.50400001928E-02 0.  1.
        1   -1    0    0  501    0  0.00000000000E+00  0.00000000000E+00 -0.95689772191E+03  0.95689772192E+03  0.50400001928E-02 0. -1.
    10030    2    1    2    0    0  0.00000000000E+00  0.00000000000E+00  0.18607068575E+04  0.37745023014E+04  0.32839972006E+04 0.  0.
        4    1    3    3  502    0  0.88791544899E+03  0.93057121886E+03 -0.24278519377E+03  0.13089319696E+04  0.12699999809E+01 0. -1.
       -4    1    3    3    0  502 -0.88791544899E+03 -0.93057121886E+03  0.21034920513E+04  0.24655703317E+04  0.12699999809E+01 0.  1.
</event>
<event>
 5   0  0.2574803E-06  0.3320260E+04  0.7818609E-02  0.8157759E-01
        2   -1    0    0  501    0  0.00000000000E+00  0.00000000000E+00  0.20617679278E+04  0.20617679278E+04  0.25500000920E-02 0.  1.
       -2   -1    0    0    0  501  0.00000000000E+00  0.00000000000E+00 -0.13367325386E+04  0.13367325386E+04  0.25500000920E-02 0. -1.
    10030    2    1    2    0    0  0.00000000000E+00  0.00000000000E+00  0.72503538919E+03  0.33985004665E+04  0.33202603972E+04 0.  0.
        4    1    3    3  502    0 -0.57506846569E+03 -0.15569476405E+04  0.32646020885E+03  0.16915577366E+04  0.12699999809E+01 0.  1.
       -4    1    3    3    0  502  0.57506846569E+03  0.15569476405E+04  0.39857518034E+03  0.17069427298E+04  0.12699999809E+01 0. -1.
</event>
<event>
 5   0  0.2674551E-06  0.3320675E+04  0.7818609E-02  0.8157654E-01
        2   -1    0    0  501    0  0.00000000000E+00  0.00000000000E+00  0.22437808376E+04  0.22437808376E+04  0.25500000920E-02 0. -1.
       -2   -1    0    0    0  501  0.00000000000E+00  0.00000000000E+00 -0.12286050468E+04  0.12286050468E+04  0.25500000920E-02 0.  1.
    10030    2    1    2    0    0  0.00000000000E+00  0.00000000000E+00  0.10151757908E+04  0.34723858844E+04  0.33206749079E+04 0.  0.
        3    1    3    3  502    0 -0.11983177363E+04 -0.48644296642E+03  0.15963724743E+04  0.20545065694E+04  0.10100000352E+00 0. -1.
       -3    1    3    3    0  502  0.11983177363E+04  0.48644296642E+03 -0.58119668348E+03  0.14178793150E+04  0.10100000352E+00 0.  1.
</event>
<event>
 5   0  0.9530268E-07  0.3280790E+04  0.7818609E-02  0.8167801E-01
       -1   -1    0    0    0  501  0.00000000000E+00  0.00000000000E+00  0.16394881504E+04  0.16394881504E+04  0.50400001928E-02 0. -1.
        1   -1    0    0  501    0  0.00000000000E+00  0.00000000000E+00 -0.16413025368E+04  0.16413025368E+04  0.50400001928E-02 0.  1.
    10030    2    1    2    0    0  0.00000000000E+00  0.00000000000E+00 -0.18143864176E+01  0.32807906872E+04  0.32807901855E+04 0.  0.
        5    1    3    3  502    0 -0.38286956818E+03  0.37974126303E+03  0.15483126657E+04  0.16395385735E+04  0.46999998093E+01 0. -1.
       -5    1    3    3    0  502  0.38286956818E+03 -0.37974126303E+03 -0.15501270521E+04  0.16412521137E+04  0.46999998093E+01 0.  1.
</event>
<event>
 5   0  0.2614212E-06  0.3131042E+04  0.7818609E-02  0.8207270E-01
       -2   -1    0    0    0  501  0.00000000000E+00  0.00000000000E+00  0.28643674835E+04  0.28643674835E+04  0.25500000920E-02 0. -1.
        2   -1    0    0  501    0  0.00000000000E+00  0.00000000000E+00 -0.85563616158E+03  0.85563616158E+03  0.25500000920E-02 0.  1.
    10030    2    1    2    0    0  0.00000000000E+00  0.00000000000E+00  0.20087313219E+04  0.37200036451E+04  0.31310422539E+04 0.  0.
        2    1    3    3  502    0 -0.14374075501E+04 -0.41644294206E+03  0.15504945520E+04  0.21549010522E+04  0.25500000920E-02 0. -1.
       -2    1    3    3    0  502  0.14374075501E+04  0.41644294206E+03  0.45823676992E+03  0.15651025929E+04  0.25500000920E-02 0.  1.
</event>
<event>
 5   0  0.8520125E-07  0.3482151E+04  0.7818609E-02  0.8118033E-01
       -3   -1    0    0    0  501  0.00000000000E+00  0.00000000000E+00  0.19951320377E+04  0.19951320403E+04  0.10100000352E+00 0. -1.
        3   -1    0    0  501    0  0.00000000000E+00  0.00000000000E+00 -0.15193697009E+04  0.15193697042E+04  0.10100000352E+00 0.  1.
    10030    2    1    2    0    0  0.00000000000E+00  0.00000000000E+00  0.47576233686E+03  0.35145017446E+04  0.34821505871E+04 0.  0.
        3    1    3    3  502    0  0.42971762928E+03  0.94372662461E+03 -0.11737068560E+04  0.15661625002E+04  0.10100000352E+00 0.  1.
       -3    1    3    3    0  502 -0.42971762928E+03 -0.94372662461E+03  0.16494691928E+04  0.19483392444E+04  0.10100000352E+00 0. -1.
</event>
<event>
 5   0  0.2614212E-06  0.2944255E+04  0.7818609E-02  0.8259831E-01
       -2   -1    0    0    0  501  0.00000000000E+00  0.00000000000E+00  0.14117425552E+04  0.14117425552E+04  0.25500000920E-02 0. -1.
        2   -1    0    0  501    0  0.00000000000E+00  0.00000000000E+00 -0.15350957598E+04  0.15350957598E+04  0.25500000920E-02 0.  1.
    10030    2    1    2    0    0  0.00000000000E+00  0.00000000000E+00 -0.12335320461E+03  0.29468383150E+04  0.29442554308E+04 0.  0.
        2    1    3    3  502    0 -0.11880778039E+04 -0.20043395731E+03  0.78491255967E+03  0.14379813510E+04  0.25500000920E-02 0. -1.
       -2    1    3    3    0  502  0.11880778039E+04  0.20043395731E+03 -0.90826576427E+03  0.15088569641E+04  0.25500000920E-02 0.  1.
</event>
<event>
 5   0  0.9268670E-07  0.3274566E+04  0.7818609E-02  0.8169397E-01
        1   -1    0    0  501    0  0.00000000000E+00  0.00000000000E+00  0.31455961145E+04  0.31455961145E+04  0.50400001928E-02 0.  1.
       -1   -1    0    0    0  501  0.00000000000E+00  0.00000000000E+00 -0.85220604448E+03  0.85220604450E+03  0.50400001928E-02 0. -1.
    10030    2    1    2    0    0  0.00000000000E+00  0.00000000000E+00  0.22933900700E+04  0.39978021590E+04  0.32745662445E+04 0.  0.
        3    1    3    3  502    0  0.41845332017E+03 -0.15340889289E+03  0.30701123791E+04  0.31022939094E+04  0.10100000352E+00 0.  1.
       -3    1    3    3    0  502 -0.41845332017E+03  0.15340889289E+03 -0.77672230907E+03  0.89550824965E+03  0.10100000352E+00 0. -1.
</event>
<event>
 5   0  0.2674551E-06  0.3271450E+04  0.7818609E-02  0.8170198E-01
        2   -1    0    0  501    0  0.00000000000E+00  0.00000000000E+00  0.19912027628E+04  0.19912027628E+04  0.25500000920E-02 0.  1.
       -2   -1    0    0    0  501  0.00000000000E+00  0.00000000000E+00 -0.13437083202E+04  0.13437083202E+04  0.25500000920E-02 0. -1.
    10030    2    1    2    0    0  0.00000000000E+00  0.00000000000E+00  0.64749444259E+03  0.33349110831E+04  0.32714496601E+04 0.  0.
        3    1    3    3  502    0  0.29598404590E+02 -0.28225634432E+03 -0.13184184373E+04  0.13486185137E+04  0.10100000352E+00 0. -1.
       -3    1    3    3    0  502 -0.29598404590E+02  0.28225634432E+03  0.19659128799E+04  0.19862925693E+04  0.10100000352E+00 0.  1.
</event>
<event>
 5   0  0.9295663E-07  0.3151665E+04  0.7818609E-02  0.8201700E-01
        1   -1    0    0  501    0  0.00000000000E+00  0.00000000000E+00  0.18040392259E+04  0.18040392259E+04  0.50400001928E-02 0.  1.
       -1   -1    0    0    0  501  0.00000000000E+00  0.00000000000E+00 -0.13764935786E+04  0.13764935786E+04  0.50400001928E-02 0. -1.
    10030    2    1    2    0    0  0.00000000000E+00  0.00000000000E+00  0.42754564727E+03  0.31805328045E+04  0.31516652170E+04 0.  0.
        4    1    3    3  502    0  0.63504179499E+03 -0.39661687015E+03  0.16130748802E+04  0.17783686921E+04  0.12699999809E+01 0. -1.
       -4    1    3    3    0  502 -0.63504179499E+03  0.39661687015E+03 -0.11855292329E+04  0.14021641124E+04  0.12699999809E+01 0.  1.
</event>
<event>
 5   0  0.8845526E-07  0.3324109E+04  0.7818609E-02  0.8156788E-01
        1   -1    0    0  501    0  0.00000000000E+00  0.00000000000E+00  0.24936032044E+04  0.24936032044E+04  0.50400001928E-02 0.  1.
       -1   -1    0    0    0  501  0.00000000000E+00  0.00000000000E+00 -0.11078045426E+04  0.11078045427E+04  0.50400001928E-02 0. -1.
    10030    2    1    2    0    0  0.00000000000E+00  0.00000000000E+00  0.13857986617E+04  0.36014077470E+04  0.33241088775E+04 0.  0.
        1    1    3    3  502    0  0.14245846470E+04 -0.85354271913E+03  0.76515923444E+03  0.18285090221E+04  0.50400001928E-02 0.  1.
       -1    1    3    3    0  502 -0.14245846470E+04  0.85354271913E+03  0.62063942728E+03  0.17728987249E+04  0.50400001928E-02 0. -1.
</event>
<event>
 5   0  0.2614212E-06  0.3308849E+04  0.7818609E-02  0.8160647E-01
        2   -1    0    0  501    0  0.00000000000E+00  0.00000000000E+00  0.20131323523E+04  0.20131323523E+04  0.25500000920E-02 0.  1.
       -2   -1    0    0    0  501  0.00000000000E+00  0.00000000000E+00 -0.13596327753E+04  0.13596327753E+04  0.25500000920E-02 0. -1.
    10030    2    1    2    0    0  0.00000000000E+00  0.00000000000E+00  0.65349957698E+03  0.33727651277E+04  0.33088491820E+04 0.  0.
        2    1    3    3  502    0  0.16294474115E+04 -0.15251858750E+02  0.61826231150E+03  0.17428653912E+04  0.25500000920E-02 0.  1.
       -2    1    3    3    0  502 -0.16294474115E+04  0.15251858750E+02  0.35237265483E+02  0.16298997365E+04  0.25500000920E-02 0. -1.
</event>
<event>
 5   0  0.9268670E-07  0.3326456E+04  0.7818609E-02  0.8156196E-01
        1   -1    0    0  501    0  0.00000000000E+00  0.00000000000E+00  0.12287418892E+04  0.12287418893E+04  0.50400001928E-02 0.  1.
       -1   -1    0    0    0  501  0.00000000000E+00  0.00000000000E+00 -0.22513492116E+04  0.22513492116E+04  0.50400001928E-02 0. -1.
    10030    2    1    2    0    0  0.00000000000E+00  0.00000000000E+00 -0.10226073224E+04  0.34800911009E+04  0.33264558219E+04 0.  0.
        3    1    3    3  502    0 -0.10357827087E+04  0.13005887974E+04 -0.46510494138E+03  0.17264702883E+04  0.10100000352E+00 0.  1.
       -3    1    3    3    0  502  0.10357827087E+04 -0.13005887974E+04 -0.55750238102E+03  0.17536208127E+04  0.10100000352E+00 0. -1.
</event>
<event>
 5   0  0.2574803E-06  0.3254195E+04  0.7818609E-02  0.8174649E-01
        2   -1    0    0  501    0  0.00000000000E+00  0.00000000000E+00  0.19195193104E+04  0.19195193104E+04  0.25500000920E-02 0. -1.
       -2   -1    0    0    0  501  0.00000000000E+00  0.00000000000E+00 -0.13792239547E+04  0.13792239547E+04  0.25500000920E-02 0.  1.
    10030    2    1    2    0    0  0.00000000000E+00  0.00000000000E+00  0.54029535567E+03  0.32987432651E+04  0.32541954547E+04 0.  0.
        4    1    3    3  502    0  0.33161850179E+03 -0.11591422071E+04  0.13777460152E+04  0.18307832155E+04  0.12699999809E+01 0. -1.
       -4    1    3    3    0  502 -0.33161850179E+03  0.11591422071E+04 -0.83745065950E+03  0.14679600496E+04  0.12699999809E+01 0.  1.
</event>
<event>
 5   0  0.2674551E-06  0.3301107E+04  0.7818609E-02  0.8162614E-01
        2   -1    0    0  501    0  0.00000000000E+00  0.00000000000E+00  0.12735162215E+04  0.12735162215E+04  0.25500000920E-02 0. -1.
       -2   -1    0    0    0  501  0.00000000000E+00  0.00000000000E+00 -0.21392163073E+04  0.21392163073E+04  0.25500000920E-02 0.  1.
    10030    2    1    2    0    0  0.00000000000E+00  0.00000000000E+00 -0.86570008583E+03  0.34127325288E+04  0.33011068863E+04 0.  0.
        3    1    3    3  502    0  0.89405333042E+03  0.11211796541E+04 -0.12777691376E+04  0.19206949663E+04  0.10100000352E+00 0.  1.
       -3    1    3    3    0  502 -0.89405333042E+03 -0.11211796541E+04  0.41206905172E+03  0.14920375626E+04  0.10100000352E+00 0. -1.
</event>
<event>
 5   0  0.2658600E-06  0.3218954E+04  0.7818609E-02  0.8183829E-01
        2   -1    0    0  501    0  0.00000000000E+00  0.00000000000E+00  0.17314608086E+04  0.17314608086E+04  0.25500000920E-02 0. -1.
       -2   -1    0    0    0  501  0.00000000000E+00  0.00000000000E+00 -0.14960875514E+04  0.14960875514E+04  0.25500000920E-02 0.  1.
    10030    2    1    2    0    0  0.00000000000E+00  0.00000000000E+00  0.23537325720E+03  0.32275483601E+04  0.32189544648E+04 0.  0.
        5    1    3    3  502    0 -0.40604720685E+03 -0.11763400034E+04 -0.90569727508E+03  0.15391425476E+04  0.46999998093E+01 0.  1.
       -5    1    3    3    0  502  0.40604720685E+03  0.11763400034E+04  0.11410705323E+04  0.16884058124E+04  0.46999998093E+01 0. -1.
</event>
<event>
 5   0  0.9295663E-07  0.2755657E+04  0.7818609E-02  0.8317169E-01
        1   -1    0    0  501    0  0.00000000000E+00  0.00000000000E+00  0.13375793456E+04  0.13375793456E+04  0.50400001928E-02 0. -1.
       -1   -1    0    0    0  501  0.00000000000E+00  0.00000000000E+00 -0.14192885951E+04  0.14192885951E+04  0.50400001928E-02 0.  1.
    10030    2    1    2    0    0  0.00000000000E+00  0.00000000000E+00 -0.81709249434E+02  0.27568679407E+04  0.27556568076E+04 0.  0.
        4    1    3    3  502    0  0.77840627902E+03 -0.10230450072E+03 -0.11736185547E+04  0.14120073197E+04  0.12699999809E+01 0.  1.
       -4    1    3    3    0  502 -0.77840627902E+03  0.10230450072E+03  0.10919093053E+04  0.13448606210E+04  0.12699999809E+01 0. -1.
</event>
<event>
 5   0  0.9268670E-07  0.2371371E+04  0.7818609E-02  0.8450300E-01
        1   -1    0    0  501    0  0.00000000000E+00  0.00000000000E+00  0.76569858426E+03  0.76569858428E+03  0.50400001928E-02 0. -1.
       -1   -1    0    0    0  501  0.00000000000E+00  0.00000000000E+00 -0.18360362879E+04  0.18360362879E+04  0.50400001928E-02 0.  1.
    10030    2    1    2    0    0  0.00000000000E+00  0.00000000000E+00 -0.10703377036E+04  0.26017348722E+04  0.23713712373E+04 0.  0.
        3    1    3    3  502    0  0.66705909740E+03 -0.70532422110E+03  0.21169533676E+03  0.99361210848E+03  0.10100000352E+00 0. -1.
       -3    1    3    3    0  502 -0.66705909740E+03  0.70532422110E+03 -0.12820330404E+04  0.16081227637E+04  0.10100000352E+00 0.  1.
</event>
<event>
 5   0  0.9530268E-07  0.3292231E+04  0.7818609E-02  0.8164875E-01
        1   -1    0    0  501    0  0.00000000000E+00  0.00000000000E+00  0.14245933357E+04  0.14245933357E+04  0.50400001928E-02 0.  1.
       -1   -1    0    0    0  501  0.00000000000E+00  0.00000000000E+00 -0.19020837442E+04  0.19020837442E+04  0.50400001928E-02 0. -1.
    10030    2    1    2    0    0  0.00000000000E+00  0.00000000000E+00 -0.47749040848E+03  0.33266770799E+04  0.32922307489E+04 0.  0.
        5    1    3    3  502    0  0.14167570967E+04  0.73661591657E+03 -0.64276620808E+03  0.17213291863E+04  0.46999998093E+01 0.  1.
       -5    1    3    3    0  502 -0.14167570967E+04 -0.73661591657E+03  0.16527579960E+03  0.16053478936E+04  0.46999998093E+01 0. -1.
</event>
<event>
 5   0  0.2574803E-06  0.3326774E+04  0.7818609E-02  0.8156116E-01
        2   -1    0    0  501    0  0.00000000000E+00  0.00000000000E+00  0.19231561813E+04  0.19231561813E+04  0.25500000920E-02 0.  1.
       -2   -1    0    0    0  501  0.00000000000E+00  0.00000000000E+00 -0.14387058994E+04  0.14387058994E+04  0.25500000920E-02 0. -1.
    10030    2    1    2    0    0  0.00000000000E+00  0.00000000000E+00  0.48445028184E+03  0.33618620807E+04  0.33267738989E+04 0.  0.
        4    1    3    3  502    0 -0.11271558347E+04 -0.11884549414E+04 -0.50570528200E+02  0.16387386657E+04  0.12699999809E+01 0. -1.
       -4    1    3    3    0  502  0.11271558347E+04  0.11884549414E+04  0.53502081004E+03  0.17231234150E+04  0.12699999809E+01 0.  1.
</event>
<event>
 5   0  0.2705859E-06  0.3107265E+04  0.7818609E-02  0.8213747E-01
        2   -1    0    0  501    0  0.00000000000E+00  0.00000000000E+00  0.11210992579E+04  0.11210992579E+04  0.25500000920E-02 0. -1.
       -2   -1    0    0    0  501  0.00000000000E+00  0.00000000000E+00 -0.21530418519E+04  0.21530418519E+04  0.25500000920E-02 0.  1.
    10030    2    1    2    0    0  0.00000000000E+00  0.00000000000E+00 -0.10319425941E+04  0.32741411098E+04  0.31072647923E+04 0.  0.
        1    1    3    3  502    0  0.35511620294E+03  0.44688676726E+03 -0.20385510186E+04  0.21169566731E+04  0.50400001928E-02 0.  1.
       -1    1    3    3    0  502 -0.35511620294E+03 -0.44688676726E+03  0.10066084245E+04  0.11571844367E+04  0.50400001928E-02 0. -1.
</event>
<event>
 5   0  0.2658600E-06  0.2900568E+04  0.7818609E-02  0.8272709E-01
        2   -1    0    0  501    0  0.00000000000E+00  0.00000000000E+00  0.14593192752E+04  0.14593192752E+04  0.25500000920E-02 0. -1.
       -2   -1    0    0    0  501  0.00000000000E+00  0.00000000000E+00 -0.14413044002E+04  0.14413044002E+04  0.25500000920E-02 0.  1.
    10030    2    1    2    0    0  0.00000000000E+00  0.00000000000E+00  0.18014874998E+02  0.29006236754E+04  0.29005677325E+04 0.  0.
        5    1    3    3  502    0 -0.10219674484E+04  0.50304494995E+03 -0.88868995009E+03  0.14447365174E+04  0.46999998093E+01 0. -1.
       -5    1    3    3    0  502  0.10219674484E+04 -0.50304494995E+03  0.90670482509E+03  0.14558871581E+04  0.46999998093E+01 0.  1.
</event>
<event>
 5   0  0.2574803E-06  0.3256524E+04  0.7818609E-02  0.8174047E-01
        2   -1    0    0  501    0  0.00000000000E+00  0.00000000000E+00  0.10695521915E+04  0.10695521915E+04  0.25500000920E-02 0.  1.
       -2   -1    0    0    0  501  0.00000000000E+00  0.00000000000E+00 -0.24788295740E+04  0.24788295740E+04  0.25500000920E-02 0. -1.
    10030    2    1    2    0    0  0.00000000000E+00  0.00000000000E+00 -0.14092773825E+04  0.35483817654E+04  0.32565242840E+04 0.  0.
        4    1    3    3  502    0  0.30351404017E+01 -0.15310539304E+04 -0.10080633794E+03  0.15343724712E+04  0.12699999809E+01 0.  1.
       -4    1    3    3    0  502 -0.30351404017E+01  0.15310539304E+04 -0.13084710445E+04  0.20140092942E+04  0.12699999809E+01 0. -1.
</event>
<event>
 5   0  0.2614212E-06  0.3178112E+04  0.7818609E-02  0.8194622E-01
        2   -1    0    0  501    0  0.00000000000E+00  0.00000000000E+00  0.24726464934E+04  0.24726464934E+04  0.25500000920E-02 0. -1.
       -2   -1    0    0    0  501  0.00000000000E+00  0.00000000000E+00 -0.10212130265E+04  0.10212130265E+04  0.25500000920E-02 0.  1.
    10030    2    1    2    0    0  0.00000000000E+00  0.00000000000E+00  0.14514334670E+04  0.34938595199E+04  0.31781118979E+04 0.  0.
        2    1    3    3  502    0 -0.79535520329E+03 -0.12175951262E+04  0.14296197610E+04  0.20393480458E+04  0.25500000920E-02 0. -1.
       -2    1    3    3    0  502  0.79535520329E+03  0.12175951262E+04  0.21813705949E+02  0.14545114741E+04  0.25500000920E-02 0.  1.
</event>
<event>
 5   0  0.2658600E-06  0.3310686E+04  0.7818609E-02  0.8160182E-01
        2   -1    0    0  501    0  0.00000000000E+00  0.00000000000E+00  0.17766334594E+04  0.17766334594E+04  0.25500000920E-02 0. -1.
       -2   -1    0    0    0  501  0.00000000000E+00  0.00000000000E+00 -0.15423330957E+04  0.15423330957E+04  0.25500000920E-02 0.  1.
    10030    2    1    2    0    0  0.00000000000E+00  0.00000000000E+00  0.23430036364E+03  0.33189665551E+04  0.33106860820E+04 0.  0.
        5    1    3    3  502    0 -0.14935175562E+04  0.52911415554E+03  0.59749576639E+03  0.16933929730E+04  0.46999998093E+01 0. -1.
       -5    1    3    3    0  502  0.14935175562E+04 -0.52911415554E+03 -0.36319540275E+03  0.16255735821E+04  0.46999998093E+01 0.  1.
</event>
<event>
 5   0  0.2658600E-06  0.3443738E+04  0.7818609E-02  0.8127254E-01
       -2   -1    0    0    0  501  0.00000000000E+00  0.00000000000E+00  0.12176393674E+04  0.12176393674E+04  0.25500000920E-02 0.  1.
        2   -1    0    0  501    0  0.00000000000E+00  0.00000000000E+00 -0.24349018605E+04  0.24349018605E+04  0.25500000920E-02 0. -1.
    10030    2    1    2    0    0  0.00000000000E+00  0.00000000000E+00 -0.12172624931E+04  0.36525412278E+04  0.34437377142E+04 0.  0.
        5    1    3    3  502    0  0.26457788040E+03  0.16837543182E+04 -0.86795588785E+03  0.19126943227E+04  0.46999998093E+01 0. -1.
       -5    1    3    3    0  502 -0.26457788040E+03 -0.16837543182E+04 -0.34930660524E+03  0.17398469051E+04  0.46999998093E+01 0.  1.
</event>
<event>
 5   0  0.8705956E-07  0.3344817E+04  0.7818609E-02  0.8151584E-01
       -1   -1    0    0    0  501  0.00000000000E+00  0.00000000000E+00  0.17644816164E+04  0.17644816164E+04  0.50400001928E-02 0. -1.
        1   -1    0    0  501    0  0.00000000000E+00  0.00000000000E+00 -0.15851399256E+04  0.15851399256E+04  0.50400001928E-02 0.  1.
    10030    2    1    2    0    0  0.00000000000E+00  0.00000000000E+00  0.17934169083E+03  0.33496215420E+04  0.33448170403E+04 0.  0.
        2    1    3    3  502    0 -0.46013085423E+02 -0.15802445553E+04  0.63603696169E+03  0.17040636946E+04  0.25500000920E-02 0.  1.
       -2    1    3    3    0  502  0.46013085423E+02  0.15802445553E+04 -0.45669527086E+03  0.16455578474E+04  0.25500000920E-02 0. -1.
</event>
<event>
 5   0  0.8705956E-07  0.3210378E+04  0.7818609E-02  0.8186082E-01
       -1   -1    0    0    0  501  0.00000000000E+00  0.00000000000E+00  0.11990658292E+04  0.11990658292E+04  0.50400001928E-02 0.  1.
        1   -1    0    0  501    0  0.00000000000E+00  0.00000000000E+00 -0.21488657538E+04  0.21488657538E+04  0.50400001928E-02 0. -1.
    10030    2    1    2    0    0  0.00000000000E+00  0.00000000000E+00 -0.94979992453E+03  0.33479315830E+04  0.32103778575E+04 0.  0.
        2    1    3    3  502    0  0.10920596955E+04 -0.10039431800E+04 -0.11144763440E+04  0.18554120320E+04  0.25500000920E-02 0.  1.
       -2    1    3    3    0  502 -0.10920596955E+04  0.10039431800E+04  0.16467641943E+03  0.14925195510E+04  0.25500000920E-02 0. -1.
</event>
<event>
 5   0  0.8705956E-07  0.3174257E+04  0.7818609E-02  0.8195649E-01
       -1   -1    0    0    0  501  0.00000000000E+00  0.00000000000E+00  0.15185829066E+04  0.15185829066E+04  0.50400001928E-02 0. -1.
        1   -1    0    0  501    0  0.00000000000E+00  0.00000000000E+00 -0.16587682798E+04  0.16587682798E+04  0.50400001928E-02 0.  1.
    10030    2    1    2    0    0  0.00000000000E+00  0.00000000000E+00 -0.14018537320E+03  0.31773511864E+04  0.31742571766E+04 0.  0.
        2    1    3    3  502    0  0.11997537116E+04  0.34589170306E+03  0.91062100660E+03  0.15454063079E+04  0.25500000920E-02 0. -1.
       -2    1    3    3    0  502 -0.11997537116E+04 -0.34589170306E+03 -0.10508063798E+04  0.16319448786E+04  0.25500000920E-02 0.  1.
</event>
<event>
 5   0  0.9530268E-07  0.3305826E+04  0.7818609E-02  0.8161414E-01
        1   -1    0    0  501    0  0.00000000000E+00  0.00000000000E+00  0.18664376834E+04  0.18664376834E+04  0.50400001928E-02 0.  1.
       -1   -1    0    0    0  501  0.00000000000E+00  0.00000000000E+00 -0.14638164484E+04  0.14638164484E+04  0.50400001928E-02 0. -1.
    10030    2    1    2    0    0  0.00000000000E+00  0.00000000000E+00  0.40262123506E+03  0.33302541318E+04  0.33058264812E+04 0.  0.
        5    1    3    3  502    0  0.12668938130E+04  0.75001528517E+03  0.95823293110E+03  0.17566374986E+04  0.46999998093E+01 0.  1.
       -5    1    3    3    0  502 -0.12668938130E+04 -0.75001528517E+03 -0.55561169604E+03  0.15736166332E+04  0.46999998093E+01 0. -1.
</event>
<event>
 5   0  0.2674551E-06  0.3261248E+04  0.7818609E-02  0.8172826E-01
        2   -1    0    0  501    0  0.00000000000E+00  0.00000000000E+00  0.22748466278E+04  0.22748466278E+04  0.25500000920E-02 0. -1.
       -2   -1    0    0    0  501  0.00000000000E+00  0.00000000000E+00 -0.11688411446E+04  0.11688411447E+04  0.25500000920E-02 0.  1.
    10030    2    1    2    0    0  0.00000000000E+00  0.00000000000E+00  0.11060054831E+04  0.34436877724E+04  0.32612478203E+04 0.  0.
        3    1    3    3  502    0 -0.42751026955E+03  0.15083133683E+04  0.79403645333E+02  0.15697385759E+04  0.10100000352E+00 0. -1.
       -3    1    3    3    0  502  0.42751026955E+03 -0.15083133683E+04  0.10266018378E+04  0.18739491965E+04  0.10100000352E+00 0.  1.
</event>
<event>
 5   0  0.8845526E-07  0.3393780E+04  0.7818609E-02  0.8139435E-01
       -1   -1    0    0    0  501  0.00000000000E+00  0.00000000000E+00  0.11109906352E+04  0.11109906352E+04  0.50400001928E-02 0. -1.
        1   -1    0    0  501    0  0.00000000000E+00  0.00000000000E+00 -0.25917724762E+04  0.25917724762E+04  0.50400001928E-02 0.  1.
    10030    2    1    2    0    0  0.00000000000E+00  0.00000000000E+00 -0.14807818410E+04  0.37027631114E+04  0.33937795742E+04 0.  0.
        1    1    3    3  502    0 -0.72821019139E+02  0.36128704982E+03  0.10667956399E+04  0.11286647733E+04  0.50400001928E-02 0. -1.
       -1    1    3    3    0  502  0.72821019139E+02 -0.36128704982E+03 -0.25475774809E+04  0.25740983381E+04  0.50400001928E-02 0.  1.
</event>
<event>
 5   0  0.8705956E-07  0.3293661E+04  0.7818609E-02  0.8164510E-01
       -1   -1    0    0    0  501  0.00000000000E+00  0.00000000000E+00  0.20460567998E+04  0.20460567998E+04  0.50400001928E-02 0. -1.
        1   -1    0    0  501    0  0.00000000000E+00  0.00000000000E+00 -0.13255014226E+04  0.13255014227E+04  0.50400001928E-02 0.  1.
    10030    2    1    2    0    0  0.00000000000E+00  0.00000000000E+00  0.72055537715E+03  0.33715582225E+04  0.32936613056E+04 0.  0.
        2    1    3    3  502    0  0.29044550858E+03 -0.56118036251E+03 -0.11964687262E+04  0.13530777530E+04  0.25500000920E-02 0.  1.
       -2    1    3    3    0  502 -0.29044550858E+03  0.56118036251E+03  0.19170241034E+04  0.20184804695E+04  0.25500000920E-02 0. -1.
</event>
<event>
 5   0  0.9530268E-07  0.3284936E+04  0.7818609E-02  0.8166739E-01
       -1   -1    0    0    0  501  0.00000000000E+00  0.00000000000E+00  0.14685222574E+04  0.14685222574E+04  0.50400001928E-02 0. -1.
        1   -1    0    0  501    0  0.00000000000E+00  0.00000000000E+00 -0.18370179271E+04  0.18370179271E+04  0.50400001928E-02 0.  1.
    10030    2    1    2    0    0  0.00000000000E+00  0.00000000000E+00 -0.36849566972E+03  0.33055401846E+04  0.32849363545E+04 0.  0.
        5    1    3    3  502    0  0.13929555687E+03 -0.93630611445E+03  0.11664106145E+04  0.15022011196E+04  0.46999998093E+01 0. -1.
       -5    1    3    3    0  502 -0.13929555687E+03  0.93630611445E+03 -0.15349062842E+04  0.18033390650E+04  0.46999998093E+01 0.  1.
</event>
<event>
 5   0  0.2614212E-06  0.2584023E+04  0.7818609E-02  0.8373649E-01
        2   -1    0    0  501    0  0.00000000000E+00  0.00000000000E+00  0.18968459215E+04  0.18968459215E+04  0.25500000920E-02 0.  1.
       -2   -1    0    0    0  501  0.00000000000E+00  0.00000000000E+00 -0.88003632663E+03  0.88003632664E+03  0.25500000920E-02 0. -1.
    10030    2    1    2    0    0  0.00000000000E+00  0.00000000000E+00  0.10168095949E+04  0.27768822482E+04  0.25840226911E+04 0.  0.
        2    1    3    3  502    0 -0.55864614078E+03 -0.98349765246E+03 -0.16265331621E+03  0.11427201076E+04  0.25500000920E-02 0. -1.
       -2    1    3    3    0  502  0.55864614078E+03  0.98349765246E+03  0.11794629111E+04  0.16341621406E+04  0.25500000920E-02 0.  1.
</event>
<event>
 5   0  0.2574803E-06  0.3240495E+04  0.7818609E-02  0.8178204E-01
        2   -1    0    0  501    0  0.00000000000E+00  0.00000000000E+00  0.14938582590E+04  0.14938582590E+04  0.25500000920E-02 0. -1.
       -2   -1    0    0    0  501  0.00000000000E+00  0.00000000000E+00 -0.17573300863E+04  0.17573300863E+04  0.25500000920E-02 0.  1.
    10030    2    1    2    0    0  0.00000000000E+00  0.00000000000E+00 -0.26347182731E+03  0.32511883453E+04  0.32404950629E+04 0.  0.
        4    1    3    3  502    0  0.38771207603E+03 -0.18018147639E+03  0.14362438164E+04  0.14985272541E+04  0.12699999809E+01 0. -1.
       -4    1    3    3    0  502 -0.38771207603E+03  0.18018147639E+03 -0.16997156437E+04  0.17526610912E+04  0.12699999809E+01 0.  1.
</event>
<event>
 5   0  0.9268670E-07  0.3307948E+04  0.7818609E-02  0.8160876E-01
        1   -1    0    0  501    0  0.00000000000E+00  0.00000000000E+00  0.23023152695E+04  0.23023152695E+04  0.50400001928E-02 0.  1.
       -1   -1    0    0    0  501  0.00000000000E+00  0.00000000000E+00 -0.11882079602E+04  0.11882079602E+04  0.50400001928E-02 0. -1.
    10030    2    1    2    0    0  0.00000000000E+00  0.00000000000E+00  0.11141073093E+04  0.34905232297E+04  0.33079475995E+04 0.  0.
        3    1    3    3  502    0  0.18700333141E+03  0.16109810743E+04  0.89962439322E+03  0.18546035498E+04  0.10100000352E+00 0.  1.
       -3    1    3    3    0  502 -0.18700333141E+03 -0.16109810743E+04  0.21448291606E+03  0.16359196800E+04  0.10100000352E+00 0. -1.
</event>
<event>
 5   0  0.2614212E-06  0.3300454E+04  0.7818609E-02  0.8162780E-01
        2   -1    0    0  501    0  0.00000000000E+00  0.00000000000E+00  0.13239332527E+04  0.13239332527E+04  0.25500000920E-02 0. -1.
       -2   -1    0    0    0  501  0.00000000000E+00  0.00000000000E+00 -0.20569389212E+04  0.20569389212E+04  0.25500000920E-02 0.  1.
    10030    2    1    2    0    0  0.00000000000E+00  0.00000000000E+00 -0.73300566844E+03  0.33808721739E+04  0.33004544151E+04 0.  0.
        2    1    3    3  502    0  0.11161839996E+04  0.58556496769E+03  0.72457729583E+03  0.14538794001E+04  0.25500000920E-02 0. -1.
       -2    1    3    3    0  502 -0.11161839996E+04 -0.58556496769E+03 -0.14575829643E+04  0.19269927738E+04  0.25500000920E-02 0.  1.
</event>
<event>
 5   0  0.9530268E-07  0.3170111E+04  0.7818609E-02  0.8196756E-01
       -1   -1    0    0    0  501  0.00000000000E+00  0.00000000000E+00  0.22418717506E+04  0.22418717506E+04  0.50400001928E-02 0. -1.
        1   -1    0    0  501    0  0.00000000000E+00  0.00000000000E+00 -0.11206713014E+04  0.11206713014E+04  0.50400001928E-02 0.  1.
    10030    2    1    2    0    0  0.00000000000E+00  0.00000000000E+00  0.11212004492E+04  0.33625430520E+04  0.31701112487E+04 0.  0.
        5    1    3    3  502    0  0.41206566326E+03  0.13564059658E+04  0.13126849926E+04  0.19320453501E+04  0.46999998093E+01 0. -1.
       -5    1    3    3    0  502 -0.41206566326E+03 -0.13564059658E+04 -0.19148454344E+03  0.14304977019E+04  0.46999998093E+01 0.  1.
</event>
<event>
 5   0  0.9295663E-07  0.3287324E+04  0.7818609E-02  0.8166128E-01
       -1   -1    0    0    0  501  0.00000000000E+00  0.00000000000E+00  0.13220907383E+04  0.13220907383E+04  0.50400001928E-02 0.  1.
        1   -1    0    0  501    0  0.00000000000E+00  0.00000000000E+00 -0.20434489519E+04  0.20434489519E+04  0.50400001928E-02 0. -1.
    10030    2    1    2    0    0  0.00000000000E+00  0.00000000000E+00 -0.72135821352E+03  0.33655396902E+04  0.32873240994E+04 0.  0.
        4    1    3    3  502    0  0.34343788934E+03  0.12062548437E+04 -0.14483227830E+04  0.19158916536E+04  0.12699999809E+01 0. -1.
       -4    1    3    3    0  502 -0.34343788934E+03 -0.12062548437E+04  0.72696456951E+03  0.14496480366E+04  0.12699999809E+01 0.  1.
</event>
<event>
 5   0  0.8705956E-07  0.3323741E+04  0.7818609E-02  0.8156881E-01
       -1   -1    0    0    0  501  0.00000000000E+00  0.00000000000E+00  0.18283955866E+04  0.18283955866E+04  0.50400001928E-02 0. -1.
        1   -1    0    0  501    0  0.00000000000E+00  0.00000000000E+00 -0.15105123070E+04  0.15105123070E+04  0.50400001928E-02 0.  1.
    10030    2    1    2    0    0  0.00000000000E+00  0.00000000000E+00  0.31788327968E+03  0.33389078936E+04  0.33237412869E+04 0.  0.
        2    1    3    3  502    0 -0.71660848170E+02 -0.14990893568E+04  0.87592800998E+03  0.17377151825E+04  0.25500000920E-02 0. -1.
       -2    1    3    3    0  502  0.71660848170E+02  0.14990893568E+04 -0.55804473031E+03  0.16011927111E+04  0.25500000920E-02 0.  1.
</event>
<event>
 5   0  0.9530268E-07  0.3133252E+04  0.7818609E-02  0.8206671E-01
       -1   -1    0    0    0  501  0.00000000000E+00  0.00000000000E+00  0.13977129494E+04  0.13977129494E+04  0.50400001928E-02 0. -1.
        1   -1    0    0  501    0  0.00000000000E+00  0.00000000000E+00 -0.17559516786E+04  0.17559516786E+04  0.50400001928E-02 0.  1.
    10030    2    1    2    0    0  0.00000000000E+00  0.00000000000E+00 -0.35823872920E+03  0.31536646280E+04  0.31332516016E+04 0.  0.
        5    1    3    3  502    0  0.11115250711E+04 -0.89143861545E+03 -0.83462534066E+03  0.16512941404E+04  0.46999998093E+01 0.  1.
       -5    1    3    3    0  502 -0.11115250711E+04  0.89143861545E+03  0.47638661146E+03  0.15023704877E+04  0.46999998093E+01 0. -1.
</event>
<event>
 5   0  0.8845526E-07  0.2727642E+04  0.7818609E-02  0.8326091E-01
        1   -1    0    0  501    0  0.00000000000E+00  0.00000000000E+00  0.15948348468E+04  0.15948348468E+04  0.50400001928E-02 0.  1.
       -1   -1    0    0    0  501  0.00000000000E+00  0.00000000000E+00 -0.11662699065E+04  0.11662699065E+04  0.50400001928E-02 0. -1.
    10030    2    1    2    0    0  0.00000000000E+00  0.00000000000E+00  0.42856494030E+03  0.27611047534E+04  0.27276421230E+04 0.  0.
        1    1    3    3  502    0 -0.95206173712E+03 -0.96269675668E+03  0.48563069861E+02  0.13548302360E+04  0.50400001928E-02 0. -1.
       -1    1    3    3    0  502  0.95206173712E+03  0.96269675668E+03  0.38000187044E+03  0.14062745174E+04  0.50400001928E-02 0.  1.
</event>
<event>
 5   0  0.2674551E-06  0.3204004E+04  0.7818609E-02  0.8187760E-01
        2   -1    0    0  501    0  0.00000000000E+00  0.00000000000E+00  0.20971313849E+04  0.20971313849E+04  0.25500000920E-02 0.  1.
       -2   -1    0    0    0  501  0.00000000000E+00  0.00000000000E+00 -0.12237721646E+04  0.12237721646E+04  0.25500000920E-02 0. -1.
    10030    2    1    2    0    0  0.00000000000E+00  0.00000000000E+00  0.87335922029E+03  0.33209035495E+04  0.32040043785E+04 0.  0.
        3    1    3    3  502    0 -0.99646177313E+03 -0.70052631082E+03 -0.64183197925E+03  0.13768157020E+04  0.10100000352E+00 0. -1.
       -3    1    3    3    0  502  0.99646177313E+03  0.70052631082E+03  0.15151911995E+04  0.19440878475E+04  0.10100000352E+00 0.  1.
</event>
<event>
 5   0  0.2674551E-06  0.3251898E+04  0.7818609E-02  0.8175244E-01
        2   -1    0    0  501    0  0.00000000000E+00  0.00000000000E+00  0.21545366633E+04  0.21545366633E+04  0.25500000920E-02 0.  1.
       -2   -1    0    0    0  501  0.00000000000E+00  0.00000000000E+00 -0.12270433638E+04  0.12270433638E+04  0.25500000920E-02 0. -1.
    10030    2    1    2    0    0  0.00000000000E+00  0.00000000000E+00  0.92749329949E+03  0.33815800272E+04  0.32518978550E+04 0.  0.
        3    1    3    3  502    0  0.29477020830E+03 -0.15986606339E+04  0.49830767106E+03  0.17002693444E+04  0.10100000352E+00 0. -1.
       -3    1    3    3    0  502 -0.29477020830E+03  0.15986606339E+04  0.42918562843E+03  0.16813106828E+04  0.10100000352E+00 0.  1.
</event>
<event>
 5   0  0.9530268E-07  0.3308608E+04  0.7818609E-02  0.8160708E-01
       -1   -1    0    0    0  501  0.00000000000E+00  0.00000000000E+00  0.12405513638E+04  0.12405513638E+04  0.50400001928E-02 0. -1.
        1   -1    0    0  501    0  0.00000000000E+00  0.00000000000E+00 -0.22060532966E+04  0.22060532966E+04  0.50400001928E-02 0.  1.
    10030    2    1    2    0    0  0.00000000000E+00  0.00000000000E+00 -0.96550193282E+03  0.34466046604E+04  0.33086084239E+04 0.  0.
        5    1    3    3  502    0  0.15451209238E+03  0.85951921467E+03 -0.19463614500E+04  0.21333054753E+04  0.46999998093E+01 0.  1.
       -5    1    3    3    0  502 -0.15451209238E+03 -0.85951921467E+03  0.98085951717E+03  0.13132991851E+04  0.46999998093E+01 0. -1.
</event>
<event>
 5   0  0.9268670E-07  0.3388554E+04  0.7818609E-02  0.8140721E-01
        1   -1    0    0  501    0  0.00000000000E+00  0.00000000000E+00  0.23556618967E+04  0.23556618967E+04  0.50400001928E-02 0.  1.
       -1   -1    0    0    0  501  0.00000000000E+00  0.00000000000E+00 -0.12185854775E+04  0.12185854775E+04  0.50400001928E-02 0. -1.
    10030    2    1    2    0    0  0.00000000000E+00  0.00000000000E+00  0.11370764192E+04  0.35742473742E+04  0.33885544866E+04 0.  0.
        3    1    3    3  502    0 -0.69686838964E+03  0.37825472404E+03  0.21478782792E+04  0.22895596304E+04  0.10100000352E+00 0.  1.
       -3    1    3    3    0  502  0.69686838964E+03 -0.37825472404E+03 -0.10108018600E+04  0.12846877438E+04  0.10100000352E+00 0. -1.
</event>
<event>
 5   0  0.9268670E-07  0.3312658E+04  0.7818609E-02  0.8159682E-01
       -1   -1    0    0    0  501  0.00000000000E+00  0.00000000000E+00  0.13770592441E+04  0.13770592442E+04  0.50400001928E-02 0. -1.
        1   -1    0    0  501    0  0.00000000000E+00  0.00000000000E+00 -0.19922352311E+04  0.19922352311E+04  0.50400001928E-02 0.  1.
    10030    2    1    2    0    0  0.00000000000E+00  0.00000000000E+00 -0.61517598692E+03  0.33692944752E+04  0.33126581118E+04 0.  0.
        3    1    3    3  502    0 -0.96663820545E+02 -0.15601435303E+04 -0.86470669307E+03  0.17863676566E+04  0.10100000352E+00 0. -1.
       -3    1    3    3    0  502  0.96663820545E+02  0.15601435303E+04  0.24953070615E+03  0.15829268186E+04  0.10100000352E+00 0.  1.
</event>
<event>
 5   0  0.2614212E-06  0.3352039E+04  0.7818609E-02  0.8149779E-01
        2   -1    0    0  501    0  0.00000000000E+00  0.00000000000E+00  0.18838743256E+04  0.18838743256E+04  0.25500000920E-02 0. -1.
       -2   -1    0    0    0  501  0.00000000000E+00  0.00000000000E+00 -0.14910979402E+04  0.14910979402E+04  0.25500000920E-02 0.  1.
    10030    2    1    2    0    0  0.00000000000E+00  0.00000000000E+00  0.39277638542E+03  0.33749722658E+04  0.33520388580E+04 0.  0.
        2    1    3    3  502    0 -0.12600908942E+04  0.87161936864E+03 -0.48759137822E+03  0.16078851755E+04  0.25500000920E-02 0.  1.
       -2    1    3    3    0  502  0.12600908942E+04 -0.87161936864E+03  0.88036776364E+03  0.17670870903E+04  0.25500000920E-02 0. -1.
</event>
<event>
 5   0  0.2614212E-06  0.2825715E+04  0.7818609E-02  0.8295329E-01
        2   -1    0    0  501    0  0.00000000000E+00  0.00000000000E+00  0.24003439580E+04  0.24003439580E+04  0.25500000920E-02 0.  1.
       -2   -1    0    0    0  501  0.00000000000E+00  0.00000000000E+00 -0.83161672370E+03  0.83161672371E+03  0.25500000920E-02 0. -1.
    10030    2    1    2    0    0  0.00000000000E+00  0.00000000000E+00  0.15687272343E+04  0.32319606817E+04  0.28257149029E+04 0.  0.
        2    1    3    3  502    0  0.51084179255E+02  0.68494859709E+03 -0.62780801198E+03  0.93054128008E+03  0.25500000920E-02 0. -1.
       -2    1    3    3    0  502 -0.51084179255E+02 -0.68494859709E+03  0.21965352463E+04  0.23014194016E+04  0.25500000920E-02 0.  1.
</event>
<event>
 5   0  0.9295663E-07  0.3102958E+04  0.7818609E-02  0.8214927E-01
        1   -1    0    0  501    0  0.00000000000E+00  0.00000000000E+00  0.17046886516E+04  0.17046886516E+04  0.50400001928E-02 0. -1.
       -1   -1    0    0    0  501  0.00000000000E+00  0.00000000000E+00 -0.14120388655E+04  0.14120388655E+04  0.50400001928E-02 0.  1.
    10030    2    1    2    0    0  0.00000000000E+00  0.00000000000E+00  0.29264978611E+03  0.31167275171E+04  0.31029577049E+04 0.  0.
        4    1    3    3  502    0 -0.97897517217E+03 -0.10047281026E+04  0.81199813637E+03  0.16208681421E+04  0.12699999809E+01 0. -1.
       -4    1    3    3    0  502  0.97897517217E+03  0.10047281026E+04 -0.51934835026E+03  0.14958593749E+04  0.12699999809E+01 0.  1.
</event>
<event>
 5   0  0.2705859E-06  0.3045070E+04  0.7818609E-02  0.8230977E-01
        2   -1    0    0  501    0  0.00000000000E+00  0.00000000000E+00  0.12031185113E+04  0.12031185113E+04  0.25500000920E-02 0.  1.
       -2   -1    0    0    0  501  0.00000000000E+00  0.00000000000E+00 -0.19267540263E+04  0.19267540263E+04  0.25500000920E-02 0. -1.
    10030    2    1    2    0    0  0.00000000000E+00  0.00000000000E+00 -0.72363551497E+03  0.31298725376E+04  0.30450704003E+04 0.  0.
        1    1    3    3  502    0  0.38599720923E+03  0.29371942508E+03  0.11215818289E+04  0.12219700263E+04  0.50400001928E-02 0.  1.
       -1    1    3    3    0  502 -0.38599720923E+03 -0.29371942508E+03 -0.18452173439E+04  0.19079025113E+04  0.50400001928E-02 0. -1.
</event>
<event>
 5   0  0.2658600E-06  0.3281009E+04  0.7818609E-02  0.8167745E-01
       -2   -1    0    0    0  501  0.00000000000E+00  0.00000000000E+00  0.20851740052E+04  0.20851740052E+04  0.25500000920E-02 0.  1.
        2   -1    0    0  501    0  0.00000000000E+00  0.00000000000E+00 -0.12906618277E+04  0.12906618277E+04  0.25500000920E-02 0. -1.
    10030    2    1    2    0    0  0.00000000000E+00  0.00000000000E+00  0.79451217749E+03  0.33758358330E+04  0.32810086819E+04 0.  0.
        5    1    3    3  502    0  0.85297309484E+03 -0.12998114029E+04  0.93599169900E+03  0.18147108128E+04  0.46999998093E+01 0.  1.
       -5    1    3    3    0  502 -0.85297309484E+03  0.12998114029E+04 -0.14147952151E+03  0.15611250202E+04  0.46999998093E+01 0. -1.
</event>
<event>
 5   0  0.2658600E-06  0.3305584E+04  0.7818609E-02  0.8161476E-01
       -2   -1    0    0    0  501  0.00000000000E+00  0.00000000000E+00  0.11896796018E+04  0.11896796018E+04  0.25500000920E-02 0.  1.
        2   -1    0    0  501    0  0.00000000000E+00  0.00000000000E+00 -0.22961821780E+04  0.22961821780E+04  0.25500000920E-02 0. -1.
    10030    2    1    2    0    0  0.00000000000E+00  0.00000000000E+00 -0.11065025762E+04  0.34858617798E+04  0.33055838208E+04 0.  0.
        5    1    3    3  502    0  0.85334612073E+03  0.22091728673E+03 -0.20276043124E+04  0.22109286255E+04  0.46999998093E+01 0. -1.
       -5    1    3    3    0  502 -0.85334612073E+03 -0.22091728673E+03  0.92110173620E+03  0.12749331542E+04  0.46999998093E+01 0.  1.
</event>
<event>
 5   0  0.2614212E-06  0.2982177E+04  0.7818609E-02  0.8248839E-01
        2   -1    0    0  501    0  0.00000000000E+00  0.00000000000E+00  0.30093907710E+04  0.30093907710E+04  0.25500000920E-02 0.  1.
       -2   -1    0    0    0  501  0.00000000000E+00  0.00000000000E+00 -0.73880223864E+03  0.73880223865E+03  0.25500000920E-02 0. -1.
    10030    2    1    2    0    0  0.00000000000E+00  0.00000000000E+00  0.22705885324E+04  0.37481930097E+04  0.29821768147E+04 0.  0.
        2    1    3    3  502    0  0.63928130216E+03 -0.30227072266E+03 -0.51464726942E+03  0.87459132456E+03  0.25500000920E-02 0. -1.
       -2    1    3    3    0  502 -0.63928130216E+03  0.30227072266E+03  0.27852358018E+04  0.28736016851E+04  0.25500000920E-02 0.  1.
</event>
<event>
 5   0  0.8520125E-07  0.3112858E+04  0.7818609E-02  0.8212218E-01
       -3   -1    0    0    0  501  0.00000000000E+00  0.00000000000E+00  0.12503341261E+04  0.12503341302E+04  0.10100000352E+00 0.  1.
        3   -1    0    0  501    0  0.00000000000E+00  0.00000000000E+00 -0.19374596560E+04  0.19374596587E+04  0.10100000352E+00 0. -1.
    10030    2    1    2    0    0  0.00000000000E+00  0.00000000000E+00 -0.68712552995E+03  0.31877937888E+04  0.31128584527E+04 0.  0.
        4    1    3    3  502    0 -0.14169899943E+04  0.62245433088E+03 -0.51233383935E+03  0.16302753184E+04  0.12699999809E+01 0. -1.
       -4    1    3    3    0  502  0.14169899943E+04 -0.62245433088E+03 -0.17479169060E+03  0.15575184705E+04  0.12699999809E+01 0.  1.
</event>
<event>
 5   0  0.2674551E-06  0.3274137E+04  0.7818609E-02  0.8169507E-01
        2   -1    0    0  501    0  0.00000000000E+00  0.00000000000E+00  0.21819888368E+04  0.21819888368E+04  0.25500000920E-02 0. -1.
       -2   -1    0    0    0  501  0.00000000000E+00  0.00000000000E+00 -0.12282344921E+04  0.12282344921E+04  0.25500000920E-02 0.  1.
    10030    2    1    2    0    0  0.00000000000E+00  0.00000000000E+00  0.95375434464E+03  0.34102233289E+04  0.32741374136E+04 0.  0.
        3    1    3    3  502    0 -0.16260062911E+04 -0.62651481631E+02  0.66369864739E+03  0.17573609679E+04  0.10100000352E+00 0. -1.
       -3    1    3    3    0  502  0.16260062911E+04  0.62651481631E+02  0.29005569724E+03  0.16528623610E+04  0.10100000352E+00 0.  1.
</event>
<event>
 5   0  0.9268670E-07  0.2703938E+04  0.7818609E-02  0.8333728E-01
        1   -1    0    0  501    0  0.00000000000E+00  0.00000000000E+00  0.19626072495E+04  0.19626072495E+04  0.50400001928E-02 0. -1.
       -1   -1    0    0    0  501  0.00000000000E+00  0.00000000000E+00 -0.93132224180E+03  0.93132224181E+03  0.50400001928E-02 0.  1.
    10030    2    1    2    0    0  0.00000000000E+00  0.00000000000E+00  0.10312850077E+04  0.28939294913E+04  0.27039377089E+04 0.  0.
        3    1    3    3  502    0  0.12771520193E+04  0.11684414373E+03  0.97354821189E+03  0.16101447032E+04  0.10100000352E+00 0. -1.
       -3    1    3    3    0  502 -0.12771520193E+04 -0.11684414373E+03  0.57736795777E+02  0.12837847881E+04  0.10100000352E+00 0.  1.
</event>
<event>
 5   0  0.2574803E-06  0.3221863E+04  0.7818609E-02  0.8183067E-01
       -2   -1    0    0    0  501  0.00000000000E+00  0.00000000000E+00  0.96080546710E+03  0.96080546711E+03  0.25500000920E-02 0.  1.
        2   -1    0    0  501    0  0.00000000000E+00  0.00000000000E+00 -0.27009632724E+04  0.27009632724E+04  0.25500000920E-02 0. -1.
    10030    2    1    2    0    0  0.00000000000E+00  0.00000000000E+00 -0.17401578053E+04  0.36617687395E+04  0.32218629882E+04 0.  0.
        4    1    3    3  502    0 -0.83621575725E+03 -0.92467653762E+03  0.28942082913E+03  0.12798630869E+04  0.12699999809E+01 0.  1.
       -4    1    3    3    0  502  0.83621575725E+03  0.92467653762E+03 -0.20295786345E+04  0.23819056527E+04  0.12699999809E+01 0. -1.
</event>
<event>
 5   0  0.8705956E-07  0.3301076E+04  0.7818609E-02  0.8162622E-01
       -1   -1    0    0    0  501  0.00000000000E+00  0.00000000000E+00  0.12876162444E+04  0.12876162444E+04  0.50400001928E-02 0. -1.
        1   -1    0    0  501    0  0.00000000000E+00  0.00000000000E+00 -0.21157511719E+04  0.21157511719E+04  0.50400001928E-02 0.  1.
    10030    2    1    2    0    0  0.00000000000E+00  0.00000000000E+00 -0.82813492755E+03  0.34033674163E+04  0.33010759325E+04 0.  0.
        2    1    3    3  502    0  0.26647506879E+03 -0.13143003290E+04 -0.14061115433E+04  0.19430759093E+04  0.25500000920E-02 0.  1.
       -2    1    3    3    0  502 -0.26647506879E+03  0.13143003290E+04  0.57797661577E+03  0.14602915070E+04  0.25500000920E-02 0. -1.
</event>
<event>
 5   0  0.8845526E-07  0.3299175E+04  0.7818609E-02  0.8163105E-01
        1   -1    0    0  501    0  0.00000000000E+00  0.00000000000E+00  0.12439628123E+04  0.12439628123E+04  0.50400001928E-02 0.  1.
       -1   -1    0    0    0  501  0.00000000000E+00  0.00000000000E+00 -0.21874756054E+04  0.21874756054E+04  0.50400001928E-02 0. -1.
    10030    2    1    2    0    0  0.00000000000E+00  0.00000000000E+00 -0.94351279315E+03  0.34314384177E+04  0.32991746276E+04 0.  0.
        1    1    3    3  502    0 -0.15559199183E+04 -0.37349380642E+03 -0.88877137206E+03  0.18303821917E+04  0.50400001928E-02 0. -1.
       -1    1    3    3    0  502  0.15559199183E+04  0.37349380642E+03 -0.54741421086E+02  0.16010562260E+04  0.50400001928E-02 0.  1.
</event>
<event>
 5   0  0.2658600E-06  0.3169146E+04  0.7818609E-02  0.8197014E-01
        2   -1    0    0  501    0  0.00000000000E+00  0.00000000000E+00  0.20915190560E+04  0.20915190560E+04  0.25500000920E-02 0. -1.
       -2   -1    0    0    0  501  0.00000000000E+00  0.00000000000E+00 -0.12005010628E+04  0.12005010628E+04  0.25500000920E-02 0.  1.
    10030    2    1    2    0    0  0.00000000000E+00  0.00000000000E+00  0.89101799324E+03  0.32920201188E+04  0.31691455312E+04 0.  0.
        5    1    3    3  502    0  0.12559081624E+04 -0.55016612479E+03  0.12705718385E+04  0.18693215250E+04  0.46999998093E+01 0. -1.
       -5    1    3    3    0  502 -0.12559081624E+04  0.55016612479E+03 -0.37955384526E+03  0.14226985937E+04  0.46999998093E+01 0.  1.
</event>
<event>
 5   0  0.9530268E-07  0.3269968E+04  0.7818609E-02  0.8170579E-01
       -1   -1    0    0    0  501  0.00000000000E+00  0.00000000000E+00  0.11547911763E+04  0.11547911763E+04  0.50400001928E-02 0. -1.
        1   -1    0    0  501    0  0.00000000000E+00  0.00000000000E+00 -0.23148544163E+04  0.23148544163E+04  0.50400001928E-02 0.  1.
    10030    2    1    2    0    0  0.00000000000E+00  0.00000000000E+00 -0.11600632400E+04  0.34696455926E+04  0.32699684735E+04 0.  0.
        5    1    3    3  502    0 -0.16018129177E+04  0.21127035077E+03 -0.31431701804E+03  0.16459820966E+04  0.46999998093E+01 0.  1.
       -5    1    3    3    0  502  0.16018129177E+04 -0.21127035077E+03 -0.84574622195E+03  0.18236634960E+04  0.46999998093E+01 0. -1.
</event>
<event>
 5   0  0.2674551E-06  0.2751941E+04  0.7818609E-02  0.8318346E-01
       -2   -1    0    0    0  501  0.00000000000E+00  0.00000000000E+00  0.12163174562E+04  0.12163174562E+04  0.25500000920E-02 0.  1.
        2   -1    0    0  501    0  0.00000000000E+00  0.00000000000E+00 -0.15565791036E+04  0.15565791036E+04  0.25500000920E-02 0. -1.
    10030    2    1    2    0    0  0.00000000000E+00  0.00000000000E+00 -0.34026164745E+03  0.27728965598E+04  0.27519406503E+04 0.  0.
        3    1    3    3  502    0  0.13147310791E+04  0.28233962397E+03 -0.46400367672E+03  0.14225093658E+04  0.10100000352E+00 0.  1.
       -3    1    3    3    0  502 -0.13147310791E+04 -0.28233962397E+03  0.12374202927E+03  0.13503871940E+04  0.10100000352E+00 0. -1.
</event>
<event>
 5   0  0.2705859E-06  0.3187538E+04  0.7818609E-02  0.8192116E-01
        2   -1    0    0  501    0  0.00000000000E+00  0.00000000000E+00  0.26139372282E+04  0.26139372282E+04  0.25500000920E-02 0. -1.
       -2   -1    0    0    0  501  0.00000000000E+00  0.00000000000E+00 -0.97175250142E+03  0.97175250142E+03  0.25500000920E-02 0.  1.
    10030    2    1    2    0    0  0.00000000000E+00  0.00000000000E+00  0.16421847268E+04  0.35856897297E+04  0.31875382602E+04 0.  0.
        1    1    3    3  502    0  0.72617772698E+02 -0.13947716665E+02  0.26120065284E+04  0.26130530007E+04  0.50400001928E-02 0. -1.
       -1    1    3    3    0  502 -0.72617772698E+02  0.13947716665E+02 -0.96982180160E+03  0.97263672900E+03  0.50400001928E-02 0.  1.
</event>
<event>
 5   0  0.8705956E-07  0.3288197E+04  0.7818609E-02  0.8165905E-01
        1   -1    0    0  501    0  0.00000000000E+00  0.00000000000E+00  0.17902057861E+04  0.17902057861E+04  0.50400001928E-02 0. -1.
       -1   -1    0    0    0  501  0.00000000000E+00  0.00000000000E+00 -0.15099156000E+04  0.15099156000E+04  0.50400001928E-02 0.  1.
    10030    2    1    2    0    0  0.00000000000E+00  0.00000000000E+00  0.28029018603E+03  0.33001213861E+04  0.32881968577E+04 0.  0.
        2    1    3    3  502    0  0.62235918928E+03 -0.15016798373E+04 -0.10709426738E+03  0.16290618393E+04  0.25500000920E-02 0.  1.
       -2    1    3    3    0  502 -0.62235918928E+03  0.15016798373E+04  0.38738445341E+03  0.16710595468E+04  0.25500000920E-02 0. -1.
</event>
<event>
 5   0  0.8705956E-07  0.3206635E+04  0.7818609E-02  0.8187067E-01
        1   -1    0    0  501    0  0.00000000000E+00  0.00000000000E+00  0.12685814644E+04  0.12685814644E+04  0.50400001928E-02 0. -1.
       -1   -1    0    0    0  501  0.00000000000E+00  0.00000000000E+00 -0.20263792947E+04  0.20263792947E+04  0.50400001928E-02 0.  1.
    10030    2    1    2    0    0  0.00000000000E+00  0.00000000000E+00 -0.75779783032E+03  0.32949607591E+04  0.32066351293E+04 0.  0.
        2    1    3    3  502    0 -0.53829586961E+03  0.56145475293E+03 -0.18195272572E+04  0.19788060346E+04  0.25500000920E-02 0.  1.
       -2    1    3    3    0  502  0.53829586961E+03 -0.56145475293E+03  0.10617294269E+04  0.13161547245E+04  0.25500000920E-02 0. -1.
</event>
<event>
 5   0  0.2674551E-06  0.2737567E+04  0.7818609E-02  0.8322918E-01
        2   -1    0    0  501    0  0.00000000000E+00  0.00000000000E+00  0.74919845251E+03  0.74919845251E+03  0.25500000920E-02 0. -1.
       -2   -1    0    0    0  501  0.00000000000E+00  0.00000000000E+00 -0.25007635661E+04  0.25007635661E+04  0.25500000920E-02 0.  1.
    10030    2    1    2    0    0  0.00000000000E+00  0.00000000000E+00 -0.17515651136E+04  0.32499620186E+04  0.27375669444E+04 0.  0.
        3    1    3    3  502    0 -0.87037420005E+03  0.10327281099E+04 -0.11398838027E+04  0.17673182201E+04  0.10100000352E+00 0. -1.
       -3    1    3    3    0  502  0.87037420005E+03 -0.10327281099E+04 -0.61168131083E+03  0.14826437985E+04  0.10100000352E+00 0.  1.
</event>
<event>
 5   0  0.2674551E-06  0.3307821E+04  0.7818609E-02  0.8160908E-01
       -2   -1    0    0    0  501  0.00000000000E+00  0.00000000000E+00  0.18584928846E+04  0.18584928846E+04  0.25500000920E-02 0.  1.
        2   -1    0    0  501    0  0.00000000000E+00  0.00000000000E+00 -0.14718484293E+04  0.14718484293E+04  0.25500000920E-02 0. -1.
    10030    2    1    2    0    0  0.00000000000E+00  0.00000000000E+00  0.38664445531E+03  0.33303413139E+04  0.33078209341E+04 0.  0.
        3    1    3    3  502    0  0.48564029851E+03 -0.81973015945E+03  0.15544196272E+04  0.18231907255E+04  0.10100000352E+00 0.  1.
       -3    1    3    3    0  502 -0.48564029851E+03  0.81973015945E+03 -0.11677751719E+04  0.15071505884E+04  0.10100000352E+00 0. -1.
</event>
<event>
 5   0  0.9295663E-07  0.3294496E+04  0.7818609E-02  0.8164297E-01
        1   -1    0    0  501    0  0.00000000000E+00  0.00000000000E+00  0.20100794037E+04  0.20100794037E+04  0.50400001928E-02 0.  1.
       -1   -1    0    0    0  501  0.00000000000E+00  0.00000000000E+00 -0.13499098548E+04  0.13499098548E+04  0.50400001928E-02 0. -1.
    10030    2    1    2    0    0  0.00000000000E+00  0.00000000000E+00  0.66016954885E+03  0.33599892585E+04  0.32944960137E+04 0.  0.
        4    1    3    3  502    0 -0.41135033396E+03 -0.13788291152E+04  0.11479274594E+04  0.18406840824E+04  0.12699999809E+01 0.  1.
       -4    1    3    3    0  502  0.41135033396E+03  0.13788291152E+04 -0.48775791056E+03  0.15193051762E+04  0.12699999809E+01 0. -1.
</event>
<event>
 5   0  0.9295663E-07  0.3388790E+04  0.7818609E-02  0.8140663E-01
        1   -1    0    0  501    0  0.00000000000E+00  0.00000000000E+00  0.16230676996E+04  0.16230676996E+04  0.50400001928E-02 0. -1.
       -1   -1    0    0    0  501  0.00000000000E+00  0.00000000000E+00 -0.17688568290E+04  0.17688568290E+04  0.50400001928E-02 0.  1.
    10030    2    1    2    0    0  0.00000000000E+00  0.00000000000E+00 -0.14578912944E+03  0.33919245286E+04  0.33887899813E+04 0.  0.
        4    1    3    3  502    0  0.99724487764E+03  0.13404651580E+04 -0.35534095389E+03  0.17081021609E+04  0.12699999809E+01 0.  1.
       -4    1    3    3    0  502 -0.99724487764E+03 -0.13404651580E+04  0.20955182446E+03  0.16838223676E+04  0.12699999809E+01 0. -1.
</event>
<event>
 5   0  0.8845526E-07  0.3370311E+04  0.7818609E-02  0.8145232E-01
       -1   -1    0    0    0  501  0.00000000000E+00  0.00000000000E+00  0.12550694117E+04  0.12550694117E+04  0.50400001928E-02 0. -1.
        1   -1    0    0  501    0  0.00000000000E+00  0.00000000000E+00 -0.22626225495E+04  0.22626225495E+04  0.50400001928E-02 0.  1.
    10030    2    1    2    0    0  0.00000000000E+00  0.00000000000E+00 -0.10075531377E+04  0.35176919612E+04  0.33703105804E+04 0.  0.
        1    1    3    3  502    0  0.25305333637E+03  0.80533270857E+03  0.10184773573E+04  0.13228351711E+04  0.50400001928E-02 0. -1.
       -1    1    3    3    0  502 -0.25305333637E+03 -0.80533270857E+03 -0.20260304950E+04  0.21948567901E+04  0.50400001928E-02 0.  1.
</event>
<event>
 5   0  0.8845526E-07  0.3280140E+04  0.7818609E-02  0.8167967E-01
       -1   -1    0    0    0  501  0.00000000000E+00  0.00000000000E+00  0.11221939206E+04  0.11221939206E+04  0.50400001928E-02 0.  1.
        1   -1    0    0  501    0  0.00000000000E+00  0.00000000000E+00 -0.23969381350E+04  0.23969381351E+04  0.50400001928E-02 0. -1.
    10030    2    1    2    0    0  0.00000000000E+00  0.00000000000E+00 -0.12747442144E+04  0.35191320557E+04  0.32801398771E+04 0.  0.
        1    1    3    3  502    0 -0.82514701720E+03  0.11689916023E+04 -0.14972818595E+04  0.20710533390E+04  0.50400001928E-02 0. -1.
       -1    1    3    3    0  502  0.82514701720E+03 -0.11689916023E+04  0.22253764509E+03  0.14480787167E+04  0.50400001928E-02 0.  1.
</event>
<event>
 5   0  0.8705956E-07  0.3203025E+04  0.7818609E-02  0.8188019E-01
        1   -1    0    0  501    0  0.00000000000E+00  0.00000000000E+00  0.17573286640E+04  0.17573286640E+04  0.50400001928E-02 0. -1.
       -1   -1    0    0    0  501  0.00000000000E+00  0.00000000000E+00 -0.14595120378E+04  0.14595120378E+04  0.50400001928E-02 0.  1.
    10030    2    1    2    0    0  0.00000000000E+00  0.00000000000E+00  0.29781662614E+03  0.32168407018E+04  0.32030250324E+04 0.  0.
        2    1    3    3  502    0 -0.44463839634E+02 -0.15972152627E+04  0.39956697779E+02  0.15983335591E+04  0.25500000920E-02 0.  1.
       -2    1    3    3    0  502  0.44463839634E+02  0.15972152627E+04  0.25785992836E+03  0.16185071427E+04  0.25500000920E-02 0. -1.
</event>
<event>
 5   0  0.9530268E-07  0.3314531E+04  0.7818609E-02  0.8159208E-01
        1   -1    0    0  501    0  0.00000000000E+00  0.00000000000E+00  0.21925032186E+04  0.21925032187E+04  0.50400001928E-02 0. -1.
       -1   -1    0    0    0  501  0.00000000000E+00  0.00000000000E+00 -0.12526909536E+04  0.12526909536E+04  0.50400001928E-02 0.  1.
    10030    2    1    2    0    0  0.00000000000E+00  0.00000000000E+00  0.93981226509E+03  0.34451941722E+04  0.33145310061E+04 0.  0.
        5    1    3    3  502    0 -0.80279118960E+03  0.13438385471E+04 -0.95725441993E+02  0.15682988188E+04  0.46999998093E+01 0.  1.
       -5    1    3    3    0  502  0.80279118960E+03 -0.13438385471E+04  0.10355377071E+04  0.18768953534E+04  0.46999998093E+01 0. -1.
</event>
<event>
 5   0  0.8705956E-07  0.3260307E+04  0.7818609E-02  0.8173069E-01
        1   -1    0    0  501    0  0.00000000000E+00  0.00000000000E+00  0.23715298105E+04  0.23715298105E+04  0.50400001928E-02 0. -1.
       -1   -1    0    0    0  501  0.00000000000E+00  0.00000000000E+00 -0.11205427132E+04  0.11205427133E+04  0.50400001928E-02 0.  1.
    10030    2    1    2    0    0  0.00000000000E+00  0.00000000000E+00  0.12509870973E+04  0.34920725238E+04  0.32603070091E+04 0.  0.
        2    1    3    3  502    0 -0.38477536907E+03  0.95596562174E+03 -0.72742041674E+03  0.12613733854E+04  0.25500000920E-02 0.  1.
       -2    1    3    3    0  502  0.38477536907E+03 -0.95596562174E+03  0.19784075140E+04  0.22306991384E+04  0.25500000920E-02 0. -1.
</event>
<event>
 5   0  0.2705859E-06  0.2853699E+04  0.7818609E-02  0.8286788E-01
       -2   -1    0    0    0  501  0.00000000000E+00  0.00000000000E+00  0.82189197577E+03  0.82189197578E+03  0.25500000920E-02 0.  1.
        2   -1    0    0  501    0  0.00000000000E+00  0.00000000000E+00 -0.24770896720E+04  0.24770896720E+04  0.25500000920E-02 0. -1.
    10030    2    1    2    0    0  0.00000000000E+00  0.00000000000E+00 -0.16551976962E+04  0.32989816477E+04  0.28536994408E+04 0.  0.
        1    1    3    3  502    0  0.11497041628E+04 -0.65265692124E+03 -0.20707578929E+03  0.13381558584E+04  0.50400001928E-02 0.  1.
       -1    1    3    3    0  502 -0.11497041628E+04  0.65265692124E+03 -0.14481219069E+04  0.19608257893E+04  0.50400001928E-02 0. -1.
</event>
<event>
 5   0  0.2705859E-06  0.3304153E+04  0.7818609E-02  0.8161840E-01
        2   -1    0    0  501    0  0.00000000000E+00  0.00000000000E+00  0.27402850825E+04  0.27402850825E+04  0.25500000920E-02 0.  1.
       -2   -1    0    0    0  501  0.00000000000E+00  0.00000000000E+00 -0.99601174670E+03  0.99601174671E+03  0.25500000920E-02 0. -1.
    10030    2    1    2    0    0  0.00000000000E+00  0.00000000000E+00  0.17442733358E+04  0.37362968292E+04  0.33041526185E+04 0.  0.
        1    1    3    3  502    0  0.11183682944E+04 -0.35309482144E+03 -0.44363274012E+03  0.12538873964E+04  0.50400001928E-02 0. -1.
       -1    1    3    3    0  502 -0.11183682944E+04  0.35309482144E+03  0.21879060760E+04  0.24824094328E+04  0.50400001928E-02 0.  1.
</event>
<event>
 5   0  0.2614212E-06  0.3306481E+04  0.7818609E-02  0.8161248E-01
       -2   -1    0    0    0  501  0.00000000000E+00  0.00000000000E+00  0.14714814573E+04  0.14714814573E+04  0.25500000920E-02 0. -1.
        2   -1    0    0  501    0  0.00000000000E+00  0.00000000000E+00 -0.18574504530E+04  0.18574504530E+04  0.25500000920E-02 0.  1.
    10030    2    1    2    0    0  0.00000000000E+00  0.00000000000E+00 -0.38596899576E+03  0.33289319103E+04  0.33064808479E+04 0.  0.
        2    1    3    3  502    0  0.70049589223E+03 -0.12218030416E+04  0.67875074873E+03  0.15633936633E+04  0.25500000920E-02 0. -1.
       -2    1    3    3    0  502 -0.70049589223E+03  0.12218030416E+04 -0.10647197445E+04  0.17655382470E+04  0.25500000920E-02 0.  1.
</event>
<event>
 5   0  0.9295663E-07  0.3312169E+04  0.7818609E-02  0.8159806E-01
       -1   -1    0    0    0  501  0.00000000000E+00  0.00000000000E+00  0.25093105142E+04  0.25093105142E+04  0.50400001928E-02 0. -1.
        1   -1    0    0  501    0  0.00000000000E+00  0.00000000000E+00 -0.10929761831E+04  0.10929761831E+04  0.50400001928E-02 0.  1.
    10030    2    1    2    0    0  0.00000000000E+00  0.00000000000E+00  0.14163343311E+04  0.36022866974E+04  0.33121694571E+04 0.  0.
        4    1    3    3  502    0  0.79864198668E+02 -0.15980205525E+04  0.24346262913E+03  0.16184324642E+04  0.12699999809E+01 0.  1.
       -4    1    3    3    0  502 -0.79864198668E+02  0.15980205525E+04  0.11728717020E+04  0.19838542332E+04  0.12699999809E+01 0. -1.
</event>
<event>
 5   0  0.9295663E-07  0.2410039E+04  0.7818609E-02  0.8435755E-01
       -1   -1    0    0    0  501  0.00000000000E+00  0.00000000000E+00  0.12169171384E+04  0.12169171384E+04  0.50400001928E-02 0.  1.
        1   -1    0    0  501    0  0.00000000000E+00  0.00000000000E+00 -0.11932380023E+04  0.11932380023E+04  0.50400001928E-02 0. -1.
    10030    2    1    2    0    0  0.00000000000E+00  0.00000000000E+00  0.23679136151E+02  0.24101551407E+04  0.24100388173E+04 0.  0.
        4    1    3    3  502    0  0.65628234899E+03  0.11583695196E+03  0.10158528862E+04  0.12149417354E+04  0.12699999809E+01 0.  1.
       -4    1    3    3    0  502 -0.65628234899E+03 -0.11583695196E+03 -0.99217375009E+03  0.11952134053E+04  0.12699999809E+01 0. -1.
</event>
<event>
 5   0  0.8845526E-07  0.3182321E+04  0.7818609E-02  0.8193502E-01
        1   -1    0    0  501    0  0.00000000000E+00  0.00000000000E+00  0.10244862952E+04  0.10244862952E+04  0.50400001928E-02 0.  1.
       -1   -1    0    0    0  501  0.00000000000E+00  0.00000000000E+00 -0.24712794541E+04  0.24712794541E+04  0.50400001928E-02 0. -1.
    10030    2    1    2    0    0  0.00000000000E+00  0.00000000000E+00 -0.14467931589E+04  0.34957657494E+04  0.31823211230E+04 0.  0.
        1    1    3    3  502    0  0.12603534488E+04  0.31412326595E+03 -0.17329538925E+04  0.21657085297E+04  0.50400001928E-02 0.  1.
       -1    1    3    3    0  502 -0.12603534488E+04 -0.31412326595E+03  0.28616073359E+03  0.13300572197E+04  0.50400001928E-02 0. -1.
</event>
<event>
 5   0  0.8705956E-07  0.3272096E+04  0.7818609E-02  0.8170032E-01
        1   -1    0    0  501    0  0.00000000000E+00  0.00000000000E+00  0.14165142616E+04  0.14165142616E+04  0.50400001928E-02 0.  1.
       -1   -1    0    0    0  501  0.00000000000E+00  0.00000000000E+00 -0.18896056616E+04  0.18896056616E+04  0.50400001928E-02 0. -1.
    10030    2    1    2    0    0  0.00000000000E+00  0.00000000000E+00 -0.47309139996E+03  0.33061199232E+04  0.32720961896E+04 0.  0.
        2    1    3    3  502    0  0.11705979517E+04  0.11849487226E+03 -0.13851656586E+04  0.18174224883E+04  0.25500000920E-02 0. -1.
       -2    1    3    3    0  502 -0.11705979517E+04 -0.11849487226E+03  0.91207425864E+03  0.14886974349E+04  0.25500000920E-02 0.  1.
</event>
<event>
 5   0  0.8705956E-07  0.3310581E+04  0.7818609E-02  0.8160208E-01
        1   -1    0    0  501    0  0.00000000000E+00  0.00000000000E+00  0.22863364461E+04  0.22863364461E+04  0.50400001928E-02 0.  1.
       -1   -1    0    0    0  501  0.00000000000E+00  0.00000000000E+00 -0.11984178322E+04  0.11984178322E+04  0.50400001928E-02 0. -1.
    10030    2    1    2    0    0  0.00000000000E+00  0.00000000000E+00  0.10879186140E+04  0.34847542783E+04  0.33105808357E+04 0.  0.
        2    1    3    3  502    0  0.39629296805E+03 -0.15972108742E+04  0.73183100601E+03  0.18010295152E+04  0.25500000920E-02 0.  1.
       -2    1    3    3    0  502 -0.39629296805E+03  0.15972108742E+04  0.35608760795E+03  0.16837247631E+04  0.25500000920E-02 0. -1.
</event>
<event>
 5   0  0.2674551E-06  0.3339208E+04  0.7818609E-02  0.8152990E-01
        2   -1    0    0  501    0  0.00000000000E+00  0.00000000000E+00  0.28432474820E+04  0.28432474820E+04  0.25500000920E-02 0. -1.
       -2   -1    0    0    0  501  0.00000000000E+00  0.00000000000E+00 -0.98042028958E+03  0.98042028958E+03  0.25500000920E-02 0.  1.
    10030    2    1    2    0    0  0.00000000000E+00  0.00000000000E+00  0.18628271924E+04  0.38236677716E+04  0.33392080017E+04 0.  0.
        3    1    3    3  502    0 -0.41148622595E+03  0.15280000187E+04  0.15410798748E+04  0.22088531327E+04  0.10100000352E+00 0. -1.
       -3    1    3    3    0  502  0.41148622595E+03 -0.15280000187E+04  0.32174731760E+03  0.16148146388E+04  0.10100000352E+00 0.  1.
</event>
<event>
 5   0  0.2705859E-06  0.3209741E+04  0.7818609E-02  0.8186249E-01
        2   -1    0    0  501    0  0.00000000000E+00  0.00000000000E+00  0.18233740135E+04  0.18233740135E+04  0.25500000920E-02 0. -1.
       -2   -1    0    0    0  501  0.00000000000E+00  0.00000000000E+00 -0.14125515433E+04  0.14125515433E+04  0.25500000920E-02 0.  1.
    10030    2    1    2    0    0  0.00000000000E+00  0.00000000000E+00  0.41082247021E+03  0.32359255568E+04  0.32097412835E+04 0.  0.
        1    1    3    3  502    0  0.12220065644E+04 -0.87492650018E+03  0.77286467433E+03  0.16900048015E+04  0.50400001928E-02 0. -1.
       -1    1    3    3    0  502 -0.12220065644E+04  0.87492650018E+03 -0.36204220412E+03  0.15459207553E+04  0.50400001928E-02 0.  1.
</event>
<event>
 5   0  0.2674551E-06  0.3346473E+04  0.7818609E-02  0.8151170E-01
       -2   -1    0    0    0  501  0.00000000000E+00  0.00000000000E+00  0.18739089453E+04  0.18739089453E+04  0.25500000920E-02 0. -1.
        2   -1    0    0  501    0  0.00000000000E+00  0.00000000000E+00 -0.14940538722E+04  0.14940538722E+04  0.25500000920E-02 0.  1.
    10030    2    1    2    0    0  0.00000000000E+00  0.00000000000E+00  0.37985507316E+03  0.33679628175E+04  0.33464733173E+04 0.  0.
        3    1    3    3  502    0 -0.34329676988E+03  0.10538093190E+04 -0.10716587525E+04  0.15416936288E+04  0.10100000352E+00 0.  1.
       -3    1    3    3    0  502  0.34329676988E+03 -0.10538093190E+04  0.14515138257E+04  0.18262691887E+04  0.10100000352E+00 0. -1.
</event>
<event>
 5   0  0.8845526E-07  0.3282759E+04  0.7818609E-02  0.8167296E-01
       -1   -1    0    0    0  501  0.00000000000E+00  0.00000000000E+00  0.16288845630E+04  0.16288845630E+04  0.50400001928E-02 0. -1.
        1   -1    0    0  501    0  0.00000000000E+00  0.00000000000E+00 -0.16539700878E+04  0.16539700878E+04  0.50400001928E-02 0.  1.
    10030    2    1    2    0    0  0.00000000000E+00  0.00000000000E+00 -0.25085524818E+02  0.32828546508E+04  0.32827588055E+04 0.  0.
        1    1    3    3  502    0 -0.38292406708E+02 -0.14485234441E+04 -0.78356453827E+03  0.16473189923E+04  0.50400001928E-02 0.  1.
       -1    1    3    3    0  502  0.38292406708E+02  0.14485234441E+04  0.75847901345E+03  0.16355356586E+04  0.50400001928E-02 0. -1.
</event>
<event>
 5   0  0.2614212E-06  0.3298041E+04  0.7818609E-02  0.8163394E-01
        2   -1    0    0  501    0  0.00000000000E+00  0.00000000000E+00  0.15764357516E+04  0.15764357516E+04  0.25500000920E-02 0.  1.
       -2   -1    0    0    0  501  0.00000000000E+00  0.00000000000E+00 -0.17249469943E+04  0.17249469944E+04  0.25500000920E-02 0. -1.
    10030    2    1    2    0    0  0.00000000000E+00  0.00000000000E+00 -0.14851124276E+03  0.33013827459E+04  0.32980406980E+04 0.  0.
        2    1    3    3  502    0 -0.74353664378E+03  0.50970061623E+03 -0.14564613751E+04  0.17128692875E+04  0.25500000920E-02 0. -1.
       -2    1    3    3    0  502  0.74353664378E+03 -0.50970061623E+03  0.13079501324E+04  0.15885134584E+04  0.25500000920E-02 0.  1.
</event>
<event>
 5   0  0.2614212E-06  0.3265170E+04  0.7818609E-02  0.8171815E-01
       -2   -1    0    0    0  501  0.00000000000E+00  0.00000000000E+00  0.10717571558E+04  0.10717571558E+04  0.25500000920E-02 0. -1.
        2   -1    0    0  501    0  0.00000000000E+00  0.00000000000E+00 -0.24868814715E+04  0.24868814715E+04  0.25500000920E-02 0.  1.
    10030    2    1    2    0    0  0.00000000000E+00  0.00000000000E+00 -0.14151243157E+04  0.35586386273E+04  0.32651695287E+04 0.  0.
        2    1    3    3  502    0 -0.10159483221E+04  0.53219727655E+03 -0.19738623889E+04  0.22828748684E+04  0.25500000920E-02 0.  1.
       -2    1    3    3    0  502  0.10159483221E+04 -0.53219727655E+03  0.55873807319E+03  0.12757637590E+04  0.25500000920E-02 0. -1.
</event>
<event>
 5   0  0.8845526E-07  0.2531632E+04  0.7818609E-02  0.8391802E-01
        1   -1    0    0  501    0  0.00000000000E+00  0.00000000000E+00  0.88434989977E+03  0.88434989978E+03  0.50400001928E-02 0. -1.
       -1   -1    0    0    0  501  0.00000000000E+00  0.00000000000E+00 -0.18118286033E+04  0.18118286033E+04  0.50400001928E-02 0.  1.
    10030    2    1    2    0    0  0.00000000000E+00  0.00000000000E+00 -0.92747870351E+03  0.26961785031E+04  0.25316322353E+04 0.  0.
        1    1    3    3  502    0 -0.68939687759E+01  0.70008482096E+03  0.65937677325E+03  0.96174009611E+03  0.50400001928E-02 0. -1.
       -1    1    3    3    0  502  0.68939687759E+01 -0.70008482096E+03 -0.15868554768E+04  0.17344384069E+04  0.50400001928E-02 0.  1.
</event>
<event>
 5   0  0.9295663E-07  0.3129496E+04  0.7818609E-02  0.8207689E-01
       -1   -1    0    0    0  501  0.00000000000E+00  0.00000000000E+00  0.13268119131E+04  0.13268119131E+04  0.50400001928E-02 0.  1.
        1   -1    0    0  501    0  0.00000000000E+00  0.00000000000E+00 -0.18453533692E+04  0.18453533692E+04  0.50400001928E-02 0. -1.
    10030    2    1    2    0    0  0.00000000000E+00  0.00000000000E+00 -0.51854145614E+03  0.31721652823E+04  0.31294963391E+04 0.  0.
        4    1    3    3  502    0  0.96664781353E+03 -0.11660136275E+04  0.13907528794E+03  0.15209665754E+04  0.12699999809E+01 0.  1.
       -4    1    3    3    0  502 -0.96664781353E+03  0.11660136275E+04 -0.65761674408E+03  0.16511987069E+04  0.12699999809E+01 0. -1.
</event>
<event>
 5   0  0.9530268E-07  0.3337216E+04  0.7818609E-02  0.8153490E-01
       -1   -1    0    0    0  501  0.00000000000E+00  0.00000000000E+00  0.12618169616E+04  0.12618169616E+04  0.50400001928E-02 0. -1.
        1   -1    0    0  501    0  0.00000000000E+00  0.00000000000E+00 -0.22065426596E+04  0.22065426596E+04  0.50400001928E-02 0.  1.
    10030    2    1    2    0    0  0.00000000000E+00  0.00000000000E+00 -0.94472569801E+03  0.34683596212E+04  0.33372161778E+04 0.  0.
        5    1    3    3  502    0 -0.94910601096E+03  0.11023450489E+04  0.37723582597E+03  0.15027627175E+04  0.46999998093E+01 0. -1.
       -5    1    3    3    0  502  0.94910601096E+03 -0.11023450489E+04 -0.13219615240E+04  0.19655969037E+04  0.46999998093E+01 0.  1.
</event>
<event>
 5   0  0.2574803E-06  0.3305715E+04  0.7818609E-02  0.8161443E-01
       -2   -1    0    0    0  501  0.00000000000E+00  0.00000000000E+00  0.19427089185E+04  0.19427089185E+04  0.25500000920E-02 0.  1.
        2   -1    0    0  501    0  0.00000000000E+00  0.00000000000E+00 -0.14062522123E+04  0.14062522123E+04  0.25500000920E-02 0. -1.
    10030    2    1    2    0    0  0.00000000000E+00  0.00000000000E+00  0.53645670615E+03  0.33489611308E+04  0.33057154835E+04 0.  0.
        4    1    3    3  502    0  0.11061871856E+04  0.11892369673E+04 -0.42380776143E+02  0.16247253297E+04  0.12699999809E+01 0. -1.
       -4    1    3    3    0  502 -0.11061871856E+04 -0.11892369673E+04  0.57883748229E+03  0.17242358011E+04  0.12699999809E+01 0.  1.
</event>
<event>
 5   0  0.9530268E-07  0.3327190E+04  0.7818609E-02  0.8156011E-01
        1   -1    0    0  501    0  0.00000000000E+00  0.00000000000E+00  0.22774030826E+04  0.22774030826E+04  0.50400001928E-02 0.  1.
       -1   -1    0    0    0  501  0.00000000000E+00  0.00000000000E+00 -0.12152213390E+04  0.12152213390E+04  0.50400001928E-02 0. -1.
    10030    2    1    2    0    0  0.00000000000E+00  0.00000000000E+00  0.10621817436E+04  0.34926244216E+04  0.33271903002E+04 0.  0.
        5    1    3    3  502    0 -0.15968991182E+04 -0.44906385695E+03  0.39921976448E+03  0.17062073882E+04  0.46999998093E+01 0.  1.
       -5    1    3    3    0  502  0.15968991182E+04  0.44906385695E+03  0.66296197910E+03  0.17864170334E+04  0.46999998093E+01 0. -1.
</event>
<event>
 5   0  0.2705859E-06  0.3292102E+04  0.7818609E-02  0.8164908E-01
       -2   -1    0    0    0  501  0.00000000000E+00  0.00000000000E+00  0.11446678840E+04  0.11446678840E+04  0.25500000920E-02 0. -1.
        2   -1    0    0  501    0  0.00000000000E+00  0.00000000000E+00 -0.23670480288E+04  0.23670480288E+04  0.25500000920E-02 0.  1.
    10030    2    1    2    0    0  0.00000000000E+00  0.00000000000E+00 -0.12223801448E+04  0.35117159127E+04  0.32921019779E+04 0.  0.
        1    1    3    3  502    0  0.12216729331E+04 -0.46655898448E+03  0.45515748943E+03  0.13846769954E+04  0.50400001928E-02 0. -1.
       -1    1    3    3    0  502 -0.12216729331E+04  0.46655898448E+03 -0.16775376342E+04  0.21270389173E+04  0.50400001928E-02 0.  1.
</event>
<event>
 5   0  0.9530268E-07  0.3289378E+04  0.7818609E-02  0.8165604E-01
        1   -1    0    0  501    0  0.00000000000E+00  0.00000000000E+00  0.17305917612E+04  0.17305917612E+04  0.50400001928E-02 0.  1.
       -1   -1    0    0    0  501  0.00000000000E+00  0.00000000000E+00 -0.15630499325E+04  0.15630499325E+04  0.50400001928E-02 0. -1.
    10030    2    1    2    0    0  0.00000000000E+00  0.00000000000E+00  0.16754182876E+03  0.32936416937E+04  0.32893776527E+04 0.  0.
        5    1    3    3  502    0  0.11222969671E+04 -0.85923377885E+03  0.92578078404E+03  0.16896524255E+04  0.46999998093E+01 0.  1.
       -5    1    3    3    0  502 -0.11222969671E+04  0.85923377885E+03 -0.75823895528E+03  0.16039892682E+04  0.46999998093E+01 0. -1.
</event>
<event>
 5   0  0.9268670E-07  0.3129326E+04  0.7818609E-02  0.8207735E-01
        1   -1    0    0  501    0  0.00000000000E+00  0.00000000000E+00  0.21934564393E+04  0.21934564393E+04  0.50400001928E-02 0. -1.
       -1   -1    0    0    0  501  0.00000000000E+00  0.00000000000E+00 -0.11161246275E+04  0.11161246275E+04  0.50400001928E-02 0.  1.
    10030    2    1    2    0    0  0.00000000000E+00  0.00000000000E+00  0.10773318118E+04  0.33095810668E+04  0.31293262862E+04 0.  0.
        3    1    3    3  502    0  0.24415498793E+03  0.91084860915E+03 -0.78181838543E+03  0.12249476907E+04  0.10100000352E+00 0.  1.
       -3    1    3    3    0  502 -0.24415498793E+03 -0.91084860915E+03  0.18591501972E+04  0.20846333762E+04  0.10100000352E+00 0. -1.
</event>
<event>
 5   0  0.9268670E-07  0.3348683E+04  0.7818609E-02  0.8150617E-01
       -1   -1    0    0    0  501  0.00000000000E+00  0.00000000000E+00  0.21409105090E+04  0.21409105090E+04  0.50400001928E-02 0. -1.
        1   -1    0    0  501    0  0.00000000000E+00  0.00000000000E+00 -0.13094517987E+04  0.13094517987E+04  0.50400001928E-02 0.  1.
    10030    2    1    2    0    0  0.00000000000E+00  0.00000000000E+00  0.83145871032E+03  0.34503623076E+04  0.33486827958E+04 0.  0.
        3    1    3    3  502    0 -0.69524791197E+03  0.13621121700E+04 -0.28665846473E+03  0.15559216910E+04  0.10100000352E+00 0.  1.
       -3    1    3    3    0  502  0.69524791197E+03 -0.13621121700E+04  0.11181171751E+04  0.18944406167E+04  0.10100000352E+00 0. -1.
</event>
<event>
 5   0  0.8520125E-07  0.3285859E+04  0.7818609E-02  0.8166503E-01
        3   -1    0    0  501    0  0.00000000000E+00  0.00000000000E+00  0.92958029479E+03  0.92958030028E+03  0.10100000352E+00 0.  1.
       -3   -1    0    0    0  501  0.00000000000E+00  0.00000000000E+00 -0.29036949500E+04  0.29036949518E+04  0.10100000352E+00 0. -1.
    10030    2    1    2    0    0  0.00000000000E+00  0.00000000000E+00 -0.19741146552E+04  0.38332752521E+04  0.32858591701E+04 0.  0.
        2    1    3    3  502    0  0.93974714249E+03  0.13473929812E+04 -0.10162242235E+04  0.19316584092E+04  0.25500000920E-02 0.  1.
       -2    1    3    3    0  502 -0.93974714249E+03 -0.13473929812E+04 -0.95789043176E+03  0.19016168428E+04  0.25500000920E-02 0. -1.
</event>
<event>
 5   0  0.2574803E-06  0.3318969E+04  0.7818609E-02  0.8158085E-01
        2   -1    0    0  501    0  0.00000000000E+00  0.00000000000E+00  0.27898143430E+04  0.27898143430E+04  0.25500000920E-02 0. -1.
       -2   -1    0    0    0  501  0.00000000000E+00  0.00000000000E+00 -0.98712250382E+03  0.98712250382E+03  0.25500000920E-02 0.  1.
    10030    2    1    2    0    0  0.00000000000E+00  0.00000000000E+00  0.18026918392E+04  0.37769368469E+04  0.33189688275E+04 0.  0.
        4    1    3    3  502    0  0.13859124441E+04 -0.90230600268E+03  0.10581133486E+04  0.19632918521E+04  0.12699999809E+01 0. -1.
       -4    1    3    3    0  502 -0.13859124441E+04  0.90230600268E+03  0.74457849067E+03  0.18136449947E+04  0.12699999809E+01 0.  1.
</event>
<event>
 5   0  0.2674551E-06  0.3368674E+04  0.7818609E-02  0.8145638E-01
        2   -1    0    0  501    0  0.00000000000E+00  0.00000000000E+00  0.13781758424E+04  0.13781758424E+04  0.25500000920E-02 0.  1.
       -2   -1    0    0    0  501  0.00000000000E+00  0.00000000000E+00 -0.20585113940E+04  0.20585113940E+04  0.25500000920E-02 0. -1.
    10030    2    1    2    0    0  0.00000000000E+00  0.00000000000E+00 -0.68033555161E+03  0.34366872365E+04  0.33686737299E+04 0.  0.
        3    1    3    3  502    0 -0.10302252470E+04 -0.38386550877E+03  0.96163378456E+03  0.14606355925E+04  0.10100000352E+00 0.  1.
       -3    1    3    3    0  502  0.10302252470E+04  0.38386550877E+03 -0.16419693362E+04  0.19760516439E+04  0.10100000352E+00 0. -1.
</event>
<event>
 5   0  0.2614212E-06  0.3334898E+04  0.7818609E-02  0.8154072E-01
       -2   -1    0    0    0  501  0.00000000000E+00  0.00000000000E+00  0.10479538286E+04  0.10479538286E+04  0.25500000920E-02 0. -1.
        2   -1    0    0  501    0  0.00000000000E+00  0.00000000000E+00 -0.26531578313E+04  0.26531578313E+04  0.25500000920E-02 0.  1.
    10030    2    1    2    0    0  0.00000000000E+00  0.00000000000E+00 -0.16052040027E+04  0.37011116598E+04  0.33348984435E+04 0.  0.
        2    1    3    3  502    0  0.10462085995E+04  0.11927027858E+04 -0.13720715416E+04  0.20975396741E+04  0.25500000920E-02 0.  1.
       -2    1    3    3    0  502 -0.10462085995E+04 -0.11927027858E+04 -0.23313246111E+03  0.16035719858E+04  0.25500000920E-02 0. -1.
</event>
<event>
 5   0  0.2705859E-06  0.3264777E+04  0.7818609E-02  0.8171916E-01
        2   -1    0    0  501    0  0.00000000000E+00  0.00000000000E+00  0.18189722331E+04  0.18189722331E+04  0.25500000920E-02 0.  1.
       -2   -1    0    0    0  501  0.00000000000E+00  0.00000000000E+00 -0.14649439926E+04  0.14649439926E+04  0.25500000920E-02 0. -1.
    10030    2    1    2    0    0  0.00000000000E+00  0.00000000000E+00  0.35402824050E+03  0.32839162257E+04  0.32647771412E+04 0.  0.
        1    1    3    3  502    0  0.13059401220E+04 -0.60084390767E+03 -0.60095351552E+03  0.15580879729E+04  0.50400001928E-02 0. -1.
       -1    1    3    3    0  502 -0.13059401220E+04  0.60084390767E+03  0.95498175601E+03  0.17258282527E+04  0.50400001928E-02 0.  1.
</event>
<event>
 5   0  0.2658600E-06  0.3306365E+04  0.7818609E-02  0.8161278E-01
       -2   -1    0    0    0  501  0.00000000000E+00  0.00000000000E+00  0.15023249349E+04  0.15023249349E+04  0.25500000920E-02 0.  1.
        2   -1    0    0  501    0  0.00000000000E+00  0.00000000000E+00 -0.18191880981E+04  0.18191880981E+04  0.25500000920E-02 0. -1.
    10030    2    1    2    0    0  0.00000000000E+00  0.00000000000E+00 -0.31686316327E+03  0.33215130330E+04  0.33063645541E+04 0.  0.
        5    1    3    3  502    0 -0.11040745021E+04 -0.88015787389E+02  0.10744901929E+04  0.15431391868E+04  0.46999998093E+01 0.  1.
       -5    1    3    3    0  502  0.11040745021E+04  0.88015787389E+02 -0.13913533562E+04  0.17783738462E+04  0.46999998093E+01 0. -1.
</event>
<event>
 5   0  0.2674551E-06  0.3258567E+04  0.7818609E-02  0.8173519E-01
        2   -1    0    0  501    0  0.00000000000E+00  0.00000000000E+00  0.24971312787E+04  0.24971312787E+04  0.25500000920E-02 0.  1.
       -2   -1    0    0    0  501  0.00000000000E+00  0.00000000000E+00 -0.10630458738E+04  0.10630458738E+04  0.25500000920E-02 0. -1.
    10030    2    1    2    0    0  0.00000000000E+00  0.00000000000E+00  0.14340854049E+04  0.35601771525E+04  0.32585672325E+04 0.  0.
        3    1    3    3  502    0  0.32243227960E+02 -0.40115750272E+03  0.24419710310E+04  0.24749120175E+04  0.10100000352E+00 0.  1.
       -3    1    3    3    0  502 -0.32243227960E+02  0.40115750272E+03 -0.10078856261E+04  0.10852651350E+04  0.10100000352E+00 0. -1.
</event>
<event>
 5   0  0.8845526E-07  0.3307513E+04  0.7818609E-02  0.8160986E-01
        1   -1    0    0  501    0  0.00000000000E+00  0.00000000000E+00  0.25074124018E+04  0.25074124018E+04  0.50400001928E-02 0.  1.
       -1   -1    0    0    0  501  0.00000000000E+00  0.00000000000E+00 -0.10907304287E+04  0.10907304288E+04  0.50400001928E-02 0. -1.
    10030    2    1    2    0    0  0.00000000000E+00  0.00000000000E+00  0.14166819730E+04  0.35981428305E+04  0.33075132677E+04 0.  0.
        1    1    3    3  502    0 -0.23154554937E+03  0.59974255951E+03  0.23659080624E+04  0.24516984804E+04  0.50400001928E-02 0.  1.
       -1    1    3    3    0  502  0.23154554937E+03 -0.59974255951E+03 -0.94922608938E+03  0.11464443501E+04  0.50400001928E-02 0. -1.
</event>
<event>
 5   0  0.9268670E-07  0.3257824E+04  0.7818609E-02  0.8173711E-01
       -1   -1    0    0    0  501  0.00000000000E+00  0.00000000000E+00  0.11101405267E+04  0.11101405267E+04  0.50400001928E-02 0. -1.
        1   -1    0    0  501    0  0.00000000000E+00  0.00000000000E+00 -0.23901066853E+04  0.23901066853E+04  0.50400001928E-02 0.  1.
    10030    2    1    2    0    0  0.00000000000E+00  0.00000000000E+00 -0.12799661586E+04  0.35002472119E+04  0.32578239943E+04 0.  0.
        3    1    3    3  502    0 -0.14239666471E+04  0.50693211126E+02  0.20812497146E+03  0.14399884818E+04  0.10100000352E+00 0. -1.
       -3    1    3    3    0  502  0.14239666471E+04 -0.50693211126E+02 -0.14880911301E+04  0.20602587302E+04  0.10100000352E+00 0.  1.
</event>
<event>
 5   0  0.9530268E-07  0.3338101E+04  0.7818609E-02  0.8153268E-01
       -1   -1    0    0    0  501  0.00000000000E+00  0.00000000000E+00  0.95388093952E+03  0.95388093954E+03  0.50400001928E-02 0. -1.
        1   -1    0    0  501    0  0.00000000000E+00  0.00000000000E+00 -0.29204157877E+04  0.29204157877E+04  0.50400001928E-02 0.  1.
    10030    2    1    2    0    0  0.00000000000E+00  0.00000000000E+00 -0.19665348482E+04  0.38742967273E+04  0.33381006309E+04 0.  0.
        5    1    3    3  502    0  0.15205819196E+04 -0.65635171185E+03 -0.12232116569E+04  0.20589404536E+04  0.46999998093E+01 0.  1.
       -5    1    3    3    0  502 -0.15205819196E+04  0.65635171185E+03 -0.74332319130E+03  0.18153562737E+04  0.46999998093E+01 0. -1.
</event>
<event>
 5   0  0.9268670E-07  0.2973650E+04  0.7818609E-02  0.8251295E-01
        1   -1    0    0  501    0  0.00000000000E+00  0.00000000000E+00  0.13267709442E+04  0.13267709442E+04  0.50400001928E-02 0.  1.
       -1   -1    0    0    0  501  0.00000000000E+00  0.00000000000E+00 -0.16661875909E+04  0.16661875909E+04  0.50400001928E-02 0. -1.
    10030    2    1    2    0    0  0.00000000000E+00  0.00000000000E+00 -0.33941664676E+03  0.29929585351E+04  0.29736504726E+04 0.  0.
        3    1    3    3  502    0  0.48492909499E+03  0.12685514746E+04  0.43942390023E+03  0.14274005903E+04  0.10100000352E+00 0.  1.
       -3    1    3    3    0  502 -0.48492909499E+03 -0.12685514746E+04 -0.77884054699E+03  0.15655579448E+04  0.10100000352E+00 0. -1.
</event>
<event>
 5   0  0.2614212E-06  0.3154237E+04  0.7818609E-02  0.8201009E-01
        2   -1    0    0  501    0  0.00000000000E+00  0.00000000000E+00  0.20218468823E+04  0.20218468823E+04  0.25500000920E-02 0. -1.
       -2   -1    0    0    0  501  0.00000000000E+00  0.00000000000E+00 -0.12302130083E+04  0.12302130083E+04  0.25500000920E-02 0.  1.
    10030    2    1    2    0    0  0.00000000000E+00  0.00000000000E+00  0.79163387394E+03  0.32520598906E+04  0.31542367289E+04 0.  0.
        2    1    3    3  502    0  0.74941124968E+03 -0.11804337555E+04 -0.35637154815E+03  0.14429281869E+04  0.25500000920E-02 0.  1.
       -2    1    3    3    0  502 -0.74941124968E+03  0.11804337555E+04  0.11480054221E+04  0.18091317037E+04  0.25500000920E-02 0. -1.
</event>
<event>
 5   0  0.2674551E-06  0.3275729E+04  0.7818609E-02  0.8169099E-01
       -2   -1    0    0    0  501  0.00000000000E+00  0.00000000000E+00  0.13584502740E+04  0.13584502740E+04  0.25500000920E-02 0.  1.
        2   -1    0    0  501    0  0.00000000000E+00  0.00000000000E+00 -0.19747506724E+04  0.19747506724E+04  0.25500000920E-02 0. -1.
    10030    2    1    2    0    0  0.00000000000E+00  0.00000000000E+00 -0.61630039836E+03  0.33332009464E+04  0.32757292880E+04 0.  0.
        3    1    3    3  502    0 -0.15236786803E+04 -0.40715492770E+03 -0.75774921590E+03  0.17497301907E+04  0.10100000352E+00 0. -1.
       -3    1    3    3    0  502  0.15236786803E+04  0.40715492770E+03  0.14144881754E+03  0.15834707557E+04  0.10100000352E+00 0.  1.
</event>
<event>
 5   0  0.9268670E-07  0.2755651E+04  0.7818609E-02  0.8317171E-01
       -1   -1    0    0    0  501  0.00000000000E+00  0.00000000000E+00  0.11769713574E+04  0.11769713574E+04  0.50400001928E-02 0. -1.
        1   -1    0    0  501    0  0.00000000000E+00  0.00000000000E+00 -0.16129558288E+04  0.16129558289E+04  0.50400001928E-02 0.  1.
    10030    2    1    2    0    0  0.00000000000E+00  0.00000000000E+00 -0.43598447144E+03  0.27899271863E+04  0.27556507844E+04 0.  0.
        3    1    3    3  502    0 -0.19588721414E+03  0.13435544337E+04 -0.45519794180E+03  0.14320319456E+04  0.10100000352E+00 0.  1.
       -3    1    3    3    0  502  0.19588721414E+03 -0.13435544337E+04  0.19213470367E+02  0.13578952406E+04  0.10100000352E+00 0. -1.
</event>
<event>
 5   0  0.8705956E-07  0.3010939E+04  0.7818609E-02  0.8240614E-01
       -1   -1    0    0    0  501  0.00000000000E+00  0.00000000000E+00  0.13742607340E+04  0.13742607340E+04  0.50400001928E-02 0.  1.
        1   -1    0    0  501    0  0.00000000000E+00  0.00000000000E+00 -0.16492054242E+04  0.16492054242E+04  0.50400001928E-02 0. -1.
    10030    2    1    2    0    0  0.00000000000E+00  0.00000000000E+00 -0.27494469020E+03  0.30234661582E+04  0.30109388946E+04 0.  0.
        2    1    3    3  502    0 -0.17646125650E+03  0.23891595212E+03 -0.16194918725E+04  0.16465033654E+04  0.25500000920E-02 0. -1.
       -2    1    3    3    0  502  0.17646125650E+03 -0.23891595212E+03  0.13445471823E+04  0.13769627928E+04  0.25500000920E-02 0.  1.
</event>
<event>
 5   0  0.2614212E-06  0.3359154E+04  0.7818609E-02  0.8148005E-01
       -2   -1    0    0    0  501  0.00000000000E+00  0.00000000000E+00  0.11657354432E+04  0.11657354432E+04  0.25500000920E-02 0. -1.
        2   -1    0    0  501    0  0.00000000000E+00  0.00000000000E+00 -0.24199134857E+04  0.24199134857E+04  0.25500000920E-02 0.  1.
    10030    2    1    2    0    0  0.00000000000E+00  0.00000000000E+00 -0.12541780424E+04  0.35856489289E+04  0.33591540125E+04 0.  0.
        2    1    3    3  502    0  0.70184812426E+03  0.30388051573E+03  0.96907712732E+03  0.12345220274E+04  0.25500000920E-02 0. -1.
       -2    1    3    3    0  502 -0.70184812426E+03 -0.30388051573E+03 -0.22232551698E+04  0.23511269016E+04  0.25500000920E-02 0.  1.
</event>
<event>
 5   0  0.9295663E-07  0.3296964E+04  0.7818609E-02  0.8163668E-01
       -1   -1    0    0    0  501  0.00000000000E+00  0.00000000000E+00  0.17719495236E+04  0.17719495236E+04  0.50400001928E-02 0. -1.
        1   -1    0    0  501    0  0.00000000000E+00  0.00000000000E+00 -0.15336177365E+04  0.15336177365E+04  0.50400001928E-02 0.  1.
    10030    2    1    2    0    0  0.00000000000E+00  0.00000000000E+00  0.23833178703E+03  0.33055672601E+04  0.32969641900E+04 0.  0.
        4    1    3    3  502    0  0.15114886305E+04  0.19345781529E+03 -0.51133735917E+03  0.16073242716E+04  0.12699999809E+01 0.  1.
       -4    1    3    3    0  502 -0.15114886305E+04 -0.19345781529E+03  0.74966914620E+03  0.16982429885E+04  0.12699999809E+01 0. -1.
</event>
<event>
 5   0  0.2705859E-06  0.3220897E+04  0.7818609E-02  0.8183320E-01
       -2   -1    0    0    0  501  0.00000000000E+00  0.00000000000E+00  0.13395204556E+04  0.13395204556E+04  0.25500000920E-02 0.  1.
        2   -1    0    0  501    0  0.00000000000E+00  0.00000000000E+00 -0.19361735954E+04  0.19361735954E+04  0.25500000920E-02 0. -1.
    10030    2    1    2    0    0  0.00000000000E+00  0.00000000000E+00 -0.59665313975E+03  0.32756940510E+04  0.32208968543E+04 0.  0.
        1    1    3    3  502    0 -0.12607304601E+04  0.25620114064E+03 -0.12835512480E+04  0.18173013299E+04  0.50400001928E-02 0. -1.
       -1    1    3    3    0  502  0.12607304601E+04 -0.25620114064E+03  0.68689810825E+03  0.14583927210E+04  0.50400001928E-02 0.  1.
</event>
<event>
 5   0  0.9295663E-07  0.3123797E+04  0.7818609E-02  0.8209237E-01
        1   -1    0    0  501    0  0.00000000000E+00  0.00000000000E+00  0.17896464975E+04  0.17896464975E+04  0.50400001928E-02 0. -1.
       -1   -1    0    0    0  501  0.00000000000E+00  0.00000000000E+00 -0.13631334623E+04  0.13631334623E+04  0.50400001928E-02 0.  1.
    10030    2    1    2    0    0  0.00000000000E+00  0.00000000000E+00  0.42651303518E+03  0.31527799598E+04  0.31237970654E+04 0.  0.
        4    1    3    3  502    0 -0.44566588940E+03 -0.10071779703E+04  0.13310063182E+04  0.17276009322E+04  0.12699999809E+01 0. -1.
       -4    1    3    3    0  502  0.44566588940E+03  0.10071779703E+04 -0.90449328307E+03  0.14251790276E+04  0.12699999809E+01 0.  1.
</event>
<event>
 5   0  0.9268670E-07  0.3379818E+04  0.7818609E-02  0.8142877E-01
        1   -1    0    0  501    0  0.00000000000E+00  0.00000000000E+00  0.16551621553E+04  0.16551621553E+04  0.50400001928E-02 0.  1.
       -1   -1    0    0    0  501  0.00000000000E+00  0.00000000000E+00 -0.17253857772E+04  0.17253857772E+04  0.50400001928E-02 0. -1.
    10030    2    1    2    0    0  0.00000000000E+00  0.00000000000E+00 -0.70223621919E+02  0.33805479326E+04  0.33798184814E+04 0.  0.
        3    1    3    3  502    0 -0.93038213197E+03 -0.12598465642E+04  0.59982355227E+03  0.16770845479E+04  0.10100000352E+00 0.  1.
       -3    1    3    3    0  502  0.93038213197E+03  0.12598465642E+04 -0.67004717419E+03  0.17034633846E+04  0.10100000352E+00 0. -1.
</event>
<event>
 5   0  0.8705956E-07  0.3317022E+04  0.7818609E-02  0.8158578E-01
       -1   -1    0    0    0  501  0.00000000000E+00  0.00000000000E+00  0.10353263644E+04  0.10353263644E+04  0.50400001928E-02 0.  1.
        1   -1    0    0  501    0  0.00000000000E+00  0.00000000000E+00 -0.26568029302E+04  0.26568029302E+04  0.50400001928E-02 0. -1.
    10030    2    1    2    0    0  0.00000000000E+00  0.00000000000E+00 -0.16214765658E+04  0.36921292947E+04  0.33170216271E+04 0.  0.
        2    1    3    3  502    0 -0.39750324813E+03 -0.15820243211E+04 -0.11443825077E+04  0.19925915560E+04  0.25500000920E-02 0. -1.
       -2    1    3    3    0  502  0.39750324813E+03  0.15820243211E+04 -0.47709405808E+03  0.16995377387E+04  0.25500000920E-02 0.  1.
</event>
<event>
 5   0  0.2705859E-06  0.3298107E+04  0.7818609E-02  0.8163377E-01
        2   -1    0    0  501    0  0.00000000000E+00  0.00000000000E+00  0.21660276661E+04  0.21660276661E+04  0.25500000920E-02 0. -1.
       -2   -1    0    0    0  501  0.00000000000E+00  0.00000000000E+00 -0.12554673337E+04  0.12554673337E+04  0.25500000920E-02 0.  1.
    10030    2    1    2    0    0  0.00000000000E+00  0.00000000000E+00  0.91056033241E+03  0.34214949998E+04  0.32981067167E+04 0.  0.
        1    1    3    3  502    0 -0.15262014990E+04  0.11171574122E+03 -0.18220545519E+03  0.15410938487E+04  0.50400001928E-02 0.  1.
       -1    1    3    3    0  502  0.15262014990E+04 -0.11171574122E+03  0.10927657876E+04  0.18804011511E+04  0.50400001928E-02 0. -1.
</event>
<event>
 5   0  0.2658600E-06  0.3203700E+04  0.7818609E-02  0.8187841E-01
       -2   -1    0    0    0  501  0.00000000000E+00  0.00000000000E+00  0.15846214720E+04  0.15846214720E+04  0.25500000920E-02 0. -1.
        2   -1    0    0  501    0  0.00000000000E+00  0.00000000000E+00 -0.16192656979E+04  0.16192656979E+04  0.25500000920E-02 0.  1.
    10030    2    1    2    0    0  0.00000000000E+00  0.00000000000E+00 -0.34644225947E+02  0.32038871699E+04  0.32036998572E+04 0.  0.
        5    1    3    3  502    0  0.15425095044E+04 -0.17855828421E+03 -0.41064203395E+03  0.16061966262E+04  0.46999998093E+01 0.  1.
       -5    1    3    3    0  502 -0.15425095044E+04  0.17855828421E+03  0.37599780800E+03  0.15976905437E+04  0.46999998093E+01 0. -1.
</event>
<event>
 5   0  0.9530268E-07  0.3368574E+04  0.7818609E-02  0.8145663E-01
       -1   -1    0    0    0  501  0.00000000000E+00  0.00000000000E+00  0.19987090270E+04  0.19987090270E+04  0.50400001928E-02 0.  1.
        1   -1    0    0  501    0  0.00000000000E+00  0.00000000000E+00 -0.14193273685E+04  0.14193273685E+04  0.50400001928E-02 0. -1.
    10030    2    1    2    0    0  0.00000000000E+00  0.00000000000E+00  0.57938165855E+03  0.34180363955E+04  0.33685738369E+04 0.  0.
        5    1    3    3  502    0  0.32919488874E+03 -0.73886126612E+03 -0.12093354240E+04  0.14549225076E+04  0.46999998093E+01 0. -1.
       -5    1    3    3    0  502 -0.32919488874E+03  0.73886126612E+03  0.17887170826E+04  0.19631138879E+04  0.46999998093E+01 0.  1.
</event>
<event>
 5   0  0.2574803E-06  0.3272303E+04  0.7818609E-02  0.8169979E-01
       -2   -1    0    0    0  501  0.00000000000E+00  0.00000000000E+00  0.13696776450E+04  0.13696776450E+04  0.25500000920E-02 0. -1.
        2   -1    0    0  501    0  0.00000000000E+00  0.00000000000E+00 -0.19544686670E+04  0.19544686671E+04  0.25500000920E-02 0.  1.
    10030    2    1    2    0    0  0.00000000000E+00  0.00000000000E+00 -0.58479102204E+03  0.33241463121E+04  0.32723031896E+04 0.  0.
        4    1    3    3  502    0 -0.40705063127E+03 -0.90750717632E+03 -0.16121045793E+04  0.18942392349E+04  0.12699999809E+01 0. -1.
       -4    1    3    3    0  502  0.40705063127E+03  0.90750717632E+03  0.10273135573E+04  0.14299070772E+04  0.12699999809E+01 0.  1.
</event>
<event>
 5   0  0.8845526E-07  0.3299660E+04  0.7818609E-02  0.8162982E-01
       -1   -1    0    0    0  501  0.00000000000E+00  0.00000000000E+00  0.13241083603E+04  0.13241083603E+04  0.50400001928E-02 0.  1.
        1   -1    0    0  501    0  0.00000000000E+00  0.00000000000E+00 -0.20556773347E+04  0.20556773347E+04  0.50400001928E-02 0. -1.
    10030    2    1    2    0    0  0.00000000000E+00  0.00000000000E+00 -0.73156897441E+03  0.33797856950E+04  0.32996603128E+04 0.  0.
        1    1    3    3  502    0 -0.18502421287E+02  0.66194497692E+03  0.11820103943E+04  0.13548660688E+04  0.50400001928E-02 0.  1.
       -1    1    3    3    0  502  0.18502421287E+02 -0.66194497692E+03 -0.19135793688E+04  0.20249196262E+04  0.50400001928E-02 0. -1.
</event>
<event>
 5   0  0.9530268E-07  0.3098062E+04  0.7818609E-02  0.8216270E-01
        1   -1    0    0  501    0  0.00000000000E+00  0.00000000000E+00  0.15193127328E+04  0.15193127328E+04  0.50400001928E-02 0. -1.
       -1   -1    0    0    0  501  0.00000000000E+00  0.00000000000E+00 -0.15793308463E+04  0.15793308463E+04  0.50400001928E-02 0.  1.
    10030    2    1    2    0    0  0.00000000000E+00  0.00000000000E+00 -0.60018113467E+02  0.30986435792E+04  0.30980622745E+04 0.  0.
        5    1    3    3  502    0 -0.49520296399E+03  0.25229779312E+03  0.14161513193E+04  0.15213108824E+04  0.46999998093E+01 0. -1.
       -5    1    3    3    0  502  0.49520296399E+03 -0.25229779312E+03 -0.14761694327E+04  0.15773326967E+04  0.46999998093E+01 0.  1.
</event>
<event>
 5   0  0.8705956E-07  0.2564608E+04  0.7818609E-02  0.8380323E-01
       -1   -1    0    0    0  501  0.00000000000E+00  0.00000000000E+00  0.75075404829E+03  0.75075404831E+03  0.50400001928E-02 0. -1.
        1   -1    0    0  501    0  0.00000000000E+00  0.00000000000E+00 -0.21902022127E+04  0.21902022127E+04  0.50400001928E-02 0.  1.
    10030    2    1    2    0    0  0.00000000000E+00  0.00000000000E+00 -0.14394481644E+04  0.29409562610E+04  0.25646077110E+04 0.  0.
        2    1    3    3  502    0  0.32529983232E+03  0.18986667765E+02 -0.21419320688E+04  0.21665764380E+04  0.25500000920E-02 0.  1.
       -2    1    3    3    0  502 -0.32529983232E+03 -0.18986667765E+02  0.70248390434E+03  0.77437982303E+03  0.25500000920E-02 0. -1.
</event>
<event>
 5   0  0.8705956E-07  0.3292423E+04  0.7818609E-02  0.8164826E-01
        1   -1    0    0  501    0  0.00000000000E+00  0.00000000000E+00  0.13521602293E+04  0.13521602293E+04  0.50400001928E-02 0. -1.
       -1   -1    0    0    0  501  0.00000000000E+00  0.00000000000E+00 -0.20042089334E+04  0.20042089334E+04  0.50400001928E-02 0.  1.
    10030    2    1    2    0    0  0.00000000000E+00  0.00000000000E+00 -0.65204870410E+03  0.33563691628E+04  0.32924225798E+04 0.  0.
        2    1    3    3  502    0 -0.23270489977E+03 -0.12903395847E+04 -0.13407894328E+04  0.18753250697E+04  0.25500000920E-02 0.  1.
       -2    1    3    3    0  502  0.23270489977E+03  0.12903395847E+04  0.68874072867E+03  0.14810440930E+04  0.25500000920E-02 0. -1.
</event>
<event>
 5   0  0.8520125E-07  0.3306485E+04  0.7818609E-02  0.8161247E-01
        3   -1    0    0  501    0  0.00000000000E+00  0.00000000000E+00  0.11731003830E+04  0.11731003874E+04  0.10100000352E+00 0. -1.
       -3   -1    0    0    0  501  0.00000000000E+00  0.00000000000E+00 -0.23299032073E+04  0.23299032095E+04  0.10100000352E+00 0.  1.
    10030    2    1    2    0    0  0.00000000000E+00  0.00000000000E+00 -0.11568028243E+04  0.35030035968E+04  0.33064847535E+04 0.  0.
        2    1    3    3  502    0 -0.14146232695E+04 -0.16446585189E+03  0.31114648962E+03  0.14577448848E+04  0.25500000920E-02 0.  1.
       -2    1    3    3    0  502  0.14146232695E+04  0.16446585189E+03 -0.14679493139E+04  0.20452587121E+04  0.25500000920E-02 0. -1.
</event>
<event>
 5   0  0.9530268E-07  0.3251272E+04  0.7818609E-02  0.8175406E-01
       -1   -1    0    0    0  501  0.00000000000E+00  0.00000000000E+00  0.11224181096E+04  0.11224181096E+04  0.50400001928E-02 0. -1.
        1   -1    0    0  501    0  0.00000000000E+00  0.00000000000E+00 -0.23544634775E+04  0.23544634775E+04  0.50400001928E-02 0.  1.
    10030    2    1    2    0    0  0.00000000000E+00  0.00000000000E+00 -0.12320453679E+04  0.34768815871E+04  0.32512720253E+04 0.  0.
        5    1    3    3  502    0 -0.43506879244E+03 -0.46164561196E+03 -0.22166368676E+04  0.23056241276E+04  0.46999998093E+01 0.  1.
       -5    1    3    3    0  502  0.43506879244E+03  0.46164561196E+03  0.98459149967E+03  0.11712574595E+04  0.46999998093E+01 0. -1.
</event>
<event>
 5   0  0.8705956E-07  0.3138867E+04  0.7818609E-02  0.8205151E-01
       -1   -1    0    0    0  501  0.00000000000E+00  0.00000000000E+00  0.13388356153E+04  0.13388356153E+04  0.50400001928E-02 0.  1.
        1   -1    0    0  501    0  0.00000000000E+00  0.00000000000E+00 -0.18397492134E+04  0.18397492134E+04  0.50400001928E-02 0. -1.
    10030    2    1    2    0    0  0.00000000000E+00  0.00000000000E+00 -0.50091359806E+03  0.31785848287E+04  0.31388671652E+04 0.  0.
        2    1    3    3  502    0 -0.11186955517E+04  0.10930893392E+04 -0.11921077417E+03  0.15686093362E+04  0.25500000920E-02 0.  1.
       -2    1    3    3    0  502  0.11186955517E+04 -0.10930893392E+04 -0.38170282389E+03  0.16099754925E+04  0.25500000920E-02 0. -1.
</event>
<event>
 5   0  0.8705956E-07  0.3294669E+04  0.7818609E-02  0.8164253E-01
        1   -1    0    0  501    0  0.00000000000E+00  0.00000000000E+00  0.21354241173E+04  0.21354241173E+04  0.50400001928E-02 0.  1.
       -1   -1    0    0    0  501  0.00000000000E+00  0.00000000000E+00 -0.12708066911E+04  0.12708066911E+04  0.50400001928E-02 0. -1.
    10030    2    1    2    0    0  0.00000000000E+00  0.00000000000E+00  0.86461742623E+03  0.34062308084E+04  0.32946691831E+04 0.  0.
        2    1    3    3  502    0 -0.10006329522E+04 -0.12450104052E+03  0.17790868912E+04  0.20449735893E+04  0.25500000920E-02 0.  1.
       -2    1    3    3    0  502  0.10006329522E+04  0.12450104052E+03 -0.91446946501E+03  0.13612572191E+04  0.25500000920E-02 0. -1.
</event>
<event>
 5   0  0.8705956E-07  0.3352532E+04  0.7818609E-02  0.8149656E-01
       -1   -1    0    0    0  501  0.00000000000E+00  0.00000000000E+00  0.19290293142E+04  0.19290293142E+04  0.50400001928E-02 0.  1.
        1   -1    0    0  501    0  0.00000000000E+00  0.00000000000E+00 -0.14566223411E+04  0.14566223411E+04  0.50400001928E-02 0. -1.
    10030    2    1    2    0    0  0.00000000000E+00  0.00000000000E+00  0.47240697316E+03  0.33856516553E+04  0.33525316975E+04 0.  0.
        2    1    3    3  502    0  0.12970885553E+04 -0.80032447942E+03  0.94088579937E+03  0.17911516072E+04  0.25500000920E-02 0.  1.
       -2    1    3    3    0  502 -0.12970885553E+04  0.80032447942E+03 -0.46847882620E+03  0.15945000481E+04  0.25500000920E-02 0. -1.
</event>
<event>
 5   0  0.2705859E-06  0.3310478E+04  0.7818609E-02  0.8160234E-01
       -2   -1    0    0    0  501  0.00000000000E+00  0.00000000000E+00  0.19175752420E+04  0.19175752420E+04  0.25500000920E-02 0. -1.
        2   -1    0    0  501    0  0.00000000000E+00  0.00000000000E+00 -0.14287923616E+04  0.14287923616E+04  0.25500000920E-02 0.  1.
    10030    2    1    2    0    0  0.00000000000E+00  0.00000000000E+00  0.48878288036E+03  0.33463676036E+04  0.33104784298E+04 0.  0.
        1    1    3    3  502    0  0.99173051564E+03  0.85065635105E+03  0.12716125140E+04  0.18232235269E+04  0.50400001928E-02 0. -1.
       -1    1    3    3    0  502 -0.99173051564E+03 -0.85065635105E+03 -0.78282963361E+03  0.15231440767E+04  0.50400001928E-02 0.  1.
</event>
<event>
 5   0  0.9530268E-07  0.3290869E+04  0.7818609E-02  0.8165223E-01
        1   -1    0    0  501    0  0.00000000000E+00  0.00000000000E+00  0.14396597002E+04  0.14396597002E+04  0.50400001928E-02 0.  1.
       -1   -1    0    0    0  501  0.00000000000E+00  0.00000000000E+00 -0.18806218234E+04  0.18806218234E+04  0.50400001928E-02 0. -1.
    10030    2    1    2    0    0  0.00000000000E+00  0.00000000000E+00 -0.44096212322E+03  0.33202815236E+04  0.32908694599E+04 0.  0.
        5    1    3    3  502    0 -0.10989206379E+04  0.31196495017E+03 -0.14153308571E+04  0.18188271560E+04  0.46999998093E+01 0. -1.
       -5    1    3    3    0  502  0.10989206379E+04 -0.31196495017E+03  0.97436873386E+03  0.15014543676E+04  0.46999998093E+01 0.  1.
</event>
<event>
 5   0  0.8705956E-07  0.3301559E+04  0.7818609E-02  0.8162499E-01
        1   -1    0    0  501    0  0.00000000000E+00  0.00000000000E+00  0.15922245931E+04  0.15922245931E+04  0.50400001928E-02 0.  1.
       -1   -1    0    0    0  501  0.00000000000E+00  0.00000000000E+00 -0.17114877856E+04  0.17114877856E+04  0.50400001928E-02 0. -1.
    10030    2    1    2    0    0  0.00000000000E+00  0.00000000000E+00 -0.11926319249E+03  0.33037123787E+04  0.33015589912E+04 0.  0.
        2    1    3    3  502    0  0.85354514662E+02 -0.13277474459E+04 -0.10374456266E+04  0.16871550319E+04  0.25500000920E-02 0. -1.
       -2    1    3    3    0  502 -0.85354514662E+02  0.13277474459E+04  0.91818243414E+03  0.16165573469E+04  0.25500000920E-02 0.  1.
</event>
<event>
 5   0  0.8845526E-07  0.3272363E+04  0.7818609E-02  0.8169963E-01
       -1   -1    0    0    0  501  0.00000000000E+00  0.00000000000E+00  0.94059327831E+03  0.94059327832E+03  0.50400001928E-02 0.  1.
        1   -1    0    0  501    0  0.00000000000E+00  0.00000000000E+00 -0.28461711809E+04  0.28461711809E+04  0.50400001928E-02 0. -1.
    10030    2    1    2    0    0  0.00000000000E+00  0.00000000000E+00 -0.19055779026E+04  0.37867644592E+04  0.32723627438E+04 0.  0.
        1    1    3    3  502    0 -0.14137864101E+04  0.37847334207E+03 -0.17992485373E+04  0.23193381347E+04  0.50400001928E-02 0. -1.
       -1    1    3    3    0  502  0.14137864101E+04 -0.37847334207E+03 -0.10632936529E+03  0.14674263245E+04  0.50400001928E-02 0.  1.
</event>
<event>
 5   0  0.2658600E-06  0.3178593E+04  0.7818609E-02  0.8194494E-01
        2   -1    0    0  501    0  0.00000000000E+00  0.00000000000E+00  0.19183475168E+04  0.19183475168E+04  0.25500000920E-02 0.  1.
       -2   -1    0    0    0  501  0.00000000000E+00  0.00000000000E+00 -0.13166871697E+04  0.13166871697E+04  0.25500000920E-02 0. -1.
    10030    2    1    2    0    0  0.00000000000E+00  0.00000000000E+00  0.60166034716E+03  0.32350346865E+04  0.31785931243E+04 0.  0.
        5    1    3    3  502    0 -0.14208878940E+04  0.13700246997E+03 -0.41025295851E+03  0.14852682129E+04  0.46999998093E+01 0.  1.
       -5    1    3    3    0  502  0.14208878940E+04 -0.13700246997E+03  0.10119133057E+04  0.17497664737E+04  0.46999998093E+01 0. -1.
</event>
<event>
 5   0  0.2658600E-06  0.3312594E+04  0.7818609E-02  0.8159698E-01
       -2   -1    0    0    0  501  0.00000000000E+00  0.00000000000E+00  0.10353669077E+04  0.10353669077E+04  0.25500000920E-02 0.  1.
        2   -1    0    0  501    0  0.00000000000E+00  0.00000000000E+00 -0.26496105774E+04  0.26496105774E+04  0.25500000920E-02 0. -1.
    10030    2    1    2    0    0  0.00000000000E+00  0.00000000000E+00 -0.16142436697E+04  0.36849774851E+04  0.33125936123E+04 0.  0.
        5    1    3    3  502    0 -0.91089174138E+02  0.12927797826E+04  0.34018712503E+03  0.13398978222E+04  0.46999998093E+01 0. -1.
       -5    1    3    3    0  502  0.91089174138E+02 -0.12927797826E+04 -0.19544307947E+04  0.23450796629E+04  0.46999998093E+01 0.  1.
</event>
<event>
 5   0  0.2574803E-06  0.3214190E+04  0.7818609E-02  0.8185080E-01
       -2   -1    0    0    0  501  0.00000000000E+00  0.00000000000E+00  0.10135213411E+04  0.10135213411E+04  0.25500000920E-02 0. -1.
        2   -1    0    0  501    0  0.00000000000E+00  0.00000000000E+00 -0.25482978689E+04  0.25482978689E+04  0.25500000920E-02 0.  1.
    10030    2    1    2    0    0  0.00000000000E+00  0.00000000000E+00 -0.15347765278E+04  0.35618192100E+04  0.32141899593E+04 0.  0.
        4    1    3    3  502    0 -0.57610639303E+03 -0.14104833980E+04 -0.20082896568E+03  0.15367810119E+04  0.12699999809E+01 0. -1.
       -4    1    3    3    0  502  0.57610639303E+03  0.14104833980E+04 -0.13339475621E+04  0.20250381981E+04  0.12699999809E+01 0.  1.
</event>
<event>
 5   0  0.9530268E-07  0.3297414E+04  0.7818609E-02  0.8163554E-01
        1   -1    0    0  501    0  0.00000000000E+00  0.00000000000E+00  0.11061783556E+04  0.11061783556E+04  0.50400001928E-02 0. -1.
       -1   -1    0    0    0  501  0.00000000000E+00  0.00000000000E+00 -0.24573211207E+04  0.24573211207E+04  0.50400001928E-02 0.  1.
    10030    2    1    2    0    0  0.00000000000E+00  0.00000000000E+00 -0.13511427651E+04  0.35634994762E+04  0.32974144030E+04 0.  0.
        5    1    3    3  502    0 -0.48161851004E+03  0.20968571351E+02 -0.23794465351E+04  0.24277940551E+04  0.46999998093E+01 0.  1.
       -5    1    3    3    0  502  0.48161851004E+03 -0.20968571351E+02  0.10283037700E+04  0.11357054212E+04  0.46999998093E+01 0. -1.
</event>
<event>
 5   0  0.2614212E-06  0.2630312E+04  0.7818609E-02  0.8357977E-01
       -2   -1    0    0    0  501  0.00000000000E+00  0.00000000000E+00  0.98302771538E+03  0.98302771538E+03  0.25500000920E-02 0. -1.
        2   -1    0    0  501    0  0.00000000000E+00  0.00000000000E+00 -0.17594974230E+04  0.17594974230E+04  0.25500000920E-02 0.  1.
    10030    2    1    2    0    0  0.00000000000E+00  0.00000000000E+00 -0.77646970758E+03  0.27425251383E+04  0.26303115647E+04 0.  0.
        2    1    3    3  502    0 -0.74814726240E+03  0.57556677006E+03  0.56660266135E+03  0.11009268863E+04  0.25500000920E-02 0. -1.
       -2    1    3    3    0  502  0.74814726240E+03 -0.57556677006E+03 -0.13430723689E+04  0.16415982521E+04  0.25500000920E-02 0.  1.
</event>
<event>
 5   0  0.8705956E-07  0.3328211E+04  0.7818609E-02  0.8155754E-01
       -1   -1    0    0    0  501  0.00000000000E+00  0.00000000000E+00  0.14445704333E+04  0.14445704334E+04  0.50400001928E-02 0. -1.
        1   -1    0    0  501    0  0.00000000000E+00  0.00000000000E+00 -0.19170042130E+04  0.19170042130E+04  0.50400001928E-02 0.  1.
    10030    2    1    2    0    0  0.00000000000E+00  0.00000000000E+00 -0.47243377968E+03  0.33615746464E+04  0.33282112954E+04 0.  0.
        2    1    3    3  502    0 -0.12147776533E+02  0.16272955534E+04 -0.58756781408E+03  0.17301659813E+04  0.25500000920E-02 0.  1.
       -2    1    3    3    0  502  0.12147776533E+02 -0.16272955534E+04  0.11513403440E+03  0.16314086651E+04  0.25500000920E-02 0. -1.
</event>
<event>
 5   0  0.2614212E-06  0.3315685E+04  0.7818609E-02  0.8158916E-01
       -2   -1    0    0    0  501  0.00000000000E+00  0.00000000000E+00  0.13941079313E+04  0.13941079313E+04  0.25500000920E-02 0.  1.
        2   -1    0    0  501    0  0.00000000000E+00  0.00000000000E+00 -0.19714698595E+04  0.19714698595E+04  0.25500000920E-02 0. -1.
    10030    2    1    2    0    0  0.00000000000E+00  0.00000000000E+00 -0.57736192817E+03  0.33655777908E+04  0.33156850076E+04 0.  0.
        2    1    3    3  502    0 -0.42025416773E+03  0.41169026015E+03  0.12845900577E+04  0.14128956268E+04  0.25500000920E-02 0.  1.
       -2    1    3    3    0  502  0.42025416773E+03 -0.41169026015E+03 -0.18619519859E+04  0.19526821640E+04  0.25500000920E-02 0. -1.
</event>
<event>
 5   0  0.9530268E-07  0.3173287E+04  0.7818609E-02  0.8195908E-01
       -1   -1    0    0    0  501  0.00000000000E+00  0.00000000000E+00  0.19473504372E+04  0.19473504372E+04  0.50400001928E-02 0.  1.
        1   -1    0    0  501    0  0.00000000000E+00  0.00000000000E+00 -0.12927499819E+04  0.12927499819E+04  0.50400001928E-02 0. -1.
    10030    2    1    2    0    0  0.00000000000E+00  0.00000000000E+00  0.65460045531E+03  0.32401004190E+04  0.31732867770E+04 0.  0.
        5    1    3    3  502    0  0.50956240245E+03  0.11873110576E+04  0.12675881137E+04  0.18100174323E+04  0.46999998093E+01 0.  1.
       -5    1    3    3    0  502 -0.50956240245E+03 -0.11873110576E+04 -0.61298765835E+03  0.14300829867E+04  0.46999998093E+01 0. -1.
</event>
<event>
 5   0  0.2574803E-06  0.3277327E+04  0.7818609E-02  0.8168688E-01
       -2   -1    0    0    0  501  0.00000000000E+00  0.00000000000E+00  0.18253630671E+04  0.18253630671E+04  0.25500000920E-02 0. -1.
        2   -1    0    0  501    0  0.00000000000E+00  0.00000000000E+00 -0.14710601216E+04  0.14710601216E+04  0.25500000920E-02 0.  1.
    10030    2    1    2    0    0  0.00000000000E+00  0.00000000000E+00  0.35430294549E+03  0.32964231886E+04  0.32773274571E+04 0.  0.
        4    1    3    3  502    0 -0.93976857278E+02 -0.94477775244E+02  0.18199036119E+04  0.18247762792E+04  0.12699999809E+01 0. -1.
       -4    1    3    3    0  502  0.93976857278E+02  0.94477775244E+02 -0.14656006664E+04  0.14716469094E+04  0.12699999809E+01 0.  1.
</event>
<event>
 5   0  0.8845526E-07  0.3359743E+04  0.7818609E-02  0.8147858E-01
       -1   -1    0    0    0  501  0.00000000000E+00  0.00000000000E+00  0.97701674064E+03  0.97701674065E+03  0.50400001928E-02 0.  1.
        1   -1    0    0  501    0  0.00000000000E+00  0.00000000000E+00 -0.28883517417E+04  0.28883517417E+04  0.50400001928E-02 0. -1.
    10030    2    1    2    0    0  0.00000000000E+00  0.00000000000E+00 -0.19113350011E+04  0.38653684824E+04  0.33597428500E+04 0.  0.
        1    1    3    3  502    0 -0.55496708947E+02 -0.13167223985E+04 -0.21541337191E+04  0.25252979704E+04  0.50400001928E-02 0. -1.
       -1    1    3    3    0  502  0.55496708947E+02  0.13167223985E+04  0.24279871804E+03  0.13400705120E+04  0.50400001928E-02 0.  1.
</event>
<event>
 5   0  0.9530268E-07  0.3269480E+04  0.7818609E-02  0.8170705E-01
        1   -1    0    0  501    0  0.00000000000E+00  0.00000000000E+00  0.20533472823E+04  0.20533472823E+04  0.50400001928E-02 0. -1.
       -1   -1    0    0    0  501  0.00000000000E+00  0.00000000000E+00 -0.13014724840E+04  0.13014724840E+04  0.50400001928E-02 0.  1.
    10030    2    1    2    0    0  0.00000000000E+00  0.00000000000E+00  0.75187479833E+03  0.33548197663E+04  0.32694800737E+04 0.  0.
        5    1    3    3  502    0  0.11357556417E+04  0.47839244569E+03  0.14780074899E+04  0.19244033984E+04  0.46999998093E+01 0. -1.
       -5    1    3    3    0  502 -0.11357556417E+04 -0.47839244569E+03 -0.72613269154E+03  0.14304163679E+04  0.46999998093E+01 0.  1.
</event>
<event>
 5   0  0.8845526E-07  0.3086708E+04  0.7818609E-02  0.8219395E-01
       -1   -1    0    0    0  501  0.00000000000E+00  0.00000000000E+00  0.12398729197E+04  0.12398729197E+04  0.50400001928E-02 0. -1.
        1   -1    0    0  501    0  0.00000000000E+00  0.00000000000E+00 -0.19211169945E+04  0.19211169945E+04  0.50400001928E-02 0.  1.
    10030    2    1    2    0    0  0.00000000000E+00  0.00000000000E+00 -0.68124407479E+03  0.31609899143E+04  0.30867075904E+04 0.  0.
        1    1    3    3  502    0 -0.12288318452E+04 -0.51016447268E+03 -0.11415205607E+04  0.17531014470E+04  0.50400001928E-02 0.  1.
       -1    1    3    3    0  502  0.12288318452E+04  0.51016447268E+03  0.46027648588E+03  0.14078884673E+04  0.50400001928E-02 0. -1.
</event>
<event>
 5   0  0.2614212E-06  0.3226678E+04  0.7818609E-02  0.8181807E-01
        2   -1    0    0  501    0  0.00000000000E+00  0.00000000000E+00  0.22978934703E+04  0.22978934703E+04  0.25500000920E-02 0.  1.
       -2   -1    0    0    0  501  0.00000000000E+00  0.00000000000E+00 -0.11327168990E+04  0.11327168990E+04  0.25500000920E-02 0. -1.
    10030    2    1    2    0    0  0.00000000000E+00  0.00000000000E+00  0.11651765713E+04  0.34306103694E+04  0.32266780230E+04 0.  0.
        2    1    3    3  502    0 -0.10125243525E+04 -0.30682377013E+03  0.18775649344E+04  0.21551325883E+04  0.25500000920E-02 0.  1.
       -2    1    3    3    0  502  0.10125243525E+04  0.30682377013E+03 -0.71238836306E+03  0.12754777811E+04  0.25500000920E-02 0. -1.
</event>
<event>
 5   0  0.2674551E-06  0.3312541E+04  0.7818609E-02  0.8159712E-01
       -2   -1    0    0    0  501  0.00000000000E+00  0.00000000000E+00  0.19613487807E+04  0.19613487807E+04  0.25500000920E-02 0.  1.
        2   -1    0    0  501    0  0.00000000000E+00  0.00000000000E+00 -0.13986452750E+04  0.13986452750E+04  0.25500000920E-02 0. -1.
    10030    2    1    2    0    0  0.00000000000E+00  0.00000000000E+00  0.56270350573E+03  0.33599940557E+04  0.33125405384E+04 0.  0.
        3    1    3    3  502    0  0.61741149936E+03  0.60866255179E+03 -0.11500925532E+04  0.14402707914E+04  0.10100000352E+00 0. -1.
       -3    1    3    3    0  502 -0.61741149936E+03 -0.60866255179E+03  0.17127960589E+04  0.19197232642E+04  0.10100000352E+00 0.  1.
</event>
<event>
 5   0  0.9530268E-07  0.3275968E+04  0.7818609E-02  0.8169037E-01
       -1   -1    0    0    0  501  0.00000000000E+00  0.00000000000E+00  0.11721604821E+04  0.11721604822E+04  0.50400001928E-02 0. -1.
        1   -1    0    0  501    0  0.00000000000E+00  0.00000000000E+00 -0.22889285434E+04  0.22889285434E+04  0.50400001928E-02 0.  1.
    10030    2    1    2    0    0  0.00000000000E+00  0.00000000000E+00 -0.11167680613E+04  0.34610890256E+04  0.32759680005E+04 0.  0.
        5    1    3    3  502    0 -0.12707718051E+04  0.32327091366E+03  0.47872045707E+03  0.13959084605E+04  0.46999998093E+01 0. -1.
       -5    1    3    3    0  502  0.12707718051E+04 -0.32327091366E+03 -0.15954885183E+04  0.20651805651E+04  0.46999998093E+01 0.  1.
</event>
<event>
 5   0  0.2658600E-06  0.3229062E+04  0.7818609E-02  0.8181184E-01
       -2   -1    0    0    0  501  0.00000000000E+00  0.00000000000E+00  0.23295683365E+04  0.23295683365E+04  0.25500000920E-02 0.  1.
        2   -1    0    0  501    0  0.00000000000E+00  0.00000000000E+00 -0.11189673512E+04  0.11189673512E+04  0.25500000920E-02 0. -1.
    10030    2    1    2    0    0  0.00000000000E+00  0.00000000000E+00  0.12106009853E+04  0.34485356877E+04  0.32290623474E+04 0.  0.
        5    1    3    3  502    0 -0.18058625715E+03  0.25678438326E+03 -0.10860519406E+04  0.11305222348E+04  0.46999998093E+01 0. -1.
       -5    1    3    3    0  502  0.18058625715E+03 -0.25678438326E+03  0.22966529259E+04  0.23180134529E+04  0.46999998093E+01 0.  1.
</event>
<event>
 5   0  0.2658600E-06  0.2986015E+04  0.7818609E-02  0.8247736E-01
       -2   -1    0    0    0  501  0.00000000000E+00  0.00000000000E+00  0.11767529764E+04  0.11767529764E+04  0.25500000920E-02 0.  1.
        2   -1    0    0  501    0  0.00000000000E+00  0.00000000000E+00 -0.18942555093E+04  0.18942555093E+04  0.25500000920E-02 0. -1.
    10030    2    1    2    0    0  0.00000000000E+00  0.00000000000E+00 -0.71750253286E+03  0.30710084857E+04  0.29860146072E+04 0.  0.
        5    1    3    3  502    0  0.10701109333E+04  0.10254110908E+04 -0.54399874014E+03  0.15787849867E+04  0.46999998093E+01 0. -1.
       -5    1    3    3    0  502 -0.10701109333E+04 -0.10254110908E+04 -0.17350379272E+03  0.14922234990E+04  0.46999998093E+01 0.  1.
</event>
<event>
 5   0  0.2658600E-06  0.3174940E+04  0.7818609E-02  0.8195467E-01
       -2   -1    0    0    0  501  0.00000000000E+00  0.00000000000E+00  0.15805173627E+04  0.15805173627E+04  0.25500000920E-02 0.  1.
        2   -1    0    0  501    0  0.00000000000E+00  0.00000000000E+00 -0.15944530606E+04  0.15944530606E+04  0.25500000920E-02 0. -1.
    10030    2    1    2    0    0  0.00000000000E+00  0.00000000000E+00 -0.13935697866E+02  0.31749704234E+04  0.31749398397E+04 0.  0.
        5    1    3    3  502    0  0.13767854719E+03  0.93481763676E+03 -0.12825973442E+04  0.15930842519E+04  0.46999998093E+01 0. -1.
       -5    1    3    3    0  502 -0.13767854719E+03 -0.93481763676E+03  0.12686616464E+04  0.15818861714E+04  0.46999998093E+01 0.  1.
</event>
<event>
 5   0  0.8845526E-07  0.3294325E+04  0.7818609E-02  0.8164341E-01
       -1   -1    0    0    0  501  0.00000000000E+00  0.00000000000E+00  0.15168691655E+04  0.15168691655E+04  0.50400001928E-02 0.  1.
        1   -1    0    0  501    0  0.00000000000E+00  0.00000000000E+00 -0.17886477295E+04  0.17886477295E+04  0.50400001928E-02 0. -1.
    10030    2    1    2    0    0  0.00000000000E+00  0.00000000000E+00 -0.27177856397E+03  0.33055168950E+04  0.32943251745E+04 0.  0.
        1    1    3    3  502    0 -0.13215605509E+04  0.10139172046E+03  0.84536041348E+03  0.15720804048E+04  0.50400001928E-02 0.  1.
       -1    1    3    3    0  502  0.13215605509E+04 -0.10139172046E+03 -0.11171389774E+04  0.17334364902E+04  0.50400001928E-02 0. -1.
</event>
<event>
 5   0  0.2574803E-06  0.2893818E+04  0.7818609E-02  0.8274719E-01
        2   -1    0    0  501    0  0.00000000000E+00  0.00000000000E+00  0.17899239559E+04  0.17899239560E+04  0.25500000920E-02 0. -1.
       -2   -1    0    0    0  501  0.00000000000E+00  0.00000000000E+00 -0.11696283085E+04  0.11696283085E+04  0.25500000920E-02 0.  1.
    10030    2    1    2    0    0  0.00000000000E+00  0.00000000000E+00  0.62029564749E+03  0.29595522644E+04  0.28938180516E+04 0.  0.
        4    1    3    3  502    0  0.10942201628E+04 -0.55263224688E+02  0.12766935880E+04  0.16823554675E+04  0.12699999809E+01 0. -1.
       -4    1    3    3    0  502 -0.10942201628E+04  0.55263224688E+02 -0.65639794046E+03  0.12771967969E+04  0.12699999809E+01 0.  1.
</event>
<event>
 5   0  0.8845526E-07  0.3325709E+04  0.7818609E-02  0.8156384E-01
        1   -1    0    0  501    0  0.00000000000E+00  0.00000000000E+00  0.25503026310E+04  0.25503026310E+04  0.50400001928E-02 0.  1.
       -1   -1    0    0    0  501  0.00000000000E+00  0.00000000000E+00 -0.10842185245E+04  0.10842185245E+04  0.50400001928E-02 0. -1.
    10030    2    1    2    0    0  0.00000000000E+00  0.00000000000E+00  0.14660841065E+04  0.36345211555E+04  0.33257091609E+04 0.  0.
        1    1    3    3  502    0  0.10139726291E+03 -0.34201107603E+03 -0.10419096137E+04  0.11012849878E+04  0.50400001928E-02 0. -1.
       -1    1    3    3    0  502 -0.10139726291E+03  0.34201107603E+03  0.25079937202E+04  0.25332361678E+04  0.50400001928E-02 0.  1.
</event>
<event>
 5   0  0.9268670E-07  0.3331531E+04  0.7818609E-02  0.8154918E-01
        1   -1    0    0  501    0  0.00000000000E+00  0.00000000000E+00  0.24410679991E+04  0.24410679991E+04  0.50400001928E-02 0.  1.
       -1   -1    0    0    0  501  0.00000000000E+00  0.00000000000E+00 -0.11367052421E+04  0.11367052421E+04  0.50400001928E-02 0. -1.
    10030    2    1    2    0    0  0.00000000000E+00  0.00000000000E+00  0.13043627570E+04  0.35777732412E+04  0.33315310540E+04 0.  0.
        3    1    3    3  502    0 -0.13513280598E+03 -0.43796862839E+03  0.23720172792E+04  0.24158939086E+04  0.10100000352E+00 0.  1.
       -3    1    3    3    0  502  0.13513280598E+03  0.43796862839E+03 -0.10676545221E+04  0.11618793326E+04  0.10100000352E+00 0. -1.
</event>
<event>
 5   0  0.8705956E-07  0.3268127E+04  0.7818609E-02  0.8171053E-01
       -1   -1    0    0    0  501  0.00000000000E+00  0.00000000000E+00  0.10372392475E+04  0.10372392475E+04  0.50400001928E-02 0.  1.
        1   -1    0    0  501    0  0.00000000000E+00  0.00000000000E+00 -0.25742988809E+04  0.25742988809E+04  0.50400001928E-02 0. -1.
    10030    2    1    2    0    0  0.00000000000E+00  0.00000000000E+00 -0.15370596334E+04  0.36115381284E+04  0.32681271909E+04 0.  0.
        2    1    3    3  502    0 -0.11398894081E+04  0.10056670912E+04 -0.10598951628E+03  0.15237939292E+04  0.25500000920E-02 0.  1.
       -2    1    3    3    0  502  0.11398894081E+04 -0.10056670912E+04 -0.14310701171E+04  0.20877441992E+04  0.25500000920E-02 0. -1.
</event>
<event>
 5   0  0.2574803E-06  0.3304868E+04  0.7818609E-02  0.8161658E-01
       -2   -1    0    0    0  501  0.00000000000E+00  0.00000000000E+00  0.28843003418E+04  0.28843003419E+04  0.25500000920E-02 0. -1.
        2   -1    0    0  501    0  0.00000000000E+00  0.00000000000E+00 -0.94669011667E+03  0.94669011667E+03  0.25500000920E-02 0.  1.
    10030    2    1    2    0    0  0.00000000000E+00  0.00000000000E+00  0.19376102252E+04  0.38309904585E+04  0.33048683043E+04 0.  0.
        4    1    3    3  502    0  0.51410114135E+03  0.40929377903E+03  0.27263221229E+04  0.28043992782E+04  0.12699999809E+01 0. -1.
       -4    1    3    3    0  502 -0.51410114135E+03 -0.40929377903E+03 -0.78871189768E+03  0.10265911803E+04  0.12699999809E+01 0.  1.
</event>
<event>
 5   0  0.9295663E-07  0.3279902E+04  0.7818609E-02  0.8168028E-01
       -1   -1    0    0    0  501  0.00000000000E+00  0.00000000000E+00  0.11485550153E+04  0.11485550153E+04  0.50400001928E-02 0.  1.
        1   -1    0    0  501    0  0.00000000000E+00  0.00000000000E+00 -0.23415851814E+04  0.23415851814E+04  0.50400001928E-02 0. -1.
    10030    2    1    2    0    0  0.00000000000E+00  0.00000000000E+00 -0.11930301661E+04  0.34901401967E+04  0.32799020741E+04 0.  0.
        4    1    3    3  502    0 -0.59236614950E+03  0.27297608636E+03  0.10045999190E+04  0.11977630020E+04  0.12699999809E+01 0.  1.
       -4    1    3    3    0  502  0.59236614950E+03 -0.27297608636E+03 -0.21976300852E+04  0.22923771947E+04  0.12699999809E+01 0. -1.
</event>
<event>
 5   0  0.9268670E-07  0.3312057E+04  0.7818609E-02  0.8159834E-01
        1   -1    0    0  501    0  0.00000000000E+00  0.00000000000E+00  0.16541727282E+04  0.16541727282E+04  0.50400001928E-02 0. -1.
       -1   -1    0    0    0  501  0.00000000000E+00  0.00000000000E+00 -0.16578862327E+04  0.16578862327E+04  0.50400001928E-02 0.  1.
    10030    2    1    2    0    0  0.00000000000E+00  0.00000000000E+00 -0.37135045832E+01  0.33120589609E+04  0.33120568791E+04 0.  0.
        3    1    3    3  502    0  0.87386495056E+03  0.30507477396E+03  0.13713591752E+04  0.16544898208E+04  0.10100000352E+00 0. -1.
       -3    1    3    3    0  502 -0.87386495056E+03 -0.30507477396E+03 -0.13750726798E+04  0.16575691401E+04  0.10100000352E+00 0.  1.
</event>
<event>
 5   0  0.2705859E-06  0.3247509E+04  0.7818609E-02  0.8176382E-01
        2   -1    0    0  501    0  0.00000000000E+00  0.00000000000E+00  0.14755899477E+04  0.14755899477E+04  0.25500000920E-02 0.  1.
       -2   -1    0    0    0  501  0.00000000000E+00  0.00000000000E+00 -0.17867967898E+04  0.17867967898E+04  0.25500000920E-02 0. -1.
    10030    2    1    2    0    0  0.00000000000E+00  0.00000000000E+00 -0.31120684208E+03  0.32623867376E+04  0.32475094344E+04 0.  0.
        1    1    3    3  502    0 -0.54108589664E+03 -0.14424265693E+04 -0.67099469431E+03  0.16803577700E+04  0.50400001928E-02 0. -1.
       -1    1    3    3    0  502  0.54108589664E+03  0.14424265693E+04  0.35978785223E+03  0.15820289675E+04  0.50400001928E-02 0.  1.
</event>
<event>
 5   0  0.2658600E-06  0.3301865E+04  0.7818609E-02  0.8162421E-01
       -2   -1    0    0    0  501  0.00000000000E+00  0.00000000000E+00  0.12476164254E+04  0.12476164254E+04  0.25500000920E-02 0.  1.
        2   -1    0    0  501    0  0.00000000000E+00  0.00000000000E+00 -0.21846287501E+04  0.21846287501E+04  0.25500000920E-02 0. -1.
    10030    2    1    2    0    0  0.00000000000E+00  0.00000000000E+00 -0.93701232464E+03  0.34322451755E+04  0.33018653589E+04 0.  0.
        5    1    3    3  502    0  0.76173811555E+03 -0.40201816981E+03  0.99554475110E+03  0.13164326823E+04  0.46999998093E+01 0.  1.
       -5    1    3    3    0  502 -0.76173811555E+03  0.40201816981E+03 -0.19325570757E+04  0.21158124932E+04  0.46999998093E+01 0. -1.
</event>
<event>
 5   0  0.9295663E-07  0.3171418E+04  0.7818609E-02  0.8196407E-01
       -1   -1    0    0    0  501  0.00000000000E+00  0.00000000000E+00  0.19471150663E+04  0.19471150663E+04  0.50400001928E-02 0. -1.
        1   -1    0    0  501    0  0.00000000000E+00  0.00000000000E+00 -0.12913836115E+04  0.12913836115E+04  0.50400001928E-02 0.  1.
    10030    2    1    2    0    0  0.00000000000E+00  0.00000000000E+00  0.65573145475E+03  0.32384986778E+04  0.31714176554E+04 0.  0.
        4    1    3    3  502    0  0.11980866408E+04 -0.58968786598E+03 -0.54539963668E+03  0.14424305026E+04  0.12699999809E+01 0.  1.
       -4    1    3    3    0  502 -0.11980866408E+04  0.58968786598E+03  0.12011310914E+04  0.17960681752E+04  0.12699999809E+01 0. -1.
</event>
<event>
 5   0  0.2574803E-06  0.2988457E+04  0.7818609E-02  0.8247035E-01
        2   -1    0    0  501    0  0.00000000000E+00  0.00000000000E+00  0.16795946956E+04  0.16795946956E+04  0.25500000920E-02 0.  1.
       -2   -1    0    0    0  501  0.00000000000E+00  0.00000000000E+00 -0.13293204105E+04  0.13293204105E+04  0.25500000920E-02 0. -1.
    10030    2    1    2    0    0  0.00000000000E+00  0.00000000000E+00  0.35027428509E+03  0.30089151061E+04  0.29884574684E+04 0.  0.
        4    1    3    3  502    0 -0.60056243231E+03  0.10595277849E+03 -0.11983185364E+04  0.13445706207E+04  0.12699999809E+01 0. -1.
       -4    1    3    3    0  502  0.60056243231E+03 -0.10595277849E+03  0.15485928215E+04  0.16643444854E+04  0.12699999809E+01 0.  1.
</event>
<event>
 5   0  0.2614212E-06  0.3331307E+04  0.7818609E-02  0.8154975E-01
       -2   -1    0    0    0  501  0.00000000000E+00  0.00000000000E+00  0.17280728568E+04  0.17280728568E+04  0.25500000920E-02 0. -1.
        2   -1    0    0  501    0  0.00000000000E+00  0.00000000000E+00 -0.16054883461E+04  0.16054883461E+04  0.25500000920E-02 0.  1.
    10030    2    1    2    0    0  0.00000000000E+00  0.00000000000E+00  0.12258451066E+03  0.33335612029E+04  0.33313065502E+04 0.  0.
        2    1    3    3  502    0  0.95738473358E+03  0.12781721435E+04  0.53499544529E+03  0.16842000128E+04  0.25500000920E-02 0.  1.
       -2    1    3    3    0  502 -0.95738473358E+03 -0.12781721435E+04 -0.41241093463E+03  0.16493611902E+04  0.25500000920E-02 0. -1.
</event>
<event>
 5   0  0.8845526E-07  0.3312941E+04  0.7818609E-02  0.8159610E-01
       -1   -1    0    0    0  501  0.00000000000E+00  0.00000000000E+00  0.13918788717E+04  0.13918788717E+04  0.50400001928E-02 0.  1.
        1   -1    0    0  501    0  0.00000000000E+00  0.00000000000E+00 -0.19713601955E+04  0.19713601955E+04  0.50400001928E-02 0. -1.
    10030    2    1    2    0    0  0.00000000000E+00  0.00000000000E+00 -0.57948132380E+03  0.33632390672E+04  0.33129410526E+04 0.  0.
        1    1    3    3  502    0  0.12836939916E+04  0.20385719401E+03 -0.13322031625E+04  0.18612343447E+04  0.50400001928E-02 0. -1.
       -1    1    3    3    0  502 -0.12836939916E+04 -0.20385719401E+03  0.75272183872E+03  0.15020047224E+04  0.50400001928E-02 0.  1.
</event>
<event>
 5   0  0.2614212E-06  0.3308535E+04  0.7818609E-02  0.8160727E-01
        2   -1    0    0  501    0  0.00000000000E+00  0.00000000000E+00  0.19227942483E+04  0.19227942483E+04  0.25500000920E-02 0. -1.
       -2   -1    0    0    0  501  0.00000000000E+00  0.00000000000E+00 -0.14232418184E+04  0.14232418184E+04  0.25500000920E-02 0.  1.
    10030    2    1    2    0    0  0.00000000000E+00  0.00000000000E+00  0.49955242988E+03  0.33460360666E+04  0.33085351334E+04 0.  0.
        2    1    3    3  502    0 -0.15343910858E+04  0.61196806080E+03  0.33875222824E+03  0.16863018661E+04  0.25500000920E-02 0. -1.
       -2    1    3    3    0  502  0.15343910858E+04 -0.61196806080E+03  0.16080020164E+03  0.16597342005E+04  0.25500000920E-02 0.  1.
</event>
<event>
 5   0  0.8705956E-07  0.3306971E+04  0.7818609E-02  0.8161124E-01
       -1   -1    0    0    0  501  0.00000000000E+00  0.00000000000E+00  0.10463433683E+04  0.10463433683E+04  0.50400001928E-02 0.  1.
        1   -1    0    0  501    0  0.00000000000E+00  0.00000000000E+00 -0.26129221520E+04  0.26129221520E+04  0.50400001928E-02 0. -1.
    10030    2    1    2    0    0  0.00000000000E+00  0.00000000000E+00 -0.15665787837E+04  0.36592655203E+04  0.33069706776E+04 0.  0.
        2    1    3    3  502    0  0.12016456333E+04 -0.90815428144E+03 -0.28478432570E+02  0.15064884493E+04  0.25500000920E-02 0.  1.
       -2    1    3    3    0  502 -0.12016456333E+04  0.90815428144E+03 -0.15381003512E+04  0.21527770709E+04  0.25500000920E-02 0. -1.
</event>
<event>
 5   0  0.8845526E-07  0.3345401E+04  0.7818609E-02  0.8151438E-01
        1   -1    0    0  501    0  0.00000000000E+00  0.00000000000E+00  0.14947495204E+04  0.14947495204E+04  0.50400001928E-02 0.  1.
       -1   -1    0    0    0  501  0.00000000000E+00  0.00000000000E+00 -0.18718362888E+04  0.18718362888E+04  0.50400001928E-02 0. -1.
    10030    2    1    2    0    0  0.00000000000E+00  0.00000000000E+00 -0.37708676840E+03  0.33665858093E+04  0.33454006606E+04 0.  0.
        1    1    3    3  502    0  0.10705105179E+04  0.59510398043E+03 -0.13349611429E+04  0.18117016226E+04  0.50400001928E-02 0. -1.
       -1    1    3    3    0  502 -0.10705105179E+04 -0.59510398043E+03  0.95787437446E+03  0.15548841866E+04  0.50400001928E-02 0.  1.
</event>
<event>
 5   0  0.2705859E-06  0.2843447E+04  0.7818609E-02  0.8289905E-01
        2   -1    0    0  501    0  0.00000000000E+00  0.00000000000E+00  0.19785729318E+04  0.19785729318E+04  0.25500000920E-02 0.  1.
       -2   -1    0    0    0  501  0.00000000000E+00  0.00000000000E+00 -0.10215936752E+04  0.10215936752E+04  0.25500000920E-02 0. -1.
    10030    2    1    2    0    0  0.00000000000E+00  0.00000000000E+00  0.95697925662E+03  0.30001666070E+04  0.28434469174E+04 0.  0.
        1    1    3    3  502    0  0.12149737365E+04 -0.15061630810E+03 -0.28415653283E+03  0.12568179613E+04  0.50400001928E-02 0. -1.
       -1    1    3    3    0  502 -0.12149737365E+04  0.15061630810E+03  0.12411357895E+04  0.17433486457E+04  0.50400001928E-02 0.  1.
</event>
<event>
 5   0  0.2614212E-06  0.3318367E+04  0.7818609E-02  0.8158237E-01
        2   -1    0    0  501    0  0.00000000000E+00  0.00000000000E+00  0.13020413182E+04  0.13020413182E+04  0.25500000920E-02 0. -1.
       -2   -1    0    0    0  501  0.00000000000E+00  0.00000000000E+00 -0.21142881849E+04  0.21142881849E+04  0.25500000920E-02 0.  1.
    10030    2    1    2    0    0  0.00000000000E+00  0.00000000000E+00 -0.81224686669E+03  0.34163295032E+04  0.33183674151E+04 0.  0.
        2    1    3    3  502    0  0.11896321755E+04 -0.73954777793E+03 -0.13216074108E+04  0.19258249601E+04  0.25500000920E-02 0.  1.
       -2    1    3    3    0  502 -0.11896321755E+04  0.73954777793E+03  0.50936054412E+03  0.14905045430E+04  0.25500000920E-02 0. -1.
</event>
<event>
 5   0  0.8845526E-07  0.3305040E+04  0.7818609E-02  0.8161614E-01
        1   -1    0    0  501    0  0.00000000000E+00  0.00000000000E+00  0.17868696285E+04  0.17868696285E+04  0.50400001928E-02 0.  1.
       -1   -1    0    0    0  501  0.00000000000E+00  0.00000000000E+00 -0.15282716635E+04  0.15282716635E+04  0.50400001928E-02 0. -1.
    10030    2    1    2    0    0  0.00000000000E+00  0.00000000000E+00  0.25859796504E+03  0.33151412920E+04  0.33050399208E+04 0.  0.
        1    1    3    3  502    0 -0.15840847966E+04 -0.46573084583E+03  0.19727302535E+03  0.16628729688E+04  0.50400001928E-02 0.  1.
       -1    1    3    3    0  502  0.15840847966E+04  0.46573084583E+03  0.61324939691E+02  0.16522683232E+04  0.50400001928E-02 0. -1.
</event>
<event>
 5   0  0.8705956E-07  0.3325205E+04  0.7818609E-02  0.8156512E-01
       -1   -1    0    0    0  501  0.00000000000E+00  0.00000000000E+00  0.15493110086E+04  0.15493110086E+04  0.50400001928E-02 0.  1.
        1   -1    0    0  501    0  0.00000000000E+00  0.00000000000E+00 -0.17841779621E+04  0.17841779621E+04  0.50400001928E-02 0. -1.
    10030    2    1    2    0    0  0.00000000000E+00  0.00000000000E+00 -0.23486695356E+03  0.33334889707E+04  0.33252046903E+04 0.  0.
        2    1    3    3  502    0  0.85394455237E+03 -0.12326265659E+04  0.60244816849E+03  0.16160239309E+04  0.25500000920E-02 0.  1.
       -2    1    3    3    0  502 -0.85394455237E+03  0.12326265659E+04 -0.83731512206E+03  0.17174650398E+04  0.25500000920E-02 0. -1.
</event>
<event>
 5   0  0.2705859E-06  0.3271847E+04  0.7818609E-02  0.8170096E-01
        2   -1    0    0  501    0  0.00000000000E+00  0.00000000000E+00  0.16341277838E+04  0.16341277838E+04  0.25500000920E-02 0.  1.
       -2   -1    0    0    0  501  0.00000000000E+00  0.00000000000E+00 -0.16377216528E+04  0.16377216528E+04  0.25500000920E-02 0. -1.
    10030    2    1    2    0    0  0.00000000000E+00  0.00000000000E+00 -0.35938690620E+01  0.32718494366E+04  0.32718474628E+04 0.  0.
        1    1    3    3  502    0 -0.11858182994E+04  0.75166654241E+03 -0.84148716046E+03  0.16368470519E+04  0.50400001928E-02 0. -1.
       -1    1    3    3    0  502  0.11858182994E+04 -0.75166654241E+03  0.83789329140E+03  0.16350023847E+04  0.50400001928E-02 0.  1.
</event>
<event>
 5   0  0.8705956E-07  0.3154414E+04  0.7818609E-02  0.8200961E-01
        1   -1    0    0  501    0  0.00000000000E+00  0.00000000000E+00  0.24418071386E+04  0.24418071386E+04  0.50400001928E-02 0. -1.
       -1   -1    0    0    0  501  0.00000000000E+00  0.00000000000E+00 -0.10187464003E+04  0.10187464004E+04  0.50400001928E-02 0.  1.
    10030    2    1    2    0    0  0.00000000000E+00  0.00000000000E+00  0.14230607383E+04  0.34605535390E+04  0.31544141978E+04 0.  0.
        2    1    3    3  502    0  0.89255946532E+03  0.37344811689E+03  0.20779894553E+04  0.22921967786E+04  0.25500000920E-02 0. -1.
       -2    1    3    3    0  502 -0.89255946532E+03 -0.37344811689E+03 -0.65492871707E+03  0.11683567604E+04  0.25500000920E-02 0.  1.
</event>
<event>
 5   0  0.9268670E-07  0.3320037E+04  0.7818609E-02  0.8157816E-01
       -1   -1    0    0    0  501  0.00000000000E+00  0.00000000000E+00  0.13462860700E+04  0.13462860700E+04  0.50400001928E-02 0.  1.
        1   -1    0    0  501    0  0.00000000000E+00  0.00000000000E+00 -0.20468618442E+04  0.20468618442E+04  0.50400001928E-02 0. -1.
    10030    2    1    2    0    0  0.00000000000E+00  0.00000000000E+00 -0.70057577425E+03  0.33931479142E+04  0.33200371010E+04 0.  0.
        3    1    3    3  502    0  0.78017007164E+02 -0.42630860191E+03 -0.19880223504E+04  0.20347133836E+04  0.10100000352E+00 0. -1.
       -3    1    3    3    0  502 -0.78017007164E+02  0.42630860191E+03  0.12874465761E+04  0.13584345306E+04  0.10100000352E+00 0.  1.
</event>
<event>
 5   0  0.2574803E-06  0.3339265E+04  0.7818609E-02  0.8152976E-01
        2   -1    0    0  501    0  0.00000000000E+00  0.00000000000E+00  0.23193936787E+04  0.23193936787E+04  0.25500000920E-02 0. -1.
       -2   -1    0    0    0  501  0.00000000000E+00  0.00000000000E+00 -0.12018968949E+04  0.12018968949E+04  0.25500000920E-02 0.  1.
    10030    2    1    2    0    0  0.00000000000E+00  0.00000000000E+00  0.11174967838E+04  0.35212905736E+04  0.33392646259E+04 0.  0.
        4    1    3    3  502    0  0.15786598191E+04  0.51148445901E+03  0.36462881925E+03  0.16990406014E+04  0.12699999809E+01 0. -1.
       -4    1    3    3    0  502 -0.15786598191E+04 -0.51148445901E+03  0.75286796459E+03  0.18222499723E+04  0.12699999809E+01 0.  1.
</event>
<event>
 5   0  0.2574803E-06  0.3274793E+04  0.7818609E-02  0.8169339E-01
       -2   -1    0    0    0  501  0.00000000000E+00  0.00000000000E+00  0.13203823039E+04  0.13203823039E+04  0.25500000920E-02 0.  1.
        2   -1    0    0  501    0  0.00000000000E+00  0.00000000000E+00 -0.20305239913E+04  0.20305239913E+04  0.25500000920E-02 0. -1.
    10030    2    1    2    0    0  0.00000000000E+00  0.00000000000E+00 -0.71014168740E+03  0.33509062952E+04  0.32747933954E+04 0.  0.
        4    1    3    3  502    0  0.96800353098E+03  0.13013310451E+04 -0.12495963712E+03  0.16266867703E+04  0.12699999809E+01 0.  1.
       -4    1    3    3    0  502 -0.96800353098E+03 -0.13013310451E+04 -0.58518205028E+03  0.17242195248E+04  0.12699999809E+01 0. -1.
</event>
<event>
 5   0  0.2574803E-06  0.3280926E+04  0.7818609E-02  0.8167766E-01
        2   -1    0    0  501    0  0.00000000000E+00  0.00000000000E+00  0.83413471691E+03  0.83413471691E+03  0.25500000920E-02 0. -1.
       -2   -1    0    0    0  501  0.00000000000E+00  0.00000000000E+00 -0.32262402809E+04  0.32262402809E+04  0.25500000920E-02 0.  1.
    10030    2    1    2    0    0  0.00000000000E+00  0.00000000000E+00 -0.23921055640E+04  0.40603749978E+04  0.32809261030E+04 0.  0.
        4    1    3    3  502    0 -0.97655320433E+03  0.13135052684E+04 -0.10595540550E+04  0.19497714377E+04  0.12699999809E+01 0. -1.
       -4    1    3    3    0  502  0.97655320433E+03 -0.13135052684E+04 -0.13325515090E+04  0.21106035601E+04  0.12699999809E+01 0.  1.
</event>
<event>
 5   0  0.2674551E-06  0.3283121E+04  0.7818609E-02  0.8167204E-01
        2   -1    0    0  501    0  0.00000000000E+00  0.00000000000E+00  0.21537446395E+04  0.21537446395E+04  0.25500000920E-02 0. -1.
       -2   -1    0    0    0  501  0.00000000000E+00  0.00000000000E+00 -0.12511792311E+04  0.12511792311E+04  0.25500000920E-02 0.  1.
    10030    2    1    2    0    0  0.00000000000E+00  0.00000000000E+00  0.90256540835E+03  0.34049238706E+04  0.32831208092E+04 0.  0.
        3    1    3    3  502    0  0.15612642067E+04 -0.33188212067E+03  0.84895183201E+03  0.18078746882E+04  0.10100000352E+00 0. -1.
       -3    1    3    3    0  502 -0.15612642067E+04  0.33188212067E+03  0.53613576336E+02  0.15970491823E+04  0.10100000352E+00 0.  1.
</event>
<event>
 5   0  0.8845526E-07  0.3321238E+04  0.7818609E-02  0.8157512E-01
        1   -1    0    0  501    0  0.00000000000E+00  0.00000000000E+00  0.26582799266E+04  0.26582799266E+04  0.50400001928E-02 0. -1.
       -1   -1    0    0    0  501  0.00000000000E+00  0.00000000000E+00 -0.10373832566E+04  0.10373832566E+04  0.50400001928E-02 0.  1.
    10030    2    1    2    0    0  0.00000000000E+00  0.00000000000E+00  0.16208966700E+04  0.36956631831E+04  0.33212377735E+04 0.  0.
        1    1    3    3  502    0 -0.62128863442E+03 -0.54393252778E+03  0.24136362428E+04  0.25509806104E+04  0.50400001928E-02 0. -1.
       -1    1    3    3    0  502  0.62128863442E+03  0.54393252778E+03 -0.79273957280E+03  0.11446825727E+04  0.50400001928E-02 0.  1.
</event>
<event>
 5   0  0.2614212E-06  0.3217219E+04  0.7818609E-02  0.8184284E-01
       -2   -1    0    0    0  501  0.00000000000E+00  0.00000000000E+00  0.13240090896E+04  0.13240090896E+04  0.25500000920E-02 0.  1.
        2   -1    0    0  501    0  0.00000000000E+00  0.00000000000E+00 -0.19543855226E+04  0.19543855226E+04  0.25500000920E-02 0. -1.
    10030    2    1    2    0    0  0.00000000000E+00  0.00000000000E+00 -0.63037643299E+03  0.32783946123E+04  0.32172187968E+04 0.  0.
        2    1    3    3  502    0 -0.14028848338E+03  0.76481472368E+03 -0.17501561015E+04  0.19151158711E+04  0.25500000920E-02 0. -1.
       -2    1    3    3    0  502  0.14028848338E+03 -0.76481472368E+03  0.11197796685E+04  0.13632787412E+04  0.25500000920E-02 0.  1.
</event>
<event>
 5   0  0.2705859E-06  0.2404508E+04  0.7818609E-02  0.8437818E-01
       -2   -1    0    0    0  501  0.00000000000E+00  0.00000000000E+00  0.11143842756E+04  0.11143842756E+04  0.25500000920E-02 0. -1.
        2   -1    0    0  501    0  0.00000000000E+00  0.00000000000E+00 -0.12970524259E+04  0.12970524259E+04  0.25500000920E-02 0.  1.
    10030    2    1    2    0    0  0.00000000000E+00  0.00000000000E+00 -0.18266815033E+03  0.24114367014E+04  0.24045081227E+04 0.  0.
        1    1    3    3  502    0  0.64185060853E+03  0.35978040377E+03  0.86219512663E+03  0.11334877939E+04  0.50400001928E-02 0. -1.
       -1    1    3    3    0  502 -0.64185060853E+03 -0.35978040377E+03 -0.10448632770E+04  0.12779489075E+04  0.50400001928E-02 0.  1.
</event>
<event>
 5   0  0.8705956E-07  0.3160393E+04  0.7818609E-02  0.8199356E-01
        1   -1    0    0  501    0  0.00000000000E+00  0.00000000000E+00  0.22491483682E+04  0.22491483682E+04  0.50400001928E-02 0.  1.
       -1   -1    0    0    0  501  0.00000000000E+00  0.00000000000E+00 -0.11102071382E+04  0.11102071382E+04  0.50400001928E-02 0. -1.
    10030    2    1    2    0    0  0.00000000000E+00  0.00000000000E+00  0.11389412300E+04  0.33593555065E+04  0.31603927436E+04 0.  0.
        2    1    3    3  502    0  0.18119996650E+03 -0.70721589093E+03 -0.92019667369E+03  0.11746274569E+04  0.25500000920E-02 0. -1.
       -2    1    3    3    0  502 -0.18119996650E+03  0.70721589093E+03  0.20591379037E+04  0.21847280496E+04  0.25500000920E-02 0.  1.
</event>
<event>
 5   0  0.8705956E-07  0.3292378E+04  0.7818609E-02  0.8164837E-01
       -1   -1    0    0    0  501  0.00000000000E+00  0.00000000000E+00  0.16384447087E+04  0.16384447087E+04  0.50400001928E-02 0. -1.
        1   -1    0    0  501    0  0.00000000000E+00  0.00000000000E+00 -0.16539703020E+04  0.16539703020E+04  0.50400001928E-02 0.  1.
    10030    2    1    2    0    0  0.00000000000E+00  0.00000000000E+00 -0.15525593231E+02  0.32924150107E+04  0.32923784045E+04 0.  0.
        2    1    3    3  502    0 -0.79228687038E+03  0.93696386214E+03  0.10896641514E+04  0.16410325185E+04  0.25500000920E-02 0. -1.
       -2    1    3    3    0  502  0.79228687038E+03 -0.93696386214E+03 -0.11051897446E+04  0.16513824922E+04  0.25500000920E-02 0.  1.
</event>
<event>
 5   0  0.2574803E-06  0.3226000E+04  0.7818609E-02  0.8181984E-01
        2   -1    0    0  501    0  0.00000000000E+00  0.00000000000E+00  0.10063360372E+04  0.10063360372E+04  0.25500000920E-02 0. -1.
       -2   -1    0    0    0  501  0.00000000000E+00  0.00000000000E+00 -0.25853883946E+04  0.25853883946E+04  0.25500000920E-02 0.  1.
    10030    2    1    2    0    0  0.00000000000E+00  0.00000000000E+00 -0.15790523574E+04  0.35917244317E+04  0.32260003171E+04 0.  0.
        4    1    3    3  502    0  0.68206852373E+03  0.35939810469E+03  0.78791716760E+03  0.11023608958E+04  0.12699999809E+01 0. -1.
       -4    1    3    3    0  502 -0.68206852373E+03 -0.35939810469E+03 -0.23669695250E+04  0.24893635359E+04  0.12699999809E+01 0.  1.
</event>
<event>
 5   0  0.2574803E-06  0.3105681E+04  0.7818609E-02  0.8214180E-01
        2   -1    0    0  501    0  0.00000000000E+00  0.00000000000E+00  0.19556688915E+04  0.19556688915E+04  0.25500000920E-02 0. -1.
       -2   -1    0    0    0  501  0.00000000000E+00  0.00000000000E+00 -0.12329869513E+04  0.12329869513E+04  0.25500000920E-02 0.  1.
    10030    2    1    2    0    0  0.00000000000E+00  0.00000000000E+00  0.72268194021E+03  0.31886558428E+04  0.31056813902E+04 0.  0.
        4    1    3    3  502    0 -0.33252072349E+03 -0.88556279425E+03  0.16257132884E+04  0.18808872383E+04  0.12699999809E+01 0. -1.
       -4    1    3    3    0  502  0.33252072349E+03  0.88556279425E+03 -0.90303134824E+03  0.13077686045E+04  0.12699999809E+01 0.  1.
</event>
<event>
 5   0  0.2574803E-06  0.3355101E+04  0.7818609E-02  0.8149015E-01
       -2   -1    0    0    0  501  0.00000000000E+00  0.00000000000E+00  0.20144033884E+04  0.20144033884E+04  0.25500000920E-02 0. -1.
        2   -1    0    0  501    0  0.00000000000E+00  0.00000000000E+00 -0.13970271295E+04  0.13970271295E+04  0.25500000920E-02 0.  1.
    10030    2    1    2    0    0  0.00000000000E+00  0.00000000000E+00  0.61737625890E+03  0.34114305179E+04  0.33551013000E+04 0.  0.
        4    1    3    3  502    0  0.77458453526E+03 -0.14521883958E+04  0.63870196629E+03  0.17654387992E+04  0.12699999809E+01 0. -1.
       -4    1    3    3    0  502 -0.77458453526E+03  0.14521883958E+04 -0.21325707388E+02  0.16459917187E+04  0.12699999809E+01 0.  1.
</event>
<event>
 5   0  0.9268670E-07  0.2899132E+04  0.7818609E-02  0.8273136E-01
       -1   -1    0    0    0  501  0.00000000000E+00  0.00000000000E+00  0.20475884527E+04  0.20475884527E+04  0.50400001928E-02 0. -1.
        1   -1    0    0  501    0  0.00000000000E+00  0.00000000000E+00 -0.10262034217E+04  0.10262034217E+04  0.50400001928E-02 0.  1.
    10030    2    1    2    0    0  0.00000000000E+00  0.00000000000E+00  0.10213850309E+04  0.30737918744E+04  0.28991324747E+04 0.  0.
        3    1    3    3  502    0  0.13421539322E+04  0.10691704255E+03 -0.58723265748E+02  0.13476857437E+04  0.10100000352E+00 0.  1.
       -3    1    3    3    0  502 -0.13421539322E+04 -0.10691704255E+03  0.10801082967E+04  0.17261061307E+04  0.10100000352E+00 0. -1.
</event>
<event>
 5   0  0.9530268E-07  0.3307683E+04  0.7818609E-02  0.8160943E-01
        1   -1    0    0  501    0  0.00000000000E+00  0.00000000000E+00  0.83886344530E+03  0.83886344531E+03  0.50400001928E-02 0. -1.
       -1   -1    0    0    0  501  0.00000000000E+00  0.00000000000E+00 -0.32605924895E+04  0.32605924895E+04  0.50400001928E-02 0.  1.
    10030    2    1    2    0    0  0.00000000000E+00  0.00000000000E+00 -0.24217290442E+04  0.40994559348E+04  0.33076830861E+04 0.  0.
        5    1    3    3  502    0 -0.61490322531E+03 -0.26655657854E+03 -0.30847434324E+04  0.31567107121E+04  0.46999998093E+01 0.  1.
       -5    1    3    3    0  502  0.61490322531E+03  0.26655657854E+03  0.66301438819E+03  0.94274522274E+03  0.46999998093E+01 0. -1.
</event>
<event>
 5   0  0.2614212E-06  0.3324326E+04  0.7818609E-02  0.8156733E-01
       -2   -1    0    0    0  501  0.00000000000E+00  0.00000000000E+00  0.16546368358E+04  0.16546368358E+04  0.25500000920E-02 0. -1.
        2   -1    0    0  501    0  0.00000000000E+00  0.00000000000E+00 -0.16697238095E+04  0.16697238095E+04  0.25500000920E-02 0.  1.
    10030    2    1    2    0    0  0.00000000000E+00  0.00000000000E+00 -0.15086973719E+02  0.33243606454E+04  0.33243264105E+04 0.  0.
        2    1    3    3  502    0 -0.15951679693E+04  0.25187820286E+03  0.38588532458E+03  0.16603948214E+04  0.25500000920E-02 0. -1.
       -2    1    3    3    0  502  0.15951679693E+04 -0.25187820286E+03 -0.40097229830E+03  0.16639658239E+04  0.25500000920E-02 0.  1.
</event>
<event>
 5   0  0.8705956E-07  0.2942887E+04  0.7818609E-02  0.8260230E-01
       -1   -1    0    0    0  501  0.00000000000E+00  0.00000000000E+00  0.16664199366E+04  0.16664199366E+04  0.50400001928E-02 0.  1.
        1   -1    0    0  501    0  0.00000000000E+00  0.00000000000E+00 -0.12992801315E+04  0.12992801315E+04  0.50400001928E-02 0. -1.
    10030    2    1    2    0    0  0.00000000000E+00  0.00000000000E+00  0.36713980518E+03  0.29657000681E+04  0.29428872315E+04 0.  0.
        2    1    3    3  502    0 -0.93989498290E+03  0.31470170618E+03  0.12795233609E+04  0.16185239491E+04  0.25500000920E-02 0.  1.
       -2    1    3    3    0  502  0.93989498290E+03 -0.31470170618E+03 -0.91238355574E+03  0.13471761190E+04  0.25500000920E-02 0. -1.
</event>
<event>
 5   0  0.8705956E-07  0.3308783E+04  0.7818609E-02  0.8160664E-01
        1   -1    0    0  501    0  0.00000000000E+00  0.00000000000E+00  0.16735896690E+04  0.16735896690E+04  0.50400001928E-02 0. -1.
       -1   -1    0    0    0  501  0.00000000000E+00  0.00000000000E+00 -0.16354132815E+04  0.16354132815E+04  0.50400001928E-02 0.  1.
    10030    2    1    2    0    0  0.00000000000E+00  0.00000000000E+00  0.38176387545E+02  0.33090029505E+04  0.33087827203E+04 0.  0.
        2    1    3    3  502    0 -0.20480447964E+03  0.98698238870E+03 -0.12928419711E+04  0.16393655702E+04  0.25500000920E-02 0.  1.
       -2    1    3    3    0  502  0.20480447964E+03 -0.98698238870E+03  0.13310183587E+04  0.16696373803E+04  0.25500000920E-02 0. -1.
</event>
<event>
 5   0  0.8845526E-07  0.3463420E+04  0.7818609E-02  0.8122514E-01
       -1   -1    0    0    0  501  0.00000000000E+00  0.00000000000E+00  0.16350775455E+04  0.16350775455E+04  0.50400001928E-02 0.  1.
        1   -1    0    0  501    0  0.00000000000E+00  0.00000000000E+00 -0.18340529857E+04  0.18340529857E+04  0.50400001928E-02 0. -1.
    10030    2    1    2    0    0  0.00000000000E+00  0.00000000000E+00 -0.19897544015E+03  0.34691305312E+04  0.34634196132E+04 0.  0.
        1    1    3    3  502    0 -0.13731484400E+04  0.88475279201E+02 -0.11526272970E+04  0.17949691360E+04  0.50400001928E-02 0. -1.
       -1    1    3    3    0  502  0.13731484400E+04 -0.88475279201E+02  0.95365185685E+03  0.16741613953E+04  0.50400001928E-02 0.  1.
</event>
<event>
 5   0  0.2614212E-06  0.3268734E+04  0.7818609E-02  0.8170897E-01
        2   -1    0    0  501    0  0.00000000000E+00  0.00000000000E+00  0.25752601078E+04  0.25752601078E+04  0.25500000920E-02 0.  1.
       -2   -1    0    0    0  501  0.00000000000E+00  0.00000000000E+00 -0.10372374301E+04  0.10372374301E+04  0.25500000920E-02 0. -1.
    10030    2    1    2    0    0  0.00000000000E+00  0.00000000000E+00  0.15380226777E+04  0.36124975379E+04  0.32687344193E+04 0.  0.
        2    1    3    3  502    0  0.87421453533E+03  0.12777493077E+04  0.19023521445E+03  0.15598345374E+04  0.25500000920E-02 0. -1.
       -2    1    3    3    0  502 -0.87421453533E+03 -0.12777493077E+04  0.13477874633E+04  0.20526630005E+04  0.25500000920E-02 0.  1.
</event>
<event>
 5   0  0.2574803E-06  0.3308091E+04  0.7818609E-02  0.8160840E-01
        2   -1    0    0  501    0  0.00000000000E+00  0.00000000000E+00  0.10351367167E+04  0.10351367167E+04  0.25500000920E-02 0. -1.
       -2   -1    0    0    0  501  0.00000000000E+00  0.00000000000E+00 -0.26430003636E+04  0.26430003636E+04  0.25500000920E-02 0.  1.
    10030    2    1    2    0    0  0.00000000000E+00  0.00000000000E+00 -0.16078636469E+04  0.36781370803E+04  0.33080911224E+04 0.  0.
        4    1    3    3  502    0 -0.87907713636E+03  0.52741158353E+02  0.75279524635E+03  0.11585596822E+04  0.12699999809E+01 0. -1.
       -4    1    3    3    0  502  0.87907713636E+03 -0.52741158353E+02 -0.23606588933E+04  0.25195773981E+04  0.12699999809E+01 0.  1.
</event>
<event>
 5   0  0.8845526E-07  0.3308118E+04  0.7818609E-02  0.8160833E-01
       -1   -1    0    0    0  501  0.00000000000E+00  0.00000000000E+00  0.16344256095E+04  0.16344256095E+04  0.50400001928E-02 0. -1.
        1   -1    0    0  501    0  0.00000000000E+00  0.00000000000E+00 -0.16739284725E+04  0.16739284725E+04  0.50400001928E-02 0.  1.
    10030    2    1    2    0    0  0.00000000000E+00  0.00000000000E+00 -0.39502863007E+02  0.33083540821E+04  0.33081182349E+04 0.  0.
        1    1    3    3  502    0 -0.10992398322E+04 -0.11100808430E+04 -0.56320886803E+03  0.16606661060E+04  0.50400001928E-02 0.  1.
       -1    1    3    3    0  502  0.10992398322E+04  0.11100808430E+04  0.52370600502E+03  0.16476879760E+04  0.50400001928E-02 0. -1.
</event>
<event>
 5   0  0.2705859E-06  0.3312576E+04  0.7818609E-02  0.8159703E-01
        2   -1    0    0  501    0  0.00000000000E+00  0.00000000000E+00  0.96650980860E+03  0.96650980860E+03  0.25500000920E-02 0. -1.
       -2   -1    0    0    0  501  0.00000000000E+00  0.00000000000E+00 -0.28383464404E+04  0.28383464404E+04  0.25500000920E-02 0.  1.
    10030    2    1    2    0    0  0.00000000000E+00  0.00000000000E+00 -0.18718366318E+04  0.38048562490E+04  0.33125758405E+04 0.  0.
        1    1    3    3  502    0  0.11780990350E+04 -0.28354416839E+03  0.36103177866E+03  0.12643807088E+04  0.50400001928E-02 0. -1.
       -1    1    3    3    0  502 -0.11780990350E+04  0.28354416839E+03 -0.22328684104E+04  0.25404755401E+04  0.50400001928E-02 0.  1.
</event>
<event>
 5   0  0.8705956E-07  0.2843146E+04  0.7818609E-02  0.8289997E-01
        1   -1    0    0  501    0  0.00000000000E+00  0.00000000000E+00  0.17579290058E+04  0.17579290058E+04  0.50400001928E-02 0. -1.
       -1   -1    0    0    0  501  0.00000000000E+00  0.00000000000E+00 -0.11495739041E+04  0.11495739041E+04  0.50400001928E-02 0.  1.
    10030    2    1    2    0    0  0.00000000000E+00  0.00000000000E+00  0.60835510171E+03  0.29075029100E+04  0.28431456596E+04 0.  0.
        2    1    3    3  502    0 -0.97489632283E+03  0.88257431808E+03  0.85631482153E+03  0.15692786052E+04  0.25500000920E-02 0.  1.
       -2    1    3    3    0  502  0.97489632283E+03 -0.88257431808E+03 -0.24795971982E+03  0.13382243048E+04  0.25500000920E-02 0. -1.
</event>
<event>
 5   0  0.8845526E-07  0.3313522E+04  0.7818609E-02  0.8159463E-01
        1   -1    0    0  501    0  0.00000000000E+00  0.00000000000E+00  0.23615470175E+04  0.23615470175E+04  0.50400001928E-02 0. -1.
       -1   -1    0    0    0  501  0.00000000000E+00  0.00000000000E+00 -0.11623128041E+04  0.11623128041E+04  0.50400001928E-02 0.  1.
    10030    2    1    2    0    0  0.00000000000E+00  0.00000000000E+00  0.11992342134E+04  0.35238598215E+04  0.33135215924E+04 0.  0.
        1    1    3    3  502    0 -0.10873709285E+04  0.10948467827E+04 -0.41821338874E+02  0.15436366276E+04  0.50400001928E-02 0.  1.
       -1    1    3    3    0  502  0.10873709285E+04 -0.10948467827E+04  0.12410555523E+04  0.19802231939E+04  0.50400001928E-02 0. -1.
</event>
<event>
 5   0  0.9268670E-07  0.3220535E+04  0.7818609E-02  0.8183415E-01
        1   -1    0    0  501    0  0.00000000000E+00  0.00000000000E+00  0.13494471173E+04  0.13494471173E+04  0.50400001928E-02 0.  1.
       -1   -1    0    0    0  501  0.00000000000E+00  0.00000000000E+00 -0.19214986490E+04  0.19214986490E+04  0.50400001928E-02 0. -1.
    10030    2    1    2    0    0  0.00000000000E+00  0.00000000000E+00 -0.57205153169E+03  0.32709457663E+04  0.32205346220E+04 0.  0.
        3    1    3    3  502    0 -0.41352334905E+03  0.13882611356E+04  0.42832588315E+03  0.15105408347E+04  0.10100000352E+00 0.  1.
       -3    1    3    3    0  502  0.41352334905E+03 -0.13882611356E+04 -0.10003774148E+04  0.17604049316E+04  0.10100000352E+00 0. -1.
</event>
<event>
 5   0  0.8845526E-07  0.3417374E+04  0.7818609E-02  0.8133655E-01
        1   -1    0    0  501    0  0.00000000000E+00  0.00000000000E+00  0.15636436169E+04  0.15636436169E+04  0.50400001928E-02 0.  1.
       -1   -1    0    0    0  501  0.00000000000E+00  0.00000000000E+00 -0.18671844694E+04  0.18671844694E+04  0.50400001928E-02 0. -1.
    10030    2    1    2    0    0  0.00000000000E+00  0.00000000000E+00 -0.30354085248E+03  0.34308280863E+04  0.34173738906E+04 0.  0.
        1    1    3    3  502    0 -0.38385238193E+03  0.34643050950E+03 -0.17867564446E+04  0.18600686389E+04  0.50400001928E-02 0. -1.
       -1    1    3    3    0  502  0.38385238193E+03 -0.34643050950E+03  0.14832155921E+04  0.15707594474E+04  0.50400001928E-02 0.  1.
</event>
<event>
 5   0  0.8845526E-07  0.3278359E+04  0.7818609E-02  0.8168424E-01
       -1   -1    0    0    0  501  0.00000000000E+00  0.00000000000E+00  0.21366131194E+04  0.21366131194E+04  0.50400001928E-02 0. -1.
        1   -1    0    0  501    0  0.00000000000E+00  0.00000000000E+00 -0.12575552131E+04  0.12575552131E+04  0.50400001928E-02 0.  1.
    10030    2    1    2    0    0  0.00000000000E+00  0.00000000000E+00  0.87905790629E+03  0.33941683325E+04  0.32783587153E+04 0.  0.
        1    1    3    3  502    0  0.43891120362E+03 -0.57586171362E+03  0.19620732805E+04  0.20914089308E+04  0.50400001928E-02 0. -1.
       -1    1    3    3    0  502 -0.43891120362E+03  0.57586171362E+03 -0.10830153742E+04  0.13027594017E+04  0.50400001928E-02 0.  1.
</event>
<event>
 5   0  0.8705956E-07  0.2744429E+04  0.7818609E-02  0.8320732E-01
        1   -1    0    0  501    0  0.00000000000E+00  0.00000000000E+00  0.13974249554E+04  0.13974249554E+04  0.50400001928E-02 0.  1.
       -1   -1    0    0    0  501  0.00000000000E+00  0.00000000000E+00 -0.13474587179E+04  0.13474587179E+04  0.50400001928E-02 0. -1.
    10030    2    1    2    0    0  0.00000000000E+00  0.00000000000E+00  0.49966237434E+02  0.27448836733E+04  0.27444288577E+04 0.  0.
        2    1    3    3  502    0 -0.22885898287E+03  0.15000066729E+03  0.13698604890E+04  0.13969231881E+04  0.25500000920E-02 0.  1.
       -2    1    3    3    0  502  0.22885898287E+03 -0.15000066729E+03 -0.13198942516E+04  0.13479604852E+04  0.25500000920E-02 0. -1.
</event>
<event>
 5   0  0.8845526E-07  0.3166273E+04  0.7818609E-02  0.8197782E-01
       -1   -1    0    0    0  501  0.00000000000E+00  0.00000000000E+00  0.32841740229E+04  0.32841740229E+04  0.50400001928E-02 0. -1.
        1   -1    0    0  501    0  0.00000000000E+00  0.00000000000E+00 -0.76315129416E+03  0.76315129418E+03  0.50400001928E-02 0.  1.
    10030    2    1    2    0    0  0.00000000000E+00  0.00000000000E+00  0.25210227288E+04  0.40473253171E+04  0.31662733021E+04 0.  0.
        1    1    3    3  502    0  0.47347711537E+03 -0.15025104986E+04  0.10600105186E+04  0.18987734664E+04  0.50400001928E-02 0.  1.
       -1    1    3    3    0  502 -0.47347711537E+03  0.15025104986E+04  0.14610122102E+04  0.21485518507E+04  0.50400001928E-02 0. -1.
</event>
<event>
 5   0  0.2614212E-06  0.3267686E+04  0.7818609E-02  0.8171167E-01
        2   -1    0    0  501    0  0.00000000000E+00  0.00000000000E+00  0.25773149843E+04  0.25773149843E+04  0.25500000920E-02 0. -1.
       -2   -1    0    0    0  501  0.00000000000E+00  0.00000000000E+00 -0.10357454935E+04  0.10357454935E+04  0.25500000920E-02 0.  1.
    10030    2    1    2    0    0  0.00000000000E+00  0.00000000000E+00  0.15415694908E+04  0.36130604778E+04  0.32676856521E+04 0.  0.
        2    1    3    3  502    0  0.40880527022E+03 -0.11683678306E+03  0.25150743741E+04  0.25507590419E+04  0.25500000920E-02 0. -1.
       -2    1    3    3    0  502 -0.40880527022E+03  0.11683678306E+03 -0.97350488327E+03  0.10623014358E+04  0.25500000920E-02 0.  1.
</event>
<event>
 5   0  0.8705956E-07  0.3248050E+04  0.7818609E-02  0.8176241E-01
        1   -1    0    0  501    0  0.00000000000E+00  0.00000000000E+00  0.23343233282E+04  0.23343233282E+04  0.50400001928E-02 0.  1.
       -1   -1    0    0    0  501  0.00000000000E+00  0.00000000000E+00 -0.11298594035E+04  0.11298594035E+04  0.50400001928E-02 0. -1.
    10030    2    1    2    0    0  0.00000000000E+00  0.00000000000E+00  0.12044639247E+04  0.34641827317E+04  0.32480499770E+04 0.  0.
        2    1    3    3  502    0  0.11813377537E+04 -0.63581208714E+03 -0.37389682628E+03  0.13927005188E+04  0.25500000920E-02 0. -1.
       -2    1    3    3    0  502 -0.11813377537E+04  0.63581208714E+03  0.15783607510E+04  0.20714822129E+04  0.25500000920E-02 0.  1.
</event>
<event>
 5   0  0.9530268E-07  0.3322794E+04  0.7818609E-02  0.8157119E-01
       -1   -1    0    0    0  501  0.00000000000E+00  0.00000000000E+00  0.12623903262E+04  0.12623903262E+04  0.50400001928E-02 0.  1.
        1   -1    0    0  501    0  0.00000000000E+00  0.00000000000E+00 -0.21865191194E+04  0.21865191194E+04  0.50400001928E-02 0. -1.
    10030    2    1    2    0    0  0.00000000000E+00  0.00000000000E+00 -0.92412879315E+03  0.34489094456E+04  0.33227943568E+04 0.  0.
        5    1    3    3  502    0 -0.14158319561E+04  0.85634642856E+03 -0.30703289797E+03  0.16829143246E+04  0.46999998093E+01 0.  1.
       -5    1    3    3    0  502  0.14158319561E+04 -0.85634642856E+03 -0.61709589518E+03  0.17659951210E+04  0.46999998093E+01 0. -1.
</event>
<event>
 5   0  0.2705859E-06  0.3288272E+04  0.7818609E-02  0.8165886E-01
       -2   -1    0    0    0  501  0.00000000000E+00  0.00000000000E+00  0.17309978051E+04  0.17309978051E+04  0.25500000920E-02 0.  1.
        2   -1    0    0  501    0  0.00000000000E+00  0.00000000000E+00 -0.15616325431E+04  0.15616325431E+04  0.25500000920E-02 0. -1.
    10030    2    1    2    0    0  0.00000000000E+00  0.00000000000E+00  0.16936526199E+03  0.32926303481E+04  0.32882715851E+04 0.  0.
        1    1    3    3  502    0  0.15423888562E+04 -0.56940069529E+03  0.86087628571E+02  0.16463874439E+04  0.50400001928E-02 0.  1.
       -1    1    3    3    0  502 -0.15423888562E+04  0.56940069529E+03  0.83277633416E+02  0.16462429043E+04  0.50400001928E-02 0. -1.
</event>
<event>
 5   0  0.2705859E-06  0.3524044E+04  0.7818609E-02  0.8108115E-01
        2   -1    0    0  501    0  0.00000000000E+00  0.00000000000E+00  0.20129257376E+04  0.20129257376E+04  0.25500000920E-02 0. -1.
       -2   -1    0    0    0  501  0.00000000000E+00  0.00000000000E+00 -0.15423923195E+04  0.15423923195E+04  0.25500000920E-02 0.  1.
    10030    2    1    2    0    0  0.00000000000E+00  0.00000000000E+00  0.47053341810E+03  0.35553180571E+04  0.35240438121E+04 0.  0.
        1    1    3    3  502    0  0.59393451730E+03  0.46380402235E+03  0.18421504356E+04  0.19903242473E+04  0.50400001928E-02 0. -1.
       -1    1    3    3    0  502 -0.59393451730E+03 -0.46380402235E+03 -0.13716170175E+04  0.15649938098E+04  0.50400001928E-02 0.  1.
</event>
<event>
 5   0  0.2614212E-06  0.3303272E+04  0.7818609E-02  0.8162063E-01
       -2   -1    0    0    0  501  0.00000000000E+00  0.00000000000E+00  0.15809491584E+04  0.15809491584E+04  0.25500000920E-02 0. -1.
        2   -1    0    0  501    0  0.00000000000E+00  0.00000000000E+00 -0.17254837426E+04  0.17254837426E+04  0.25500000920E-02 0.  1.
    10030    2    1    2    0    0  0.00000000000E+00  0.00000000000E+00 -0.14453458418E+03  0.33064329010E+04  0.33032723597E+04 0.  0.
        2    1    3    3  502    0  0.45497534610E+03 -0.20681383231E+03  0.15034458521E+04  0.15843370717E+04  0.25500000920E-02 0. -1.
       -2    1    3    3    0  502 -0.45497534610E+03  0.20681383231E+03 -0.16479804362E+04  0.17220958292E+04  0.25500000920E-02 0.  1.
</event>
<event>
 5   0  0.2658600E-06  0.2475970E+04  0.7818609E-02  0.8411597E-01
        2   -1    0    0  501    0  0.00000000000E+00  0.00000000000E+00  0.18909413636E+04  0.18909413636E+04  0.25500000920E-02 0. -1.
       -2   -1    0    0    0  501  0.00000000000E+00  0.00000000000E+00 -0.81049950380E+03  0.81049950381E+03  0.25500000920E-02 0.  1.
    10030    2    1    2    0    0  0.00000000000E+00  0.00000000000E+00  0.10804418598E+04  0.27014408674E+04  0.24759701427E+04 0.  0.
        5    1    3    3  502    0  0.53951510540E+03  0.38924757387E+03  0.16793220010E+04  0.18063041537E+04  0.46999998093E+01 0. -1.
       -5    1    3    3    0  502 -0.53951510540E+03 -0.38924757387E+03 -0.59888014118E+03  0.89513671371E+03  0.46999998093E+01 0.  1.
</event>
<event>
 5   0  0.9295663E-07  0.3314131E+04  0.7818609E-02  0.8159309E-01
        1   -1    0    0  501    0  0.00000000000E+00  0.00000000000E+00  0.15886919500E+04  0.15886919500E+04  0.50400001928E-02 0.  1.
       -1   -1    0    0    0  501  0.00000000000E+00  0.00000000000E+00 -0.17283814379E+04  0.17283814379E+04  0.50400001928E-02 0. -1.
    10030    2    1    2    0    0  0.00000000000E+00  0.00000000000E+00 -0.13968948786E+03  0.33170733879E+04  0.33141307620E+04 0.  0.
        4    1    3    3  502    0  0.86098871740E+03  0.82136389003E+03  0.10844024512E+04  0.16099287252E+04  0.12699999809E+01 0.  1.
       -4    1    3    3    0  502 -0.86098871740E+03 -0.82136389003E+03 -0.12240919390E+04  0.17071446627E+04  0.12699999809E+01 0. -1.
</event>
<event>
 5   0  0.2705859E-06  0.3101242E+04  0.7818609E-02  0.8215397E-01
        2   -1    0    0  501    0  0.00000000000E+00  0.00000000000E+00  0.26947542075E+04  0.26947542075E+04  0.25500000920E-02 0. -1.
       -2   -1    0    0    0  501  0.00000000000E+00  0.00000000000E+00 -0.89226148246E+03  0.89226148246E+03  0.25500000920E-02 0.  1.
    10030    2    1    2    0    0  0.00000000000E+00  0.00000000000E+00  0.18024927250E+04  0.35870156899E+04  0.31012419345E+04 0.  0.
        1    1    3    3  502    0 -0.69797215473E+03 -0.21744173116E+03  0.24829169322E+04  0.25883049526E+04  0.50400001928E-02 0. -1.
       -1    1    3    3    0  502  0.69797215473E+03  0.21744173116E+03 -0.68042420718E+03  0.99871073738E+03  0.50400001928E-02 0.  1.
</event>
<event>
 5   0  0.8845526E-07  0.3869307E+04  0.7818609E-02  0.8031443E-01
        1   -1    0    0  501    0  0.00000000000E+00  0.00000000000E+00  0.22066932541E+04  0.22066932542E+04  0.50400001928E-02 0. -1.
       -1   -1    0    0    0  501  0.00000000000E+00  0.00000000000E+00 -0.16961508335E+04  0.16961508335E+04  0.50400001928E-02 0.  1.
    10030    2    1    2    0    0  0.00000000000E+00  0.00000000000E+00  0.51054242067E+03  0.39028440876E+04  0.38693072260E+04 0.  0.
        1    1    3    3  502    0  0.37931954528E+03 -0.99059294539E+03  0.18872336381E+04  0.21649038098E+04  0.50400001928E-02 0. -1.
       -1    1    3    3    0  502 -0.37931954528E+03  0.99059294539E+03 -0.13766912175E+04  0.17379402778E+04  0.50400001928E-02 0.  1.
</event>
<event>
 5   0  0.8705956E-07  0.3280004E+04  0.7818609E-02  0.8168002E-01
       -1   -1    0    0    0  501  0.00000000000E+00  0.00000000000E+00  0.78846102929E+03  0.78846102930E+03  0.50400001928E-02 0. -1.
        1   -1    0    0  501    0  0.00000000000E+00  0.00000000000E+00 -0.34112107553E+04  0.34112107553E+04  0.50400001928E-02 0.  1.
    10030    2    1    2    0    0  0.00000000000E+00  0.00000000000E+00 -0.26227497260E+04  0.41996717846E+04  0.32800041117E+04 0.  0.
        2    1    3    3  502    0 -0.22342195369E+03 -0.85316307903E+03  0.45898858133E+03  0.99422086410E+03  0.25500000920E-02 0. -1.
       -2    1    3    3    0  502  0.22342195369E+03  0.85316307903E+03 -0.30817383073E+04  0.32054509205E+04  0.25500000920E-02 0.  1.
</event>
<event>
 5   0  0.8845526E-07  0.3310686E+04  0.7818609E-02  0.8160182E-01
        1   -1    0    0  501    0  0.00000000000E+00  0.00000000000E+00  0.19267162752E+04  0.19267162753E+04  0.50400001928E-02 0.  1.
       -1   -1    0    0    0  501  0.00000000000E+00  0.00000000000E+00 -0.14221923844E+04  0.14221923844E+04  0.50400001928E-02 0. -1.
    10030    2    1    2    0    0  0.00000000000E+00  0.00000000000E+00  0.50452389082E+03  0.33489086597E+04  0.33106864627E+04 0.  0.
        1    1    3    3  502    0 -0.56371620498E+03 -0.70825903025E+03 -0.11496513930E+04  0.14632515638E+04  0.50400001928E-02 0. -1.
       -1    1    3    3    0  502  0.56371620498E+03  0.70825903025E+03  0.16541752838E+04  0.18856570959E+04  0.50400001928E-02 0.  1.
</event>
<event>
 5   0  0.9530268E-07  0.3347559E+04  0.7818609E-02  0.8150898E-01
       -1   -1    0    0    0  501  0.00000000000E+00  0.00000000000E+00  0.15405037620E+04  0.15405037621E+04  0.50400001928E-02 0.  1.
        1   -1    0    0  501    0  0.00000000000E+00  0.00000000000E+00 -0.18185853977E+04  0.18185853977E+04  0.50400001928E-02 0. -1.
    10030    2    1    2    0    0  0.00000000000E+00  0.00000000000E+00 -0.27808163563E+03  0.33590891597E+04  0.33475588997E+04 0.  0.
        5    1    3    3  502    0 -0.14544250672E+04  0.45133863189E+03  0.55794266176E+03  0.16218449188E+04  0.46999998093E+01 0.  1.
       -5    1    3    3    0  502  0.14544250672E+04 -0.45133863189E+03 -0.83602429739E+03  0.17372442409E+04  0.46999998093E+01 0. -1.
</event>
<event>
 5   0  0.8705956E-07  0.3347839E+04  0.7818609E-02  0.8150828E-01
       -1   -1    0    0    0  501  0.00000000000E+00  0.00000000000E+00  0.20719729206E+04  0.20719729206E+04  0.50400001928E-02 0. -1.
        1   -1    0    0  501    0  0.00000000000E+00  0.00000000000E+00 -0.13523373434E+04  0.13523373434E+04  0.50400001928E-02 0.  1.
    10030    2    1    2    0    0  0.00000000000E+00  0.00000000000E+00  0.71963557716E+03  0.34243102640E+04  0.33478389179E+04 0.  0.
        2    1    3    3  502    0 -0.86540604605E+02 -0.17275076044E+02  0.20695919417E+04  0.20714725462E+04  0.25500000920E-02 0. -1.
       -2    1    3    3    0  502  0.86540604605E+02  0.17275076044E+02 -0.13499563645E+04  0.13528377178E+04  0.25500000920E-02 0.  1.
</event>
<event>
 5   0  0.2705859E-06  0.3293574E+04  0.7818609E-02  0.8164532E-01
        2   -1    0    0  501    0  0.00000000000E+00  0.00000000000E+00  0.19547476973E+04  0.19547476973E+04  0.25500000920E-02 0.  1.
       -2   -1    0    0    0  501  0.00000000000E+00  0.00000000000E+00 -0.13873443113E+04  0.13873443113E+04  0.25500000920E-02 0. -1.
    10030    2    1    2    0    0  0.00000000000E+00  0.00000000000E+00  0.56740338605E+03  0.33420920086E+04  0.32935744096E+04 0.  0.
        1    1    3    3  502    0  0.32908719448E+03  0.74376170710E+03 -0.11693237184E+04  0.14243587389E+04  0.50400001928E-02 0. -1.
       -1    1    3    3    0  502 -0.32908719448E+03 -0.74376170710E+03  0.17367271044E+04  0.19177332697E+04  0.50400001928E-02 0.  1.
</event>
<event>
 5   0  0.2674551E-06  0.3242242E+04  0.7818609E-02  0.8177749E-01
       -2   -1    0    0    0  501  0.00000000000E+00  0.00000000000E+00  0.17481776167E+04  0.17481776167E+04  0.25500000920E-02 0. -1.
        2   -1    0    0  501    0  0.00000000000E+00  0.00000000000E+00 -0.15032990750E+04  0.15032990750E+04  0.25500000920E-02 0.  1.
    10030    2    1    2    0    0  0.00000000000E+00  0.00000000000E+00  0.24487854162E+03  0.32514766917E+04  0.32422423069E+04 0.  0.
        3    1    3    3  502    0 -0.15352243893E+04 -0.52065854835E+03  0.11654591968E+03  0.16252944997E+04  0.10100000352E+00 0. -1.
       -3    1    3    3    0  502  0.15352243893E+04  0.52065854835E+03  0.12833262194E+03  0.16261821919E+04  0.10100000352E+00 0.  1.
</event>
<event>
 5   0  0.8845526E-07  0.3358396E+04  0.7818609E-02  0.8148193E-01
        1   -1    0    0  501    0  0.00000000000E+00  0.00000000000E+00  0.25615707816E+04  0.25615707816E+04  0.50400001928E-02 0.  1.
       -1   -1    0    0    0  501  0.00000000000E+00  0.00000000000E+00 -0.11007722163E+04  0.11007722163E+04  0.50400001928E-02 0. -1.
    10030    2    1    2    0    0  0.00000000000E+00  0.00000000000E+00  0.14607985653E+04  0.36623429979E+04  0.33583960138E+04 0.  0.
        1    1    3    3  502    0 -0.90603534903E+03 -0.37888311115E+03  0.22157490674E+04  0.24236328921E+04  0.50400001928E-02 0.  1.
       -1    1    3    3    0  502  0.90603534903E+03  0.37888311115E+03 -0.75495050211E+03  0.12387101058E+04  0.50400001928E-02 0. -1.
</event>
<event>
 5   0  0.8705956E-07  0.3485109E+04  0.7818609E-02  0.8117328E-01
        1   -1    0    0  501    0  0.00000000000E+00  0.00000000000E+00  0.25161512157E+04  0.25161512157E+04  0.50400001928E-02 0.  1.
       -1   -1    0    0    0  501  0.00000000000E+00  0.00000000000E+00 -0.12068021212E+04  0.12068021212E+04  0.50400001928E-02 0. -1.
    10030    2    1    2    0    0  0.00000000000E+00  0.00000000000E+00  0.13093490946E+04  0.37229533370E+04  0.34851092519E+04 0.  0.
        2    1    3    3  502    0  0.73645306119E+03 -0.59603526538E+03 -0.90762370270E+03  0.13120220786E+04  0.25500000920E-02 0. -1.
       -2    1    3    3    0  502 -0.73645306119E+03  0.59603526538E+03  0.22169727973E+04  0.24109312584E+04  0.25500000920E-02 0.  1.
</event>
<event>
 5   0  0.8845526E-07  0.3213833E+04  0.7818609E-02  0.8185173E-01
        1   -1    0    0  501    0  0.00000000000E+00  0.00000000000E+00  0.20326353724E+04  0.20326353724E+04  0.50400001928E-02 0.  1.
       -1   -1    0    0    0  501  0.00000000000E+00  0.00000000000E+00 -0.12703610457E+04  0.12703610457E+04  0.50400001928E-02 0. -1.
    10030    2    1    2    0    0  0.00000000000E+00  0.00000000000E+00  0.76227432672E+03  0.33029964181E+04  0.32138330991E+04 0.  0.
        1    1    3    3  502    0  0.10820748482E+04  0.11551761838E+04  0.96204067805E+02  0.15857405890E+04  0.50400001928E-02 0. -1.
       -1    1    3    3    0  502 -0.10820748482E+04 -0.11551761838E+04  0.66607025892E+03  0.17172558291E+04  0.50400001928E-02 0.  1.
</event>
<event>
 5   0  0.9295663E-07  0.3299445E+04  0.7818609E-02  0.8163036E-01
       -1   -1    0    0    0  501  0.00000000000E+00  0.00000000000E+00  0.23870211836E+04  0.23870211836E+04  0.50400001928E-02 0. -1.
        1   -1    0    0  501    0  0.00000000000E+00  0.00000000000E+00 -0.11401596042E+04  0.11401596042E+04  0.50400001928E-02 0.  1.
    10030    2    1    2    0    0  0.00000000000E+00  0.00000000000E+00  0.12468615794E+04  0.35271807878E+04  0.32994454855E+04 0.  0.
        4    1    3    3  502    0 -0.15749500834E+04  0.80135492728E+02  0.11413211235E+04  0.19466650925E+04  0.12699999809E+01 0. -1.
       -4    1    3    3    0  502  0.15749500834E+04 -0.80135492728E+02  0.10554045589E+03  0.15805156953E+04  0.12699999809E+01 0.  1.
</event>
<event>
 5   0  0.9268670E-07  0.3333877E+04  0.7818609E-02  0.8154328E-01
        1   -1    0    0  501    0  0.00000000000E+00  0.00000000000E+00  0.18678534131E+04  0.18678534131E+04  0.50400001928E-02 0. -1.
       -1   -1    0    0    0  501  0.00000000000E+00  0.00000000000E+00 -0.14876350769E+04  0.14876350769E+04  0.50400001928E-02 0.  1.
    10030    2    1    2    0    0  0.00000000000E+00  0.00000000000E+00  0.38021833617E+03  0.33554884900E+04  0.33338771759E+04 0.  0.
        3    1    3    3  502    0  0.14849232849E+04 -0.25452562341E+03 -0.52789009828E+03  0.15963860502E+04  0.10100000352E+00 0.  1.
       -3    1    3    3    0  502 -0.14849232849E+04  0.25452562341E+03  0.90810843445E+03  0.17591024399E+04  0.10100000352E+00 0. -1.
</event>
<event>
 5   0  0.2705859E-06  0.3289307E+04  0.7818609E-02  0.8165622E-01
        2   -1    0    0  501    0  0.00000000000E+00  0.00000000000E+00  0.20591901512E+04  0.20591901512E+04  0.25500000920E-02 0. -1.
       -2   -1    0    0    0  501  0.00000000000E+00  0.00000000000E+00 -0.13135675665E+04  0.13135675665E+04  0.25500000920E-02 0.  1.
    10030    2    1    2    0    0  0.00000000000E+00  0.00000000000E+00  0.74562258471E+03  0.33727577177E+04  0.32893071586E+04 0.  0.
        1    1    3    3  502    0  0.12712161779E+04  0.48431186472E+02  0.14416333840E+04  0.19226655884E+04  0.50400001928E-02 0. -1.
       -1    1    3    3    0  502 -0.12712161779E+04 -0.48431186472E+02 -0.69601079931E+03  0.14500921293E+04  0.50400001928E-02 0.  1.
</event>
<event>
 5   0  0.9530268E-07  0.3351769E+04  0.7818609E-02  0.8149846E-01
        1   -1    0    0  501    0  0.00000000000E+00  0.00000000000E+00  0.24752896381E+04  0.24752896381E+04  0.50400001928E-02 0. -1.
       -1   -1    0    0    0  501  0.00000000000E+00  0.00000000000E+00 -0.11346507356E+04  0.11346507356E+04  0.50400001928E-02 0.  1.
    10030    2    1    2    0    0  0.00000000000E+00  0.00000000000E+00  0.13406389025E+04  0.36099403738E+04  0.33517692097E+04 0.  0.
        5    1    3    3  502    0 -0.13293380160E+04 -0.10195536575E+04  0.71773178495E+03  0.18225779068E+04  0.46999998093E+01 0. -1.
       -5    1    3    3    0  502  0.13293380160E+04  0.10195536575E+04  0.62290711756E+03  0.17873624670E+04  0.46999998093E+01 0.  1.
</event>
<event>
 5   0  0.2614212E-06  0.3255364E+04  0.7818609E-02  0.8174347E-01
       -2   -1    0    0    0  501  0.00000000000E+00  0.00000000000E+00  0.13155075801E+04  0.13155075801E+04  0.25500000920E-02 0.  1.
        2   -1    0    0  501    0  0.00000000000E+00  0.00000000000E+00 -0.20139361044E+04  0.20139361045E+04  0.25500000920E-02 0. -1.
    10030    2    1    2    0    0  0.00000000000E+00  0.00000000000E+00 -0.69842852440E+03  0.33294436845E+04  0.32553637039E+04 0.  0.
        2    1    3    3  502    0 -0.11290850520E+04  0.69843486557E+03 -0.13122922675E+04  0.18667499328E+04  0.25500000920E-02 0. -1.
       -2    1    3    3    0  502  0.11290850520E+04 -0.69843486557E+03  0.61386374313E+03  0.14626937517E+04  0.25500000920E-02 0.  1.
</event>
<event>
 5   0  0.9295663E-07  0.2835735E+04  0.7818609E-02  0.8292259E-01
       -1   -1    0    0    0  501  0.00000000000E+00  0.00000000000E+00  0.14756000107E+04  0.14756000107E+04  0.50400001928E-02 0.  1.
        1   -1    0    0  501    0  0.00000000000E+00  0.00000000000E+00 -0.13623937508E+04  0.13623937508E+04  0.50400001928E-02 0. -1.
    10030    2    1    2    0    0  0.00000000000E+00  0.00000000000E+00  0.11320625994E+03  0.28379937615E+04  0.28357349899E+04 0.  0.
        4    1    3    3  502    0  0.33374573608E+02  0.97195132100E+03 -0.97598583107E+03  0.13778073842E+04  0.12699999809E+01 0. -1.
       -4    1    3    3    0  502 -0.33374573608E+02 -0.97195132100E+03  0.10891920910E+04  0.14601863773E+04  0.12699999809E+01 0.  1.
</event>
<event>
 5   0  0.2674551E-06  0.3294130E+04  0.7818609E-02  0.8164391E-01
        2   -1    0    0  501    0  0.00000000000E+00  0.00000000000E+00  0.22229898508E+04  0.22229898508E+04  0.25500000920E-02 0.  1.
       -2   -1    0    0    0  501  0.00000000000E+00  0.00000000000E+00 -0.12203491199E+04  0.12203491199E+04  0.25500000920E-02 0. -1.
    10030    2    1    2    0    0  0.00000000000E+00  0.00000000000E+00  0.10026407309E+04  0.34433389706E+04  0.32941303604E+04 0.  0.
        3    1    3    3  502    0  0.65785277122E+03 -0.12786605857E+04 -0.33822847276E+03  0.14772073897E+04  0.10100000352E+00 0. -1.
       -3    1    3    3    0  502 -0.65785277122E+03  0.12786605857E+04  0.13408692037E+04  0.19661315810E+04  0.10100000352E+00 0.  1.
</event>
<event>
 5   0  0.8845526E-07  0.3195049E+04  0.7818609E-02  0.8190126E-01
        1   -1    0    0  501    0  0.00000000000E+00  0.00000000000E+00  0.15175911420E+04  0.15175911420E+04  0.50400001928E-02 0. -1.
       -1   -1    0    0    0  501  0.00000000000E+00  0.00000000000E+00 -0.16816675479E+04  0.16816675479E+04  0.50400001928E-02 0.  1.
    10030    2    1    2    0    0  0.00000000000E+00  0.00000000000E+00 -0.16407640590E+03  0.31992586898E+04  0.31950485282E+04 0.  0.
        1    1    3    3  502    0 -0.11995588680E+04  0.32378998623E+03  0.92342756044E+03  0.15480632714E+04  0.50400001928E-02 0. -1.
       -1    1    3    3    0  502  0.11995588680E+04 -0.32378998623E+03 -0.10875039663E+04  0.16511954184E+04  0.50400001928E-02 0.  1.
</event>
<event>
 5   0  0.2674551E-06  0.3254914E+04  0.7818609E-02  0.8174463E-01
        2   -1    0    0  501    0  0.00000000000E+00  0.00000000000E+00  0.21587911032E+04  0.21587911032E+04  0.25500000920E-02 0. -1.
       -2   -1    0    0    0  501  0.00000000000E+00  0.00000000000E+00 -0.12268979640E+04  0.12268979640E+04  0.25500000920E-02 0.  1.
    10030    2    1    2    0    0  0.00000000000E+00  0.00000000000E+00  0.93189313919E+03  0.33856890671E+04  0.32549140751E+04 0.  0.
        3    1    3    3  502    0  0.31689948382E+03  0.14500667662E+04 -0.22832626625E+03  0.15017495808E+04  0.10100000352E+00 0.  1.
       -3    1    3    3    0  502 -0.31689948382E+03 -0.14500667662E+04  0.11602194054E+04  0.18839394864E+04  0.10100000352E+00 0. -1.
</event>
<event>
 5   0  0.9268670E-07  0.3322625E+04  0.7818609E-02  0.8157162E-01
       -1   -1    0    0    0  501  0.00000000000E+00  0.00000000000E+00  0.30586319427E+04  0.30586319427E+04  0.50400001928E-02 0.  1.
        1   -1    0    0  501    0  0.00000000000E+00  0.00000000000E+00 -0.90235079247E+03  0.90235079249E+03  0.50400001928E-02 0. -1.
    10030    2    1    2    0    0  0.00000000000E+00  0.00000000000E+00  0.21562811502E+04  0.39609827352E+04  0.33226248403E+04 0.  0.
        3    1    3    3  502    0  0.39856632682E+03  0.55085813461E+03 -0.72888559803E+03  0.99678183499E+03  0.10100000352E+00 0. -1.
       -3    1    3    3    0  502 -0.39856632682E+03 -0.55085813461E+03  0.28851667482E+04  0.29642009002E+04  0.10100000352E+00 0.  1.
</event>
<event>
 5   0  0.9530268E-07  0.3306908E+04  0.7818609E-02  0.8161140E-01
        1   -1    0    0  501    0  0.00000000000E+00  0.00000000000E+00  0.20549397578E+04  0.20549397578E+04  0.50400001928E-02 0. -1.
       -1   -1    0    0    0  501  0.00000000000E+00  0.00000000000E+00 -0.13304092687E+04  0.13304092687E+04  0.50400001928E-02 0.  1.
    10030    2    1    2    0    0  0.00000000000E+00  0.00000000000E+00  0.72453048908E+03  0.33853490265E+04  0.33069084659E+04 0.  0.
        5    1    3    3  502    0  0.84727191400E+03 -0.14195469551E+04  0.39307150710E+03  0.16992676522E+04  0.46999998093E+01 0.  1.
       -5    1    3    3    0  502 -0.84727191400E+03  0.14195469551E+04  0.33145898198E+03  0.16860813743E+04  0.46999998093E+01 0. -1.
</event>
<event>
 5   0  0.9268670E-07  0.3292830E+04  0.7818609E-02  0.8164722E-01
       -1   -1    0    0    0  501  0.00000000000E+00  0.00000000000E+00  0.15465245631E+04  0.15465245631E+04  0.50400001928E-02 0. -1.
        1   -1    0    0  501    0  0.00000000000E+00  0.00000000000E+00 -0.17527569216E+04  0.17527569217E+04  0.50400001928E-02 0.  1.
    10030    2    1    2    0    0  0.00000000000E+00  0.00000000000E+00 -0.20623235857E+03  0.32992814847E+04  0.32928295628E+04 0.  0.
        3    1    3    3  502    0  0.49758452654E+03 -0.55859682002E+03 -0.15726394443E+04  0.17414980908E+04  0.10100000352E+00 0.  1.
       -3    1    3    3    0  502 -0.49758452654E+03  0.55859682002E+03  0.13664070857E+04  0.15577833939E+04  0.10100000352E+00 0. -1.
</event>
<event>
 5   0  0.2658600E-06  0.3256960E+04  0.7818609E-02  0.8173934E-01
       -2   -1    0    0    0  501  0.00000000000E+00  0.00000000000E+00  0.12276942519E+04  0.12276942519E+04  0.25500000920E-02 0.  1.
        2   -1    0    0  501    0  0.00000000000E+00  0.00000000000E+00 -0.21601042150E+04  0.21601042150E+04  0.25500000920E-02 0. -1.
    10030    2    1    2    0    0  0.00000000000E+00  0.00000000000E+00 -0.93240996306E+03  0.33877984669E+04  0.32569602566E+04 0.  0.
        5    1    3    3  502    0  0.27382406028E+03 -0.15896537155E+04 -0.23373904667E+03  0.16299185818E+04  0.46999998093E+01 0.  1.
       -5    1    3    3    0  502 -0.27382406028E+03  0.15896537155E+04 -0.69867091639E+03  0.17578798852E+04  0.46999998093E+01 0. -1.
</event>
<event>
 5   0  0.2705859E-06  0.3259203E+04  0.7818609E-02  0.8173354E-01
        2   -1    0    0  501    0  0.00000000000E+00  0.00000000000E+00  0.16751403558E+04  0.16751403558E+04  0.25500000920E-02 0. -1.
       -2   -1    0    0    0  501  0.00000000000E+00  0.00000000000E+00 -0.15853009435E+04  0.15853009435E+04  0.25500000920E-02 0.  1.
    10030    2    1    2    0    0  0.00000000000E+00  0.00000000000E+00  0.89839412271E+02  0.32604412993E+04  0.32592033299E+04 0.  0.
        1    1    3    3  502    0  0.11780018034E+04  0.66516239280E+03 -0.86398047517E+03  0.16051764760E+04  0.50400001928E-02 0.  1.
       -1    1    3    3    0  502 -0.11780018034E+04 -0.66516239280E+03  0.95381988744E+03  0.16552648233E+04  0.50400001928E-02 0. -1.
</event>
<event>
 5   0  0.2705859E-06  0.3303849E+04  0.7818609E-02  0.8161917E-01
        2   -1    0    0  501    0  0.00000000000E+00  0.00000000000E+00  0.27467810125E+04  0.27467810125E+04  0.25500000920E-02 0. -1.
       -2   -1    0    0    0  501  0.00000000000E+00  0.00000000000E+00 -0.99347356798E+03  0.99347356798E+03  0.25500000920E-02 0.  1.
    10030    2    1    2    0    0  0.00000000000E+00  0.00000000000E+00  0.17533074445E+04  0.37402545805E+04  0.33038488664E+04 0.  0.
        1    1    3    3  502    0 -0.95596362752E+03 -0.56536850173E+03  0.22610227874E+04  0.25190736482E+04  0.50400001928E-02 0. -1.
       -1    1    3    3    0  502  0.95596362752E+03  0.56536850173E+03 -0.50771534289E+03  0.12211809323E+04  0.50400001928E-02 0.  1.
</event>
<event>
 5   0  0.8705956E-07  0.3336183E+04  0.7818609E-02  0.8153749E-01
       -1   -1    0    0    0  501  0.00000000000E+00  0.00000000000E+00  0.23048083276E+04  0.23048083276E+04  0.50400001928E-02 0.  1.
        1   -1    0    0  501    0  0.00000000000E+00  0.00000000000E+00 -0.12072713943E+04  0.12072713943E+04  0.50400001928E-02 0. -1.
    10030    2    1    2    0    0  0.00000000000E+00  0.00000000000E+00  0.10975369333E+04  0.35120797219E+04  0.33361829466E+04 0.  0.
        2    1    3    3  502    0 -0.36012503953E+03 -0.15105314445E+04  0.11900958815E+04  0.19564568730E+04  0.25500000920E-02 0. -1.
       -2    1    3    3    0  502  0.36012503953E+03  0.15105314445E+04 -0.92558948165E+02  0.15556228489E+04  0.25500000920E-02 0.  1.
</event>
<event>
 5   0  0.8705956E-07  0.3388867E+04  0.7818609E-02  0.8140644E-01
       -1   -1    0    0    0  501  0.00000000000E+00  0.00000000000E+00  0.16102957179E+04  0.16102957179E+04  0.50400001928E-02 0. -1.
        1   -1    0    0  501    0  0.00000000000E+00  0.00000000000E+00 -0.17829671737E+04  0.17829671737E+04  0.50400001928E-02 0.  1.
    10030    2    1    2    0    0  0.00000000000E+00  0.00000000000E+00 -0.17267145584E+03  0.33932628916E+04  0.33888667161E+04 0.  0.
        2    1    3    3  502    0 -0.12301443796E+04 -0.46484498733E+03 -0.11562574848E+04  0.17510760772E+04  0.25500000920E-02 0.  1.
       -2    1    3    3    0  502  0.12301443796E+04  0.46484498733E+03  0.98358602899E+03  0.16421868144E+04  0.25500000920E-02 0. -1.
</event>
<event>
 5   0  0.2614212E-06  0.3125997E+04  0.7818609E-02  0.8208639E-01
        2   -1    0    0  501    0  0.00000000000E+00  0.00000000000E+00  0.18439010684E+04  0.18439010684E+04  0.25500000920E-02 0.  1.
       -2   -1    0    0    0  501  0.00000000000E+00  0.00000000000E+00 -0.13248894224E+04  0.13248894224E+04  0.25500000920E-02 0. -1.
    10030    2    1    2    0    0  0.00000000000E+00  0.00000000000E+00  0.51901164594E+03  0.31687904908E+04  0.31259974546E+04 0.  0.
        2    1    3    3  502    0  0.58884236285E+03 -0.12733914768E+04 -0.43891355165E+03  0.14700021386E+04  0.25500000920E-02 0. -1.
       -2    1    3    3    0  502 -0.58884236285E+03  0.12733914768E+04  0.95792519759E+03  0.16987883522E+04  0.25500000920E-02 0.  1.
</event>
<event>
 5   0  0.9530268E-07  0.3121325E+04  0.7818609E-02  0.8209910E-01
        1   -1    0    0  501    0  0.00000000000E+00  0.00000000000E+00  0.15476452019E+04  0.15476452019E+04  0.50400001928E-02 0.  1.
       -1   -1    0    0    0  501  0.00000000000E+00  0.00000000000E+00 -0.15737890735E+04  0.15737890735E+04  0.50400001928E-02 0. -1.
    10030    2    1    2    0    0  0.00000000000E+00  0.00000000000E+00 -0.26143871594E+02  0.31214342754E+04  0.31213247883E+04 0.  0.
        5    1    3    3  502    0  0.94591071610E+03  0.11267476062E+04  0.50784725496E+03  0.15563541292E+04  0.46999998093E+01 0.  1.
       -5    1    3    3    0  502 -0.94591071610E+03 -0.11267476062E+04 -0.53399112656E+03  0.15650801463E+04  0.46999998093E+01 0. -1.
</event>
<event>
 5   0  0.9295663E-07  0.3304827E+04  0.7818609E-02  0.8161668E-01
       -1   -1    0    0    0  501  0.00000000000E+00  0.00000000000E+00  0.11056662990E+04  0.11056662991E+04  0.50400001928E-02 0. -1.
        1   -1    0    0  501    0  0.00000000000E+00  0.00000000000E+00 -0.24695247509E+04  0.24695247509E+04  0.50400001928E-02 0.  1.
    10030    2    1    2    0    0  0.00000000000E+00  0.00000000000E+00 -0.13638584519E+04  0.35751910500E+04  0.33048269497E+04 0.  0.
        4    1    3    3  502    0  0.52064888800E+03 -0.42986276292E+03 -0.23134933175E+04  0.24100021167E+04  0.12699999809E+01 0.  1.
       -4    1    3    3    0  502 -0.52064888800E+03  0.42986276292E+03  0.94963486557E+03  0.11651889333E+04  0.12699999809E+01 0. -1.
</event>
<event>
 5   0  0.9268670E-07  0.3270242E+04  0.7818609E-02  0.8170509E-01
       -1   -1    0    0    0  501  0.00000000000E+00  0.00000000000E+00  0.15474884647E+04  0.15474884648E+04  0.50400001928E-02 0.  1.
        1   -1    0    0  501    0  0.00000000000E+00  0.00000000000E+00 -0.17277157071E+04  0.17277157071E+04  0.50400001928E-02 0. -1.
    10030    2    1    2    0    0  0.00000000000E+00  0.00000000000E+00 -0.18022724233E+03  0.32752041718E+04  0.32702416590E+04 0.  0.
        3    1    3    3  502    0 -0.11284891784E+04 -0.99653999359E+03 -0.72907889201E+03  0.16727629317E+04  0.10100000352E+00 0.  1.
       -3    1    3    3    0  502  0.11284891784E+04  0.99653999359E+03  0.54885164968E+03  0.16024412402E+04  0.10100000352E+00 0. -1.
</event>
<event>
 5   0  0.9530268E-07  0.3303813E+04  0.7818609E-02  0.8161926E-01
        1   -1    0    0  501    0  0.00000000000E+00  0.00000000000E+00  0.18998363626E+04  0.18998363626E+04  0.50400001928E-02 0. -1.
       -1   -1    0    0    0  501  0.00000000000E+00  0.00000000000E+00 -0.14363317008E+04  0.14363317009E+04  0.50400001928E-02 0.  1.
    10030    2    1    2    0    0  0.00000000000E+00  0.00000000000E+00  0.46350466178E+03  0.33361680635E+04  0.33038130662E+04 0.  0.
        5    1    3    3  502    0  0.15377310834E+04  0.70060167653E+02  0.83699495845E+03  0.17521723552E+04  0.46999998093E+01 0. -1.
       -5    1    3    3    0  502 -0.15377310834E+04 -0.70060167653E+02 -0.37349029667E+03  0.15839957082E+04  0.46999998093E+01 0.  1.
</event>
<event>
 5   0  0.2614212E-06  0.3295206E+04  0.7818609E-02  0.8164116E-01
        2   -1    0    0  501    0  0.00000000000E+00  0.00000000000E+00  0.16418540292E+04  0.16418540292E+04  0.25500000920E-02 0.  1.
       -2   -1    0    0    0  501  0.00000000000E+00  0.00000000000E+00 -0.16533718852E+04  0.16533718852E+04  0.25500000920E-02 0. -1.
    10030    2    1    2    0    0  0.00000000000E+00  0.00000000000E+00 -0.11517856053E+02  0.32952259144E+04  0.32952057851E+04 0.  0.
        2    1    3    3  502    0 -0.56155869591E+02 -0.84575301691E+03  0.14070991794E+04  0.16426745716E+04  0.25500000920E-02 0.  1.
       -2    1    3    3    0  502  0.56155869591E+02  0.84575301691E+03 -0.14186170355E+04  0.16525513428E+04  0.25500000920E-02 0. -1.
</event>
<event>
 5   0  0.2614212E-06  0.3165225E+04  0.7818609E-02  0.8198062E-01
        2   -1    0    0  501    0  0.00000000000E+00  0.00000000000E+00  0.11790800139E+04  0.11790800139E+04  0.25500000920E-02 0.  1.
       -2   -1    0    0    0  501  0.00000000000E+00  0.00000000000E+00 -0.21242507163E+04  0.21242507163E+04  0.25500000920E-02 0. -1.
    10030    2    1    2    0    0  0.00000000000E+00  0.00000000000E+00 -0.94517070244E+03  0.33033307302E+04  0.31652245191E+04 0.  0.
        2    1    3    3  502    0 -0.86545124046E+03  0.16123564786E+03  0.89996332150E+03  0.12589427166E+04  0.25500000920E-02 0.  1.
       -2    1    3    3    0  502  0.86545124046E+03 -0.16123564786E+03 -0.18451340239E+04  0.20443880136E+04  0.25500000920E-02 0. -1.
</event>
<event>
 5   0  0.9295663E-07  0.3265070E+04  0.7818609E-02  0.8171841E-01
        1   -1    0    0  501    0  0.00000000000E+00  0.00000000000E+00  0.25399259858E+04  0.25399259858E+04  0.50400001928E-02 0. -1.
       -1   -1    0    0    0  501  0.00000000000E+00  0.00000000000E+00 -0.10493103368E+04  0.10493103368E+04  0.50400001928E-02 0.  1.
    10030    2    1    2    0    0  0.00000000000E+00  0.00000000000E+00  0.14906156490E+04  0.35892363225E+04  0.32650700400E+04 0.  0.
        4    1    3    3  502    0  0.40401795837E+03 -0.15817478314E+04  0.74145786056E+03  0.17930192650E+04  0.12699999809E+01 0. -1.
       -4    1    3    3    0  502 -0.40401795837E+03  0.15817478314E+04  0.74915778846E+03  0.17962170575E+04  0.12699999809E+01 0.  1.
</event>
<event>
 5   0  0.8845526E-07  0.3287362E+04  0.7818609E-02  0.8166119E-01
       -1   -1    0    0    0  501  0.00000000000E+00  0.00000000000E+00  0.16704961081E+04  0.16704961082E+04  0.50400001928E-02 0. -1.
        1   -1    0    0  501    0  0.00000000000E+00  0.00000000000E+00 -0.16172964374E+04  0.16172964374E+04  0.50400001928E-02 0.  1.
    10030    2    1    2    0    0  0.00000000000E+00  0.00000000000E+00  0.53199670745E+02  0.32877925456E+04  0.32873621063E+04 0.  0.
        1    1    3    3  502    0  0.11187096927E+04  0.25854350697E+03  0.12029048837E+04  0.16629300288E+04  0.50400001928E-02 0.  1.
       -1    1    3    3    0  502 -0.11187096927E+04 -0.25854350697E+03 -0.11497052130E+04  0.16248625167E+04  0.50400001928E-02 0. -1.
</event>
<event>
 5   0  0.8845526E-07  0.3369445E+04  0.7818609E-02  0.8145446E-01
       -1   -1    0    0    0  501  0.00000000000E+00  0.00000000000E+00  0.13742121825E+04  0.13742121825E+04  0.50400001928E-02 0. -1.
        1   -1    0    0  501    0  0.00000000000E+00  0.00000000000E+00 -0.20653941354E+04  0.20653941354E+04  0.50400001928E-02 0.  1.
    10030    2    1    2    0    0  0.00000000000E+00  0.00000000000E+00 -0.69118195291E+03  0.34396063179E+04  0.33694449291E+04 0.  0.
        1    1    3    3  502    0  0.70890592976E+03 -0.61442269753E+03 -0.17740963653E+04  0.20068584360E+04  0.50400001928E-02 0.  1.
       -1    1    3    3    0  502 -0.70890592976E+03  0.61442269753E+03  0.10829144124E+04  0.14327478819E+04  0.50400001928E-02 0. -1.
</event>
<event>
 5   0  0.9530268E-07  0.3315768E+04  0.7818609E-02  0.8158895E-01
        1   -1    0    0  501    0  0.00000000000E+00  0.00000000000E+00  0.21598393338E+04  0.21598393338E+04  0.50400001928E-02 0. -1.
       -1   -1    0    0    0  501  0.00000000000E+00  0.00000000000E+00 -0.12725848751E+04  0.12725848752E+04  0.50400001928E-02 0.  1.
    10030    2    1    2    0    0  0.00000000000E+00  0.00000000000E+00  0.88725445869E+03  0.34324242090E+04  0.33157677054E+04 0.  0.
        5    1    3    3  502    0  0.84916442542E+03  0.80288459880E+03 -0.77369302512E+03  0.14015444651E+04  0.46999998093E+01 0.  1.
       -5    1    3    3    0  502 -0.84916442542E+03 -0.80288459880E+03  0.16609474838E+04  0.20308797439E+04  0.46999998093E+01 0. -1.
</event>
<event>
 5   0  0.2574803E-06  0.3305808E+04  0.7818609E-02  0.8161419E-01
        2   -1    0    0  501    0  0.00000000000E+00  0.00000000000E+00  0.17175407088E+04  0.17175407088E+04  0.25500000920E-02 0. -1.
       -2   -1    0    0    0  501  0.00000000000E+00  0.00000000000E+00 -0.15907000723E+04  0.15907000723E+04  0.25500000920E-02 0.  1.
    10030    2    1    2    0    0  0.00000000000E+00  0.00000000000E+00  0.12684063643E+03  0.33082407811E+04  0.33058083004E+04 0.  0.
        4    1    3    3  502    0  0.94135258431E+03  0.80138619358E+03 -0.10345314573E+04  0.16120240284E+04  0.12699999809E+01 0.  1.
       -4    1    3    3    0  502 -0.94135258431E+03 -0.80138619358E+03  0.11613720937E+04  0.16962167527E+04  0.12699999809E+01 0. -1.
</event>
<event>
 5   0  0.2674551E-06  0.2666280E+04  0.7818609E-02  0.8346029E-01
        2   -1    0    0  501    0  0.00000000000E+00  0.00000000000E+00  0.14295239475E+04  0.14295239475E+04  0.25500000920E-02 0. -1.
       -2   -1    0    0    0  501  0.00000000000E+00  0.00000000000E+00 -0.12432550744E+04  0.12432550744E+04  0.25500000920E-02 0.  1.
    10030    2    1    2    0    0  0.00000000000E+00  0.00000000000E+00  0.18626887307E+03  0.26727790219E+04  0.26662804816E+04 0.  0.
        3    1    3    3  502    0  0.56054483245E+02  0.52150167325E+03  0.13217467207E+04  0.14220128355E+04  0.10100000352E+00 0. -1.
       -3    1    3    3    0  502 -0.56054483245E+02 -0.52150167325E+03 -0.11354778477E+04  0.12507661864E+04  0.10100000352E+00 0.  1.
</event>
<event>
 5   0  0.2705859E-06  0.3312736E+04  0.7818609E-02  0.8159662E-01
        2   -1    0    0  501    0  0.00000000000E+00  0.00000000000E+00  0.16504186790E+04  0.16504186790E+04  0.25500000920E-02 0.  1.
       -2   -1    0    0    0  501  0.00000000000E+00  0.00000000000E+00 -0.16623385182E+04  0.16623385183E+04  0.25500000920E-02 0. -1.
    10030    2    1    2    0    0  0.00000000000E+00  0.00000000000E+00 -0.11919839215E+02  0.33127571973E+04  0.33127357525E+04 0.  0.
        1    1    3    3  502    0  0.16021098448E+03  0.14667207014E+04  0.74678485915E+03  0.16536701005E+04  0.50400001928E-02 0.  1.
       -1    1    3    3    0  502 -0.16021098448E+03 -0.14667207014E+04 -0.75870469836E+03  0.16590870968E+04  0.50400001928E-02 0. -1.
</event>
<event>
 5   0  0.2674551E-06  0.3277562E+04  0.7818609E-02  0.8168628E-01
        2   -1    0    0  501    0  0.00000000000E+00  0.00000000000E+00  0.13591914954E+04  0.13591914954E+04  0.25500000920E-02 0.  1.
       -2   -1    0    0    0  501  0.00000000000E+00  0.00000000000E+00 -0.19758829790E+04  0.19758829790E+04  0.25500000920E-02 0. -1.
    10030    2    1    2    0    0  0.00000000000E+00  0.00000000000E+00 -0.61669148355E+03  0.33350744744E+04  0.32775621068E+04 0.  0.
        3    1    3    3  502    0 -0.57831650643E+03  0.92598658138E+03 -0.15519626466E+04  0.18974955065E+04  0.10100000352E+00 0. -1.
       -3    1    3    3    0  502  0.57831650643E+03 -0.92598658138E+03  0.93527116301E+03  0.14375789679E+04  0.10100000352E+00 0.  1.
</event>
<event>
 5   0  0.2658600E-06  0.3316308E+04  0.7818609E-02  0.8158758E-01
       -2   -1    0    0    0  501  0.00000000000E+00  0.00000000000E+00  0.20400248186E+04  0.20400248186E+04  0.25500000920E-02 0.  1.
        2   -1    0    0  501    0  0.00000000000E+00  0.00000000000E+00 -0.13477656630E+04  0.13477656630E+04  0.25500000920E-02 0. -1.
    10030    2    1    2    0    0  0.00000000000E+00  0.00000000000E+00  0.69225915556E+03  0.33877904816E+04  0.33163084309E+04 0.  0.
        5    1    3    3  502    0  0.49603764382E+02  0.14264402432E+04  0.12082763657E+04  0.18700658188E+04  0.46999998093E+01 0.  1.
       -5    1    3    3    0  502 -0.49603764382E+02 -0.14264402432E+04 -0.51601721009E+03  0.15177246628E+04  0.46999998093E+01 0. -1.
</event>
<event>
 5   0  0.8705956E-07  0.3270513E+04  0.7818609E-02  0.8170439E-01
       -1   -1    0    0    0  501  0.00000000000E+00  0.00000000000E+00  0.18492204463E+04  0.18492204463E+04  0.50400001928E-02 0. -1.
        1   -1    0    0  501    0  0.00000000000E+00  0.00000000000E+00 -0.14460489459E+04  0.14460489459E+04  0.50400001928E-02 0.  1.
    10030    2    1    2    0    0  0.00000000000E+00  0.00000000000E+00  0.40317150032E+03  0.32952693922E+04  0.32705126675E+04 0.  0.
        2    1    3    3  502    0  0.82088058216E+03 -0.71839482164E+03 -0.10258835958E+04  0.14974555760E+04  0.25500000920E-02 0.  1.
       -2    1    3    3    0  502 -0.82088058216E+03  0.71839482164E+03  0.14290550961E+04  0.17978138162E+04  0.25500000920E-02 0. -1.
</event>
<event>
 5   0  0.9268670E-07  0.3418849E+04  0.7818609E-02  0.8133296E-01
        1   -1    0    0  501    0  0.00000000000E+00  0.00000000000E+00  0.12933715307E+04  0.12933715307E+04  0.50400001928E-02 0.  1.
       -1   -1    0    0    0  501  0.00000000000E+00  0.00000000000E+00 -0.22593136266E+04  0.22593136266E+04  0.50400001928E-02 0. -1.
    10030    2    1    2    0    0  0.00000000000E+00  0.00000000000E+00 -0.96594209589E+03  0.35526851573E+04  0.34188488844E+04 0.  0.
        3    1    3    3  502    0  0.25514671211E+02 -0.49491532711E+03  0.12170866613E+04  0.13141126781E+04  0.10100000352E+00 0.  1.
       -3    1    3    3    0  502 -0.25514671211E+02  0.49491532711E+03 -0.21830287572E+04  0.22385724792E+04  0.10100000352E+00 0. -1.
</event>
<event>
 5   0  0.2705859E-06  0.3314137E+04  0.7818609E-02  0.8159308E-01
        2   -1    0    0  501    0  0.00000000000E+00  0.00000000000E+00  0.30970863400E+04  0.30970863400E+04  0.25500000920E-02 0. -1.
       -2   -1    0    0    0  501  0.00000000000E+00  0.00000000000E+00 -0.88659974312E+03  0.88659974312E+03  0.25500000920E-02 0.  1.
    10030    2    1    2    0    0  0.00000000000E+00  0.00000000000E+00  0.22104865969E+04  0.39836860832E+04  0.33141369637E+04 0.  0.
        1    1    3    3  502    0  0.92373249023E+03 -0.37182201894E+03 -0.48686227890E+03  0.11084079601E+04  0.50400001928E-02 0.  1.
       -1    1    3    3    0  502 -0.92373249023E+03  0.37182201894E+03  0.26973488758E+04  0.28752781231E+04  0.50400001928E-02 0. -1.
</event>
<event>
 5   0  0.9268670E-07  0.3451610E+04  0.7818609E-02  0.8125354E-01
        1   -1    0    0  501    0  0.00000000000E+00  0.00000000000E+00  0.21781810115E+04  0.21781810115E+04  0.50400001928E-02 0.  1.
       -1   -1    0    0    0  501  0.00000000000E+00  0.00000000000E+00 -0.13673810240E+04  0.13673810240E+04  0.50400001928E-02 0. -1.
    10030    2    1    2    0    0  0.00000000000E+00  0.00000000000E+00  0.81079998749E+03  0.35455620356E+04  0.34516102805E+04 0.  0.
        3    1    3    3  502    0 -0.92196585970E+03  0.52703908345E+03 -0.99200096495E+03  0.14532230271E+04  0.10100000352E+00 0. -1.
       -3    1    3    3    0  502  0.92196585970E+03 -0.52703908345E+03  0.18028009524E+04  0.20923390084E+04  0.10100000352E+00 0.  1.
</event>
<event>
 5   0  0.8705956E-07  0.3249365E+04  0.7818609E-02  0.8175900E-01
       -1   -1    0    0    0  501  0.00000000000E+00  0.00000000000E+00  0.11759982517E+04  0.11759982517E+04  0.50400001928E-02 0.  1.
        1   -1    0    0  501    0  0.00000000000E+00  0.00000000000E+00 -0.22445555678E+04  0.22445555678E+04  0.50400001928E-02 0. -1.
    10030    2    1    2    0    0  0.00000000000E+00  0.00000000000E+00 -0.10685573161E+04  0.34205538195E+04  0.32493651218E+04 0.  0.
        2    1    3    3  502    0  0.55472216454E+02  0.66572468323E+03  0.10247338386E+04  0.12232522064E+04  0.25500000920E-02 0.  1.
       -2    1    3    3    0  502 -0.55472216454E+02 -0.66572468323E+03 -0.20932911547E+04  0.21973016131E+04  0.25500000920E-02 0. -1.
</event>
<event>
 5   0  0.9295663E-07  0.3323592E+04  0.7818609E-02  0.8156918E-01
        1   -1    0    0  501    0  0.00000000000E+00  0.00000000000E+00  0.15819847735E+04  0.15819847735E+04  0.50400001928E-02 0.  1.
       -1   -1    0    0    0  501  0.00000000000E+00  0.00000000000E+00 -0.17456339306E+04  0.17456339306E+04  0.50400001928E-02 0. -1.
    10030    2    1    2    0    0  0.00000000000E+00  0.00000000000E+00 -0.16364915715E+03  0.33276187041E+04  0.33235922123E+04 0.  0.
        4    1    3    3  502    0  0.51567578289E+03 -0.59334024779E+03 -0.15476989037E+04  0.17358996722E+04  0.12699999809E+01 0. -1.
       -4    1    3    3    0  502 -0.51567578289E+03  0.59334024779E+03  0.13840497465E+04  0.15917190319E+04  0.12699999809E+01 0.  1.
</event>
<event>
 5   0  0.2574803E-06  0.2922359E+04  0.7818609E-02  0.8266256E-01
        2   -1    0    0  501    0  0.00000000000E+00  0.00000000000E+00  0.15190620015E+04  0.15190620015E+04  0.25500000920E-02 0. -1.
       -2   -1    0    0    0  501  0.00000000000E+00  0.00000000000E+00 -0.14055027353E+04  0.14055027353E+04  0.25500000920E-02 0.  1.
    10030    2    1    2    0    0  0.00000000000E+00  0.00000000000E+00  0.11355926626E+03  0.29245647368E+04  0.29223591827E+04 0.  0.
        4    1    3    3  502    0 -0.10950725438E+04  0.11875817826E+03 -0.90402662219E+03  0.14249747814E+04  0.12699999809E+01 0.  1.
       -4    1    3    3    0  502  0.10950725438E+04 -0.11875817826E+03  0.10175858885E+04  0.14995899554E+04  0.12699999809E+01 0. -1.
</event>
<event>
 5   0  0.8520125E-07  0.3283687E+04  0.7818609E-02  0.8167059E-01
        3   -1    0    0  501    0  0.00000000000E+00  0.00000000000E+00  0.22119818446E+04  0.22119818469E+04  0.10100000352E+00 0.  1.
       -3   -1    0    0    0  501  0.00000000000E+00  0.00000000000E+00 -0.12186582164E+04  0.12186582206E+04  0.10100000352E+00 0. -1.
    10030    2    1    2    0    0  0.00000000000E+00  0.00000000000E+00  0.99332362822E+03  0.34306400675E+04  0.32836868673E+04 0.  0.
        4    1    3    3  502    0 -0.54940852179E+03  0.15357611376E+04  0.69277566751E+03  0.17721037594E+04  0.12699999809E+01 0.  1.
       -4    1    3    3    0  502  0.54940852179E+03 -0.15357611376E+04  0.30054796071E+03  0.16585363081E+04  0.12699999809E+01 0. -1.
</event>
<event>
 5   0  0.9530268E-07  0.3256058E+04  0.7818609E-02  0.8174167E-01
        1   -1    0    0  501    0  0.00000000000E+00  0.00000000000E+00  0.19410905833E+04  0.19410905833E+04  0.50400001928E-02 0. -1.
       -1   -1    0    0    0  501  0.00000000000E+00  0.00000000000E+00 -0.13654588096E+04  0.13654588096E+04  0.50400001928E-02 0.  1.
    10030    2    1    2    0    0  0.00000000000E+00  0.00000000000E+00  0.57563177373E+03  0.33065493929E+04  0.32560584990E+04 0.  0.
        5    1    3    3  502    0 -0.14403710774E+04  0.49256951630E+03  0.87396967306E+03  0.17553172501E+04  0.46999998093E+01 0. -1.
       -5    1    3    3    0  502  0.14403710774E+04 -0.49256951630E+03 -0.29833789934E+03  0.15512321429E+04  0.46999998093E+01 0.  1.
</event>
<event>
 5   0  0.9530268E-07  0.3299499E+04  0.7818609E-02  0.8163023E-01
       -1   -1    0    0    0  501  0.00000000000E+00  0.00000000000E+00  0.95252392022E+03  0.95252392023E+03  0.50400001928E-02 0. -1.
        1   -1    0    0  501    0  0.00000000000E+00  0.00000000000E+00 -0.28573273989E+04  0.28573273989E+04  0.50400001928E-02 0.  1.
    10030    2    1    2    0    0  0.00000000000E+00  0.00000000000E+00 -0.19048034787E+04  0.38098513192E+04  0.32994985652E+04 0.  0.
        5    1    3    3  502    0  0.79097795320E+03 -0.12112276984E+04 -0.18681200764E+04  0.23627554613E+04  0.46999998093E+01 0.  1.
       -5    1    3    3    0  502 -0.79097795320E+03  0.12112276984E+04 -0.36683402307E+02  0.14470958579E+04  0.46999998093E+01 0. -1.
</event>
<event>
 5   0  0.2658600E-06  0.3296595E+04  0.7818609E-02  0.8163762E-01
       -2   -1    0    0    0  501  0.00000000000E+00  0.00000000000E+00  0.10874016760E+04  0.10874016760E+04  0.25500000920E-02 0. -1.
        2   -1    0    0  501    0  0.00000000000E+00  0.00000000000E+00 -0.24985100829E+04  0.24985100829E+04  0.25500000920E-02 0.  1.
    10030    2    1    2    0    0  0.00000000000E+00  0.00000000000E+00 -0.14111084069E+04  0.35859117589E+04  0.32965946379E+04 0.  0.
        5    1    3    3  502    0  0.49321249028E+03 -0.15727479780E+04 -0.71447113240E+03  0.17964648206E+04  0.46999998093E+01 0.  1.
       -5    1    3    3    0  502 -0.49321249028E+03  0.15727479780E+04 -0.69663727454E+03  0.17894469383E+04  0.46999998093E+01 0. -1.
</event>
<event>
 5   0  0.2705859E-06  0.3247047E+04  0.7818609E-02  0.8176501E-01
        2   -1    0    0  501    0  0.00000000000E+00  0.00000000000E+00  0.24959459321E+04  0.24959459321E+04  0.25500000920E-02 0.  1.
       -2   -1    0    0    0  501  0.00000000000E+00  0.00000000000E+00 -0.10560441191E+04  0.10560441191E+04  0.25500000920E-02 0. -1.
    10030    2    1    2    0    0  0.00000000000E+00  0.00000000000E+00  0.14399018130E+04  0.35519900511E+04  0.32470472883E+04 0.  0.
        1    1    3    3  502    0  0.16175529368E+04  0.13503107911E+03  0.75652964675E+03  0.17908232750E+04  0.50400001928E-02 0.  1.
       -1    1    3    3    0  502 -0.16175529368E+04 -0.13503107911E+03  0.68337216629E+03  0.17611667762E+04  0.50400001928E-02 0. -1.
</event>
<event>
 5   0  0.8705956E-07  0.3297124E+04  0.7818609E-02  0.8163628E-01
        1   -1    0    0  501    0  0.00000000000E+00  0.00000000000E+00  0.15794921198E+04  0.15794921198E+04  0.50400001928E-02 0.  1.
       -1   -1    0    0    0  501  0.00000000000E+00  0.00000000000E+00 -0.17206519676E+04  0.17206519676E+04  0.50400001928E-02 0. -1.
    10030    2    1    2    0    0  0.00000000000E+00  0.00000000000E+00 -0.14115984782E+03  0.33001440874E+04  0.32971237306E+04 0.  0.
        2    1    3    3  502    0 -0.17398819340E+03  0.35986636048E+03  0.15302539834E+04  0.15815982241E+04  0.25500000920E-02 0.  1.
       -2    1    3    3    0  502  0.17398819340E+03 -0.35986636048E+03 -0.16714138312E+04  0.17185458633E+04  0.25500000920E-02 0. -1.
</event>
<event>
 5   0  0.8520125E-07  0.2401706E+04  0.7818609E-02  0.8438865E-01
       -4   -1    0    0    0  501  0.00000000000E+00  0.00000000000E+00  0.12309225694E+04  0.12309232246E+04  0.12699999809E+01 0.  1.
        4   -1    0    0  501    0  0.00000000000E+00  0.00000000000E+00 -0.11715165186E+04  0.11715172070E+04  0.12699999809E+01 0. -1.
    10030    2    1    2    0    0  0.00000000000E+00  0.00000000000E+00  0.59406050762E+02  0.24024404316E+04  0.24017058414E+04 0.  0.
        3    1    3    3  502    0  0.97246425730E+03 -0.28732593108E+02  0.73386111162E+03  0.12186321984E+04  0.10100000352E+00 0.  1.
       -3    1    3    3    0  502 -0.97246425730E+03  0.28732593108E+02 -0.67445506086E+03  0.11838082332E+04  0.10100000352E+00 0. -1.
</event>
<event>
 5   0  0.2705859E-06  0.3290503E+04  0.7818609E-02  0.8165316E-01
       -2   -1    0    0    0  501  0.00000000000E+00  0.00000000000E+00  0.18542189189E+04  0.18542189189E+04  0.25500000920E-02 0.  1.
        2   -1    0    0  501    0  0.00000000000E+00  0.00000000000E+00 -0.14598340020E+04  0.14598340020E+04  0.25500000920E-02 0. -1.
    10030    2    1    2    0    0  0.00000000000E+00  0.00000000000E+00  0.39438491692E+03  0.33140529210E+04  0.32905025908E+04 0.  0.
        1    1    3    3  502    0  0.70755062046E+02  0.88031225377E+03 -0.12008692033E+04  0.14906517992E+04  0.50400001928E-02 0. -1.
       -1    1    3    3    0  502 -0.70755062046E+02 -0.88031225377E+03  0.15952541202E+04  0.18234011218E+04  0.50400001928E-02 0.  1.
</event>
<event>
 5   0  0.2705859E-06  0.3285382E+04  0.7818609E-02  0.8166625E-01
        2   -1    0    0  501    0  0.00000000000E+00  0.00000000000E+00  0.15239938204E+04  0.15239938204E+04  0.25500000920E-02 0.  1.
       -2   -1    0    0    0  501  0.00000000000E+00  0.00000000000E+00 -0.17706332025E+04  0.17706332025E+04  0.25500000920E-02 0. -1.
    10030    2    1    2    0    0  0.00000000000E+00  0.00000000000E+00 -0.24663938203E+03  0.32946270229E+04  0.32853822054E+04 0.  0.
        1    1    3    3  502    0  0.13717492521E+04 -0.83274805964E+03  0.22876471810E+03  0.16209560875E+04  0.50400001928E-02 0.  1.
       -1    1    3    3    0  502 -0.13717492521E+04  0.83274805964E+03 -0.47540410013E+03  0.16736709354E+04  0.50400001928E-02 0. -1.
</event>
<event>
 5   0  0.2674551E-06  0.3311015E+04  0.7818609E-02  0.8160098E-01
       -2   -1    0    0    0  501  0.00000000000E+00  0.00000000000E+00  0.83406371239E+03  0.83406371240E+03  0.25500000920E-02 0.  1.
        2   -1    0    0  501    0  0.00000000000E+00  0.00000000000E+00 -0.32859654037E+04  0.32859654037E+04  0.25500000920E-02 0. -1.
    10030    2    1    2    0    0  0.00000000000E+00  0.00000000000E+00 -0.24519016913E+04  0.41200291161E+04  0.33110146502E+04 0.  0.
        3    1    3    3  502    0  0.77342838831E+03 -0.14477400515E+04 -0.14944567860E+04  0.22198071592E+04  0.10100000352E+00 0. -1.
       -3    1    3    3    0  502 -0.77342838831E+03  0.14477400515E+04 -0.95744490539E+03  0.19002219570E+04  0.10100000352E+00 0.  1.
</event>
<event>
 5   0  0.9295663E-07  0.3087104E+04  0.7818609E-02  0.8219286E-01
       -1   -1    0    0    0  501  0.00000000000E+00  0.00000000000E+00  0.19000680839E+04  0.19000680840E+04  0.50400001928E-02 0.  1.
        1   -1    0    0  501    0  0.00000000000E+00  0.00000000000E+00 -0.12539304210E+04  0.12539304210E+04  0.50400001928E-02 0. -1.
    10030    2    1    2    0    0  0.00000000000E+00  0.00000000000E+00  0.64613766298E+03  0.31539985049E+04  0.30871042564E+04 0.  0.
        4    1    3    3  502    0 -0.31573928932E+03  0.67763211815E+03 -0.10566287585E+04  0.12943502357E+04  0.12699999809E+01 0. -1.
       -4    1    3    3    0  502  0.31573928932E+03 -0.67763211815E+03  0.17027664215E+04  0.18596482693E+04  0.12699999809E+01 0.  1.
</event>
<event>
 5   0  0.9295663E-07  0.3317933E+04  0.7818609E-02  0.8158347E-01
        1   -1    0    0  501    0  0.00000000000E+00  0.00000000000E+00  0.19942139790E+04  0.19942139790E+04  0.50400001928E-02 0.  1.
       -1   -1    0    0    0  501  0.00000000000E+00  0.00000000000E+00 -0.13800772122E+04  0.13800772122E+04  0.50400001928E-02 0. -1.
    10030    2    1    2    0    0  0.00000000000E+00  0.00000000000E+00  0.61413676682E+03  0.33742911912E+04  0.33179326507E+04 0.  0.
        4    1    3    3  502    0 -0.20181473247E+02 -0.14761186756E+03  0.19873961996E+04  0.19929731113E+04  0.12699999809E+01 0.  1.
       -4    1    3    3    0  502  0.20181473247E+02  0.14761186756E+03 -0.13732594328E+04  0.13813180799E+04  0.12699999809E+01 0. -1.
</event>
<event>
 5   0  0.8845526E-07  0.3365284E+04  0.7818609E-02  0.8146480E-01
       -1   -1    0    0    0  501  0.00000000000E+00  0.00000000000E+00  0.11073931355E+04  0.11073931355E+04  0.50400001928E-02 0.  1.
        1   -1    0    0  501    0  0.00000000000E+00  0.00000000000E+00 -0.25567106215E+04  0.25567106215E+04  0.50400001928E-02 0. -1.
    10030    2    1    2    0    0  0.00000000000E+00  0.00000000000E+00 -0.14493174860E+04  0.36641037570E+04  0.33652838167E+04 0.  0.
        1    1    3    3  502    0  0.10521167894E+04 -0.19510737099E+03  0.68921053612E+03  0.12728031222E+04  0.50400001928E-02 0.  1.
       -1    1    3    3    0  502 -0.10521167894E+04  0.19510737099E+03 -0.21385280222E+04  0.23913006349E+04  0.50400001928E-02 0. -1.
</event>
<event>
 5   0  0.2658600E-06  0.3290796E+04  0.7818609E-02  0.8165241E-01
        2   -1    0    0  501    0  0.00000000000E+00  0.00000000000E+00  0.18181447891E+04  0.18181447891E+04  0.25500000920E-02 0.  1.
       -2   -1    0    0    0  501  0.00000000000E+00  0.00000000000E+00 -0.14890641513E+04  0.14890641513E+04  0.25500000920E-02 0. -1.
    10030    2    1    2    0    0  0.00000000000E+00  0.00000000000E+00  0.32908063781E+03  0.33072089404E+04  0.32907957866E+04 0.  0.
        5    1    3    3  502    0 -0.33859006693E+03 -0.12579610145E+04  0.11746418409E+04  0.17541136485E+04  0.46999998093E+01 0.  1.
       -5    1    3    3    0  502  0.33859006693E+03  0.12579610145E+04 -0.84556120305E+03  0.15530952919E+04  0.46999998093E+01 0. -1.
</event>
<event>
 5   0  0.9268670E-07  0.3314586E+04  0.7818609E-02  0.8159194E-01
        1   -1    0    0  501    0  0.00000000000E+00  0.00000000000E+00  0.18310786013E+04  0.18310786013E+04  0.50400001928E-02 0.  1.
       -1   -1    0    0    0  501  0.00000000000E+00  0.00000000000E+00 -0.15000014434E+04  0.15000014434E+04  0.50400001928E-02 0. -1.
    10030    2    1    2    0    0  0.00000000000E+00  0.00000000000E+00  0.33107715784E+03  0.33310800447E+04  0.33145862758E+04 0.  0.
        3    1    3    3  502    0  0.85332682171E+03  0.63328463712E+03  0.14436392305E+04  0.17925708728E+04  0.10100000352E+00 0.  1.
       -3    1    3    3    0  502 -0.85332682171E+03 -0.63328463712E+03 -0.11125620726E+04  0.15385091719E+04  0.10100000352E+00 0. -1.
</event>
<event>
 5   0  0.2658600E-06  0.3032012E+04  0.7818609E-02  0.8234648E-01
       -2   -1    0    0    0  501  0.00000000000E+00  0.00000000000E+00  0.14697932189E+04  0.14697932189E+04  0.25500000920E-02 0. -1.
        2   -1    0    0  501    0  0.00000000000E+00  0.00000000000E+00 -0.15636719040E+04  0.15636719040E+04  0.25500000920E-02 0.  1.
    10030    2    1    2    0    0  0.00000000000E+00  0.00000000000E+00 -0.93878685094E+02  0.30334651229E+04  0.30320121116E+04 0.  0.
        5    1    3    3  502    0 -0.72566110506E+03 -0.13126943124E+04  0.17339760748E+03  0.15099136457E+04  0.46999998093E+01 0. -1.
       -5    1    3    3    0  502  0.72566110506E+03  0.13126943124E+04 -0.26727629258E+03  0.15235514772E+04  0.46999998093E+01 0.  1.
</event>
<event>
 5   0  0.2705859E-06  0.3256325E+04  0.7818609E-02  0.8174098E-01
        2   -1    0    0  501    0  0.00000000000E+00  0.00000000000E+00  0.20458353668E+04  0.20458353668E+04  0.25500000920E-02 0.  1.
       -2   -1    0    0    0  501  0.00000000000E+00  0.00000000000E+00 -0.12957609941E+04  0.12957609941E+04  0.25500000920E-02 0. -1.
    10030    2    1    2    0    0  0.00000000000E+00  0.00000000000E+00  0.75007437272E+03  0.33415963609E+04  0.32563253330E+04 0.  0.
        1    1    3    3  502    0  0.12121825700E+04 -0.40323112858E+02 -0.73963973723E+03  0.14205912422E+04  0.50400001928E-02 0. -1.
       -1    1    3    3    0  502 -0.12121825700E+04  0.40323112858E+02  0.14897141100E+04  0.19210051187E+04  0.50400001928E-02 0.  1.
</event>
<event>
 5   0  0.2574803E-06  0.3275475E+04  0.7818609E-02  0.8169164E-01
        2   -1    0    0  501    0  0.00000000000E+00  0.00000000000E+00  0.12830058488E+04  0.12830058488E+04  0.25500000920E-02 0. -1.
       -2   -1    0    0    0  501  0.00000000000E+00  0.00000000000E+00 -0.20905467558E+04  0.20905467558E+04  0.25500000920E-02 0.  1.
    10030    2    1    2    0    0  0.00000000000E+00  0.00000000000E+00 -0.80754090700E+03  0.33735526046E+04  0.32754747533E+04 0.  0.
        4    1    3    3  502    0 -0.14846856133E+04  0.29962116548E+03 -0.10454158171E+04  0.18403695435E+04  0.12699999809E+01 0.  1.
       -4    1    3    3    0  502  0.14846856133E+04 -0.29962116548E+03  0.23787491010E+03  0.15331830611E+04  0.12699999809E+01 0. -1.
</event>
<event>
 5   0  0.2658600E-06  0.3300731E+04  0.7818609E-02  0.8162709E-01
       -2   -1    0    0    0  501  0.00000000000E+00  0.00000000000E+00  0.14926666275E+04  0.14926666275E+04  0.25500000920E-02 0. -1.
        2   -1    0    0  501    0  0.00000000000E+00  0.00000000000E+00 -0.18247255604E+04  0.18247255604E+04  0.25500000920E-02 0.  1.
    10030    2    1    2    0    0  0.00000000000E+00  0.00000000000E+00 -0.33205893298E+03  0.33173921879E+04  0.33007314028E+04 0.  0.
        5    1    3    3  502    0 -0.52044050011E+03  0.24643687154E+03  0.13884173997E+04  0.15031015973E+04  0.46999998093E+01 0. -1.
       -5    1    3    3    0  502  0.52044050011E+03 -0.24643687154E+03 -0.17204763327E+04  0.18142905906E+04  0.46999998093E+01 0.  1.
</event>
<event>
 5   0  0.9295663E-07  0.3300500E+04  0.7818609E-02  0.8162768E-01
        1   -1    0    0  501    0  0.00000000000E+00  0.00000000000E+00  0.18797825342E+04  0.18797825342E+04  0.50400001928E-02 0.  1.
       -1   -1    0    0    0  501  0.00000000000E+00  0.00000000000E+00 -0.14487446230E+04  0.14487446230E+04  0.50400001928E-02 0. -1.
    10030    2    1    2    0    0  0.00000000000E+00  0.00000000000E+00  0.43103791128E+03  0.33285271572E+04  0.33004998645E+04 0.  0.
        4    1    3    3  502    0  0.67326038829E+03 -0.22759315645E+03  0.17175438963E+04  0.18587729404E+04  0.12699999809E+01 0.  1.
       -4    1    3    3    0  502 -0.67326038829E+03  0.22759315645E+03 -0.12865059851E+04  0.14697542168E+04  0.12699999809E+01 0. -1.
</event>
<event>
 5   0  0.2705859E-06  0.3292106E+04  0.7818609E-02  0.8164907E-01
        2   -1    0    0  501    0  0.00000000000E+00  0.00000000000E+00  0.19538078558E+04  0.19538078558E+04  0.25500000920E-02 0. -1.
       -2   -1    0    0    0  501  0.00000000000E+00  0.00000000000E+00 -0.13867745836E+04  0.13867745836E+04  0.25500000920E-02 0.  1.
    10030    2    1    2    0    0  0.00000000000E+00  0.00000000000E+00  0.56703327214E+03  0.33405824394E+04  0.32921063626E+04 0.  0.
        1    1    3    3  502    0  0.39722638334E+03  0.83474056145E+01  0.19044210559E+04  0.19454248989E+04  0.50400001928E-02 0. -1.
       -1    1    3    3    0  502 -0.39722638334E+03 -0.83474056145E+01 -0.13373877838E+04  0.13951575406E+04  0.50400001928E-02 0.  1.
</event>
<event>
 5   0  0.9295663E-07  0.3260547E+04  0.7818609E-02  0.8173007E-01
       -1   -1    0    0    0  501  0.00000000000E+00  0.00000000000E+00  0.92724689583E+03  0.92724689584E+03  0.50400001928E-02 0.  1.
        1   -1    0    0  501    0  0.00000000000E+00  0.00000000000E+00 -0.28663254142E+04  0.28663254142E+04  0.50400001928E-02 0. -1.
    10030    2    1    2    0    0  0.00000000000E+00  0.00000000000E+00 -0.19390785184E+04  0.37935723101E+04  0.32605467902E+04 0.  0.
        4    1    3    3  502    0  0.26927649033E+03 -0.99893923252E+03  0.49634999201E+03  0.11474991704E+04  0.12699999809E+01 0.  1.
       -4    1    3    3    0  502 -0.26927649033E+03  0.99893923252E+03 -0.24354285104E+04  0.26460731397E+04  0.12699999809E+01 0. -1.
</event>
<event>
 5   0  0.8705956E-07  0.3300401E+04  0.7818609E-02  0.8162793E-01
        1   -1    0    0  501    0  0.00000000000E+00  0.00000000000E+00  0.10554548056E+04  0.10554548056E+04  0.50400001928E-02 0. -1.
       -1   -1    0    0    0  501  0.00000000000E+00  0.00000000000E+00 -0.25800842162E+04  0.25800842162E+04  0.50400001928E-02 0.  1.
    10030    2    1    2    0    0  0.00000000000E+00  0.00000000000E+00 -0.15246294106E+04  0.36355390218E+04  0.33004013603E+04 0.  0.
        2    1    3    3  502    0  0.25586084233E+02 -0.35417757673E+03 -0.25374993655E+04  0.25622254846E+04  0.25500000920E-02 0.  1.
       -2    1    3    3    0  502 -0.25586084233E+02  0.35417757673E+03  0.10128699549E+04  0.10733135372E+04  0.25500000920E-02 0. -1.
</event>
<event>
 5   0  0.8705956E-07  0.3294055E+04  0.7818609E-02  0.8164410E-01
       -1   -1    0    0    0  501  0.00000000000E+00  0.00000000000E+00  0.11714726275E+04  0.11714726275E+04  0.50400001928E-02 0.  1.
        1   -1    0    0  501    0  0.00000000000E+00  0.00000000000E+00 -0.23156324935E+04  0.23156324935E+04  0.50400001928E-02 0. -1.
    10030    2    1    2    0    0  0.00000000000E+00  0.00000000000E+00 -0.11441598660E+04  0.34871051210E+04  0.32940553010E+04 0.  0.
        2    1    3    3  502    0  0.14313996450E+04  0.36958264911E+03 -0.13407207112E+04  0.19957525657E+04  0.25500000920E-02 0. -1.
       -2    1    3    3    0  502 -0.14313996450E+04 -0.36958264911E+03  0.19656084512E+03  0.14913525553E+04  0.25500000920E-02 0.  1.
</event>
<event>
 5   0  0.8845526E-07  0.3305431E+04  0.7818609E-02  0.8161515E-01
       -1   -1    0    0    0  501  0.00000000000E+00  0.00000000000E+00  0.11057319783E+04  0.11057319783E+04  0.50400001928E-02 0. -1.
        1   -1    0    0  501    0  0.00000000000E+00  0.00000000000E+00 -0.24702801387E+04  0.24702801387E+04  0.50400001928E-02 0.  1.
    10030    2    1    2    0    0  0.00000000000E+00  0.00000000000E+00 -0.13645481604E+04  0.35760121170E+04  0.33054305285E+04 0.  0.
        1    1    3    3  502    0 -0.10382669027E+03  0.16397814234E+04 -0.48933676335E+03  0.17143843111E+04  0.50400001928E-02 0. -1.
       -1    1    3    3    0  502  0.10382669027E+03 -0.16397814234E+04 -0.87521139707E+03  0.18616278059E+04  0.50400001928E-02 0.  1.
</event>
<event>
 5   0  0.9295663E-07  0.3261554E+04  0.7818609E-02  0.8172747E-01
       -1   -1    0    0    0  501  0.00000000000E+00  0.00000000000E+00  0.11999697293E+04  0.11999697293E+04  0.50400001928E-02 0. -1.
        1   -1    0    0  501    0  0.00000000000E+00  0.00000000000E+00 -0.22162503233E+04  0.22162503233E+04  0.50400001928E-02 0.  1.
    10030    2    1    2    0    0  0.00000000000E+00  0.00000000000E+00 -0.10162805940E+04  0.34162200527E+04  0.32615538019E+04 0.  0.
        4    1    3    3  502    0  0.93049568025E+03  0.75553667763E+03 -0.16663690817E+04  0.20526678766E+04  0.12699999809E+01 0.  1.
       -4    1    3    3    0  502 -0.93049568025E+03 -0.75553667763E+03  0.65008848770E+03  0.13635521761E+04  0.12699999809E+01 0. -1.
</event>
<event>
 5   0  0.2574803E-06  0.3241939E+04  0.7818609E-02  0.8177828E-01
        2   -1    0    0  501    0  0.00000000000E+00  0.00000000000E+00  0.14716730383E+04  0.14716730383E+04  0.25500000920E-02 0. -1.
       -2   -1    0    0    0  501  0.00000000000E+00  0.00000000000E+00 -0.17854112550E+04  0.17854112550E+04  0.25500000920E-02 0.  1.
    10030    2    1    2    0    0  0.00000000000E+00  0.00000000000E+00 -0.31373821669E+03  0.32570842933E+04  0.32419386831E+04 0.  0.
        4    1    3    3  502    0  0.47193119591E+03 -0.14009692671E+03  0.13947532779E+04  0.14790823241E+04  0.12699999809E+01 0. -1.
       -4    1    3    3    0  502 -0.47193119591E+03  0.14009692671E+03 -0.17084914945E+04  0.17780019692E+04  0.12699999809E+01 0.  1.
</event>
<event>
 5   0  0.2574803E-06  0.3359315E+04  0.7818609E-02  0.8147965E-01
        2   -1    0    0  501    0  0.00000000000E+00  0.00000000000E+00  0.21754729529E+04  0.21754729529E+04  0.25500000920E-02 0. -1.
       -2   -1    0    0    0  501  0.00000000000E+00  0.00000000000E+00 -0.12968439422E+04  0.12968439422E+04  0.25500000920E-02 0.  1.
    10030    2    1    2    0    0  0.00000000000E+00  0.00000000000E+00  0.87862901078E+03  0.34723168951E+04  0.33593147637E+04 0.  0.
        4    1    3    3  502    0 -0.14017099927E+03 -0.15421148140E+04  0.11119592804E+04  0.19063633082E+04  0.12699999809E+01 0. -1.
       -4    1    3    3    0  502  0.14017099927E+03  0.15421148140E+04 -0.23333026958E+03  0.15659535869E+04  0.12699999809E+01 0.  1.
</event>
<event>
 5   0  0.9530268E-07  0.3093321E+04  0.7818609E-02  0.8217573E-01
        1   -1    0    0  501    0  0.00000000000E+00  0.00000000000E+00  0.11873174564E+04  0.11873174564E+04  0.50400001928E-02 0. -1.
       -1   -1    0    0    0  501  0.00000000000E+00  0.00000000000E+00 -0.20147592743E+04  0.20147592743E+04  0.50400001928E-02 0.  1.
    10030    2    1    2    0    0  0.00000000000E+00  0.00000000000E+00 -0.82744181786E+03  0.32020767307E+04  0.30933211000E+04 0.  0.
        5    1    3    3  502    0 -0.42285786937E+03 -0.18619053224E+03 -0.19416442583E+04  0.19958657790E+04  0.46999998093E+01 0.  1.
       -5    1    3    3    0  502  0.42285786937E+03  0.18619053224E+03  0.11142024404E+04  0.12062109518E+04  0.46999998093E+01 0. -1.
</event>
<event>
 5   0  0.2614212E-06  0.3299926E+04  0.7818609E-02  0.8162914E-01
       -2   -1    0    0    0  501  0.00000000000E+00  0.00000000000E+00  0.19540078825E+04  0.19540078825E+04  0.25500000920E-02 0. -1.
        2   -1    0    0  501    0  0.00000000000E+00  0.00000000000E+00 -0.13932277058E+04  0.13932277058E+04  0.25500000920E-02 0.  1.
    10030    2    1    2    0    0  0.00000000000E+00  0.00000000000E+00  0.56078017674E+03  0.33472355883E+04  0.32999260108E+04 0.  0.
        2    1    3    3  502    0 -0.27373241123E+03 -0.14632790358E+04 -0.44133225483E+03  0.15527038123E+04  0.25500000920E-02 0. -1.
       -2    1    3    3    0  502  0.27373241123E+03  0.14632790358E+04  0.10021124316E+04  0.17945317760E+04  0.25500000920E-02 0.  1.
</event>
<event>
 5   0  0.8520125E-07  0.3308611E+04  0.7818609E-02  0.8160708E-01
        3   -1    0    0  501    0  0.00000000000E+00  0.00000000000E+00  0.16790005583E+04  0.16790005613E+04  0.10100000352E+00 0. -1.
       -3   -1    0    0    0  501  0.00000000000E+00  0.00000000000E+00 -0.16299737365E+04  0.16299737397E+04  0.10100000352E+00 0.  1.
    10030    2    1    2    0    0  0.00000000000E+00  0.00000000000E+00  0.49026821787E+02  0.33089743010E+04  0.33086110825E+04 0.  0.
        2    1    3    3  502    0  0.63470015456E+02 -0.35391623089E+03  0.16394481472E+04  0.16784145402E+04  0.25500000920E-02 0. -1.
       -2    1    3    3    0  502 -0.63470015456E+02  0.35391623089E+03 -0.15904213254E+04  0.16305597608E+04  0.25500000920E-02 0.  1.
</event>
<event>
 5   0  0.2705859E-06  0.3290525E+04  0.7818609E-02  0.8165311E-01
       -2   -1    0    0    0  501  0.00000000000E+00  0.00000000000E+00  0.18543081077E+04  0.18543081077E+04  0.25500000920E-02 0.  1.
        2   -1    0    0  501    0  0.00000000000E+00  0.00000000000E+00 -0.14597834184E+04  0.14597834184E+04  0.25500000920E-02 0. -1.
    10030    2    1    2    0    0  0.00000000000E+00  0.00000000000E+00  0.39452468936E+03  0.33140915261E+04  0.32905247169E+04 0.  0.
        1    1    3    3  502    0  0.15907460330E+04  0.12719668933E+03 -0.20589983062E+03  0.16090514844E+04  0.50400001928E-02 0.  1.
       -1    1    3    3    0  502 -0.15907460330E+04 -0.12719668933E+03  0.60042451998E+03  0.17050400416E+04  0.50400001928E-02 0. -1.
</event>
<event>
 5   0  0.2574803E-06  0.3272754E+04  0.7818609E-02  0.8169863E-01
        2   -1    0    0  501    0  0.00000000000E+00  0.00000000000E+00  0.21506192693E+04  0.21506192693E+04  0.25500000920E-02 0.  1.
       -2   -1    0    0    0  501  0.00000000000E+00  0.00000000000E+00 -0.12450970498E+04  0.12450970498E+04  0.25500000920E-02 0. -1.
    10030    2    1    2    0    0  0.00000000000E+00  0.00000000000E+00  0.90552221949E+03  0.33957163191E+04  0.32727540130E+04 0.  0.
        4    1    3    3  502    0  0.12079912267E+04  0.58631691104E+02  0.15964678656E+04  0.20028459096E+04  0.12699999809E+01 0.  1.
       -4    1    3    3    0  502 -0.12079912267E+04 -0.58631691104E+02 -0.69094564608E+03  0.13928704095E+04  0.12699999809E+01 0. -1.
</event>
<event>
 5   0  0.9530268E-07  0.3017544E+04  0.7818609E-02  0.8238739E-01
       -1   -1    0    0    0  501  0.00000000000E+00  0.00000000000E+00  0.15620789916E+04  0.15620789916E+04  0.50400001928E-02 0.  1.
        1   -1    0    0  501    0  0.00000000000E+00  0.00000000000E+00 -0.14572841799E+04  0.14572841799E+04  0.50400001928E-02 0. -1.
    10030    2    1    2    0    0  0.00000000000E+00  0.00000000000E+00  0.10479481170E+03  0.30193631716E+04  0.30175440360E+04 0.  0.
        5    1    3    3  502    0 -0.11532789515E+04 -0.90624292249E+03 -0.30142903127E+03  0.14974011237E+04  0.46999998093E+01 0. -1.
       -5    1    3    3    0  502  0.11532789515E+04  0.90624292249E+03  0.40622384297E+03  0.15219620478E+04  0.46999998093E+01 0.  1.
</event>
<event>
 5   0  0.2574803E-06  0.3297350E+04  0.7818609E-02  0.8163570E-01
        2   -1    0    0  501    0  0.00000000000E+00  0.00000000000E+00  0.18609197942E+04  0.18609197942E+04  0.25500000920E-02 0. -1.
       -2   -1    0    0    0  501  0.00000000000E+00  0.00000000000E+00 -0.14606378488E+04  0.14606378488E+04  0.25500000920E-02 0.  1.
    10030    2    1    2    0    0  0.00000000000E+00  0.00000000000E+00  0.40028194535E+03  0.33215576430E+04  0.32973503818E+04 0.  0.
        4    1    3    3  502    0  0.11754234879E+03 -0.14001673265E+04 -0.66865437989E+03  0.15560800232E+04  0.12699999809E+01 0.  1.
       -4    1    3    3    0  502 -0.11754234879E+03  0.14001673265E+04  0.10689363252E+04  0.17654776199E+04  0.12699999809E+01 0. -1.
</event>
<event>
 5   0  0.2658600E-06  0.3207293E+04  0.7818609E-02  0.8186894E-01
        2   -1    0    0  501    0  0.00000000000E+00  0.00000000000E+00  0.14114991078E+04  0.14114991078E+04  0.25500000920E-02 0.  1.
       -2   -1    0    0    0  501  0.00000000000E+00  0.00000000000E+00 -0.18219506803E+04  0.18219506803E+04  0.25500000920E-02 0. -1.
    10030    2    1    2    0    0  0.00000000000E+00  0.00000000000E+00 -0.41045157244E+03  0.32334497881E+04  0.32072927897E+04 0.  0.
        5    1    3    3  502    0 -0.18228090555E+03 -0.11624140993E+04 -0.13037113647E+04  0.17561657892E+04  0.46999998093E+01 0. -1.
       -5    1    3    3    0  502  0.18228090555E+03  0.11624140993E+04  0.89325979226E+03  0.14772839989E+04  0.46999998093E+01 0.  1.
</event>
<event>
 5   0  0.2705859E-06  0.3300289E+04  0.7818609E-02  0.8162822E-01
        2   -1    0    0  501    0  0.00000000000E+00  0.00000000000E+00  0.21102802853E+04  0.21102802853E+04  0.25500000920E-02 0. -1.
       -2   -1    0    0    0  501  0.00000000000E+00  0.00000000000E+00 -0.12903392943E+04  0.12903392943E+04  0.25500000920E-02 0.  1.
    10030    2    1    2    0    0  0.00000000000E+00  0.00000000000E+00  0.81994099102E+03  0.34006195796E+04  0.33002894261E+04 0.  0.
        1    1    3    3  502    0 -0.71897723677E+03 -0.14845369395E+04  0.36164721766E+03  0.16886583141E+04  0.50400001928E-02 0.  1.
       -1    1    3    3    0  502  0.71897723677E+03  0.14845369395E+04  0.45829377336E+03  0.17119612655E+04  0.50400001928E-02 0. -1.
</event>
<event>
 5   0  0.9295663E-07  0.3351880E+04  0.7818609E-02  0.8149819E-01
        1   -1    0    0  501    0  0.00000000000E+00  0.00000000000E+00  0.29805521125E+04  0.29805521126E+04  0.50400001928E-02 0.  1.
       -1   -1    0    0    0  501  0.00000000000E+00  0.00000000000E+00 -0.94236715892E+03  0.94236715893E+03  0.50400001928E-02 0. -1.
    10030    2    1    2    0    0  0.00000000000E+00  0.00000000000E+00  0.20381849536E+04  0.39229192715E+04  0.33518797272E+04 0.  0.
        4    1    3    3  502    0 -0.82944843396E+02 -0.98081375142E+03  0.26066071252E+04  0.27862659206E+04  0.12699999809E+01 0.  1.
       -4    1    3    3    0  502  0.82944843396E+02  0.98081375142E+03 -0.56842217161E+03  0.11366533509E+04  0.12699999809E+01 0. -1.
</event>
<event>
 5   0  0.2705859E-06  0.3233903E+04  0.7818609E-02  0.8179920E-01
       -2   -1    0    0    0  501  0.00000000000E+00  0.00000000000E+00  0.11807192867E+04  0.11807192867E+04  0.25500000920E-02 0.  1.
        2   -1    0    0  501    0  0.00000000000E+00  0.00000000000E+00 -0.22143558227E+04  0.22143558227E+04  0.25500000920E-02 0. -1.
    10030    2    1    2    0    0  0.00000000000E+00  0.00000000000E+00 -0.10336365360E+04  0.33950751094E+04  0.32339032933E+04 0.  0.
        1    1    3    3  502    0  0.15905178649E+04  0.13402006737E+03 -0.78820533406E+03  0.17801618201E+04  0.50400001928E-02 0.  1.
       -1    1    3    3    0  502 -0.15905178649E+04 -0.13402006737E+03 -0.24543120192E+03  0.16149132893E+04  0.50400001928E-02 0. -1.
</event>
<event>
 5   0  0.8705956E-07  0.3353588E+04  0.7818609E-02  0.8149392E-01
       -1   -1    0    0    0  501  0.00000000000E+00  0.00000000000E+00  0.11497412462E+04  0.11497412462E+04  0.50400001928E-02 0. -1.
        1   -1    0    0  501    0  0.00000000000E+00  0.00000000000E+00 -0.24454526475E+04  0.24454526475E+04  0.50400001928E-02 0.  1.
    10030    2    1    2    0    0  0.00000000000E+00  0.00000000000E+00 -0.12957114013E+04  0.35951938937E+04  0.33535877949E+04 0.  0.
        2    1    3    3  502    0  0.13879294306E+04 -0.76079921027E+03 -0.54370874608E+02  0.15837044342E+04  0.25500000920E-02 0. -1.
       -2    1    3    3    0  502 -0.13879294306E+04  0.76079921027E+03 -0.12413405267E+04  0.20114894596E+04  0.25500000920E-02 0.  1.
</event>
<event>
 5   0  0.2674551E-06  0.3314127E+04  0.7818609E-02  0.8159310E-01
       -2   -1    0    0    0  501  0.00000000000E+00  0.00000000000E+00  0.13630121963E+04  0.13630121963E+04  0.25500000920E-02 0.  1.
        2   -1    0    0  501    0  0.00000000000E+00  0.00000000000E+00 -0.20145521613E+04  0.20145521613E+04  0.25500000920E-02 0. -1.
    10030    2    1    2    0    0  0.00000000000E+00  0.00000000000E+00 -0.65153996501E+03  0.33775643575E+04  0.33141268327E+04 0.  0.
        3    1    3    3  502    0 -0.60875491787E+03  0.13461721257E+03  0.12389209341E+04  0.13869496873E+04  0.10100000352E+00 0.  1.
       -3    1    3    3    0  502  0.60875491787E+03 -0.13461721257E+03 -0.18904608991E+04  0.19906146702E+04  0.10100000352E+00 0. -1.
</event>
<event>
 5   0  0.9295663E-07  0.3276785E+04  0.7818609E-02  0.8168828E-01
        1   -1    0    0  501    0  0.00000000000E+00  0.00000000000E+00  0.14112229042E+04  0.14112229042E+04  0.50400001928E-02 0. -1.
       -1   -1    0    0    0  501  0.00000000000E+00  0.00000000000E+00 -0.19021300421E+04  0.19021300421E+04  0.50400001928E-02 0.  1.
    10030    2    1    2    0    0  0.00000000000E+00  0.00000000000E+00 -0.49090713787E+03  0.33133529463E+04  0.32767846937E+04 0.  0.
        4    1    3    3  502    0  0.14110307375E+04 -0.61017077271E+03 -0.81835546849E+03  0.17415577509E+04  0.12699999809E+01 0.  1.
       -4    1    3    3    0  502 -0.14110307375E+04  0.61017077271E+03  0.32744833061E+03  0.15717951954E+04  0.12699999809E+01 0. -1.
</event>
<event>
 5   0  0.8845526E-07  0.3374829E+04  0.7818609E-02  0.8144112E-01
       -1   -1    0    0    0  501  0.00000000000E+00  0.00000000000E+00  0.12796877532E+04  0.12796877532E+04  0.50400001928E-02 0.  1.
        1   -1    0    0  501    0  0.00000000000E+00  0.00000000000E+00 -0.22250485033E+04  0.22250485033E+04  0.50400001928E-02 0. -1.
    10030    2    1    2    0    0  0.00000000000E+00  0.00000000000E+00 -0.94536075012E+03  0.35047362565E+04  0.33748287778E+04 0.  0.
        1    1    3    3  502    0 -0.48738519560E+03 -0.33425570728E+03  0.11686959670E+04  0.13096264620E+04  0.50400001928E-02 0.  1.
       -1    1    3    3    0  502  0.48738519560E+03  0.33425570728E+03 -0.21140567171E+04  0.21951097945E+04  0.50400001928E-02 0. -1.
</event>
<event>
 5   0  0.2705859E-06  0.3293280E+04  0.7818609E-02  0.8164607E-01
        2   -1    0    0  501    0  0.00000000000E+00  0.00000000000E+00  0.19078530855E+04  0.19078530855E+04  0.25500000920E-02 0.  1.
       -2   -1    0    0    0  501  0.00000000000E+00  0.00000000000E+00 -0.14211907475E+04  0.14211907475E+04  0.25500000920E-02 0. -1.
    10030    2    1    2    0    0  0.00000000000E+00  0.00000000000E+00  0.48666233793E+03  0.33290438330E+04  0.32932799169E+04 0.  0.
        1    1    3    3  502    0 -0.16153961265E+04 -0.11635197109E+03  0.54384858769E+03  0.17084536029E+04  0.50400001928E-02 0.  1.
       -1    1    3    3    0  502  0.16153961265E+04  0.11635197109E+03 -0.57186249760E+02  0.16205902301E+04  0.50400001928E-02 0. -1.
</event>
<event>
 5   0  0.2574803E-06  0.2838429E+04  0.7818609E-02  0.8291436E-01
       -2   -1    0    0    0  501  0.00000000000E+00  0.00000000000E+00  0.14004068990E+04  0.14004068990E+04  0.25500000920E-02 0. -1.
        2   -1    0    0  501    0  0.00000000000E+00  0.00000000000E+00 -0.14382748547E+04  0.14382748547E+04  0.25500000920E-02 0.  1.
    10030    2    1    2    0    0  0.00000000000E+00  0.00000000000E+00 -0.37867955725E+02  0.28386817537E+04  0.28384291636E+04 0.  0.
        4    1    3    3  502    0 -0.60650839232E+03 -0.87351622660E+03  0.92098229569E+03  0.14068024133E+04  0.12699999809E+01 0. -1.
       -4    1    3    3    0  502  0.60650839232E+03  0.87351622660E+03 -0.95885025142E+03  0.14318793405E+04  0.12699999809E+01 0.  1.
</event>
<event>
 5   0  0.8520125E-07  0.3273225E+04  0.7818609E-02  0.8169742E-01
       -3   -1    0    0    0  501  0.00000000000E+00  0.00000000000E+00  0.17209160414E+04  0.17209160443E+04  0.10100000352E+00 0.  1.
        3   -1    0    0  501    0  0.00000000000E+00  0.00000000000E+00 -0.15564384147E+04  0.15564384180E+04  0.10100000352E+00 0. -1.
    10030    2    1    2    0    0  0.00000000000E+00  0.00000000000E+00  0.16447762664E+03  0.32773544623E+04  0.32732246153E+04 0.  0.
        2    1    3    3  502    0 -0.12507130023E+04  0.51989346961E+03 -0.83757558762E+03  0.15925153371E+04  0.25500000920E-02 0. -1.
       -2    1    3    3    0  502  0.12507130023E+04 -0.51989346961E+03  0.10020532143E+04  0.16848391253E+04  0.25500000920E-02 0.  1.
</event>
<event>
 5   0  0.2705859E-06  0.3282437E+04  0.7818609E-02  0.8167379E-01
        2   -1    0    0  501    0  0.00000000000E+00  0.00000000000E+00  0.16019099641E+04  0.16019099641E+04  0.25500000920E-02 0.  1.
       -2   -1    0    0    0  501  0.00000000000E+00  0.00000000000E+00 -0.16814916829E+04  0.16814916829E+04  0.25500000920E-02 0. -1.
    10030    2    1    2    0    0  0.00000000000E+00  0.00000000000E+00 -0.79581718882E+02  0.32834016470E+04  0.32824370711E+04 0.  0.
        1    1    3    3  502    0 -0.14381321606E+03  0.32095951937E+03  0.15637713095E+04  0.16028343529E+04  0.50400001928E-02 0.  1.
       -1    1    3    3    0  502  0.14381321606E+03 -0.32095951937E+03 -0.16433530284E+04  0.16805672942E+04  0.50400001928E-02 0. -1.
</event>
<event>
 5   0  0.2674551E-06  0.2609849E+04  0.7818609E-02  0.8364863E-01
       -2   -1    0    0    0  501  0.00000000000E+00  0.00000000000E+00  0.61656977606E+03  0.61656977606E+03  0.25500000920E-02 0.  1.
        2   -1    0    0  501    0  0.00000000000E+00  0.00000000000E+00 -0.27617764675E+04  0.27617764675E+04  0.25500000920E-02 0. -1.
    10030    2    1    2    0    0  0.00000000000E+00  0.00000000000E+00 -0.21452066915E+04  0.33783462436E+04  0.26098489597E+04 0.  0.
        3    1    3    3  502    0  0.65666459269E+03  0.49419358451E+03  0.23946638459E+03  0.85602561049E+03  0.10100000352E+00 0.  1.
       -3    1    3    3    0  502 -0.65666459269E+03 -0.49419358451E+03 -0.23846730761E+04  0.25223206331E+04  0.10100000352E+00 0. -1.
</event>
<event>
 5   0  0.8845526E-07  0.3280962E+04  0.7818609E-02  0.8167757E-01
       -1   -1    0    0    0  501  0.00000000000E+00  0.00000000000E+00  0.15221254476E+04  0.15221254476E+04  0.50400001928E-02 0.  1.
        1   -1    0    0  501    0  0.00000000000E+00  0.00000000000E+00 -0.17680392246E+04  0.17680392247E+04  0.50400001928E-02 0. -1.
    10030    2    1    2    0    0  0.00000000000E+00  0.00000000000E+00 -0.24591377706E+03  0.32901646723E+04  0.32809617469E+04 0.  0.
        1    1    3    3  502    0  0.13672260413E+04 -0.99767818107E+02  0.78063482603E+03  0.15775460048E+04  0.50400001928E-02 0.  1.
       -1    1    3    3    0  502 -0.13672260413E+04  0.99767818107E+02 -0.10265486031E+04  0.17126186675E+04  0.50400001928E-02 0. -1.
</event>
<event>
 5   0  0.8845526E-07  0.3288421E+04  0.7818609E-02  0.8165848E-01
        1   -1    0    0  501    0  0.00000000000E+00  0.00000000000E+00  0.20632198433E+04  0.20632198433E+04  0.50400001928E-02 0.  1.
       -1   -1    0    0    0  501  0.00000000000E+00  0.00000000000E+00 -0.13102960959E+04  0.13102960959E+04  0.50400001928E-02 0. -1.
    10030    2    1    2    0    0  0.00000000000E+00  0.00000000000E+00  0.75292374734E+03  0.33735159392E+04  0.32884214485E+04 0.  0.
        1    1    3    3  502    0  0.12829844273E+04  0.82692576484E+03  0.10034847831E+04  0.18267011171E+04  0.50400001928E-02 0.  1.
       -1    1    3    3    0  502 -0.12829844273E+04 -0.82692576484E+03 -0.25056103576E+03  0.15468148221E+04  0.50400001928E-02 0. -1.
</event>
<event>
 5   0  0.9268670E-07  0.3282637E+04  0.7818609E-02  0.8167327E-01
        1   -1    0    0  501    0  0.00000000000E+00  0.00000000000E+00  0.24608112958E+04  0.24608112959E+04  0.50400001928E-02 0.  1.
       -1   -1    0    0    0  501  0.00000000000E+00  0.00000000000E+00 -0.10947312965E+04  0.10947312965E+04  0.50400001928E-02 0. -1.
    10030    2    1    2    0    0  0.00000000000E+00  0.00000000000E+00  0.13660799994E+04  0.35555425923E+04  0.32826374398E+04 0.  0.
        3    1    3    3  502    0 -0.12728492987E+04 -0.46875468134E+03 -0.31793868486E+03  0.13931838738E+04  0.10100000352E+00 0. -1.
       -3    1    3    3    0  502  0.12728492987E+04  0.46875468134E+03  0.16840186843E+04  0.21623587186E+04  0.10100000352E+00 0.  1.
</event>
<event>
 5   0  0.9530268E-07  0.3293076E+04  0.7818609E-02  0.8164659E-01
        1   -1    0    0  501    0  0.00000000000E+00  0.00000000000E+00  0.22632898581E+04  0.22632898581E+04  0.50400001928E-02 0.  1.
       -1   -1    0    0    0  501  0.00000000000E+00  0.00000000000E+00 -0.11978524367E+04  0.11978524367E+04  0.50400001928E-02 0. -1.
    10030    2    1    2    0    0  0.00000000000E+00  0.00000000000E+00  0.10654374214E+04  0.34611422947E+04  0.32930759307E+04 0.  0.
        5    1    3    3  502    0 -0.24724150154E+03  0.16251344349E+04  0.63173330053E+03  0.17610506366E+04  0.46999998093E+01 0.  1.
       -5    1    3    3    0  502  0.24724150154E+03 -0.16251344349E+04  0.43370412085E+03  0.17000916582E+04  0.46999998093E+01 0. -1.
</event>
<event>
 5   0  0.9530268E-07  0.2759083E+04  0.7818609E-02  0.8316085E-01
        1   -1    0    0  501    0  0.00000000000E+00  0.00000000000E+00  0.17249986187E+04  0.17249986187E+04  0.50400001928E-02 0.  1.
       -1   -1    0    0    0  501  0.00000000000E+00  0.00000000000E+00 -0.11032673121E+04  0.11032673121E+04  0.50400001928E-02 0. -1.
    10030    2    1    2    0    0  0.00000000000E+00  0.00000000000E+00  0.62173130663E+03  0.28282659309E+04  0.27590828835E+04 0.  0.
        5    1    3    3  502    0 -0.30277584100E+03  0.11463262115E+04 -0.41206675189E+03  0.12552123689E+04  0.46999998093E+01 0. -1.
       -5    1    3    3    0  502  0.30277584100E+03 -0.11463262115E+04  0.10337980585E+04  0.15730535620E+04  0.46999998093E+01 0.  1.
</event>
<event>
 5   0  0.2574803E-06  0.3306126E+04  0.7818609E-02  0.8161338E-01
       -2   -1    0    0    0  501  0.00000000000E+00  0.00000000000E+00  0.21007210127E+04  0.21007210127E+04  0.25500000920E-02 0.  1.
        2   -1    0    0  501    0  0.00000000000E+00  0.00000000000E+00 -0.13007995828E+04  0.13007995828E+04  0.25500000920E-02 0. -1.
    10030    2    1    2    0    0  0.00000000000E+00  0.00000000000E+00  0.79992142984E+03  0.34015205955E+04  0.33061258397E+04 0.  0.
        4    1    3    3  502    0  0.14627710417E+04  0.56389200434E+03  0.93943946243E+03  0.18276272677E+04  0.12699999809E+01 0.  1.
       -4    1    3    3    0  502 -0.14627710417E+04 -0.56389200434E+03 -0.13951803259E+03  0.15738933278E+04  0.12699999809E+01 0. -1.
</event>
<event>
 5   0  0.2705859E-06  0.2718260E+04  0.7818609E-02  0.8329104E-01
       -2   -1    0    0    0  501  0.00000000000E+00  0.00000000000E+00  0.97699050093E+03  0.97699050094E+03  0.25500000920E-02 0.  1.
        2   -1    0    0  501    0  0.00000000000E+00  0.00000000000E+00 -0.18907396678E+04  0.18907396678E+04  0.25500000920E-02 0. -1.
    10030    2    1    2    0    0  0.00000000000E+00  0.00000000000E+00 -0.91374916689E+03  0.28677301688E+04  0.27182602489E+04 0.  0.
        1    1    3    3  502    0  0.11454394316E+02  0.25293879162E+03 -0.18656384423E+04  0.18827416267E+04  0.50400001928E-02 0. -1.
       -1    1    3    3    0  502 -0.11454394316E+02 -0.25293879162E+03  0.95188927538E+03  0.98498854210E+03  0.50400001928E-02 0.  1.
</event>
<event>
 5   0  0.8705956E-07  0.3253761E+04  0.7818609E-02  0.8174762E-01
       -1   -1    0    0    0  501  0.00000000000E+00  0.00000000000E+00  0.14506892959E+04  0.14506892959E+04  0.50400001928E-02 0. -1.
        1   -1    0    0  501    0  0.00000000000E+00  0.00000000000E+00 -0.18244705584E+04  0.18244705584E+04  0.50400001928E-02 0.  1.
    10030    2    1    2    0    0  0.00000000000E+00  0.00000000000E+00 -0.37378126250E+03  0.32751598544E+04  0.32537608455E+04 0.  0.
        2    1    3    3  502    0  0.77133979845E+03 -0.13989562319E+04 -0.49664208079E+03  0.16729306560E+04  0.25500000920E-02 0.  1.
       -2    1    3    3    0  502 -0.77133979845E+03  0.13989562319E+04  0.12286081829E+03  0.16022291984E+04  0.25500000920E-02 0. -1.
</event>
<event>
 5   0  0.2658600E-06  0.3348728E+04  0.7818609E-02  0.8150606E-01
       -2   -1    0    0    0  501  0.00000000000E+00  0.00000000000E+00  0.12719402360E+04  0.12719402360E+04  0.25500000920E-02 0. -1.
        2   -1    0    0  501    0  0.00000000000E+00  0.00000000000E+00 -0.22041088238E+04  0.22041088238E+04  0.25500000920E-02 0.  1.
    10030    2    1    2    0    0  0.00000000000E+00  0.00000000000E+00 -0.93216858780E+03  0.34760490598E+04  0.33487279361E+04 0.  0.
        5    1    3    3  502    0 -0.14565388199E+04  0.45824540669E+03  0.24704307365E+03  0.15467858794E+04  0.46999998093E+01 0. -1.
       -5    1    3    3    0  502  0.14565388199E+04 -0.45824540669E+03 -0.11792116614E+04  0.19292631804E+04  0.46999998093E+01 0.  1.
</event>
<event>
 5   0  0.8705956E-07  0.3312685E+04  0.7818609E-02  0.8159675E-01
       -1   -1    0    0    0  501  0.00000000000E+00  0.00000000000E+00  0.12067381905E+04  0.12067381905E+04  0.50400001928E-02 0. -1.
        1   -1    0    0  501    0  0.00000000000E+00  0.00000000000E+00 -0.22734599956E+04  0.22734599956E+04  0.50400001928E-02 0.  1.
    10030    2    1    2    0    0  0.00000000000E+00  0.00000000000E+00 -0.10667218051E+04  0.34801981862E+04  0.33126853164E+04 0.  0.
        2    1    3    3  502    0 -0.80486567649E+03 -0.75659474181E+03 -0.18299610213E+04  0.21375223274E+04  0.25500000920E-02 0.  1.
       -2    1    3    3    0  502  0.80486567649E+03  0.75659474181E+03  0.76323921622E+03  0.13426758588E+04  0.25500000920E-02 0. -1.
</event>
<event>
 5   0  0.2614212E-06  0.3287341E+04  0.7818609E-02  0.8166124E-01
       -2   -1    0    0    0  501  0.00000000000E+00  0.00000000000E+00  0.15371616632E+04  0.15371616632E+04  0.25500000920E-02 0.  1.
        2   -1    0    0  501    0  0.00000000000E+00  0.00000000000E+00 -0.17575588852E+04  0.17575588852E+04  0.25500000920E-02 0. -1.
    10030    2    1    2    0    0  0.00000000000E+00  0.00000000000E+00 -0.22039722204E+03  0.32947205484E+04  0.32873406512E+04 0.  0.
        2    1    3    3  502    0  0.12116236285E+04  0.10964347467E+04  0.67544290583E+02  0.16354703305E+04  0.25500000920E-02 0.  1.
       -2    1    3    3    0  502 -0.12116236285E+04 -0.10964347467E+04 -0.28794151263E+03  0.16592502179E+04  0.25500000920E-02 0. -1.
</event>
<event>
 5   0  0.2674551E-06  0.3325874E+04  0.7818609E-02  0.8156343E-01
        2   -1    0    0  501    0  0.00000000000E+00  0.00000000000E+00  0.14048975882E+04  0.14048975882E+04  0.25500000920E-02 0. -1.
       -2   -1    0    0    0  501  0.00000000000E+00  0.00000000000E+00 -0.19683707934E+04  0.19683707934E+04  0.25500000920E-02 0.  1.
    10030    2    1    2    0    0  0.00000000000E+00  0.00000000000E+00 -0.56347320516E+03  0.33732683816E+04  0.33258739485E+04 0.  0.
        3    1    3    3  502    0 -0.14618818852E+04 -0.40154995237E+03  0.41138923340E+03  0.15708539468E+04  0.10100000352E+00 0. -1.
       -3    1    3    3    0  502  0.14618818852E+04  0.40154995237E+03 -0.97486243855E+03  0.18024144348E+04  0.10100000352E+00 0.  1.
</event>
<event>
 5   0  0.2705859E-06  0.3298577E+04  0.7818609E-02  0.8163258E-01
       -2   -1    0    0    0  501  0.00000000000E+00  0.00000000000E+00  0.97386785395E+03  0.97386785395E+03  0.25500000920E-02 0. -1.
        2   -1    0    0  501    0  0.00000000000E+00  0.00000000000E+00 -0.27931434516E+04  0.27931434516E+04  0.25500000920E-02 0.  1.
    10030    2    1    2    0    0  0.00000000000E+00  0.00000000000E+00 -0.18192755976E+04  0.37670113055E+04  0.32985770380E+04 0.  0.
        1    1    3    3  502    0 -0.95638910498E+03 -0.21224038607E+03  0.60559458305E+03  0.11517251845E+04  0.50400001928E-02 0. -1.
       -1    1    3    3    0  502  0.95638910498E+03  0.21224038607E+03 -0.24248701807E+04  0.26152861210E+04  0.50400001928E-02 0.  1.
</event>
<event>
 5   0  0.2574803E-06  0.3292370E+04  0.7818609E-02  0.8164840E-01
       -2   -1    0    0    0  501  0.00000000000E+00  0.00000000000E+00  0.14612624931E+04  0.14612624931E+04  0.25500000920E-02 0.  1.
        2   -1    0    0  501    0  0.00000000000E+00  0.00000000000E+00 -0.18545092673E+04  0.18545092673E+04  0.25500000920E-02 0. -1.
    10030    2    1    2    0    0  0.00000000000E+00  0.00000000000E+00 -0.39324677425E+03  0.33157717604E+04  0.32923698671E+04 0.  0.
        4    1    3    3  502    0  0.24787737881E+03 -0.10690738958E+04  0.10391111737E+04  0.15113291613E+04  0.12699999809E+01 0.  1.
       -4    1    3    3    0  502 -0.24787737881E+03  0.10690738958E+04 -0.14323579479E+04  0.18044425991E+04  0.12699999809E+01 0. -1.
</event>
<event>
 5   0  0.9530268E-07  0.3314627E+04  0.7818609E-02  0.8159183E-01
       -1   -1    0    0    0  501  0.00000000000E+00  0.00000000000E+00  0.12905974997E+04  0.12905974997E+04  0.50400001928E-02 0. -1.
        1   -1    0    0  501    0  0.00000000000E+00  0.00000000000E+00 -0.21282298314E+04  0.21282298314E+04  0.50400001928E-02 0.  1.
    10030    2    1    2    0    0  0.00000000000E+00  0.00000000000E+00 -0.83763233175E+03  0.34188273311E+04  0.33146270373E+04 0.  0.
        5    1    3    3  502    0 -0.36960089344E+03  0.14215007792E+04 -0.12106724312E+04  0.19034229985E+04  0.46999998093E+01 0.  1.
       -5    1    3    3    0  502  0.36960089344E+03 -0.14215007792E+04  0.37304009940E+03  0.15154043326E+04  0.46999998093E+01 0. -1.
</event>
<event>
 5   0  0.9295663E-07  0.3291078E+04  0.7818609E-02  0.8165169E-01
        1   -1    0    0  501    0  0.00000000000E+00  0.00000000000E+00  0.11559551894E+04  0.11559551894E+04  0.50400001928E-02 0. -1.
       -1   -1    0    0    0  501  0.00000000000E+00  0.00000000000E+00 -0.23424775200E+04  0.23424775200E+04  0.50400001928E-02 0.  1.
    10030    2    1    2    0    0  0.00000000000E+00  0.00000000000E+00 -0.11865223306E+04  0.34984327094E+04  0.32910782703E+04 0.  0.
        4    1    3    3  502    0 -0.22584158921E+03 -0.14434780019E+04  0.21151455869E+03  0.14762700250E+04  0.12699999809E+01 0. -1.
       -4    1    3    3    0  502  0.22584158921E+03  0.14434780019E+04 -0.13980368893E+04  0.20221626843E+04  0.12699999809E+01 0.  1.
</event>
<event>
 5   0  0.8520125E-07  0.3297400E+04  0.7818609E-02  0.8163557E-01
        3   -1    0    0  501    0  0.00000000000E+00  0.00000000000E+00  0.15176992396E+04  0.15176992430E+04  0.10100000352E+00 0.  1.
       -3   -1    0    0    0  501  0.00000000000E+00  0.00000000000E+00 -0.17910081485E+04  0.17910081514E+04  0.10100000352E+00 0. -1.
    10030    2    1    2    0    0  0.00000000000E+00  0.00000000000E+00 -0.27330890886E+03  0.33087073944E+04  0.32974000154E+04 0.  0.
        1    1    3    3  502    0  0.11114824262E+04 -0.97932044135E+03  0.58953300772E+03  0.15943684887E+04  0.50400001928E-02 0.  1.
       -1    1    3    3    0  502 -0.11114824262E+04  0.97932044135E+03 -0.86284191659E+03  0.17143389057E+04  0.50400001928E-02 0. -1.
</event>
<event>
 5   0  0.2674551E-06  0.2498674E+04  0.7818609E-02  0.8403458E-01
        2   -1    0    0  501    0  0.00000000000E+00  0.00000000000E+00  0.20709183529E+04  0.20709183529E+04  0.25500000920E-02 0. -1.
       -2   -1    0    0    0  501  0.00000000000E+00  0.00000000000E+00 -0.75369594860E+03  0.75369594860E+03  0.25500000920E-02 0.  1.
    10030    2    1    2    0    0  0.00000000000E+00  0.00000000000E+00  0.13172224043E+04  0.28246143015E+04  0.24986738663E+04 0.  0.
        3    1    3    3  502    0 -0.10021141854E+04 -0.74549105792E+03  0.62559514742E+03  0.13969105400E+04  0.10100000352E+00 0.  1.
       -3    1    3    3    0  502  0.10021141854E+04  0.74549105792E+03  0.69162725693E+03  0.14277037616E+04  0.10100000352E+00 0. -1.
</event>
<event>
 5   0  0.2614212E-06  0.3284458E+04  0.7818609E-02  0.8166861E-01
        2   -1    0    0  501    0  0.00000000000E+00  0.00000000000E+00  0.20188298930E+04  0.20188298930E+04  0.25500000920E-02 0.  1.
       -2   -1    0    0    0  501  0.00000000000E+00  0.00000000000E+00 -0.13358805717E+04  0.13358805718E+04  0.25500000920E-02 0. -1.
    10030    2    1    2    0    0  0.00000000000E+00  0.00000000000E+00  0.68294932124E+03  0.33547104647E+04  0.32844577219E+04 0.  0.
        2    1    3    3  502    0 -0.14181088021E+03  0.12500991458E+04  0.14195401841E+04  0.18968269648E+04  0.25500000920E-02 0.  1.
       -2    1    3    3    0  502  0.14181088021E+03 -0.12500991458E+04 -0.73659086290E+03  0.14578834999E+04  0.25500000920E-02 0. -1.
</event>
<event>
 5   0  0.2658600E-06  0.3278257E+04  0.7818609E-02  0.8168450E-01
        2   -1    0    0  501    0  0.00000000000E+00  0.00000000000E+00  0.14620512738E+04  0.14620512738E+04  0.25500000920E-02 0. -1.
       -2   -1    0    0    0  501  0.00000000000E+00  0.00000000000E+00 -0.18376524491E+04  0.18376524491E+04  0.25500000920E-02 0.  1.
    10030    2    1    2    0    0  0.00000000000E+00  0.00000000000E+00 -0.37560117529E+03  0.32997037230E+04  0.32782569174E+04 0.  0.
        5    1    3    3  502    0 -0.52403177271E+03 -0.10303248780E+04  0.98193015770E+03  0.15167028640E+04  0.46999998093E+01 0. -1.
       -5    1    3    3    0  502  0.52403177271E+03  0.10303248780E+04 -0.13575313330E+04  0.17830008590E+04  0.46999998093E+01 0.  1.
</event>
<event>
 5   0  0.9295663E-07  0.3318241E+04  0.7818609E-02  0.8158270E-01
        1   -1    0    0  501    0  0.00000000000E+00  0.00000000000E+00  0.17832120967E+04  0.17832120967E+04  0.50400001928E-02 0.  1.
       -1   -1    0    0    0  501  0.00000000000E+00  0.00000000000E+00 -0.15436638746E+04  0.15436638746E+04  0.50400001928E-02 0. -1.
    10030    2    1    2    0    0  0.00000000000E+00  0.00000000000E+00  0.23954822212E+03  0.33268759713E+04  0.33182405545E+04 0.  0.
        4    1    3    3  502    0 -0.26940723211E+03 -0.14472267092E+03 -0.15151607467E+04  0.15457162125E+04  0.12699999809E+01 0. -1.
       -4    1    3    3    0  502  0.26940723211E+03  0.14472267092E+03  0.17547089688E+04  0.17811597588E+04  0.12699999809E+01 0.  1.
</event>
<event>
 5   0  0.8845526E-07  0.3184511E+04  0.7818609E-02  0.8192920E-01
        1   -1    0    0  501    0  0.00000000000E+00  0.00000000000E+00  0.21276807076E+04  0.21276807076E+04  0.50400001928E-02 0.  1.
       -1   -1    0    0    0  501  0.00000000000E+00  0.00000000000E+00 -0.11915687226E+04  0.11915687226E+04  0.50400001928E-02 0. -1.
    10030    2    1    2    0    0  0.00000000000E+00  0.00000000000E+00  0.93611198502E+03  0.33192494303E+04  0.31845111292E+04 0.  0.
        1    1    3    3  502    0  0.96265421804E+03 -0.53095847070E+03 -0.73248381856E+03  0.13210422346E+04  0.50400001928E-02 0. -1.
       -1    1    3    3    0  502 -0.96265421804E+03  0.53095847070E+03  0.16685958036E+04  0.19982071957E+04  0.50400001928E-02 0.  1.
</event>
<event>
 5   0  0.2614212E-06  0.3254333E+04  0.7818609E-02  0.8174613E-01
        2   -1    0    0  501    0  0.00000000000E+00  0.00000000000E+00  0.18961726270E+04  0.18961726270E+04  0.25500000920E-02 0.  1.
       -2   -1    0    0    0  501  0.00000000000E+00  0.00000000000E+00 -0.13963240402E+04  0.13963240402E+04  0.25500000920E-02 0. -1.
    10030    2    1    2    0    0  0.00000000000E+00  0.00000000000E+00  0.49984858678E+03  0.32924966673E+04  0.32543333717E+04 0.  0.
        2    1    3    3  502    0  0.70384034728E+03 -0.13359355856E+04  0.86329811982E+03  0.17393673467E+04  0.25500000920E-02 0.  1.
       -2    1    3    3    0  502 -0.70384034728E+03  0.13359355856E+04 -0.36344953304E+03  0.15531293205E+04  0.25500000920E-02 0. -1.
</event>
<event>
 5   0  0.9295663E-07  0.3318966E+04  0.7818609E-02  0.8158086E-01
       -1   -1    0    0    0  501  0.00000000000E+00  0.00000000000E+00  0.24527673609E+04  0.24527673609E+04  0.50400001928E-02 0.  1.
        1   -1    0    0  501    0  0.00000000000E+00  0.00000000000E+00 -0.11227660690E+04  0.11227660690E+04  0.50400001928E-02 0. -1.
    10030    2    1    2    0    0  0.00000000000E+00  0.00000000000E+00  0.13300012920E+04  0.35755334299E+04  0.33189660847E+04 0.  0.
        4    1    3    3  502    0  0.13599423878E+04  0.57248472397E+03 -0.15311201954E+03  0.14834510307E+04  0.12699999809E+01 0. -1.
       -4    1    3    3    0  502 -0.13599423878E+04 -0.57248472397E+03  0.14831133115E+04  0.20920823991E+04  0.12699999809E+01 0.  1.
</event>
<event>
 5   0  0.2574803E-06  0.3244393E+04  0.7818609E-02  0.8177191E-01
       -2   -1    0    0    0  501  0.00000000000E+00  0.00000000000E+00  0.12009330114E+04  0.12009330114E+04  0.25500000920E-02 0.  1.
        2   -1    0    0  501    0  0.00000000000E+00  0.00000000000E+00 -0.21912304418E+04  0.21912304418E+04  0.25500000920E-02 0. -1.
    10030    2    1    2    0    0  0.00000000000E+00  0.00000000000E+00 -0.99029743036E+03  0.33921634532E+04  0.32443926848E+04 0.  0.
        4    1    3    3  502    0 -0.46462676555E+03 -0.32042744210E+03  0.10949648054E+04  0.12318690331E+04  0.12699999809E+01 0.  1.
       -4    1    3    3    0  502  0.46462676555E+03  0.32042744210E+03 -0.20852622357E+04  0.21602944201E+04  0.12699999809E+01 0. -1.
</event>
<event>
 5   0  0.9530268E-07  0.3320374E+04  0.7818609E-02  0.8157731E-01
        1   -1    0    0  501    0  0.00000000000E+00  0.00000000000E+00  0.27648243675E+04  0.27648243675E+04  0.50400001928E-02 0.  1.
       -1   -1    0    0    0  501  0.00000000000E+00  0.00000000000E+00 -0.99688812327E+03  0.99688812328E+03  0.50400001928E-02 0. -1.
    10030    2    1    2    0    0  0.00000000000E+00  0.00000000000E+00  0.17679362443E+04  0.37617124908E+04  0.33203738193E+04 0.  0.
        5    1    3    3  502    0  0.60616688878E+03  0.11717975100E+04  0.20257176016E+04  0.24174576714E+04  0.46999998093E+01 0.  1.
       -5    1    3    3    0  502 -0.60616688878E+03 -0.11717975100E+04 -0.25778135735E+03  0.13442548194E+04  0.46999998093E+01 0. -1.
</event>
<event>
 5   0  0.2674551E-06  0.3373718E+04  0.7818609E-02  0.8144387E-01
       -2   -1    0    0    0  501  0.00000000000E+00  0.00000000000E+00  0.20866452796E+04  0.20866452796E+04  0.25500000920E-02 0. -1.
        2   -1    0    0  501    0  0.00000000000E+00  0.00000000000E+00 -0.13636690597E+04  0.13636690597E+04  0.25500000920E-02 0.  1.
    10030    2    1    2    0    0  0.00000000000E+00  0.00000000000E+00  0.72297621990E+03  0.34503143393E+04  0.33737181900E+04 0.  0.
        3    1    3    3  502    0 -0.97774621337E+01 -0.15057576568E+04  0.11390738608E+04  0.18880918914E+04  0.10100000352E+00 0. -1.
       -3    1    3    3    0  502  0.97774621337E+01  0.15057576568E+04 -0.41609764089E+03  0.15622224479E+04  0.10100000352E+00 0.  1.
</event>
<event>
 5   0  0.2705859E-06  0.3171935E+04  0.7818609E-02  0.8196269E-01
       -2   -1    0    0    0  501  0.00000000000E+00  0.00000000000E+00  0.99592723167E+03  0.99592723167E+03  0.25500000920E-02 0. -1.
        2   -1    0    0  501    0  0.00000000000E+00  0.00000000000E+00 -0.25255787493E+04  0.25255787493E+04  0.25500000920E-02 0.  1.
    10030    2    1    2    0    0  0.00000000000E+00  0.00000000000E+00 -0.15296515176E+04  0.35215059809E+04  0.31719348367E+04 0.  0.
        1    1    3    3  502    0 -0.81328817064E+02 -0.75685363086E+02 -0.25212533907E+04  0.25236999249E+04  0.50400001928E-02 0.  1.
       -1    1    3    3    0  502  0.81328817064E+02  0.75685363086E+02  0.99160187313E+03  0.99780605605E+03  0.50400001928E-02 0. -1.
</event>
<event>
 5   0  0.9268670E-07  0.3067837E+04  0.7818609E-02  0.8224621E-01
        1   -1    0    0  501    0  0.00000000000E+00  0.00000000000E+00  0.19995722671E+04  0.19995722671E+04  0.50400001928E-02 0. -1.
       -1   -1    0    0    0  501  0.00000000000E+00  0.00000000000E+00 -0.11767045609E+04  0.11767045609E+04  0.50400001928E-02 0.  1.
    10030    2    1    2    0    0  0.00000000000E+00  0.00000000000E+00  0.82286770615E+03  0.31762768280E+04  0.30678368969E+04 0.  0.
        3    1    3    3  502    0  0.37433547791E+03  0.72704057315E+03 -0.93220241783E+03  0.12400469358E+04  0.10100000352E+00 0.  1.
       -3    1    3    3    0  502 -0.37433547791E+03 -0.72704057315E+03  0.17550701240E+04  0.19362298922E+04  0.10100000352E+00 0. -1.
</event>
<event>
 5   0  0.9295663E-07  0.3308463E+04  0.7818609E-02  0.8160745E-01
       -1   -1    0    0    0  501  0.00000000000E+00  0.00000000000E+00  0.19395730188E+04  0.19395730188E+04  0.50400001928E-02 0.  1.
        1   -1    0    0  501    0  0.00000000000E+00  0.00000000000E+00 -0.14108684657E+04  0.14108684657E+04  0.50400001928E-02 0. -1.
    10030    2    1    2    0    0  0.00000000000E+00  0.00000000000E+00  0.52870455310E+03  0.33504414844E+04  0.33084633346E+04 0.  0.
        4    1    3    3  502    0  0.13894627049E+04 -0.89036468397E+03  0.38036990907E+03  0.16935284939E+04  0.12699999809E+01 0.  1.
       -4    1    3    3    0  502 -0.13894627049E+04  0.89036468397E+03  0.14833464403E+03  0.16569129906E+04  0.12699999809E+01 0. -1.
</event>
<event>
 5   0  0.9295663E-07  0.3359187E+04  0.7818609E-02  0.8147996E-01
        1   -1    0    0  501    0  0.00000000000E+00  0.00000000000E+00  0.20229010635E+04  0.20229010635E+04  0.50400001928E-02 0. -1.
       -1   -1    0    0    0  501  0.00000000000E+00  0.00000000000E+00 -0.13945486415E+04  0.13945486415E+04  0.50400001928E-02 0.  1.
    10030    2    1    2    0    0  0.00000000000E+00  0.00000000000E+00  0.62835242199E+03  0.34174497050E+04  0.33591867647E+04 0.  0.
        4    1    3    3  502    0 -0.11704455011E+04 -0.27469523767E+03 -0.87903999542E+03  0.14893330961E+04  0.12699999809E+01 0.  1.
       -4    1    3    3    0  502  0.11704455011E+04  0.27469523767E+03  0.15073924174E+04  0.19281166089E+04  0.12699999809E+01 0. -1.
</event>
<event>
 5   0  0.9295663E-07  0.3285325E+04  0.7818609E-02  0.8166640E-01
        1   -1    0    0  501    0  0.00000000000E+00  0.00000000000E+00  0.15929072845E+04  0.15929072845E+04  0.50400001928E-02 0. -1.
       -1   -1    0    0    0  501  0.00000000000E+00  0.00000000000E+00 -0.16939714418E+04  0.16939714418E+04  0.50400001928E-02 0.  1.
    10030    2    1    2    0    0  0.00000000000E+00  0.00000000000E+00 -0.10106415726E+03  0.32868787264E+04  0.32853246107E+04 0.  0.
        4    1    3    3  502    0 -0.16016869412E+03 -0.16007167755E+04  0.28187444103E+03  0.16332186074E+04  0.12699999809E+01 0. -1.
       -4    1    3    3    0  502  0.16016869412E+03  0.16007167755E+04 -0.38293859829E+03  0.16536601190E+04  0.12699999809E+01 0.  1.
</event>
<event>
 5   0  0.9268670E-07  0.3288202E+04  0.7818609E-02  0.8165904E-01
       -1   -1    0    0    0  501  0.00000000000E+00  0.00000000000E+00  0.31446863063E+04  0.31446863063E+04  0.50400001928E-02 0. -1.
        1   -1    0    0  501    0  0.00000000000E+00  0.00000000000E+00 -0.85956688415E+03  0.85956688416E+03  0.50400001928E-02 0.  1.
    10030    2    1    2    0    0  0.00000000000E+00  0.00000000000E+00  0.22851194222E+04  0.40042531905E+04  0.32882020680E+04 0.  0.
        3    1    3    3  502    0  0.79998034298E+02 -0.15401118656E+04  0.18364969546E+04  0.23981378856E+04  0.10100000352E+00 0. -1.
       -3    1    3    3    0  502 -0.79998034298E+02  0.15401118656E+04  0.44862246758E+03  0.16061153049E+04  0.10100000352E+00 0.  1.
</event>
<event>
 5   0  0.2658600E-06  0.3347013E+04  0.7818609E-02  0.8151035E-01
       -2   -1    0    0    0  501  0.00000000000E+00  0.00000000000E+00  0.13166931525E+04  0.13166931525E+04  0.25500000920E-02 0. -1.
        2   -1    0    0  501    0  0.00000000000E+00  0.00000000000E+00 -0.21270137841E+04  0.21270137841E+04  0.25500000920E-02 0.  1.
    10030    2    1    2    0    0  0.00000000000E+00  0.00000000000E+00 -0.81032063155E+03  0.34437069366E+04  0.33470132863E+04 0.  0.
        5    1    3    3  502    0  0.77600523292E+03 -0.95873466277E+03  0.75855246257E+03  0.14480263132E+04  0.46999998093E+01 0. -1.
       -5    1    3    3    0  502 -0.77600523292E+03  0.95873466277E+03 -0.15688730941E+04  0.19956806234E+04  0.46999998093E+01 0.  1.
</event>
<event>
 5   0  0.2614212E-06  0.3293291E+04  0.7818609E-02  0.8164605E-01
       -2   -1    0    0    0  501  0.00000000000E+00  0.00000000000E+00  0.14514481979E+04  0.14514481979E+04  0.25500000920E-02 0.  1.
        2   -1    0    0  501    0  0.00000000000E+00  0.00000000000E+00 -0.18680932546E+04  0.18680932546E+04  0.25500000920E-02 0. -1.
    10030    2    1    2    0    0  0.00000000000E+00  0.00000000000E+00 -0.41664505673E+03  0.33195414526E+04  0.32932905052E+04 0.  0.
        2    1    3    3  502    0  0.12697329061E+04  0.36594171053E+03 -0.11986537406E+04  0.17840700038E+04  0.25500000920E-02 0. -1.
       -2    1    3    3    0  502 -0.12697329061E+04 -0.36594171053E+03  0.78200868391E+03  0.15354714488E+04  0.25500000920E-02 0.  1.
</event>
<event>
 5   0  0.8705956E-07  0.3239335E+04  0.7818609E-02  0.8178505E-01
        1   -1    0    0  501    0  0.00000000000E+00  0.00000000000E+00  0.21764622388E+04  0.21764622388E+04  0.50400001928E-02 0. -1.
       -1   -1    0    0    0  501  0.00000000000E+00  0.00000000000E+00 -0.12053150249E+04  0.12053150249E+04  0.50400001928E-02 0.  1.
    10030    2    1    2    0    0  0.00000000000E+00  0.00000000000E+00  0.97114721392E+03  0.33817772638E+04  0.32393348932E+04 0.  0.
        2    1    3    3  502    0  0.14119124659E+04 -0.49411380916E+02  0.13124793124E+04  0.19283516903E+04  0.25500000920E-02 0. -1.
       -2    1    3    3    0  502 -0.14119124659E+04  0.49411380916E+02 -0.34133209849E+03  0.14534255734E+04  0.25500000920E-02 0.  1.
</event>
<event>
 5   0  0.8845526E-07  0.2569714E+04  0.7818609E-02  0.8378562E-01
       -1   -1    0    0    0  501  0.00000000000E+00  0.00000000000E+00  0.75958472202E+03  0.75958472203E+03  0.50400001928E-02 0. -1.
        1   -1    0    0  501    0  0.00000000000E+00  0.00000000000E+00 -0.21733683771E+04  0.21733683771E+04  0.50400001928E-02 0.  1.
    10030    2    1    2    0    0  0.00000000000E+00  0.00000000000E+00 -0.14137836551E+04  0.29329530992E+04  0.25697139254E+04 0.  0.
        1    1    3    3  502    0  0.98374720153E+03  0.82629687234E+03 -0.72769883291E+03  0.14765062374E+04  0.50400001928E-02 0. -1.
       -1    1    3    3    0  502 -0.98374720153E+03 -0.82629687234E+03 -0.68608482221E+03  0.14564468617E+04  0.50400001928E-02 0.  1.
</event>
<event>
 5   0  0.9268670E-07  0.3289408E+04  0.7818609E-02  0.8165596E-01
        1   -1    0    0  501    0  0.00000000000E+00  0.00000000000E+00  0.17339582837E+04  0.17339582837E+04  0.50400001928E-02 0.  1.
       -1   -1    0    0    0  501  0.00000000000E+00  0.00000000000E+00 -0.15600439926E+04  0.15600439926E+04  0.50400001928E-02 0. -1.
    10030    2    1    2    0    0  0.00000000000E+00  0.00000000000E+00  0.17391429113E+03  0.32940022763E+04  0.32894079734E+04 0.  0.
        3    1    3    3  502    0 -0.18295666501E+03  0.86064697497E+03  0.14784535580E+04  0.17204683346E+04  0.10100000352E+00 0.  1.
       -3    1    3    3    0  502  0.18295666501E+03 -0.86064697497E+03 -0.13045392669E+04  0.15735339417E+04  0.10100000352E+00 0. -1.
</event>
<event>
 5   0  0.8845526E-07  0.3207880E+04  0.7818609E-02  0.8186739E-01
        1   -1    0    0  501    0  0.00000000000E+00  0.00000000000E+00  0.20106610742E+04  0.20106610742E+04  0.50400001928E-02 0. -1.
       -1   -1    0    0    0  501  0.00000000000E+00  0.00000000000E+00 -0.12794917617E+04  0.12794917617E+04  0.50400001928E-02 0.  1.
    10030    2    1    2    0    0  0.00000000000E+00  0.00000000000E+00  0.73116931252E+03  0.32901528360E+04  0.32078804717E+04 0.  0.
        1    1    3    3  502    0  0.12834743686E+03 -0.92789571829E+03  0.17009599564E+04  0.19418363221E+04  0.50400001928E-02 0. -1.
       -1    1    3    3    0  502 -0.12834743686E+03  0.92789571829E+03 -0.96979064387E+03  0.13483165139E+04  0.50400001928E-02 0.  1.
</event>
<event>
 5   0  0.9295663E-07  0.3230757E+04  0.7818609E-02  0.8180741E-01
        1   -1    0    0  501    0  0.00000000000E+00  0.00000000000E+00  0.14585596920E+04  0.14585596920E+04  0.50400001928E-02 0.  1.
       -1   -1    0    0    0  501  0.00000000000E+00  0.00000000000E+00 -0.17890574149E+04  0.17890574149E+04  0.50400001928E-02 0. -1.
    10030    2    1    2    0    0  0.00000000000E+00  0.00000000000E+00 -0.33049772291E+03  0.32476171069E+04  0.32307565876E+04 0.  0.
        4    1    3    3  502    0  0.88336166806E+03  0.98274982621E+03  0.76875048825E+03  0.15287589684E+04  0.12699999809E+01 0.  1.
       -4    1    3    3    0  502 -0.88336166806E+03 -0.98274982621E+03 -0.10992482112E+04  0.17188581385E+04  0.12699999809E+01 0. -1.
</event>
<event>
 5   0  0.9295663E-07  0.3305816E+04  0.7818609E-02  0.8161417E-01
       -1   -1    0    0    0  501  0.00000000000E+00  0.00000000000E+00  0.10858760138E+04  0.10858760138E+04  0.50400001928E-02 0.  1.
        1   -1    0    0  501    0  0.00000000000E+00  0.00000000000E+00 -0.25160374432E+04  0.25160374432E+04  0.50400001928E-02 0. -1.
    10030    2    1    2    0    0  0.00000000000E+00  0.00000000000E+00 -0.14301614294E+04  0.36019134570E+04  0.33058159111E+04 0.  0.
        4    1    3    3  502    0  0.19504694994E+03 -0.14132514979E+04  0.19441873897E+03  0.14398344933E+04  0.12699999809E+01 0.  1.
       -4    1    3    3    0  502 -0.19504694994E+03  0.14132514979E+04 -0.16245801684E+04  0.21620789638E+04  0.12699999809E+01 0. -1.
</event>
<event>
 5   0  0.9268670E-07  0.3287557E+04  0.7818609E-02  0.8166069E-01
        1   -1    0    0  501    0  0.00000000000E+00  0.00000000000E+00  0.14481594931E+04  0.14481594931E+04  0.50400001928E-02 0. -1.
       -1   -1    0    0    0  501  0.00000000000E+00  0.00000000000E+00 -0.18658222878E+04  0.18658222878E+04  0.50400001928E-02 0.  1.
    10030    2    1    2    0    0  0.00000000000E+00  0.00000000000E+00 -0.41766279467E+03  0.33139817809E+04  0.32875573051E+04 0.  0.
        3    1    3    3  502    0  0.12621025373E+04 -0.58346068090E+03  0.67495906844E+03  0.15456063325E+04  0.10100000352E+00 0. -1.
       -3    1    3    3    0  502 -0.12621025373E+04  0.58346068090E+03 -0.10926218631E+04  0.17683754484E+04  0.10100000352E+00 0.  1.
</event>
<event>
 5   0  0.2614212E-06  0.3321267E+04  0.7818609E-02  0.8157505E-01
       -2   -1    0    0    0  501  0.00000000000E+00  0.00000000000E+00  0.12571809644E+04  0.12571809644E+04  0.25500000920E-02 0. -1.
        2   -1    0    0  501    0  0.00000000000E+00  0.00000000000E+00 -0.21935613261E+04  0.21935613261E+04  0.25500000920E-02 0.  1.
    10030    2    1    2    0    0  0.00000000000E+00  0.00000000000E+00 -0.93638036170E+03  0.34507422905E+04  0.33212669531E+04 0.  0.
        2    1    3    3  502    0 -0.60049076980E+03 -0.14398480488E+04  0.12316588809E+03  0.15649030016E+04  0.25500000920E-02 0. -1.
       -2    1    3    3    0  502  0.60049076980E+03  0.14398480488E+04 -0.10595462498E+04  0.18858392890E+04  0.25500000920E-02 0.  1.
</event>
<event>
 5   0  0.8520125E-07  0.3279836E+04  0.7818609E-02  0.8168045E-01
        3   -1    0    0  501    0  0.00000000000E+00  0.00000000000E+00  0.17579052846E+04  0.17579052875E+04  0.10100000352E+00 0. -1.
       -3   -1    0    0    0  501  0.00000000000E+00  0.00000000000E+00 -0.15298498836E+04  0.15298498869E+04  0.10100000352E+00 0.  1.
    10030    2    1    2    0    0  0.00000000000E+00  0.00000000000E+00  0.22805540099E+03  0.32877551744E+04  0.32798360967E+04 0.  0.
        4    1    3    3  502    0 -0.11354675104E+04  0.11298043663E+04 -0.23836799484E+03  0.16194336316E+04  0.12699999809E+01 0.  1.
       -4    1    3    3    0  502  0.11354675104E+04 -0.11298043663E+04  0.46642339583E+03  0.16683215428E+04  0.12699999809E+01 0. -1.
</event>
<event>
 5   0  0.2705859E-06  0.3037919E+04  0.7818609E-02  0.8232985E-01
       -2   -1    0    0    0  501  0.00000000000E+00  0.00000000000E+00  0.15179304995E+04  0.15179304995E+04  0.25500000920E-02 0. -1.
        2   -1    0    0  501    0  0.00000000000E+00  0.00000000000E+00 -0.15199895726E+04  0.15199895726E+04  0.25500000920E-02 0.  1.
    10030    2    1    2    0    0  0.00000000000E+00  0.00000000000E+00 -0.20590730474E+01  0.30379200721E+04  0.30379193743E+04 0.  0.
        1    1    3    3  502    0  0.14380273363E+04  0.28744540329E+03 -0.39687183232E+03  0.15192283341E+04  0.50400001928E-02 0. -1.
       -1    1    3    3    0  502 -0.14380273363E+04 -0.28744540329E+03  0.39481275927E+03  0.15186917379E+04  0.50400001928E-02 0.  1.
</event>
<event>
 5   0  0.9268670E-07  0.3227477E+04  0.7818609E-02  0.8181598E-01
        1   -1    0    0  501    0  0.00000000000E+00  0.00000000000E+00  0.10560101741E+04  0.10560101741E+04  0.50400001928E-02 0. -1.
       -1   -1    0    0    0  501  0.00000000000E+00  0.00000000000E+00 -0.24660296283E+04  0.24660296283E+04  0.50400001928E-02 0.  1.
    10030    2    1    2    0    0  0.00000000000E+00  0.00000000000E+00 -0.14100194542E+04  0.35220398025E+04  0.32274772670E+04 0.  0.
        3    1    3    3  502    0  0.73534536883E+03  0.14360057323E+04 -0.74446310749E+03  0.17768147352E+04  0.10100000352E+00 0. -1.
       -3    1    3    3    0  502 -0.73534536883E+03 -0.14360057323E+04 -0.66555634670E+03  0.17452250673E+04  0.10100000352E+00 0.  1.
</event>
<event>
 5   0  0.2705859E-06  0.2867006E+04  0.7818609E-02  0.8282762E-01
        2   -1    0    0  501    0  0.00000000000E+00  0.00000000000E+00  0.13012310482E+04  0.13012310482E+04  0.25500000920E-02 0.  1.
       -2   -1    0    0    0  501  0.00000000000E+00  0.00000000000E+00 -0.15792205884E+04  0.15792205884E+04  0.25500000920E-02 0. -1.
    10030    2    1    2    0    0  0.00000000000E+00  0.00000000000E+00 -0.27798954024E+03  0.28804516366E+04  0.28670060073E+04 0.  0.
        1    1    3    3  502    0 -0.10240989343E+04  0.93180695393E+03  0.23407948113E+03  0.14042207911E+04  0.50400001928E-02 0.  1.
       -1    1    3    3    0  502  0.10240989343E+04 -0.93180695393E+03 -0.51206902137E+03  0.14762308455E+04  0.50400001928E-02 0. -1.
</event>
<event>
 5   0  0.8845526E-07  0.3352141E+04  0.7818609E-02  0.8149753E-01
       -1   -1    0    0    0  501  0.00000000000E+00  0.00000000000E+00  0.11784853527E+04  0.11784853528E+04  0.50400001928E-02 0. -1.
        1   -1    0    0  501    0  0.00000000000E+00  0.00000000000E+00 -0.23837478453E+04  0.23837478454E+04  0.50400001928E-02 0.  1.
    10030    2    1    2    0    0  0.00000000000E+00  0.00000000000E+00 -0.12052624926E+04  0.35622331981E+04  0.33521407610E+04 0.  0.
        1    1    3    3  502    0 -0.29302207113E+03 -0.11037846551E+04  0.70104486961E+03  0.13400247789E+04  0.50400001928E-02 0. -1.
       -1    1    3    3    0  502  0.29302207113E+03  0.11037846551E+04 -0.19063073622E+04  0.22222084192E+04  0.50400001928E-02 0.  1.
</event>
<event>
 5   0  0.2658600E-06  0.3305902E+04  0.7818609E-02  0.8161395E-01
       -2   -1    0    0    0  501  0.00000000000E+00  0.00000000000E+00  0.10910339404E+04  0.10910339404E+04  0.25500000920E-02 0.  1.
        2   -1    0    0  501    0  0.00000000000E+00  0.00000000000E+00 -0.25042725905E+04  0.25042725905E+04  0.25500000920E-02 0. -1.
    10030    2    1    2    0    0  0.00000000000E+00  0.00000000000E+00 -0.14132386501E+04  0.35953065309E+04  0.33059016273E+04 0.  0.
        5    1    3    3  502    0 -0.24863202406E+03 -0.10199022056E+04 -0.20951875694E+04  0.23434699557E+04  0.46999998093E+01 0. -1.
       -5    1    3    3    0  502  0.24863202406E+03  0.10199022056E+04  0.68194891934E+03  0.12518365752E+04  0.46999998093E+01 0.  1.
</event>
<event>
 5   0  0.8705956E-07  0.3285248E+04  0.7818609E-02  0.8166659E-01
        1   -1    0    0  501    0  0.00000000000E+00  0.00000000000E+00  0.15493969979E+04  0.15493969979E+04  0.50400001928E-02 0.  1.
       -1   -1    0    0    0  501  0.00000000000E+00  0.00000000000E+00 -0.17414609847E+04  0.17414609847E+04  0.50400001928E-02 0. -1.
    10030    2    1    2    0    0  0.00000000000E+00  0.00000000000E+00 -0.19206398680E+03  0.32908579826E+04  0.32852484970E+04 0.  0.
        2    1    3    3  502    0  0.14949872400E+04 -0.51781466389E+03  0.34641840934E+03  0.16196063066E+04  0.25500000920E-02 0.  1.
       -2    1    3    3    0  502 -0.14949872400E+04  0.51781466389E+03 -0.53848239615E+03  0.16712516761E+04  0.25500000920E-02 0. -1.
</event>
<event>
 5   0  0.2674551E-06  0.3316022E+04  0.7818609E-02  0.8158830E-01
        2   -1    0    0  501    0  0.00000000000E+00  0.00000000000E+00  0.19800434440E+04  0.19800434440E+04  0.25500000920E-02 0. -1.
       -2   -1    0    0    0  501  0.00000000000E+00  0.00000000000E+00 -0.13883538434E+04  0.13883538434E+04  0.25500000920E-02 0.  1.
    10030    2    1    2    0    0  0.00000000000E+00  0.00000000000E+00  0.59168960059E+03  0.33683972873E+04  0.33160222710E+04 0.  0.
        3    1    3    3  502    0 -0.37581641470E+03 -0.81483212651E+02 -0.13424284881E+04  0.13964210495E+04  0.10100000352E+00 0.  1.
       -3    1    3    3    0  502  0.37581641470E+03  0.81483212651E+02  0.19341180887E+04  0.19719762379E+04  0.10100000352E+00 0. -1.
</event>
<event>
 5   0  0.2614212E-06  0.3301130E+04  0.7818609E-02  0.8162608E-01
        2   -1    0    0  501    0  0.00000000000E+00  0.00000000000E+00  0.18345534644E+04  0.18345534644E+04  0.25500000920E-02 0.  1.
       -2   -1    0    0    0  501  0.00000000000E+00  0.00000000000E+00 -0.14850291800E+04  0.14850291800E+04  0.25500000920E-02 0. -1.
    10030    2    1    2    0    0  0.00000000000E+00  0.00000000000E+00  0.34952428442E+03  0.33195826444E+04  0.33011303681E+04 0.  0.
        2    1    3    3  502    0  0.10348722918E+04 -0.59292105649E+03 -0.97260175688E+03  0.15389835012E+04  0.25500000920E-02 0. -1.
       -2    1    3    3    0  502 -0.10348722918E+04  0.59292105649E+03  0.13221260413E+04  0.17805991432E+04  0.25500000920E-02 0.  1.
</event>
<event>
 5   0  0.8705956E-07  0.3326185E+04  0.7818609E-02  0.8156264E-01
        1   -1    0    0  501    0  0.00000000000E+00  0.00000000000E+00  0.98609895207E+03  0.98609895208E+03  0.50400001928E-02 0.  1.
       -1   -1    0    0    0  501  0.00000000000E+00  0.00000000000E+00 -0.28048669849E+04  0.28048669849E+04  0.50400001928E-02 0. -1.
    10030    2    1    2    0    0  0.00000000000E+00  0.00000000000E+00 -0.18187680328E+04  0.37909659370E+04  0.33261848382E+04 0.  0.
        2    1    3    3  502    0 -0.72985360081E+03  0.11178155599E+04 -0.20397786575E+04  0.24378053401E+04  0.25500000920E-02 0. -1.
       -2    1    3    3    0  502  0.72985360081E+03 -0.11178155599E+04  0.22101062472E+03  0.13531605968E+04  0.25500000920E-02 0.  1.
</event>
<event>
 5   0  0.2658600E-06  0.3263310E+04  0.7818609E-02  0.8172294E-01
       -2   -1    0    0    0  501  0.00000000000E+00  0.00000000000E+00  0.10329393536E+04  0.10329393536E+04  0.25500000920E-02 0. -1.
        2   -1    0    0  501    0  0.00000000000E+00  0.00000000000E+00 -0.25774008714E+04  0.25774008714E+04  0.25500000920E-02 0.  1.
    10030    2    1    2    0    0  0.00000000000E+00  0.00000000000E+00 -0.15444615178E+04  0.36103402250E+04  0.32633104603E+04 0.  0.
        5    1    3    3  502    0  0.10819467612E+04  0.11904629601E+04 -0.10741343667E+04  0.19343209612E+04  0.46999998093E+01 0. -1.
       -5    1    3    3    0  502 -0.10819467612E+04 -0.11904629601E+04 -0.47032715113E+03  0.16760192638E+04  0.46999998093E+01 0.  1.
</event>
<event>
 5   0  0.2658600E-06  0.2810909E+04  0.7818609E-02  0.8299890E-01
        2   -1    0    0  501    0  0.00000000000E+00  0.00000000000E+00  0.15753039485E+04  0.15753039485E+04  0.25500000920E-02 0. -1.
       -2   -1    0    0    0  501  0.00000000000E+00  0.00000000000E+00 -0.12539183487E+04  0.12539183487E+04  0.25500000920E-02 0.  1.
    10030    2    1    2    0    0  0.00000000000E+00  0.00000000000E+00  0.32138559980E+03  0.28292222972E+04  0.28109091239E+04 0.  0.
        5    1    3    3  502    0 -0.92031145787E+03 -0.26762728209E+03 -0.87395515923E+03  0.12970802797E+04  0.46999998093E+01 0.  1.
       -5    1    3    3    0  502  0.92031145787E+03  0.26762728209E+03  0.11953407590E+04  0.15321420175E+04  0.46999998093E+01 0. -1.
</event>
<event>
 5   0  0.2674551E-06  0.3313662E+04  0.7818609E-02  0.8159428E-01
       -2   -1    0    0    0  501  0.00000000000E+00  0.00000000000E+00  0.89448755435E+03  0.89448755436E+03  0.25500000920E-02 0.  1.
        2   -1    0    0  501    0  0.00000000000E+00  0.00000000000E+00 -0.30688950493E+04  0.30688950493E+04  0.25500000920E-02 0. -1.
    10030    2    1    2    0    0  0.00000000000E+00  0.00000000000E+00 -0.21744074949E+04  0.39633826036E+04  0.33136616769E+04 0.  0.
        3    1    3    3  502    0  0.13263450180E+04 -0.82111650351E+03 -0.41947227110E+03  0.16153576742E+04  0.10100000352E+00 0.  1.
       -3    1    3    3    0  502 -0.13263450180E+04  0.82111650351E+03 -0.17549352238E+04  0.23480249294E+04  0.10100000352E+00 0. -1.
</event>
<event>
 5   0  0.2705859E-06  0.3297691E+04  0.7818609E-02  0.8163483E-01
       -2   -1    0    0    0  501  0.00000000000E+00  0.00000000000E+00  0.10398298056E+04  0.10398298056E+04  0.25500000920E-02 0. -1.
        2   -1    0    0  501    0  0.00000000000E+00  0.00000000000E+00 -0.26145547839E+04  0.26145547839E+04  0.25500000920E-02 0.  1.
    10030    2    1    2    0    0  0.00000000000E+00  0.00000000000E+00 -0.15747249783E+04  0.36543845895E+04  0.32976913092E+04 0.  0.
        1    1    3    3  502    0 -0.16331623966E+04  0.91432386318E+02 -0.55726766486E+03  0.17280412453E+04  0.50400001928E-02 0. -1.
       -1    1    3    3    0  502  0.16331623966E+04 -0.91432386318E+02 -0.10174573135E+04  0.19263433442E+04  0.50400001928E-02 0.  1.
</event>
<event>
 5   0  0.9530268E-07  0.3276962E+04  0.7818609E-02  0.8168782E-01
       -1   -1    0    0    0  501  0.00000000000E+00  0.00000000000E+00  0.13419171139E+04  0.13419171139E+04  0.50400001928E-02 0. -1.
        1   -1    0    0  501    0  0.00000000000E+00  0.00000000000E+00 -0.20005861038E+04  0.20005861038E+04  0.50400001928E-02 0.  1.
    10030    2    1    2    0    0  0.00000000000E+00  0.00000000000E+00 -0.65866898991E+03  0.33425032177E+04  0.32769624535E+04 0.  0.
        5    1    3    3  502    0  0.11684002639E+04 -0.82452786209E+03 -0.11450755321E+04  0.18320003920E+04  0.46999998093E+01 0.  1.
       -5    1    3    3    0  502 -0.11684002639E+04  0.82452786209E+03  0.48640654220E+03  0.15105028257E+04  0.46999998093E+01 0. -1.
</event>
<event>
 5   0  0.8845526E-07  0.3294835E+04  0.7818609E-02  0.8164211E-01
        1   -1    0    0  501    0  0.00000000000E+00  0.00000000000E+00  0.26250648629E+04  0.26250648629E+04  0.50400001928E-02 0.  1.
       -1   -1    0    0    0  501  0.00000000000E+00  0.00000000000E+00 -0.10338731845E+04  0.10338731845E+04  0.50400001928E-02 0. -1.
    10030    2    1    2    0    0  0.00000000000E+00  0.00000000000E+00  0.15911916784E+04  0.36589380474E+04  0.32948348483E+04 0.  0.
        1    1    3    3  502    0 -0.99649303380E+03  0.91398781435E+03 -0.24946884252E+03  0.13749933798E+04  0.50400001928E-02 0. -1.
       -1    1    3    3    0  502  0.99649303380E+03 -0.91398781435E+03  0.18406605210E+04  0.22839446676E+04  0.50400001928E-02 0.  1.
</event>
<event>
 5   0  0.2614212E-06  0.3262434E+04  0.7818609E-02  0.8172520E-01
       -2   -1    0    0    0  501  0.00000000000E+00  0.00000000000E+00  0.17361756575E+04  0.17361756575E+04  0.25500000920E-02 0.  1.
        2   -1    0    0  501    0  0.00000000000E+00  0.00000000000E+00 -0.15326034080E+04  0.15326034080E+04  0.25500000920E-02 0. -1.
    10030    2    1    2    0    0  0.00000000000E+00  0.00000000000E+00  0.20357224942E+03  0.32687790655E+04  0.32624338949E+04 0.  0.
        2    1    3    3  502    0  0.13986227100E+04  0.27376816076E+03  0.89691274436E+03  0.16839082403E+04  0.25500000920E-02 0.  1.
       -2    1    3    3    0  502 -0.13986227100E+04 -0.27376816076E+03 -0.69334049494E+03  0.15848708252E+04  0.25500000920E-02 0. -1.
</event>
<event>
 5   0  0.8705956E-07  0.2525843E+04  0.7818609E-02  0.8393836E-01
        1   -1    0    0  501    0  0.00000000000E+00  0.00000000000E+00  0.14717095473E+04  0.14717095473E+04  0.50400001928E-02 0. -1.
       -1   -1    0    0    0  501  0.00000000000E+00  0.00000000000E+00 -0.10837536451E+04  0.10837536451E+04  0.50400001928E-02 0.  1.
    10030    2    1    2    0    0  0.00000000000E+00  0.00000000000E+00  0.38795590225E+03  0.25554631925E+04  0.25258428981E+04 0.  0.
        2    1    3    3  502    0 -0.48690588200E+03 -0.33880751439E+03 -0.93404205680E+03  0.11064820078E+04  0.25500000920E-02 0.  1.
       -2    1    3    3    0  502  0.48690588200E+03  0.33880751439E+03  0.13219979590E+04  0.14489811846E+04  0.25500000920E-02 0. -1.
</event>
<event>
 5   0  0.2705859E-06  0.3336281E+04  0.7818609E-02  0.8153724E-01
        2   -1    0    0  501    0  0.00000000000E+00  0.00000000000E+00  0.21201443223E+04  0.21201443223E+04  0.25500000920E-02 0.  1.
       -2   -1    0    0    0  501  0.00000000000E+00  0.00000000000E+00 -0.13125019498E+04  0.13125019498E+04  0.25500000920E-02 0. -1.
    10030    2    1    2    0    0  0.00000000000E+00  0.00000000000E+00  0.80764237251E+03  0.34326462722E+04  0.33362814971E+04 0.  0.
        1    1    3    3  502    0 -0.37904884468E+03  0.97148879932E+03  0.17434363205E+04  0.20315114368E+04  0.50400001928E-02 0.  1.
       -1    1    3    3    0  502  0.37904884468E+03 -0.97148879932E+03 -0.93579394803E+03  0.14011348354E+04  0.50400001928E-02 0. -1.
</event>
<event>
 5   0  0.2658600E-06  0.3268191E+04  0.7818609E-02  0.8171037E-01
       -2   -1    0    0    0  501  0.00000000000E+00  0.00000000000E+00  0.20791283690E+04  0.20791283690E+04  0.25500000920E-02 0. -1.
        2   -1    0    0  501    0  0.00000000000E+00  0.00000000000E+00 -0.12843205560E+04  0.12843205560E+04  0.25500000920E-02 0.  1.
    10030    2    1    2    0    0  0.00000000000E+00  0.00000000000E+00  0.79480781298E+03  0.33634489250E+04  0.32681905102E+04 0.  0.
        5    1    3    3  502    0  0.14307161465E+04  0.70428769729E+03  0.30248743021E+02  0.15949629867E+04  0.46999998093E+01 0. -1.
       -5    1    3    3    0  502 -0.14307161465E+04 -0.70428769729E+03  0.76455906995E+03  0.17684859383E+04  0.46999998093E+01 0.  1.
</event>
<event>
 5   0  0.9530268E-07  0.3325649E+04  0.7818609E-02  0.8156400E-01
       -1   -1    0    0    0  501  0.00000000000E+00  0.00000000000E+00  0.18282473789E+04  0.18282473789E+04  0.50400001928E-02 0.  1.
        1   -1    0    0  501    0  0.00000000000E+00  0.00000000000E+00 -0.15123691266E+04  0.15123691266E+04  0.50400001928E-02 0. -1.
    10030    2    1    2    0    0  0.00000000000E+00  0.00000000000E+00  0.31587825232E+03  0.33406165056E+04  0.33256487438E+04 0.  0.
        5    1    3    3  502    0 -0.10390717541E+04 -0.96844989662E+03  0.10263516199E+04  0.17524226231E+04  0.46999998093E+01 0.  1.
       -5    1    3    3    0  502  0.10390717541E+04  0.96844989662E+03 -0.71047336754E+03  0.15881938825E+04  0.46999998093E+01 0. -1.
</event>
<event>
 5   0  0.9530268E-07  0.3138486E+04  0.7818609E-02  0.8205254E-01
        1   -1    0    0  501    0  0.00000000000E+00  0.00000000000E+00  0.28505416729E+04  0.28505416729E+04  0.50400001928E-02 0.  1.
       -1   -1    0    0    0  501  0.00000000000E+00  0.00000000000E+00 -0.86387940138E+03  0.86387940139E+03  0.50400001928E-02 0. -1.
    10030    2    1    2    0    0  0.00000000000E+00  0.00000000000E+00  0.19866622715E+04  0.37144210743E+04  0.31384864085E+04 0.  0.
        5    1    3    3  502    0  0.32054745399E+03  0.11715789169E+04  0.21692122267E+04  0.24861318556E+04  0.46999998093E+01 0.  1.
       -5    1    3    3    0  502 -0.32054745399E+03 -0.11715789169E+04 -0.18254995518E+03  0.12282892187E+04  0.46999998093E+01 0. -1.
</event>
<event>
 5   0  0.2705859E-06  0.3193478E+04  0.7818609E-02  0.8190542E-01
        2   -1    0    0  501    0  0.00000000000E+00  0.00000000000E+00  0.22738109657E+04  0.22738109657E+04  0.25500000920E-02 0. -1.
       -2   -1    0    0    0  501  0.00000000000E+00  0.00000000000E+00 -0.11212787345E+04  0.11212787345E+04  0.25500000920E-02 0.  1.
    10030    2    1    2    0    0  0.00000000000E+00  0.00000000000E+00  0.11525322312E+04  0.33950897002E+04  0.31934782805E+04 0.  0.
        1    1    3    3  502    0 -0.14601888413E+04 -0.34718253734E+03 -0.30080119814E+01  0.15008984691E+04  0.50400001928E-02 0.  1.
       -1    1    3    3    0  502  0.14601888413E+04  0.34718253734E+03  0.11555402431E+04  0.18941912311E+04  0.50400001928E-02 0. -1.
</event>
<event>
 5   0  0.2574803E-06  0.2440493E+04  0.7818609E-02  0.8424497E-01
       -2   -1    0    0    0  501  0.00000000000E+00  0.00000000000E+00  0.74971274783E+03  0.74971274783E+03  0.25500000920E-02 0.  1.
        2   -1    0    0  501    0  0.00000000000E+00  0.00000000000E+00 -0.19860952623E+04  0.19860952623E+04  0.25500000920E-02 0. -1.
    10030    2    1    2    0    0  0.00000000000E+00  0.00000000000E+00 -0.12363825145E+04  0.27358080101E+04  0.24404925212E+04 0.  0.
        4    1    3    3  502    0 -0.89531797065E+03 -0.70455666196E+03 -0.12826528393E+03  0.11464937656E+04  0.12699999809E+01 0.  1.
       -4    1    3    3    0  502  0.89531797065E+03  0.70455666196E+03 -0.11081172305E+04  0.15893142446E+04  0.12699999809E+01 0. -1.
</event>
<event>
 5   0  0.8705956E-07  0.3132097E+04  0.7818609E-02  0.8206984E-01
        1   -1    0    0  501    0  0.00000000000E+00  0.00000000000E+00  0.17328618845E+04  0.17328618845E+04  0.50400001928E-02 0.  1.
       -1   -1    0    0    0  501  0.00000000000E+00  0.00000000000E+00 -0.14152934865E+04  0.14152934865E+04  0.50400001928E-02 0. -1.
    10030    2    1    2    0    0  0.00000000000E+00  0.00000000000E+00  0.31756839800E+03  0.31481553709E+04  0.31320971492E+04 0.  0.
        2    1    3    3  502    0  0.87289394034E+03  0.87031521377E+03  0.11297159207E+04  0.16720198754E+04  0.25500000920E-02 0.  1.
       -2    1    3    3    0  502 -0.87289394034E+03 -0.87031521377E+03 -0.81214752270E+03  0.14761354955E+04  0.25500000920E-02 0. -1.
</event>
<event>
 5   0  0.9295663E-07  0.3332285E+04  0.7818609E-02  0.8154729E-01
        1   -1    0    0  501    0  0.00000000000E+00  0.00000000000E+00  0.21457400403E+04  0.21457400403E+04  0.50400001928E-02 0. -1.
       -1   -1    0    0    0  501  0.00000000000E+00  0.00000000000E+00 -0.12937408572E+04  0.12937408572E+04  0.50400001928E-02 0.  1.
    10030    2    1    2    0    0  0.00000000000E+00  0.00000000000E+00  0.85199918315E+03  0.34394808975E+04  0.33322854374E+04 0.  0.
        4    1    3    3  502    0  0.56617555528E+03 -0.18361594586E+02 -0.11912932494E+04  0.13191183140E+04  0.12699999809E+01 0.  1.
       -4    1    3    3    0  502 -0.56617555528E+03  0.18361594586E+02  0.20432924325E+04  0.21203625834E+04  0.12699999809E+01 0. -1.
</event>
<event>
 5   0  0.2674551E-06  0.2469661E+04  0.7818609E-02  0.8413874E-01
       -2   -1    0    0    0  501  0.00000000000E+00  0.00000000000E+00  0.14834492477E+04  0.14834492477E+04  0.25500000920E-02 0.  1.
        2   -1    0    0  501    0  0.00000000000E+00  0.00000000000E+00 -0.10278789811E+04  0.10278789811E+04  0.25500000920E-02 0. -1.
    10030    2    1    2    0    0  0.00000000000E+00  0.00000000000E+00  0.45557026663E+03  0.25113282288E+04  0.24696609494E+04 0.  0.
        3    1    3    3  502    0  0.35750164562E+03 -0.30059098329E+03 -0.93458587836E+03  0.10448029193E+04  0.10100000352E+00 0. -1.
       -3    1    3    3    0  502 -0.35750164562E+03  0.30059098329E+03  0.13901561450E+04  0.14665253095E+04  0.10100000352E+00 0.  1.
</event>
<event>
 5   0  0.8845526E-07  0.3338704E+04  0.7818609E-02  0.8153116E-01
       -1   -1    0    0    0  501  0.00000000000E+00  0.00000000000E+00  0.16356068765E+04  0.16356068765E+04  0.50400001928E-02 0.  1.
        1   -1    0    0  501    0  0.00000000000E+00  0.00000000000E+00 -0.17037932981E+04  0.17037932981E+04  0.50400001928E-02 0. -1.
    10030    2    1    2    0    0  0.00000000000E+00  0.00000000000E+00 -0.68186421612E+02  0.33394001745E+04  0.33387039608E+04 0.  0.
        1    1    3    3  502    0  0.12397623817E+04  0.28628915205E+03 -0.11149497539E+04  0.16917698411E+04  0.50400001928E-02 0. -1.
       -1    1    3    3    0  502 -0.12397623817E+04 -0.28628915205E+03  0.10467633323E+04  0.16476303334E+04  0.50400001928E-02 0.  1.
</event>
<event>
 5   0  0.2658600E-06  0.2885951E+04  0.7818609E-02  0.8277070E-01
        2   -1    0    0  501    0  0.00000000000E+00  0.00000000000E+00  0.18937129145E+04  0.18937129145E+04  0.25500000920E-02 0.  1.
       -2   -1    0    0    0  501  0.00000000000E+00  0.00000000000E+00 -0.10995214965E+04  0.10995214965E+04  0.25500000920E-02 0. -1.
    10030    2    1    2    0    0  0.00000000000E+00  0.00000000000E+00  0.79419141801E+03  0.29932344110E+04  0.28859508366E+04 0.  0.
        5    1    3    3  502    0 -0.81385311034E+03 -0.14141362861E+03 -0.83001852070E+03  0.11710284088E+04  0.46999998093E+01 0. -1.
       -5    1    3    3    0  502  0.81385311034E+03  0.14141362861E+03  0.16242099387E+04  0.18222060022E+04  0.46999998093E+01 0.  1.
</event>
<event>
 5   0  0.8705956E-07  0.3275839E+04  0.7818609E-02  0.8169070E-01
        1   -1    0    0  501    0  0.00000000000E+00  0.00000000000E+00  0.18873903482E+04  0.18873903482E+04  0.50400001928E-02 0.  1.
       -1   -1    0    0    0  501  0.00000000000E+00  0.00000000000E+00 -0.14214231926E+04  0.14214231926E+04  0.50400001928E-02 0. -1.
    10030    2    1    2    0    0  0.00000000000E+00  0.00000000000E+00  0.46596715566E+03  0.33088135408E+04  0.32758390769E+04 0.  0.
        2    1    3    3  502    0  0.37182461176E+03 -0.15910801094E+03 -0.13701955549E+04  0.14286373787E+04  0.25500000920E-02 0. -1.
       -2    1    3    3    0  502 -0.37182461176E+03  0.15910801094E+03  0.18361627106E+04  0.18801761621E+04  0.25500000920E-02 0.  1.
</event>
<event>
 5   0  0.2705859E-06  0.3262103E+04  0.7818609E-02  0.8172606E-01
       -2   -1    0    0    0  501  0.00000000000E+00  0.00000000000E+00  0.11863491156E+04  0.11863491156E+04  0.25500000920E-02 0. -1.
        2   -1    0    0  501    0  0.00000000000E+00  0.00000000000E+00 -0.22424503713E+04  0.22424503713E+04  0.25500000920E-02 0.  1.
    10030    2    1    2    0    0  0.00000000000E+00  0.00000000000E+00 -0.10561012557E+04  0.34287994870E+04  0.32621030118E+04 0.  0.
        1    1    3    3  502    0  0.52261218549E+03 -0.75788402315E+03  0.88716116592E+03  0.12785017103E+04  0.50400001928E-02 0. -1.
       -1    1    3    3    0  502 -0.52261218549E+03  0.75788402315E+03 -0.19432624216E+04  0.21502977766E+04  0.50400001928E-02 0.  1.
</event>
<event>
 5   0  0.2614212E-06  0.3305836E+04  0.7818609E-02  0.8161412E-01
       -2   -1    0    0    0  501  0.00000000000E+00  0.00000000000E+00  0.13288536365E+04  0.13288536365E+04  0.25500000920E-02 0.  1.
        2   -1    0    0  501    0  0.00000000000E+00  0.00000000000E+00 -0.20560110896E+04  0.20560110896E+04  0.25500000920E-02 0. -1.
    10030    2    1    2    0    0  0.00000000000E+00  0.00000000000E+00 -0.72715745310E+03  0.33848647262E+04  0.33058359386E+04 0.  0.
        2    1    3    3  502    0  0.78559671000E+03  0.55945021168E+03  0.10108946727E+04  0.13971595362E+04  0.25500000920E-02 0.  1.
       -2    1    3    3    0  502 -0.78559671000E+03 -0.55945021168E+03 -0.17380521258E+04  0.19877051900E+04  0.25500000920E-02 0. -1.
</event>
<event>
 5   0  0.9295663E-07  0.3345752E+04  0.7818609E-02  0.8151350E-01
        1   -1    0    0  501    0  0.00000000000E+00  0.00000000000E+00  0.89648098090E+03  0.89648098092E+03  0.50400001928E-02 0.  1.
       -1   -1    0    0    0  501  0.00000000000E+00  0.00000000000E+00 -0.31216661014E+04  0.31216661014E+04  0.50400001928E-02 0. -1.
    10030    2    1    2    0    0  0.00000000000E+00  0.00000000000E+00 -0.22251851205E+04  0.40181470823E+04  0.33457521060E+04 0.  0.
        4    1    3    3  502    0  0.40694759370E+03 -0.65131697368E+02 -0.30597435269E+04  0.30873743772E+04  0.12699999809E+01 0. -1.
       -4    1    3    3    0  502 -0.40694759370E+03  0.65131697368E+02  0.83455840637E+03  0.93077270510E+03  0.12699999809E+01 0.  1.
</event>
<event>
 5   0  0.2574803E-06  0.2579019E+04  0.7818609E-02  0.8375363E-01
        2   -1    0    0  501    0  0.00000000000E+00  0.00000000000E+00  0.14867810830E+04  0.14867810830E+04  0.25500000920E-02 0. -1.
       -2   -1    0    0    0  501  0.00000000000E+00  0.00000000000E+00 -0.11184125168E+04  0.11184125169E+04  0.25500000920E-02 0.  1.
    10030    2    1    2    0    0  0.00000000000E+00  0.00000000000E+00  0.36836856615E+03  0.26051935999E+04  0.25790188623E+04 0.  0.
        4    1    3    3  502    0 -0.76797280538E+03  0.10207385606E+04  0.36245062022E+03  0.13278032625E+04  0.12699999809E+01 0.  1.
       -4    1    3    3    0  502  0.76797280538E+03 -0.10207385606E+04  0.59179459342E+01  0.12773903373E+04  0.12699999809E+01 0. -1.
</event>
<event>
 5   0  0.2658600E-06  0.2758815E+04  0.7818609E-02  0.8316170E-01
        2   -1    0    0  501    0  0.00000000000E+00  0.00000000000E+00  0.16842710468E+04  0.16842710468E+04  0.25500000920E-02 0.  1.
       -2   -1    0    0    0  501  0.00000000000E+00  0.00000000000E+00 -0.11297257668E+04  0.11297257668E+04  0.25500000920E-02 0. -1.
    10030    2    1    2    0    0  0.00000000000E+00  0.00000000000E+00  0.55454527996E+03  0.28139968135E+04  0.27588145279E+04 0.  0.
        5    1    3    3  502    0  0.33360937064E+03  0.16037335104E+03  0.16326584537E+04  0.16740999194E+04  0.46999998093E+01 0.  1.
       -5    1    3    3    0  502 -0.33360937064E+03 -0.16037335104E+03 -0.10781131737E+04  0.11398968941E+04  0.46999998093E+01 0. -1.
</event>
<event>
 5   0  0.8845526E-07  0.3289596E+04  0.7818609E-02  0.8165548E-01
        1   -1    0    0  501    0  0.00000000000E+00  0.00000000000E+00  0.25797574386E+04  0.25797574386E+04  0.50400001928E-02 0.  1.
       -1   -1    0    0    0  501  0.00000000000E+00  0.00000000000E+00 -0.10486880412E+04  0.10486880412E+04  0.50400001928E-02 0. -1.
    10030    2    1    2    0    0  0.00000000000E+00  0.00000000000E+00  0.15310693974E+04  0.36284454798E+04  0.32895961911E+04 0.  0.
        1    1    3    3  502    0  0.38058696096E+03  0.12857344609E+04  0.18162321894E+04  0.22575781060E+04  0.50400001928E-02 0.  1.
       -1    1    3    3    0  502 -0.38058696096E+03 -0.12857344609E+04 -0.28516279205E+03  0.13708673739E+04  0.50400001928E-02 0. -1.
</event>
<event>
 5   0  0.2574803E-06  0.2470236E+04  0.7818609E-02  0.8413667E-01
       -2   -1    0    0    0  501  0.00000000000E+00  0.00000000000E+00  0.82686547327E+03  0.82686547327E+03  0.25500000920E-02 0. -1.
        2   -1    0    0  501    0  0.00000000000E+00  0.00000000000E+00 -0.18449388276E+04  0.18449388276E+04  0.25500000920E-02 0.  1.
    10030    2    1    2    0    0  0.00000000000E+00  0.00000000000E+00 -0.10180733543E+04  0.26718043009E+04  0.24702357919E+04 0.  0.
        4    1    3    3  502    0 -0.64420673147E+03 -0.10322625759E+04 -0.27973193274E+03  0.12485270945E+04  0.12699999809E+01 0. -1.
       -4    1    3    3    0  502  0.64420673147E+03  0.10322625759E+04 -0.73834142159E+03  0.14232772064E+04  0.12699999809E+01 0.  1.
</event>
<event>
 5   0  0.9268670E-07  0.3338141E+04  0.7818609E-02  0.8153258E-01
        1   -1    0    0  501    0  0.00000000000E+00  0.00000000000E+00  0.15394579443E+04  0.15394579443E+04  0.50400001928E-02 0.  1.
       -1   -1    0    0    0  501  0.00000000000E+00  0.00000000000E+00 -0.18095958451E+04  0.18095958451E+04  0.50400001928E-02 0. -1.
    10030    2    1    2    0    0  0.00000000000E+00  0.00000000000E+00 -0.27013790087E+03  0.33490537894E+04  0.33381412191E+04 0.  0.
        3    1    3    3  502    0 -0.43538679512E+03 -0.36582578916E+03  0.14392665679E+04  0.15475394771E+04  0.10100000352E+00 0.  1.
       -3    1    3    3    0  502  0.43538679512E+03  0.36582578916E+03 -0.17094044688E+04  0.18015143123E+04  0.10100000352E+00 0. -1.
</event>
<event>
 5   0  0.8705956E-07  0.3307376E+04  0.7818609E-02  0.8161021E-01
        1   -1    0    0  501    0  0.00000000000E+00  0.00000000000E+00  0.18843059243E+04  0.18843059243E+04  0.50400001928E-02 0. -1.
       -1   -1    0    0    0  501  0.00000000000E+00  0.00000000000E+00 -0.14512952048E+04  0.14512952048E+04  0.50400001928E-02 0.  1.
    10030    2    1    2    0    0  0.00000000000E+00  0.00000000000E+00  0.43301071953E+03  0.33356011290E+04  0.33073760912E+04 0.  0.
        2    1    3    3  502    0  0.85851328623E+03 -0.76928826681E+03  0.14123028885E+04  0.18230328984E+04  0.25500000920E-02 0. -1.
       -2    1    3    3    0  502 -0.85851328623E+03  0.76928826681E+03 -0.97929216893E+03  0.15125682306E+04  0.25500000920E-02 0.  1.
</event>
<event>
 5   0  0.8705956E-07  0.3202607E+04  0.7818609E-02  0.8188129E-01
        1   -1    0    0  501    0  0.00000000000E+00  0.00000000000E+00  0.90229935168E+03  0.90229935169E+03  0.50400001928E-02 0.  1.
       -1   -1    0    0    0  501  0.00000000000E+00  0.00000000000E+00 -0.28418213622E+04  0.28418213622E+04  0.50400001928E-02 0. -1.
    10030    2    1    2    0    0  0.00000000000E+00  0.00000000000E+00 -0.19395220105E+04  0.37441207139E+04  0.32026074207E+04 0.  0.
        2    1    3    3  502    0 -0.27154419850E+03 -0.11158036677E+04  0.33491887998E+03  0.11962126620E+04  0.25500000920E-02 0.  1.
       -2    1    3    3    0  502  0.27154419850E+03  0.11158036677E+04 -0.22744408905E+04  0.25479080519E+04  0.25500000920E-02 0. -1.
</event>
<event>
 5   0  0.8845526E-07  0.3249336E+04  0.7818609E-02  0.8175908E-01
       -1   -1    0    0    0  501  0.00000000000E+00  0.00000000000E+00  0.11506796346E+04  0.11506796346E+04  0.50400001928E-02 0. -1.
        1   -1    0    0  501    0  0.00000000000E+00  0.00000000000E+00 -0.22939011170E+04  0.22939011170E+04  0.50400001928E-02 0.  1.
    10030    2    1    2    0    0  0.00000000000E+00  0.00000000000E+00 -0.11432214824E+04  0.34445807517E+04  0.32493355008E+04 0.  0.
        1    1    3    3  502    0 -0.11309954156E+04 -0.31655399812E+03  0.61842368552E+03  0.13273299962E+04  0.50400001928E-02 0. -1.
       -1    1    3    3    0  502  0.11309954156E+04  0.31655399812E+03 -0.17616451679E+04  0.21172507555E+04  0.50400001928E-02 0.  1.
</event>
<event>
 5   0  0.9530268E-07  0.3309039E+04  0.7818609E-02  0.8160599E-01
        1   -1    0    0  501    0  0.00000000000E+00  0.00000000000E+00  0.15024036488E+04  0.15024036489E+04  0.50400001928E-02 0. -1.
       -1   -1    0    0    0  501  0.00000000000E+00  0.00000000000E+00 -0.18220373083E+04  0.18220373083E+04  0.50400001928E-02 0.  1.
    10030    2    1    2    0    0  0.00000000000E+00  0.00000000000E+00 -0.31963365941E+03  0.33244409571E+04  0.33090394378E+04 0.  0.
        5    1    3    3  502    0 -0.30522711004E+03 -0.16255809281E+04 -0.11795193215E+03  0.16581953114E+04  0.46999998093E+01 0.  1.
       -5    1    3    3    0  502  0.30522711004E+03  0.16255809281E+04 -0.20168172726E+03  0.16662456457E+04  0.46999998093E+01 0. -1.
</event>
<event>
 5   0  0.8705956E-07  0.3440860E+04  0.7818609E-02  0.8127950E-01
        1   -1    0    0  501    0  0.00000000000E+00  0.00000000000E+00  0.18824216896E+04  0.18824216896E+04  0.50400001928E-02 0.  1.
       -1   -1    0    0    0  501  0.00000000000E+00  0.00000000000E+00 -0.15723787049E+04  0.15723787049E+04  0.50400001928E-02 0. -1.
    10030    2    1    2    0    0  0.00000000000E+00  0.00000000000E+00  0.31004298469E+03  0.34548003944E+04  0.34408602287E+04 0.  0.
        2    1    3    3  502    0 -0.83266898165E+03 -0.44466878983E+02 -0.13559223019E+04  0.15918040787E+04  0.25500000920E-02 0. -1.
       -2    1    3    3    0  502  0.83266898165E+03  0.44466878983E+02  0.16659652866E+04  0.18629963157E+04  0.25500000920E-02 0.  1.
</event>
<event>
 5   0  0.2574803E-06  0.2590575E+04  0.7818609E-02  0.8371410E-01
       -2   -1    0    0    0  501  0.00000000000E+00  0.00000000000E+00  0.10693217106E+04  0.10693217106E+04  0.25500000920E-02 0.  1.
        2   -1    0    0  501    0  0.00000000000E+00  0.00000000000E+00 -0.15690042521E+04  0.15690042521E+04  0.25500000920E-02 0. -1.
    10030    2    1    2    0    0  0.00000000000E+00  0.00000000000E+00 -0.49968254145E+03  0.26383259627E+04  0.25905754657E+04 0.  0.
        4    1    3    3  502    0 -0.24044580532E+03 -0.20580146191E+03  0.10293358679E+04  0.10768947808E+04  0.12699999809E+01 0.  1.
       -4    1    3    3    0  502  0.24044580532E+03  0.20580146191E+03 -0.15290184093E+04  0.15614311820E+04  0.12699999809E+01 0. -1.
</event>
<event>
 5   0  0.2574803E-06  0.3258981E+04  0.7818609E-02  0.8173412E-01
       -2   -1    0    0    0  501  0.00000000000E+00  0.00000000000E+00  0.15237906931E+04  0.15237906931E+04  0.25500000920E-02 0. -1.
        2   -1    0    0  501    0  0.00000000000E+00  0.00000000000E+00 -0.17425218793E+04  0.17425218793E+04  0.25500000920E-02 0.  1.
    10030    2    1    2    0    0  0.00000000000E+00  0.00000000000E+00 -0.21873118618E+03  0.32663125723E+04  0.32589805904E+04 0.  0.
        4    1    3    3  502    0  0.41558205988E+03  0.13197698459E+04 -0.97196216569E+03  0.16909207430E+04  0.12699999809E+01 0.  1.
       -4    1    3    3    0  502 -0.41558205988E+03 -0.13197698459E+04  0.75323097951E+03  0.15753918294E+04  0.12699999809E+01 0. -1.
</event>
<event>
 5   0  0.2705859E-06  0.3297267E+04  0.7818609E-02  0.8163591E-01
        2   -1    0    0  501    0  0.00000000000E+00  0.00000000000E+00  0.19622504520E+04  0.19622504520E+04  0.25500000920E-02 0.  1.
       -2   -1    0    0    0  501  0.00000000000E+00  0.00000000000E+00 -0.13851403102E+04  0.13851403102E+04  0.25500000920E-02 0. -1.
    10030    2    1    2    0    0  0.00000000000E+00  0.00000000000E+00  0.57711014179E+03  0.33473907623E+04  0.32972668681E+04 0.  0.
        1    1    3    3  502    0 -0.13284611099E+04  0.14781846999E+02 -0.70248391401E+03  0.15028343465E+04  0.50400001928E-02 0. -1.
       -1    1    3    3    0  502  0.13284611099E+04 -0.14781846999E+02  0.12795940558E+04  0.18445564158E+04  0.50400001928E-02 0.  1.
</event>
<event>
 5   0  0.9295663E-07  0.3327114E+04  0.7818609E-02  0.8156030E-01
       -1   -1    0    0    0  501  0.00000000000E+00  0.00000000000E+00  0.25422147580E+04  0.25422147580E+04  0.50400001928E-02 0. -1.
        1   -1    0    0  501    0  0.00000000000E+00  0.00000000000E+00 -0.10885870588E+04  0.10885870588E+04  0.50400001928E-02 0.  1.
    10030    2    1    2    0    0  0.00000000000E+00  0.00000000000E+00  0.14536276993E+04  0.36308018168E+04  0.33271141166E+04 0.  0.
        4    1    3    3  502    0 -0.34008214445E+03 -0.55223411940E+03  0.23985705783E+04  0.24847053788E+04  0.12699999809E+01 0. -1.
       -4    1    3    3    0  502  0.34008214445E+03  0.55223411940E+03 -0.94494287902E+03  0.11460964380E+04  0.12699999809E+01 0.  1.
</event>
<event>
 5   0  0.9295663E-07  0.2975935E+04  0.7818609E-02  0.8250636E-01
        1   -1    0    0  501    0  0.00000000000E+00  0.00000000000E+00  0.16529445562E+04  0.16529445562E+04  0.50400001928E-02 0.  1.
       -1   -1    0    0    0  501  0.00000000000E+00  0.00000000000E+00 -0.13394568516E+04  0.13394568516E+04  0.50400001928E-02 0. -1.
    10030    2    1    2    0    0  0.00000000000E+00  0.00000000000E+00  0.31348770459E+03  0.29924014077E+04  0.29759354234E+04 0.  0.
        4    1    3    3  502    0  0.73284823063E+03 -0.12293108586E+04  0.56615090340E+03  0.15390906973E+04  0.12699999809E+01 0.  1.
       -4    1    3    3    0  502 -0.73284823063E+03  0.12293108586E+04 -0.25266319881E+03  0.14533107104E+04  0.12699999809E+01 0. -1.
</event>
<event>
 5   0  0.2658600E-06  0.3318166E+04  0.7818609E-02  0.8158288E-01
       -2   -1    0    0    0  501  0.00000000000E+00  0.00000000000E+00  0.11053229724E+04  0.11053229724E+04  0.25500000920E-02 0.  1.
        2   -1    0    0  501    0  0.00000000000E+00  0.00000000000E+00 -0.24902728541E+04  0.24902728541E+04  0.25500000920E-02 0. -1.
    10030    2    1    2    0    0  0.00000000000E+00  0.00000000000E+00 -0.13849498817E+04  0.35955958265E+04  0.33181656337E+04 0.  0.
        5    1    3    3  502    0 -0.76237649028E+03 -0.29439529603E+03  0.87207377332E+03  0.11951657874E+04  0.46999998093E+01 0.  1.
       -5    1    3    3    0  502  0.76237649028E+03  0.29439529603E+03 -0.22570236551E+04  0.24004300391E+04  0.46999998093E+01 0. -1.
</event>
<event>
 5   0  0.9530268E-07  0.3265210E+04  0.7818609E-02  0.8171805E-01
       -1   -1    0    0    0  501  0.00000000000E+00  0.00000000000E+00  0.12178547313E+04  0.12178547313E+04  0.50400001928E-02 0.  1.
        1   -1    0    0  501    0  0.00000000000E+00  0.00000000000E+00 -0.21886019573E+04  0.21886019573E+04  0.50400001928E-02 0. -1.
    10030    2    1    2    0    0  0.00000000000E+00  0.00000000000E+00 -0.97074722595E+03  0.34064566886E+04  0.32652100996E+04 0.  0.
        5    1    3    3  502    0 -0.11649283615E+04  0.84860622833E+03  0.31473561903E+03  0.14752190407E+04  0.46999998093E+01 0.  1.
       -5    1    3    3    0  502  0.11649283615E+04 -0.84860622833E+03 -0.12854828450E+04  0.19312376479E+04  0.46999998093E+01 0. -1.
</event>
<event>
 5   0  0.8520125E-07  0.3020371E+04  0.7818609E-02  0.8237938E-01
       -3   -1    0    0    0  501  0.00000000000E+00  0.00000000000E+00  0.96874095226E+03  0.96874095752E+03  0.10100000352E+00 0. -1.
        3   -1    0    0  501    0  0.00000000000E+00  0.00000000000E+00 -0.23542516731E+04  0.23542516753E+04  0.10100000352E+00 0.  1.
    10030    2    1    2    0    0  0.00000000000E+00  0.00000000000E+00 -0.13855107209E+04  0.33229926328E+04  0.30203708514E+04 0.  0.
        1    1    3    3  502    0 -0.14342323346E+04  0.18298016154E+03 -0.11725153209E+04  0.18615306355E+04  0.50400001928E-02 0.  1.
       -1    1    3    3    0  502  0.14342323346E+04 -0.18298016154E+03 -0.21299539994E+03  0.14614619973E+04  0.50400001928E-02 0. -1.
</event>
<event>
 5   0  0.2614212E-06  0.3279172E+04  0.7818609E-02  0.8168215E-01
       -2   -1    0    0    0  501  0.00000000000E+00  0.00000000000E+00  0.31556427314E+04  0.31556427314E+04  0.25500000920E-02 0.  1.
        2   -1    0    0  501    0  0.00000000000E+00  0.00000000000E+00 -0.85188438611E+03  0.85188438612E+03  0.25500000920E-02 0. -1.
    10030    2    1    2    0    0  0.00000000000E+00  0.00000000000E+00  0.23037583453E+04  0.40075271175E+04  0.32791723169E+04 0.  0.
        2    1    3    3  502    0  0.10536481823E+04  0.10257146391E+04  0.20382101345E+04  0.25132778527E+04  0.25500000920E-02 0.  1.
       -2    1    3    3    0  502 -0.10536481823E+04 -0.10257146391E+04  0.26554821081E+03  0.14942492647E+04  0.25500000920E-02 0. -1.
</event>
<event>
 5   0  0.9268670E-07  0.3285789E+04  0.7818609E-02  0.8166521E-01
        1   -1    0    0  501    0  0.00000000000E+00  0.00000000000E+00  0.22675401117E+04  0.22675401118E+04  0.50400001928E-02 0. -1.
       -1   -1    0    0    0  501  0.00000000000E+00  0.00000000000E+00 -0.11903219604E+04  0.11903219604E+04  0.50400001928E-02 0.  1.
    10030    2    1    2    0    0  0.00000000000E+00  0.00000000000E+00  0.10772181513E+04  0.34578620722E+04  0.32857892758E+04 0.  0.
        3    1    3    3  502    0 -0.25386585930E+03  0.10292767630E+04  0.18594238249E+04  0.21404007803E+04  0.10100000352E+00 0. -1.
       -3    1    3    3    0  502  0.25386585930E+03 -0.10292767630E+04 -0.78220567362E+03  0.13174612918E+04  0.10100000352E+00 0.  1.
</event>
<event>
 5   0  0.2674551E-06  0.3289613E+04  0.7818609E-02  0.8165543E-01
       -2   -1    0    0    0  501  0.00000000000E+00  0.00000000000E+00  0.25368879584E+04  0.25368879584E+04  0.25500000920E-02 0.  1.
        2   -1    0    0  501    0  0.00000000000E+00  0.00000000000E+00 -0.10664202855E+04  0.10664202855E+04  0.25500000920E-02 0. -1.
    10030    2    1    2    0    0  0.00000000000E+00  0.00000000000E+00  0.14704676730E+04  0.36033082439E+04  0.32896132179E+04 0.  0.
        3    1    3    3  502    0  0.67759227306E+03  0.14765720790E+04  0.45384720186E+03  0.16868235491E+04  0.10100000352E+00 0. -1.
       -3    1    3    3    0  502 -0.67759227306E+03 -0.14765720790E+04  0.10166204711E+04  0.19164846948E+04  0.10100000352E+00 0.  1.
</event>
<event>
 5   0  0.2574803E-06  0.3203309E+04  0.7818609E-02  0.8187944E-01
        2   -1    0    0  501    0  0.00000000000E+00  0.00000000000E+00  0.15868724716E+04  0.15868724716E+04  0.25500000920E-02 0. -1.
       -2   -1    0    0    0  501  0.00000000000E+00  0.00000000000E+00 -0.16165738832E+04  0.16165738832E+04  0.25500000920E-02 0.  1.
    10030    2    1    2    0    0  0.00000000000E+00  0.00000000000E+00 -0.29701411566E+02  0.32034463549E+04  0.32033086605E+04 0.  0.
        4    1    3    3  502    0 -0.35968226865E+03 -0.53473315176E+03  0.14514947314E+04  0.15881276542E+04  0.12699999809E+01 0. -1.
       -4    1    3    3    0  502  0.35968226865E+03  0.53473315176E+03 -0.14811961429E+04  0.16153187007E+04  0.12699999809E+01 0.  1.
</event>
<event>
 5   0  0.2574803E-06  0.3361158E+04  0.7818609E-02  0.8147506E-01
        2   -1    0    0  501    0  0.00000000000E+00  0.00000000000E+00  0.19634434413E+04  0.19634434413E+04  0.25500000920E-02 0.  1.
       -2   -1    0    0    0  501  0.00000000000E+00  0.00000000000E+00 -0.14384652483E+04  0.14384652483E+04  0.25500000920E-02 0. -1.
    10030    2    1    2    0    0  0.00000000000E+00  0.00000000000E+00  0.52497819305E+03  0.34019086896E+04  0.33611576323E+04 0.  0.
        4    1    3    3  502    0 -0.13773784083E+04 -0.88097296960E+02 -0.70799550879E+03  0.15511904031E+04  0.12699999809E+01 0. -1.
       -4    1    3    3    0  502  0.13773784083E+04  0.88097296960E+02  0.12329737018E+04  0.18507182864E+04  0.12699999809E+01 0.  1.
</event>
<event>
 5   0  0.8705956E-07  0.3308092E+04  0.7818609E-02  0.8160839E-01
       -1   -1    0    0    0  501  0.00000000000E+00  0.00000000000E+00  0.16756566380E+04  0.16756566380E+04  0.50400001928E-02 0.  1.
        1   -1    0    0  501    0  0.00000000000E+00  0.00000000000E+00 -0.16327143738E+04  0.16327143739E+04  0.50400001928E-02 0. -1.
    10030    2    1    2    0    0  0.00000000000E+00  0.00000000000E+00  0.42942264136E+02  0.33083710118E+04  0.33080923074E+04 0.  0.
        2    1    3    3  502    0  0.35065473208E+03 -0.14275469300E+04  0.77983555239E+03  0.16640289863E+04  0.25500000920E-02 0.  1.
       -2    1    3    3    0  502 -0.35065473208E+03  0.14275469300E+04 -0.73689328826E+03  0.16443420255E+04  0.25500000920E-02 0. -1.
</event>
<event>
 5   0  0.2705859E-06  0.3183708E+04  0.7818609E-02  0.8193133E-01
        2   -1    0    0  501    0  0.00000000000E+00  0.00000000000E+00  0.16108059988E+04  0.16108059988E+04  0.25500000920E-02 0. -1.
       -2   -1    0    0    0  501  0.00000000000E+00  0.00000000000E+00 -0.15731245352E+04  0.15731245352E+04  0.25500000920E-02 0.  1.
    10030    2    1    2    0    0  0.00000000000E+00  0.00000000000E+00  0.37681463545E+02  0.31839305340E+04  0.31837075483E+04 0.  0.
        1    1    3    3  502    0 -0.88414285749E+03 -0.12709587735E+04 -0.35125766968E+03  0.15875851936E+04  0.50400001928E-02 0.  1.
       -1    1    3    3    0  502  0.88414285749E+03  0.12709587735E+04  0.38893913323E+03  0.15963453404E+04  0.50400001928E-02 0. -1.
</event>
<event>
 5   0  0.8845526E-07  0.2971847E+04  0.7818609E-02  0.8251816E-01
        1   -1    0    0  501    0  0.00000000000E+00  0.00000000000E+00  0.17204903021E+04  0.17204903021E+04  0.50400001928E-02 0. -1.
       -1   -1    0    0    0  501  0.00000000000E+00  0.00000000000E+00 -0.12833367226E+04  0.12833367226E+04  0.50400001928E-02 0.  1.
    10030    2    1    2    0    0  0.00000000000E+00  0.00000000000E+00  0.43715357946E+03  0.30038270247E+04  0.29718468235E+04 0.  0.
        1    1    3    3  502    0  0.21084445988E+03  0.39949032025E+03  0.16494091094E+04  0.17101456991E+04  0.50400001928E-02 0. -1.
       -1    1    3    3    0  502 -0.21084445988E+03 -0.39949032025E+03 -0.12122555299E+04  0.12936813255E+04  0.50400001928E-02 0.  1.
</event>
<event>
 5   0  0.9530268E-07  0.3399955E+04  0.7818609E-02  0.8137917E-01
        1   -1    0    0  501    0  0.00000000000E+00  0.00000000000E+00  0.13989139922E+04  0.13989139922E+04  0.50400001928E-02 0. -1.
       -1   -1    0    0    0  501  0.00000000000E+00  0.00000000000E+00 -0.20658332538E+04  0.20658332538E+04  0.50400001928E-02 0.  1.
    10030    2    1    2    0    0  0.00000000000E+00  0.00000000000E+00 -0.66691926159E+03  0.34647472460E+04  0.33999547317E+04 0.  0.
        5    1    3    3  502    0 -0.32954151156E+03 -0.39531803168E+03  0.13176097024E+04  0.14145640218E+04  0.46999998093E+01 0. -1.
       -5    1    3    3    0  502  0.32954151156E+03  0.39531803168E+03 -0.19845289640E+04  0.20501832242E+04  0.46999998093E+01 0.  1.
</event>
<event>
 5   0  0.2705859E-06  0.3318088E+04  0.7818609E-02  0.8158308E-01
        2   -1    0    0  501    0  0.00000000000E+00  0.00000000000E+00  0.15362824714E+04  0.15362824714E+04  0.25500000920E-02 0. -1.
       -2   -1    0    0    0  501  0.00000000000E+00  0.00000000000E+00 -0.17916151170E+04  0.17916151171E+04  0.25500000920E-02 0.  1.
    10030    2    1    2    0    0  0.00000000000E+00  0.00000000000E+00 -0.25533264568E+03  0.33278975884E+04  0.33180879432E+04 0.  0.
        1    1    3    3  502    0 -0.12218413514E+03 -0.13303858064E+04 -0.11142265522E+04  0.17396425398E+04  0.50400001928E-02 0.  1.
       -1    1    3    3    0  502  0.12218413514E+03  0.13303858064E+04  0.85889390651E+03  0.15882550486E+04  0.50400001928E-02 0. -1.
</event>
<event>
 5   0  0.9530268E-07  0.3351749E+04  0.7818609E-02  0.8149851E-01
       -1   -1    0    0    0  501  0.00000000000E+00  0.00000000000E+00  0.11441896865E+04  0.11441896865E+04  0.50400001928E-02 0.  1.
        1   -1    0    0  501    0  0.00000000000E+00  0.00000000000E+00 -0.24546243225E+04  0.24546243226E+04  0.50400001928E-02 0. -1.
    10030    2    1    2    0    0  0.00000000000E+00  0.00000000000E+00 -0.13104346360E+04  0.35988140091E+04  0.33517492950E+04 0.  0.
        5    1    3    3  502    0 -0.29360936997E+03  0.10102618310E+04  0.74543118054E+03  0.12893894541E+04  0.46999998093E+01 0.  1.
       -5    1    3    3    0  502  0.29360936997E+03 -0.10102618310E+04 -0.20558658166E+04  0.23094245550E+04  0.46999998093E+01 0. -1.
</event>
<event>
 5   0  0.9268670E-07  0.3354345E+04  0.7818609E-02  0.8149203E-01
        1   -1    0    0  501    0  0.00000000000E+00  0.00000000000E+00  0.20549017782E+04  0.20549017782E+04  0.50400001928E-02 0. -1.
       -1   -1    0    0    0  501  0.00000000000E+00  0.00000000000E+00 -0.13688770240E+04  0.13688770240E+04  0.50400001928E-02 0.  1.
    10030    2    1    2    0    0  0.00000000000E+00  0.00000000000E+00  0.68602475423E+03  0.34237788022E+04  0.33543451407E+04 0.  0.
        3    1    3    3  502    0  0.48367306358E+02  0.13687648794E+04  0.13310639098E+04  0.19098659203E+04  0.10100000352E+00 0. -1.
       -3    1    3    3    0  502 -0.48367306358E+02 -0.13687648794E+04 -0.64503915556E+03  0.15139128819E+04  0.10100000352E+00 0.  1.
</event>
<event>
 5   0  0.9295663E-07  0.3329847E+04  0.7818609E-02  0.8155342E-01
       -1   -1    0    0    0  501  0.00000000000E+00  0.00000000000E+00  0.16769925233E+04  0.16769925233E+04  0.50400001928E-02 0. -1.
        1   -1    0    0  501    0  0.00000000000E+00  0.00000000000E+00 -0.16529415002E+04  0.16529415002E+04  0.50400001928E-02 0.  1.
    10030    2    1    2    0    0  0.00000000000E+00  0.00000000000E+00  0.24051023082E+02  0.33299340235E+04  0.33298471660E+04 0.  0.
        4    1    3    3  502    0  0.23151853247E+03  0.14220416783E+04  0.84641263837E+03  0.16709935167E+04  0.12699999809E+01 0. -1.
       -4    1    3    3    0  502 -0.23151853247E+03 -0.14220416783E+04 -0.82236161529E+03  0.16589405067E+04  0.12699999809E+01 0.  1.
</event>
<event>
 5   0  0.2658600E-06  0.3307397E+04  0.7818609E-02  0.8161016E-01
       -2   -1    0    0    0  501  0.00000000000E+00  0.00000000000E+00  0.97440904934E+03  0.97440904935E+03  0.25500000920E-02 0.  1.
        2   -1    0    0  501    0  0.00000000000E+00  0.00000000000E+00 -0.28065404474E+04  0.28065404475E+04  0.25500000920E-02 0. -1.
    10030    2    1    2    0    0  0.00000000000E+00  0.00000000000E+00 -0.18321313981E+04  0.37809494968E+04  0.33073968068E+04 0.  0.
        5    1    3    3  502    0 -0.27503508902E+03 -0.15923056084E+04 -0.13179952422E+04  0.20852373964E+04  0.46999998093E+01 0.  1.
       -5    1    3    3    0  502  0.27503508902E+03  0.15923056084E+04 -0.51413615586E+03  0.16957121004E+04  0.46999998093E+01 0. -1.
</event>
<event>
 5   0  0.2705859E-06  0.3285375E+04  0.7818609E-02  0.8166627E-01
       -2   -1    0    0    0  501  0.00000000000E+00  0.00000000000E+00  0.12111809635E+04  0.12111809635E+04  0.25500000920E-02 0.  1.
        2   -1    0    0  501    0  0.00000000000E+00  0.00000000000E+00 -0.22279270889E+04  0.22279270889E+04  0.25500000920E-02 0. -1.
    10030    2    1    2    0    0  0.00000000000E+00  0.00000000000E+00 -0.10167461255E+04  0.34391080524E+04  0.32853753990E+04 0.  0.
        1    1    3    3  502    0 -0.15631682554E+04 -0.39377420986E+03 -0.17756368477E+03  0.16217527509E+04  0.50400001928E-02 0.  1.
       -1    1    3    3    0  502  0.15631682554E+04  0.39377420986E+03 -0.83918244070E+03  0.18173553015E+04  0.50400001928E-02 0. -1.
</event>
<event>
 5   0  0.8705956E-07  0.3316306E+04  0.7818609E-02  0.8158759E-01
       -1   -1    0    0    0  501  0.00000000000E+00  0.00000000000E+00  0.18114792936E+04  0.18114792936E+04  0.50400001928E-02 0. -1.
        1   -1    0    0  501    0  0.00000000000E+00  0.00000000000E+00 -0.15178041207E+04  0.15178041207E+04  0.50400001928E-02 0.  1.
    10030    2    1    2    0    0  0.00000000000E+00  0.00000000000E+00  0.29367517283E+03  0.33292834143E+04  0.33163056170E+04 0.  0.
        2    1    3    3  502    0  0.56541322434E+03  0.12793770297E+04 -0.74713753157E+03  0.15857844083E+04  0.25500000920E-02 0.  1.
       -2    1    3    3    0  502 -0.56541322434E+03 -0.12793770297E+04  0.10408127044E+04  0.17434990060E+04  0.25500000920E-02 0. -1.
</event>
<event>
 5   0  0.9530268E-07  0.3339302E+04  0.7818609E-02  0.8152967E-01
       -1   -1    0    0    0  501  0.00000000000E+00  0.00000000000E+00  0.20734091106E+04  0.20734091106E+04  0.50400001928E-02 0.  1.
        1   -1    0    0  501    0  0.00000000000E+00  0.00000000000E+00 -0.13445169443E+04  0.13445169443E+04  0.50400001928E-02 0. -1.
    10030    2    1    2    0    0  0.00000000000E+00  0.00000000000E+00  0.72889216635E+03  0.34179260549E+04  0.33393015327E+04 0.  0.
        5    1    3    3  502    0  0.10392302579E+04 -0.10345889064E+04 -0.45268528751E+03  0.15347051162E+04  0.46999998093E+01 0.  1.
       -5    1    3    3    0  502 -0.10392302579E+04  0.10345889064E+04  0.11815774539E+04  0.18832209386E+04  0.46999998093E+01 0. -1.
</event>
<event>
 5   0  0.2674551E-06  0.3521247E+04  0.7818609E-02  0.8108773E-01
       -2   -1    0    0    0  501  0.00000000000E+00  0.00000000000E+00  0.15303642757E+04  0.15303642757E+04  0.25500000920E-02 0. -1.
        2   -1    0    0  501    0  0.00000000000E+00  0.00000000000E+00 -0.20255280245E+04  0.20255280245E+04  0.25500000920E-02 0.  1.
    10030    2    1    2    0    0  0.00000000000E+00  0.00000000000E+00 -0.49516374875E+03  0.35558923002E+04  0.35212473518E+04 0.  0.
        3    1    3    3  502    0  0.90468545740E+02 -0.84788661293E+03  0.13079303566E+04  0.15613385584E+04  0.10100000352E+00 0. -1.
       -3    1    3    3    0  502 -0.90468545740E+02  0.84788661293E+03 -0.18030941053E+04  0.19945537418E+04  0.10100000352E+00 0.  1.
</event>
<event>
 5   0  0.2705859E-06  0.3258416E+04  0.7818609E-02  0.8173558E-01
       -2   -1    0    0    0  501  0.00000000000E+00  0.00000000000E+00  0.18843831962E+04  0.18843831962E+04  0.25500000920E-02 0.  1.
        2   -1    0    0  501    0  0.00000000000E+00  0.00000000000E+00 -0.14085872124E+04  0.14085872124E+04  0.25500000920E-02 0. -1.
    10030    2    1    2    0    0  0.00000000000E+00  0.00000000000E+00  0.47579598373E+03  0.32929704086E+04  0.32584156110E+04 0.  0.
        1    1    3    3  502    0  0.80891783681E+03 -0.11830461717E+04 -0.54515558746E+03  0.15333430555E+04  0.50400001928E-02 0. -1.
       -1    1    3    3    0  502 -0.80891783681E+03  0.11830461717E+04  0.10209515712E+04  0.17596273531E+04  0.50400001928E-02 0.  1.
</event>
<event>
 5   0  0.8520125E-07  0.3336545E+04  0.7818609E-02  0.8153658E-01
       -3   -1    0    0    0  501  0.00000000000E+00  0.00000000000E+00  0.24404155816E+04  0.24404155837E+04  0.10100000352E+00 0.  1.
        3   -1    0    0  501    0  0.00000000000E+00  0.00000000000E+00 -0.11404338893E+04  0.11404338937E+04  0.10100000352E+00 0. -1.
    10030    2    1    2    0    0  0.00000000000E+00  0.00000000000E+00  0.12999816924E+04  0.35808494775E+04  0.33365447067E+04 0.  0.
        5    1    3    3  502    0  0.78421283695E+03  0.14642745458E+04  0.48365602511E+03  0.17300390052E+04  0.46999998093E+01 0. -1.
       -5    1    3    3    0  502 -0.78421283695E+03 -0.14642745458E+04  0.81632566728E+03  0.18508104722E+04  0.46999998093E+01 0.  1.
</event>
<event>
 5   0  0.8705956E-07  0.3273061E+04  0.7818609E-02  0.8169784E-01
        1   -1    0    0  501    0  0.00000000000E+00  0.00000000000E+00  0.21641727918E+04  0.21641727918E+04  0.50400001928E-02 0.  1.
       -1   -1    0    0    0  501  0.00000000000E+00  0.00000000000E+00 -0.12375316920E+04  0.12375316920E+04  0.50400001928E-02 0. -1.
    10030    2    1    2    0    0  0.00000000000E+00  0.00000000000E+00  0.92664109980E+03  0.34017044838E+04  0.32730612073E+04 0.  0.
        2    1    3    3  502    0  0.28732765241E+03 -0.31584335143E+03  0.21052618648E+04  0.21481251643E+04  0.25500000920E-02 0.  1.
       -2    1    3    3    0  502 -0.28732765241E+03  0.31584335143E+03 -0.11786207650E+04  0.12535793194E+04  0.25500000920E-02 0. -1.
</event>
<event>
 5   0  0.9530268E-07  0.3288379E+04  0.7818609E-02  0.8165859E-01
        1   -1    0    0  501    0  0.00000000000E+00  0.00000000000E+00  0.14823707120E+04  0.14823707120E+04  0.50400001928E-02 0. -1.
       -1   -1    0    0    0  501  0.00000000000E+00  0.00000000000E+00 -0.18236726834E+04  0.18236726834E+04  0.50400001928E-02 0.  1.
    10030    2    1    2    0    0  0.00000000000E+00  0.00000000000E+00 -0.34130197142E+03  0.33060433953E+04  0.32883789161E+04 0.  0.
        5    1    3    3  502    0 -0.14951661377E+04 -0.16111899272E+03 -0.83894406325E+03  0.17220134554E+04  0.46999998093E+01 0.  1.
       -5    1    3    3    0  502  0.14951661377E+04  0.16111899272E+03  0.49764209183E+03  0.15840299400E+04  0.46999998093E+01 0. -1.
</event>
<event>
 5   0  0.8705956E-07  0.3270202E+04  0.7818609E-02  0.8170519E-01
        1   -1    0    0  501    0  0.00000000000E+00  0.00000000000E+00  0.24821200292E+04  0.24821200292E+04  0.50400001928E-02 0.  1.
       -1   -1    0    0    0  501  0.00000000000E+00  0.00000000000E+00 -0.10771259043E+04  0.10771259043E+04  0.50400001928E-02 0. -1.
    10030    2    1    2    0    0  0.00000000000E+00  0.00000000000E+00  0.14049941249E+04  0.35592459334E+04  0.32702023062E+04 0.  0.
        2    1    3    3  502    0 -0.69784907937E+02  0.12395203192E+04  0.18606325770E+04  0.22367910366E+04  0.25500000920E-02 0.  1.
       -2    1    3    3    0  502  0.69784907937E+02 -0.12395203192E+04 -0.45563845209E+03  0.13224548968E+04  0.25500000920E-02 0. -1.
</event>
<event>
 5   0  0.9530268E-07  0.3320208E+04  0.7818609E-02  0.8157772E-01
       -1   -1    0    0    0  501  0.00000000000E+00  0.00000000000E+00  0.11637145472E+04  0.11637145472E+04  0.50400001928E-02 0. -1.
        1   -1    0    0  501    0  0.00000000000E+00  0.00000000000E+00 -0.23682316765E+04  0.23682316765E+04  0.50400001928E-02 0.  1.
    10030    2    1    2    0    0  0.00000000000E+00  0.00000000000E+00 -0.12045171293E+04  0.35319462237E+04  0.33202082182E+04 0.  0.
        5    1    3    3  502    0  0.11452631719E+04  0.29445301012E+03  0.63720452437E+03  0.13432728703E+04  0.46999998093E+01 0. -1.
       -5    1    3    3    0  502 -0.11452631719E+04 -0.29445301012E+03 -0.18417216537E+04  0.21886733534E+04  0.46999998093E+01 0.  1.
</event>
<event>
 5   0  0.8705956E-07  0.2527304E+04  0.7818609E-02  0.8393323E-01
       -1   -1    0    0    0  501  0.00000000000E+00  0.00000000000E+00  0.96091782131E+03  0.96091782132E+03  0.50400001928E-02 0. -1.
        1   -1    0    0  501    0  0.00000000000E+00  0.00000000000E+00 -0.16617609985E+04  0.16617609985E+04  0.50400001928E-02 0.  1.
    10030    2    1    2    0    0  0.00000000000E+00  0.00000000000E+00 -0.70084317718E+03  0.26226788198E+04  0.25273035103E+04 0.  0.
        2    1    3    3  502    0  0.36937058954E+03 -0.11560559111E+04  0.14879654014E+02  0.12137220877E+04  0.25500000920E-02 0.  1.
       -2    1    3    3    0  502 -0.36937058954E+03  0.11560559111E+04 -0.71572283119E+03  0.14089567322E+04  0.25500000920E-02 0. -1.
</event>
<event>
 5   0  0.2674551E-06  0.3289592E+04  0.7818609E-02  0.8165549E-01
       -2   -1    0    0    0  501  0.00000000000E+00  0.00000000000E+00  0.12717962840E+04  0.12717962840E+04  0.25500000920E-02 0.  1.
        2   -1    0    0  501    0  0.00000000000E+00  0.00000000000E+00 -0.21271909041E+04  0.21271909041E+04  0.25500000920E-02 0. -1.
    10030    2    1    2    0    0  0.00000000000E+00  0.00000000000E+00 -0.85539462003E+03  0.33989871881E+04  0.32895917602E+04 0.  0.
        3    1    3    3  502    0  0.37108681261E+02  0.86497519105E+02 -0.21244060621E+04  0.21264900662E+04  0.10100000352E+00 0. -1.
       -3    1    3    3    0  502 -0.37108681261E+02 -0.86497519105E+02  0.12690114420E+04  0.12724971219E+04  0.10100000352E+00 0.  1.
</event>
<event>
 5   0  0.2614212E-06  0.2502601E+04  0.7818609E-02  0.8402060E-01
       -2   -1    0    0    0  501  0.00000000000E+00  0.00000000000E+00  0.96065734866E+03  0.96065734866E+03  0.25500000920E-02 0. -1.
        2   -1    0    0  501    0  0.00000000000E+00  0.00000000000E+00 -0.16298764731E+04  0.16298764731E+04  0.25500000920E-02 0.  1.
    10030    2    1    2    0    0  0.00000000000E+00  0.00000000000E+00 -0.66921912444E+03  0.25905338218E+04  0.25026008961E+04 0.  0.
        2    1    3    3  502    0  0.10583238903E+04 -0.63676868849E+03 -0.12699049033E+03  0.12416321533E+04  0.25500000920E-02 0. -1.
       -2    1    3    3    0  502 -0.10583238903E+04  0.63676868849E+03 -0.54222863411E+03  0.13489016685E+04  0.25500000920E-02 0.  1.
</event>
<event>
 5   0  0.2705859E-06  0.3312002E+04  0.7818609E-02  0.8159848E-01
       -2   -1    0    0    0  501  0.00000000000E+00  0.00000000000E+00  0.11671581572E+04  0.11671581572E+04  0.25500000920E-02 0. -1.
        2   -1    0    0  501    0  0.00000000000E+00  0.00000000000E+00 -0.23495868300E+04  0.23495868300E+04  0.25500000920E-02 0.  1.
    10030    2    1    2    0    0  0.00000000000E+00  0.00000000000E+00 -0.11824286728E+04  0.35167449872E+04  0.33120020741E+04 0.  0.
        1    1    3    3  502    0  0.56543408043E+03 -0.70949851607E+03  0.87979158650E+03  0.12637788886E+04  0.50400001928E-02 0. -1.
       -1    1    3    3    0  502 -0.56543408043E+03  0.70949851607E+03 -0.20622202593E+04  0.22529660986E+04  0.50400001928E-02 0.  1.
</event>
<event>
 5   0  0.8705956E-07  0.3312108E+04  0.7818609E-02  0.8159821E-01
       -1   -1    0    0    0  501  0.00000000000E+00  0.00000000000E+00  0.91709749425E+03  0.91709749426E+03  0.50400001928E-02 0. -1.
        1   -1    0    0  501    0  0.00000000000E+00  0.00000000000E+00 -0.29904292020E+04  0.29904292020E+04  0.50400001928E-02 0.  1.
    10030    2    1    2    0    0  0.00000000000E+00  0.00000000000E+00 -0.20733317078E+04  0.39075266963E+04  0.33121081673E+04 0.  0.
        2    1    3    3  502    0 -0.11426152665E+04 -0.11901100227E+04 -0.12059273839E+04  0.20435734312E+04  0.25500000920E-02 0. -1.
       -2    1    3    3    0  502  0.11426152665E+04  0.11901100227E+04 -0.86740432392E+03  0.18639532651E+04  0.25500000920E-02 0.  1.
</event>
<event>
 5   0  0.2574803E-06  0.3312813E+04  0.7818609E-02  0.8159643E-01
       -2   -1    0    0    0  501  0.00000000000E+00  0.00000000000E+00  0.13380060486E+04  0.13380060486E+04  0.25500000920E-02 0. -1.
        2   -1    0    0  501    0  0.00000000000E+00  0.00000000000E+00 -0.20505756621E+04  0.20505756621E+04  0.25500000920E-02 0.  1.
    10030    2    1    2    0    0  0.00000000000E+00  0.00000000000E+00 -0.71256961349E+03  0.33885817107E+04  0.33128130880E+04 0.  0.
        4    1    3    3  502    0  0.56933551192E+03 -0.89408693950E+03 -0.16582464572E+04  0.19680745174E+04  0.12699999809E+01 0.  1.
       -4    1    3    3    0  502 -0.56933551192E+03  0.89408693950E+03  0.94567684371E+03  0.14205071933E+04  0.12699999809E+01 0. -1.
</event>
<event>
 5   0  0.8845526E-07  0.3263712E+04  0.7818609E-02  0.8172191E-01
        1   -1    0    0  501    0  0.00000000000E+00  0.00000000000E+00  0.16430339371E+04  0.16430339371E+04  0.50400001928E-02 0.  1.
       -1   -1    0    0    0  501  0.00000000000E+00  0.00000000000E+00 -0.16207538087E+04  0.16207538087E+04  0.50400001928E-02 0. -1.
    10030    2    1    2    0    0  0.00000000000E+00  0.00000000000E+00  0.22280128405E+02  0.32637877459E+04  0.32637116977E+04 0.  0.
        1    1    3    3  502    0 -0.15939300137E+04 -0.81710072474E+02 -0.32896209276E+03  0.16295721779E+04  0.50400001928E-02 0. -1.
       -1    1    3    3    0  502  0.15939300137E+04  0.81710072474E+02  0.35124222117E+03  0.16342155679E+04  0.50400001928E-02 0.  1.
</event>
<event>
 5   0  0.9295663E-07  0.3131085E+04  0.7818609E-02  0.8207258E-01
        1   -1    0    0  501    0  0.00000000000E+00  0.00000000000E+00  0.22139136334E+04  0.22139136334E+04  0.50400001928E-02 0.  1.
       -1   -1    0    0    0  501  0.00000000000E+00  0.00000000000E+00 -0.11070543998E+04  0.11070543998E+04  0.50400001928E-02 0. -1.
    10030    2    1    2    0    0  0.00000000000E+00  0.00000000000E+00  0.11068592336E+04  0.33209680332E+04  0.31310846866E+04 0.  0.
        4    1    3    3  502    0  0.11981004153E+04  0.10057621984E+04  0.61982809245E+03  0.16826142404E+04  0.12699999809E+01 0.  1.
       -4    1    3    3    0  502 -0.11981004153E+04 -0.10057621984E+04  0.48703114116E+03  0.16383537928E+04  0.12699999809E+01 0. -1.
</event>
<event>
 5   0  0.2674551E-06  0.3272780E+04  0.7818609E-02  0.8169856E-01
       -2   -1    0    0    0  501  0.00000000000E+00  0.00000000000E+00  0.12043215100E+04  0.12043215100E+04  0.25500000920E-02 0.  1.
        2   -1    0    0  501    0  0.00000000000E+00  0.00000000000E+00 -0.22234691397E+04  0.22234691397E+04  0.25500000920E-02 0. -1.
    10030    2    1    2    0    0  0.00000000000E+00  0.00000000000E+00 -0.10191476297E+04  0.34277906498E+04  0.32727796821E+04 0.  0.
        3    1    3    3  502    0  0.48526028983E+03 -0.15324015566E+04 -0.83075711565E+03  0.18093892547E+04  0.10100000352E+00 0. -1.
       -3    1    3    3    0  502 -0.48526028983E+03  0.15324015566E+04 -0.18839051402E+03  0.16184013951E+04  0.10100000352E+00 0.  1.
</event>
<event>
 5   0  0.9530268E-07  0.3755265E+04  0.7818609E-02  0.8055823E-01
        1   -1    0    0  501    0  0.00000000000E+00  0.00000000000E+00  0.19544073635E+04  0.19544073635E+04  0.50400001928E-02 0. -1.
       -1   -1    0    0    0  501  0.00000000000E+00  0.00000000000E+00 -0.18038740556E+04  0.18038740556E+04  0.50400001928E-02 0.  1.
    10030    2    1    2    0    0  0.00000000000E+00  0.00000000000E+00  0.15053330793E+03  0.37582814192E+04  0.37552654965E+04 0.  0.
        5    1    3    3  502    0 -0.17449064343E+04  0.32054359814E+03  0.69060675809E+03  0.19037873954E+04  0.46999998093E+01 0. -1.
       -5    1    3    3    0  502  0.17449064343E+04 -0.32054359814E+03 -0.54007345016E+03  0.18544940238E+04  0.46999998093E+01 0.  1.
</event>
<event>
 5   0  0.2674551E-06  0.3315712E+04  0.7818609E-02  0.8158909E-01
       -2   -1    0    0    0  501  0.00000000000E+00  0.00000000000E+00  0.14491279850E+04  0.14491279851E+04  0.25500000920E-02 0.  1.
        2   -1    0    0  501    0  0.00000000000E+00  0.00000000000E+00 -0.18966482799E+04  0.18966482799E+04  0.25500000920E-02 0. -1.
    10030    2    1    2    0    0  0.00000000000E+00  0.00000000000E+00 -0.44752029483E+03  0.33457762649E+04  0.33157117487E+04 0.  0.
        3    1    3    3  502    0 -0.13197112238E+04 -0.40960124977E+03 -0.11480763548E+04  0.17965217017E+04  0.10100000352E+00 0. -1.
       -3    1    3    3    0  502  0.13197112238E+04  0.40960124977E+03  0.70055605999E+03  0.15492545632E+04  0.10100000352E+00 0.  1.
</event>
<event>
 5   0  0.9295663E-07  0.3234149E+04  0.7818609E-02  0.8179856E-01
       -1   -1    0    0    0  501  0.00000000000E+00  0.00000000000E+00  0.20060264014E+04  0.20060264014E+04  0.50400001928E-02 0.  1.
        1   -1    0    0  501    0  0.00000000000E+00  0.00000000000E+00 -0.13035373796E+04  0.13035373796E+04  0.50400001928E-02 0. -1.
    10030    2    1    2    0    0  0.00000000000E+00  0.00000000000E+00  0.70248902173E+03  0.33095637810E+04  0.32341492846E+04 0.  0.
        4    1    3    3  502    0 -0.11468187855E+04  0.96606149641E+03 -0.26823131446E+03  0.15232917621E+04  0.12699999809E+01 0. -1.
       -4    1    3    3    0  502  0.11468187855E+04 -0.96606149641E+03  0.97072033619E+03  0.17862720189E+04  0.12699999809E+01 0.  1.
</event>
<event>
 5   0  0.9530268E-07  0.3300661E+04  0.7818609E-02  0.8162727E-01
        1   -1    0    0  501    0  0.00000000000E+00  0.00000000000E+00  0.96589443379E+03  0.96589443380E+03  0.50400001928E-02 0. -1.
       -1   -1    0    0    0  501  0.00000000000E+00  0.00000000000E+00 -0.28197594523E+04  0.28197594524E+04  0.50400001928E-02 0.  1.
    10030    2    1    2    0    0  0.00000000000E+00  0.00000000000E+00 -0.18538650186E+04  0.37856538862E+04  0.33006605155E+04 0.  0.
        5    1    3    3  502    0  0.10152152315E+03  0.14915781042E+04 -0.17285234038E+04  0.22853724222E+04  0.46999998093E+01 0.  1.
       -5    1    3    3    0  502 -0.10152152315E+03 -0.14915781042E+04 -0.12534161473E+03  0.15002814639E+04  0.46999998093E+01 0. -1.
</event>
<event>
 5   0  0.2658600E-06  0.3348363E+04  0.7818609E-02  0.8150697E-01
        2   -1    0    0  501    0  0.00000000000E+00  0.00000000000E+00  0.27455846137E+04  0.27455846137E+04  0.25500000920E-02 0.  1.
       -2   -1    0    0    0  501  0.00000000000E+00  0.00000000000E+00 -0.10208693149E+04  0.10208693149E+04  0.25500000920E-02 0. -1.
    10030    2    1    2    0    0  0.00000000000E+00  0.00000000000E+00  0.17247152988E+04  0.37664539286E+04  0.33483626348E+04 0.  0.
        5    1    3    3  502    0  0.33820800998E+03 -0.16115114670E+04  0.12026307616E+04  0.20390430856E+04  0.46999998093E+01 0.  1.
       -5    1    3    3    0  502 -0.33820800998E+03  0.16115114670E+04  0.52208453723E+03  0.17274108430E+04  0.46999998093E+01 0. -1.
</event>
<event>
 5   0  0.8845526E-07  0.3363750E+04  0.7818609E-02  0.8146861E-01
        1   -1    0    0  501    0  0.00000000000E+00  0.00000000000E+00  0.23726414166E+04  0.23726414166E+04  0.50400001928E-02 0. -1.
       -1   -1    0    0    0  501  0.00000000000E+00  0.00000000000E+00 -0.11922170373E+04  0.11922170373E+04  0.50400001928E-02 0.  1.
    10030    2    1    2    0    0  0.00000000000E+00  0.00000000000E+00  0.11804243793E+04  0.35648584539E+04  0.33637500028E+04 0.  0.
        1    1    3    3  502    0  0.23460265938E+03 -0.10710298771E+04 -0.76140478913E+03  0.13348710269E+04  0.50400001928E-02 0.  1.
       -1    1    3    3    0  502 -0.23460265938E+03  0.10710298771E+04  0.19418291684E+04  0.22299874270E+04  0.50400001928E-02 0. -1.
</event>
<event>
 5   0  0.2658600E-06  0.2605316E+04  0.7818609E-02  0.8366398E-01
       -2   -1    0    0    0  501  0.00000000000E+00  0.00000000000E+00  0.11577031615E+04  0.11577031615E+04  0.25500000920E-02 0.  1.
        2   -1    0    0  501    0  0.00000000000E+00  0.00000000000E+00 -0.14657619951E+04  0.14657619951E+04  0.25500000920E-02 0. -1.
    10030    2    1    2    0    0  0.00000000000E+00  0.00000000000E+00 -0.30805883358E+03  0.26234651567E+04  0.26053155631E+04 0.  0.
        5    1    3    3  502    0 -0.50210966246E+03  0.11502891110E+04  0.19713493336E+03  0.12704973137E+04  0.46999998093E+01 0. -1.
       -5    1    3    3    0  502  0.50210966246E+03 -0.11502891110E+04 -0.50519376694E+03  0.13529678430E+04  0.46999998093E+01 0.  1.
</event>
<event>
 5   0  0.8705956E-07  0.3344706E+04  0.7818609E-02  0.8151612E-01
        1   -1    0    0  501    0  0.00000000000E+00  0.00000000000E+00  0.14086439210E+04  0.14086439210E+04  0.50400001928E-02 0.  1.
       -1   -1    0    0    0  501  0.00000000000E+00  0.00000000000E+00 -0.19854307677E+04  0.19854307677E+04  0.50400001928E-02 0. -1.
    10030    2    1    2    0    0  0.00000000000E+00  0.00000000000E+00 -0.57678684673E+03  0.33940746887E+04  0.33447062541E+04 0.  0.
        2    1    3    3  502    0  0.12664242280E+04  0.26048959136E+03  0.78796045996E+03  0.15141224650E+04  0.25500000920E-02 0.  1.
       -2    1    3    3    0  502 -0.12664242280E+04 -0.26048959136E+03 -0.13647473067E+04  0.18799522237E+04  0.25500000920E-02 0. -1.
</event>
<event>
 5   0  0.9268670E-07  0.3313102E+04  0.7818609E-02  0.8159570E-01
       -1   -1    0    0    0  501  0.00000000000E+00  0.00000000000E+00  0.14675287726E+04  0.14675287726E+04  0.50400001928E-02 0.  1.
        1   -1    0    0  501    0  0.00000000000E+00  0.00000000000E+00 -0.18699197718E+04  0.18699197718E+04  0.50400001928E-02 0. -1.
    10030    2    1    2    0    0  0.00000000000E+00  0.00000000000E+00 -0.40239099917E+03  0.33374485444E+04  0.33131019107E+04 0.  0.
        3    1    3    3  502    0 -0.26647460409E+03  0.85669578664E+03  0.12015983323E+04  0.14995915937E+04  0.10100000352E+00 0.  1.
       -3    1    3    3    0  502  0.26647460409E+03 -0.85669578664E+03 -0.16039893315E+04  0.18378569507E+04  0.10100000352E+00 0. -1.
</event>
<event>
 5   0  0.9530268E-07  0.3282217E+04  0.7818609E-02  0.8167435E-01
        1   -1    0    0  501    0  0.00000000000E+00  0.00000000000E+00  0.12825444586E+04  0.12825444586E+04  0.50400001928E-02 0. -1.
       -1   -1    0    0    0  501  0.00000000000E+00  0.00000000000E+00 -0.20999174295E+04  0.20999174295E+04  0.50400001928E-02 0.  1.
    10030    2    1    2    0    0  0.00000000000E+00  0.00000000000E+00 -0.81737297091E+03  0.33824618881E+04  0.32822172156E+04 0.  0.
        5    1    3    3  502    0  0.44656840519E+03  0.40355503513E+03  0.11646829469E+04  0.13110257296E+04  0.46999998093E+01 0. -1.
       -5    1    3    3    0  502 -0.44656840519E+03 -0.40355503513E+03 -0.19820559179E+04  0.20714361584E+04  0.46999998093E+01 0.  1.
</event>
<event>
 5   0  0.2614212E-06  0.3323919E+04  0.7818609E-02  0.8156836E-01
        2   -1    0    0  501    0  0.00000000000E+00  0.00000000000E+00  0.22448391534E+04  0.22448391534E+04  0.25500000920E-02 0. -1.
       -2   -1    0    0    0  501  0.00000000000E+00  0.00000000000E+00 -0.12304264880E+04  0.12304264880E+04  0.25500000920E-02 0.  1.
    10030    2    1    2    0    0  0.00000000000E+00  0.00000000000E+00  0.10144126655E+04  0.34752656414E+04  0.33239191059E+04 0.  0.
        2    1    3    3  502    0 -0.21710058595E+02 -0.68249331325E+03  0.20914007359E+04  0.22000512465E+04  0.25500000920E-02 0. -1.
       -2    1    3    3    0  502  0.21710058595E+02  0.68249331325E+03 -0.10769880704E+04  0.12752143949E+04  0.25500000920E-02 0.  1.
</event>
<event>
 5   0  0.2705859E-06  0.3321410E+04  0.7818609E-02  0.8157469E-01
       -2   -1    0    0    0  501  0.00000000000E+00  0.00000000000E+00  0.93857331453E+03  0.93857331453E+03  0.25500000920E-02 0. -1.
        2   -1    0    0  501    0  0.00000000000E+00  0.00000000000E+00 -0.29384393855E+04  0.29384393855E+04  0.25500000920E-02 0.  1.
    10030    2    1    2    0    0  0.00000000000E+00  0.00000000000E+00 -0.19998660710E+04  0.38770127001E+04  0.33214098173E+04 0.  0.
        1    1    3    3  502    0 -0.61200547282E+03  0.48860662356E+03  0.70950492108E+03  0.10567328728E+04  0.50400001928E-02 0. -1.
       -1    1    3    3    0  502  0.61200547282E+03 -0.48860662356E+03 -0.27093709921E+04  0.28202798273E+04  0.50400001928E-02 0.  1.
</event>
<event>
 5   0  0.8845526E-07  0.3257908E+04  0.7818609E-02  0.8173689E-01
        1   -1    0    0  501    0  0.00000000000E+00  0.00000000000E+00  0.11804320649E+04  0.11804320649E+04  0.50400001928E-02 0.  1.
       -1   -1    0    0    0  501  0.00000000000E+00  0.00000000000E+00 -0.22478981951E+04  0.22478981951E+04  0.50400001928E-02 0. -1.
    10030    2    1    2    0    0  0.00000000000E+00  0.00000000000E+00 -0.10674661302E+04  0.34283302600E+04  0.32579079841E+04 0.  0.
        1    1    3    3  502    0  0.10609020929E+04  0.21341412277E+03  0.74750923399E+03  0.13152295972E+04  0.50400001928E-02 0.  1.
       -1    1    3    3    0  502 -0.10609020929E+04 -0.21341412277E+03 -0.18149753642E+04  0.21131006628E+04  0.50400001928E-02 0. -1.
</event>
<event>
 5   0  0.9268670E-07  0.3328290E+04  0.7818609E-02  0.8155734E-01
        1   -1    0    0  501    0  0.00000000000E+00  0.00000000000E+00  0.19842844852E+04  0.19842844852E+04  0.50400001928E-02 0.  1.
       -1   -1    0    0    0  501  0.00000000000E+00  0.00000000000E+00 -0.13956557186E+04  0.13956557186E+04  0.50400001928E-02 0. -1.
    10030    2    1    2    0    0  0.00000000000E+00  0.00000000000E+00  0.58862876657E+03  0.33799402038E+04  0.33282896443E+04 0.  0.
        3    1    3    3  502    0  0.89978347642E+03 -0.91235342097E+03 -0.78394403210E+03  0.15021875132E+04  0.10100000352E+00 0. -1.
       -3    1    3    3    0  502 -0.89978347642E+03  0.91235342097E+03  0.13725727987E+04  0.18777526906E+04  0.10100000352E+00 0.  1.
</event>
<event>
 5   0  0.9268670E-07  0.3256661E+04  0.7818609E-02  0.8174011E-01
        1   -1    0    0  501    0  0.00000000000E+00  0.00000000000E+00  0.12615351110E+04  0.12615351110E+04  0.50400001928E-02 0. -1.
       -1   -1    0    0    0  501  0.00000000000E+00  0.00000000000E+00 -0.21017722583E+04  0.21017722584E+04  0.50400001928E-02 0.  1.
    10030    2    1    2    0    0  0.00000000000E+00  0.00000000000E+00 -0.84023714736E+03  0.33633073694E+04  0.32566605591E+04 0.  0.
        3    1    3    3  502    0  0.13192275524E+04  0.31263835991E+03 -0.13515143072E+04  0.19143393147E+04  0.10100000352E+00 0.  1.
       -3    1    3    3    0  502 -0.13192275524E+04 -0.31263835991E+03  0.51127715984E+03  0.14489680547E+04  0.10100000352E+00 0. -1.
</event>
<event>
 5   0  0.8705956E-07  0.3314537E+04  0.7818609E-02  0.8159206E-01
        1   -1    0    0  501    0  0.00000000000E+00  0.00000000000E+00  0.19169984500E+04  0.19169984500E+04  0.50400001928E-02 0.  1.
       -1   -1    0    0    0  501  0.00000000000E+00  0.00000000000E+00 -0.14327291626E+04  0.14327291626E+04  0.50400001928E-02 0. -1.
    10030    2    1    2    0    0  0.00000000000E+00  0.00000000000E+00  0.48426928743E+03  0.33497276127E+04  0.33145374242E+04 0.  0.
        2    1    3    3  502    0 -0.11083889074E+04 -0.36016751397E+03  0.14329025733E+04  0.18470128296E+04  0.25500000920E-02 0.  1.
       -2    1    3    3    0  502  0.11083889074E+04  0.36016751397E+03 -0.94863328584E+03  0.15027147831E+04  0.25500000920E-02 0. -1.
</event>
<event>
 5   0  0.2705859E-06  0.3135355E+04  0.7818609E-02  0.8206102E-01
        2   -1    0    0  501    0  0.00000000000E+00  0.00000000000E+00  0.10567371281E+04  0.10567371281E+04  0.25500000920E-02 0.  1.
       -2   -1    0    0    0  501  0.00000000000E+00  0.00000000000E+00 -0.23256611140E+04  0.23256611140E+04  0.25500000920E-02 0. -1.
    10030    2    1    2    0    0  0.00000000000E+00  0.00000000000E+00 -0.12689239859E+04  0.33823982421E+04  0.31353548102E+04 0.  0.
        1    1    3    3  502    0 -0.42278506921E+03 -0.47216162247E+03 -0.21812901286E+04  0.22714996010E+04  0.50400001928E-02 0. -1.
       -1    1    3    3    0  502  0.42278506921E+03  0.47216162247E+03  0.91236614261E+03  0.11108986411E+04  0.50400001928E-02 0.  1.
</event>
<event>
 5   0  0.2674551E-06  0.3345771E+04  0.7818609E-02  0.8151346E-01
       -2   -1    0    0    0  501  0.00000000000E+00  0.00000000000E+00  0.16278968851E+04  0.16278968851E+04  0.25500000920E-02 0.  1.
        2   -1    0    0  501    0  0.00000000000E+00  0.00000000000E+00 -0.17191175257E+04  0.17191175257E+04  0.25500000920E-02 0. -1.
    10030    2    1    2    0    0  0.00000000000E+00  0.00000000000E+00 -0.91220640610E+02  0.33470144108E+04  0.33457711011E+04 0.  0.
        3    1    3    3  502    0 -0.11846855077E+04 -0.11092457883E+04  0.36029911472E+03  0.16624444151E+04  0.10100000352E+00 0.  1.
       -3    1    3    3    0  502  0.11846855077E+04  0.11092457883E+04 -0.45151975533E+03  0.16845699957E+04  0.10100000352E+00 0. -1.
</event>
<event>
 5   0  0.9268670E-07  0.3273808E+04  0.7818609E-02  0.8169592E-01
       -1   -1    0    0    0  501  0.00000000000E+00  0.00000000000E+00  0.19414931553E+04  0.19414931553E+04  0.50400001928E-02 0. -1.
        1   -1    0    0  501    0  0.00000000000E+00  0.00000000000E+00 -0.13801001764E+04  0.13801001764E+04  0.50400001928E-02 0.  1.
    10030    2    1    2    0    0  0.00000000000E+00  0.00000000000E+00  0.56139297899E+03  0.33215933317E+04  0.32738082083E+04 0.  0.
        3    1    3    3  502    0  0.13656098623E+04 -0.52184154332E+03 -0.46642540347E+03  0.15345232352E+04  0.10100000352E+00 0.  1.
       -3    1    3    3    0  502 -0.13656098623E+04  0.52184154332E+03  0.10278183825E+04  0.17870700965E+04  0.10100000352E+00 0. -1.
</event>
<event>
 5   0  0.2574803E-06  0.2952943E+04  0.7818609E-02  0.8257297E-01
       -2   -1    0    0    0  501  0.00000000000E+00  0.00000000000E+00  0.11543383788E+04  0.11543383789E+04  0.25500000920E-02 0. -1.
        2   -1    0    0  501    0  0.00000000000E+00  0.00000000000E+00 -0.18884998190E+04  0.18884998190E+04  0.25500000920E-02 0.  1.
    10030    2    1    2    0    0  0.00000000000E+00  0.00000000000E+00 -0.73416144014E+03  0.30428381978E+04  0.29529428166E+04 0.  0.
        4    1    3    3  502    0  0.32989951130E+03  0.68447594380E+03 -0.16715678730E+04  0.18361595171E+04  0.12699999809E+01 0.  1.
       -4    1    3    3    0  502 -0.32989951130E+03 -0.68447594380E+03  0.93740643289E+03  0.12066786807E+04  0.12699999809E+01 0. -1.
</event>
<event>
 5   0  0.9268670E-07  0.3286335E+04  0.7818609E-02  0.8166381E-01
       -1   -1    0    0    0  501  0.00000000000E+00  0.00000000000E+00  0.16902112912E+04  0.16902112912E+04  0.50400001928E-02 0. -1.
        1   -1    0    0  501    0  0.00000000000E+00  0.00000000000E+00 -0.15974332034E+04  0.15974332034E+04  0.50400001928E-02 0.  1.
    10030    2    1    2    0    0  0.00000000000E+00  0.00000000000E+00  0.92778087782E+02  0.32876444946E+04  0.32863351243E+04 0.  0.
        3    1    3    3  502    0 -0.92522710909E+02 -0.16401417975E+04  0.93059717560E+01  0.16427757544E+04  0.10100000352E+00 0. -1.
       -3    1    3    3    0  502  0.92522710909E+02  0.16401417975E+04  0.83472116026E+02  0.16448687402E+04  0.10100000352E+00 0.  1.
</event>
<event>
 5   0  0.9268670E-07  0.3197546E+04  0.7818609E-02  0.8189466E-01
        1   -1    0    0  501    0  0.00000000000E+00  0.00000000000E+00  0.17458788216E+04  0.17458788216E+04  0.50400001928E-02 0. -1.
       -1   -1    0    0    0  501  0.00000000000E+00  0.00000000000E+00 -0.14640622492E+04  0.14640622492E+04  0.50400001928E-02 0.  1.
    10030    2    1    2    0    0  0.00000000000E+00  0.00000000000E+00  0.28181657240E+03  0.32099410707E+04  0.31975461056E+04 0.  0.
        3    1    3    3  502    0 -0.96190176200E+03  0.30463067367E+03 -0.11040686173E+04  0.14956678672E+04  0.10100000352E+00 0.  1.
       -3    1    3    3    0  502  0.96190176200E+03 -0.30463067367E+03  0.13858851897E+04  0.17142732035E+04  0.10100000352E+00 0. -1.
</event>
<event>
 5   0  0.2658600E-06  0.3296946E+04  0.7818609E-02  0.8163673E-01
       -2   -1    0    0    0  501  0.00000000000E+00  0.00000000000E+00  0.14896629801E+04  0.14896629801E+04  0.25500000920E-02 0. -1.
        2   -1    0    0  501    0  0.00000000000E+00  0.00000000000E+00 -0.18242136404E+04  0.18242136404E+04  0.25500000920E-02 0.  1.
    10030    2    1    2    0    0  0.00000000000E+00  0.00000000000E+00 -0.33455066032E+03  0.33138766205E+04  0.32969461797E+04 0.  0.
        5    1    3    3  502    0  0.55278810231E+03  0.10611219755E+04  0.97251735177E+03  0.15418711433E+04  0.46999998093E+01 0. -1.
       -5    1    3    3    0  502 -0.55278810231E+03 -0.10611219755E+04 -0.13070680121E+04  0.17720054772E+04  0.46999998093E+01 0.  1.
</event>
<event>
 5   0  0.9295663E-07  0.3231732E+04  0.7818609E-02  0.8180487E-01
        1   -1    0    0  501    0  0.00000000000E+00  0.00000000000E+00  0.22735014678E+04  0.22735014678E+04  0.50400001928E-02 0.  1.
       -1   -1    0    0    0  501  0.00000000000E+00  0.00000000000E+00 -0.11484587260E+04  0.11484587260E+04  0.50400001928E-02 0. -1.
    10030    2    1    2    0    0  0.00000000000E+00  0.00000000000E+00  0.11250427418E+04  0.34219601937E+04  0.32317317953E+04 0.  0.
        4    1    3    3  502    0 -0.25681120296E+03 -0.42198522383E+03 -0.10665440993E+04  0.11753899148E+04  0.12699999809E+01 0. -1.
       -4    1    3    3    0  502  0.25681120296E+03  0.42198522383E+03  0.21915868411E+04  0.22465702789E+04  0.12699999809E+01 0.  1.
</event>
<event>
 5   0  0.9268670E-07  0.3246405E+04  0.7818609E-02  0.8176668E-01
        1   -1    0    0  501    0  0.00000000000E+00  0.00000000000E+00  0.24888311731E+04  0.24888311731E+04  0.50400001928E-02 0.  1.
       -1   -1    0    0    0  501  0.00000000000E+00  0.00000000000E+00 -0.10586443156E+04  0.10586443156E+04  0.50400001928E-02 0. -1.
    10030    2    1    2    0    0  0.00000000000E+00  0.00000000000E+00  0.14301868575E+04  0.35474754887E+04  0.32464053807E+04 0.  0.
        3    1    3    3  502    0 -0.94421001162E+03  0.10842675427E+04 -0.10818143058E+03  0.14418293527E+04  0.10100000352E+00 0.  1.
       -3    1    3    3    0  502  0.94421001162E+03 -0.10842675427E+04  0.15383682880E+04  0.21056461360E+04  0.10100000352E+00 0. -1.
</event>
<event>
 5   0  0.2614212E-06  0.3282073E+04  0.7818609E-02  0.8167472E-01
        2   -1    0    0  501    0  0.00000000000E+00  0.00000000000E+00  0.31231337088E+04  0.31231337088E+04  0.25500000920E-02 0. -1.
       -2   -1    0    0    0  501  0.00000000000E+00  0.00000000000E+00 -0.86227527751E+03  0.86227527752E+03  0.25500000920E-02 0.  1.
    10030    2    1    2    0    0  0.00000000000E+00  0.00000000000E+00  0.22608584312E+04  0.39854089863E+04  0.32820731165E+04 0.  0.
        2    1    3    3  502    0 -0.23469206248E+03 -0.27311502949E+03  0.30745659331E+04  0.30955819906E+04  0.25500000920E-02 0. -1.
       -2    1    3    3    0  502  0.23469206248E+03  0.27311502949E+03 -0.81370750189E+03  0.88982699564E+03  0.25500000920E-02 0.  1.
</event>
<event>
 5   0  0.9295663E-07  0.2996175E+04  0.7818609E-02  0.8244824E-01
        1   -1    0    0  501    0  0.00000000000E+00  0.00000000000E+00  0.19180651736E+04  0.19180651736E+04  0.50400001928E-02 0.  1.
       -1   -1    0    0    0  501  0.00000000000E+00  0.00000000000E+00 -0.11700678941E+04  0.11700678941E+04  0.50400001928E-02 0. -1.
    10030    2    1    2    0    0  0.00000000000E+00  0.00000000000E+00  0.74799727955E+03  0.30881330677E+04  0.29961752141E+04 0.  0.
        4    1    3    3  502    0  0.52662716906E+02  0.68199633565E+03 -0.99971376404E+03  0.12113305026E+04  0.12699999809E+01 0. -1.
       -4    1    3    3    0  502 -0.52662716906E+02 -0.68199633565E+03  0.17477110436E+04  0.18768025651E+04  0.12699999809E+01 0.  1.
</event>
<event>
 5   0  0.2705859E-06  0.3297615E+04  0.7818609E-02  0.8163503E-01
       -2   -1    0    0    0  501  0.00000000000E+00  0.00000000000E+00  0.11732872813E+04  0.11732872813E+04  0.25500000920E-02 0. -1.
        2   -1    0    0  501    0  0.00000000000E+00  0.00000000000E+00 -0.23170506932E+04  0.23170506932E+04  0.25500000920E-02 0.  1.
    10030    2    1    2    0    0  0.00000000000E+00  0.00000000000E+00 -0.11437634119E+04  0.34903379745E+04  0.32976149614E+04 0.  0.
        1    1    3    3  502    0  0.86546811189E+03 -0.65627025332E+03  0.74111709275E+03  0.13149069333E+04  0.50400001928E-02 0. -1.
       -1    1    3    3    0  502 -0.86546811189E+03  0.65627025332E+03 -0.18848805046E+04  0.21754310412E+04  0.50400001928E-02 0.  1.
</event>
<event>
 5   0  0.8705956E-07  0.3284480E+04  0.7818609E-02  0.8166856E-01
        1   -1    0    0  501    0  0.00000000000E+00  0.00000000000E+00  0.17031377587E+04  0.17031377587E+04  0.50400001928E-02 0.  1.
       -1   -1    0    0    0  501  0.00000000000E+00  0.00000000000E+00 -0.15835194442E+04  0.15835194442E+04  0.50400001928E-02 0. -1.
    10030    2    1    2    0    0  0.00000000000E+00  0.00000000000E+00  0.11961831451E+03  0.32866572029E+04  0.32844797196E+04 0.  0.
        2    1    3    3  502    0 -0.12799521417E+04 -0.78059650267E+03  0.73058435371E+03  0.16677415516E+04  0.25500000920E-02 0.  1.
       -2    1    3    3    0  502  0.12799521417E+04  0.78059650267E+03 -0.61096603920E+03  0.16189156513E+04  0.25500000920E-02 0. -1.
</event>
<event>
 5   0  0.9295663E-07  0.3233486E+04  0.7818609E-02  0.8180029E-01
       -1   -1    0    0    0  501  0.00000000000E+00  0.00000000000E+00  0.13125106077E+04  0.13125106077E+04  0.50400001928E-02 0.  1.
        1   -1    0    0  501    0  0.00000000000E+00  0.00000000000E+00 -0.19914950092E+04  0.19914950092E+04  0.50400001928E-02 0. -1.
    10030    2    1    2    0    0  0.00000000000E+00  0.00000000000E+00 -0.67898440142E+03  0.33040056169E+04  0.32334862454E+04 0.  0.
        4    1    3    3  502    0 -0.60962131642E+03  0.13645320408E+04  0.29061767941E+03  0.15225130831E+04  0.12699999809E+01 0.  1.
       -4    1    3    3    0  502  0.60962131642E+03 -0.13645320408E+04 -0.96960208083E+03  0.17814925338E+04  0.12699999809E+01 0. -1.
</event>
<event>
 5   0  0.2674551E-06  0.3700660E+04  0.7818609E-02  0.8067816E-01
        2   -1    0    0  501    0  0.00000000000E+00  0.00000000000E+00  0.22193728875E+04  0.22193728875E+04  0.25500000920E-02 0. -1.
       -2   -1    0    0    0  501  0.00000000000E+00  0.00000000000E+00 -0.15426523389E+04  0.15426523389E+04  0.25500000920E-02 0.  1.
    10030    2    1    2    0    0  0.00000000000E+00  0.00000000000E+00  0.67672054857E+03  0.37620252264E+04  0.37006598200E+04 0.  0.
        3    1    3    3  502    0  0.10628220828E+04  0.32424077585E+03 -0.11656998992E+04  0.16104592903E+04  0.10100000352E+00 0.  1.
       -3    1    3    3    0  502 -0.10628220828E+04 -0.32424077585E+03  0.18424204478E+04  0.21515659361E+04  0.10100000352E+00 0. -1.
</event>
<event>
 5   0  0.9268670E-07  0.3287500E+04  0.7818609E-02  0.8166083E-01
        1   -1    0    0  501    0  0.00000000000E+00  0.00000000000E+00  0.91808009202E+03  0.91808009204E+03  0.50400001928E-02 0. -1.
       -1   -1    0    0    0  501  0.00000000000E+00  0.00000000000E+00 -0.29430048183E+04  0.29430048183E+04  0.50400001928E-02 0.  1.
    10030    2    1    2    0    0  0.00000000000E+00  0.00000000000E+00 -0.20249247263E+04  0.38610849104E+04  0.32875000438E+04 0.  0.
        3    1    3    3  502    0  0.10588898125E+04 -0.48587609912E+03  0.34941709701E+03  0.12163122693E+04  0.10100000352E+00 0. -1.
       -3    1    3    3    0  502 -0.10588898125E+04  0.48587609912E+03 -0.23743418233E+04  0.26447726410E+04  0.10100000352E+00 0.  1.
</event>
<event>
 5   0  0.2614212E-06  0.3251310E+04  0.7818609E-02  0.8175396E-01
       -2   -1    0    0    0  501  0.00000000000E+00  0.00000000000E+00  0.17078326345E+04  0.17078326345E+04  0.25500000920E-02 0. -1.
        2   -1    0    0  501    0  0.00000000000E+00  0.00000000000E+00 -0.15474312448E+04  0.15474312448E+04  0.25500000920E-02 0.  1.
    10030    2    1    2    0    0  0.00000000000E+00  0.00000000000E+00  0.16040138976E+03  0.32552638793E+04  0.32513096312E+04 0.  0.
        2    1    3    3  502    0  0.16640339017E+03  0.11744933860E+04 -0.10327396237E+04  0.15727923996E+04  0.25500000920E-02 0.  1.
       -2    1    3    3    0  502 -0.16640339017E+03 -0.11744933860E+04  0.11931410135E+04  0.16824714797E+04  0.25500000920E-02 0. -1.
</event>
<event>
 5   0  0.2674551E-06  0.3144094E+04  0.7818609E-02  0.8203740E-01
        2   -1    0    0  501    0  0.00000000000E+00  0.00000000000E+00  0.23247632655E+04  0.23247632655E+04  0.25500000920E-02 0. -1.
       -2   -1    0    0    0  501  0.00000000000E+00  0.00000000000E+00 -0.10630466068E+04  0.10630466068E+04  0.25500000920E-02 0.  1.
    10030    2    1    2    0    0  0.00000000000E+00  0.00000000000E+00  0.12617166587E+04  0.33878098723E+04  0.31440939560E+04 0.  0.
        3    1    3    3  502    0  0.14920246790E+04  0.17527829551E+03  0.13184933196E+03  0.15080598066E+04  0.10100000352E+00 0.  1.
       -3    1    3    3    0  502 -0.14920246790E+04 -0.17527829551E+03  0.11298673267E+04  0.18797500658E+04  0.10100000352E+00 0. -1.
</event>
<event>
 5   0  0.2614212E-06  0.3334939E+04  0.7818609E-02  0.8154062E-01
       -2   -1    0    0    0  501  0.00000000000E+00  0.00000000000E+00  0.10603833845E+04  0.10603833845E+04  0.25500000920E-02 0. -1.
        2   -1    0    0  501    0  0.00000000000E+00  0.00000000000E+00 -0.26221219554E+04  0.26221219554E+04  0.25500000920E-02 0.  1.
    10030    2    1    2    0    0  0.00000000000E+00  0.00000000000E+00 -0.15617385708E+04  0.36825053399E+04  0.33349390122E+04 0.  0.
        2    1    3    3  502    0 -0.76483400115E+02  0.55188600894E+03  0.95455755870E+03  0.11052637741E+04  0.25500000920E-02 0. -1.
       -2    1    3    3    0  502  0.76483400115E+02 -0.55188600894E+03 -0.25162961295E+04  0.25772415658E+04  0.25500000920E-02 0.  1.
</event>
<event>
 5   0  0.2614212E-06  0.2927551E+04  0.7818609E-02  0.8264727E-01
       -2   -1    0    0    0  501  0.00000000000E+00  0.00000000000E+00  0.99235168332E+03  0.99235168332E+03  0.25500000920E-02 0. -1.
        2   -1    0    0  501    0  0.00000000000E+00  0.00000000000E+00 -0.21591524907E+04  0.21591524907E+04  0.25500000920E-02 0.  1.
    10030    2    1    2    0    0  0.00000000000E+00  0.00000000000E+00 -0.11668008074E+04  0.31515041740E+04  0.29275509278E+04 0.  0.
        2    1    3    3  502    0 -0.93606517210E+03 -0.80647641567E+03 -0.14283086769E+04  0.18885676826E+04  0.25500000920E-02 0.  1.
       -2    1    3    3    0  502  0.93606517210E+03  0.80647641567E+03  0.26150786949E+03  0.12629364914E+04  0.25500000920E-02 0. -1.
</event>
<event>
 5   0  0.9530268E-07  0.3194922E+04  0.7818609E-02  0.8190159E-01
        1   -1    0    0  501    0  0.00000000000E+00  0.00000000000E+00  0.18506828232E+04  0.18506828232E+04  0.50400001928E-02 0. -1.
       -1   -1    0    0    0  501  0.00000000000E+00  0.00000000000E+00 -0.13788868773E+04  0.13788868773E+04  0.50400001928E-02 0.  1.
    10030    2    1    2    0    0  0.00000000000E+00  0.00000000000E+00  0.47179594585E+03  0.32295697005E+04  0.31949223834E+04 0.  0.
        5    1    3    3  502    0  0.40880567906E+03  0.13544179831E+04  0.98575793469E+03  0.17243291310E+04  0.46999998093E+01 0.  1.
       -5    1    3    3    0  502 -0.40880567906E+03 -0.13544179831E+04 -0.51396198885E+03  0.15052405695E+04  0.46999998093E+01 0. -1.
</event>
<event>
 5   0  0.8845526E-07  0.3311290E+04  0.7818609E-02  0.8160029E-01
        1   -1    0    0  501    0  0.00000000000E+00  0.00000000000E+00  0.15900964907E+04  0.15900964907E+04  0.50400001928E-02 0.  1.
       -1   -1    0    0    0  501  0.00000000000E+00  0.00000000000E+00 -0.17238959028E+04  0.17238959028E+04  0.50400001928E-02 0. -1.
    10030    2    1    2    0    0  0.00000000000E+00  0.00000000000E+00 -0.13379941208E+03  0.33139923935E+04  0.33112902774E+04 0.  0.
        1    1    3    3  502    0  0.85183357340E+03  0.25539779091E+02  0.13537261676E+04  0.15996397263E+04  0.50400001928E-02 0.  1.
       -1    1    3    3    0  502 -0.85183357340E+03 -0.25539779091E+02 -0.14875255797E+04  0.17143526672E+04  0.50400001928E-02 0. -1.
</event>
<event>
 5   0  0.2614212E-06  0.3281031E+04  0.7818609E-02  0.8167739E-01
       -2   -1    0    0    0  501  0.00000000000E+00  0.00000000000E+00  0.81906838963E+03  0.81906838963E+03  0.25500000920E-02 0. -1.
        2   -1    0    0  501    0  0.00000000000E+00  0.00000000000E+00 -0.32857944567E+04  0.32857944567E+04  0.25500000920E-02 0.  1.
    10030    2    1    2    0    0  0.00000000000E+00  0.00000000000E+00 -0.24667260671E+04  0.41048628463E+04  0.32810305541E+04 0.  0.
        2    1    3    3  502    0  0.10546755208E+04 -0.11525589787E+04 -0.18596051491E+04  0.24287576997E+04  0.25500000920E-02 0.  1.
       -2    1    3    3    0  502 -0.10546755208E+04  0.11525589787E+04 -0.60712091798E+03  0.16761051466E+04  0.25500000920E-02 0. -1.
</event>
<event>
 5   0  0.2614212E-06  0.3268706E+04  0.7818609E-02  0.8170904E-01
       -2   -1    0    0    0  501  0.00000000000E+00  0.00000000000E+00  0.14279911303E+04  0.14279911303E+04  0.25500000920E-02 0. -1.
        2   -1    0    0  501    0  0.00000000000E+00  0.00000000000E+00 -0.18705369004E+04  0.18705369004E+04  0.25500000920E-02 0.  1.
    10030    2    1    2    0    0  0.00000000000E+00  0.00000000000E+00 -0.44254577016E+03  0.32985280307E+04  0.32687062289E+04 0.  0.
        2    1    3    3  502    0 -0.12912566953E+04 -0.10012810305E+04 -0.18627873865E+03  0.16445690389E+04  0.25500000920E-02 0. -1.
       -2    1    3    3    0  502  0.12912566953E+04  0.10012810305E+04 -0.25626703151E+03  0.16539589918E+04  0.25500000920E-02 0.  1.
</event>
<event>
 5   0  0.2674551E-06  0.3266806E+04  0.7818609E-02  0.8171393E-01
        2   -1    0    0  501    0  0.00000000000E+00  0.00000000000E+00  0.22830830142E+04  0.22830830142E+04  0.25500000920E-02 0. -1.
       -2   -1    0    0    0  501  0.00000000000E+00  0.00000000000E+00 -0.11685974481E+04  0.11685974481E+04  0.25500000920E-02 0.  1.
    10030    2    1    2    0    0  0.00000000000E+00  0.00000000000E+00  0.11144855661E+04  0.34516804624E+04  0.32668057697E+04 0.  0.
        3    1    3    3  502    0 -0.23177128447E+03 -0.12440969683E+04 -0.53392036826E+03  0.13735232669E+04  0.10100000352E+00 0.  1.
       -3    1    3    3    0  502  0.23177128447E+03  0.12440969683E+04  0.16484059343E+04  0.20781571955E+04  0.10100000352E+00 0. -1.
</event>
<event>
 5   0  0.8705956E-07  0.3248271E+04  0.7818609E-02  0.8176184E-01
       -1   -1    0    0    0  501  0.00000000000E+00  0.00000000000E+00  0.13112046479E+04  0.13112046479E+04  0.50400001928E-02 0.  1.
        1   -1    0    0  501    0  0.00000000000E+00  0.00000000000E+00 -0.20117506254E+04  0.20117506254E+04  0.50400001928E-02 0. -1.
    10030    2    1    2    0    0  0.00000000000E+00  0.00000000000E+00 -0.70054597750E+03  0.33229552733E+04  0.32482713990E+04 0.  0.
        2    1    3    3  502    0  0.99999716678E+02  0.73796807754E+03  0.11262484251E+04  0.13501971492E+04  0.25500000920E-02 0.  1.
       -2    1    3    3    0  502 -0.99999716678E+02 -0.73796807754E+03 -0.18267944026E+04  0.19727581241E+04  0.25500000920E-02 0. -1.
</event>
<event>
 5   0  0.8845526E-07  0.3283338E+04  0.7818609E-02  0.8167148E-01
       -1   -1    0    0    0  501  0.00000000000E+00  0.00000000000E+00  0.87686688376E+03  0.87686688377E+03  0.50400001928E-02 0. -1.
        1   -1    0    0  501    0  0.00000000000E+00  0.00000000000E+00 -0.30735300284E+04  0.30735300284E+04  0.50400001928E-02 0.  1.
    10030    2    1    2    0    0  0.00000000000E+00  0.00000000000E+00 -0.21966631446E+04  0.39503969121E+04  0.32833377518E+04 0.  0.
        1    1    3    3  502    0  0.12595212617E+04  0.10115360001E+04 -0.74656718757E+03  0.17795958681E+04  0.50400001928E-02 0. -1.
       -1    1    3    3    0  502 -0.12595212617E+04 -0.10115360001E+04 -0.14500959570E+04  0.21708010440E+04  0.50400001928E-02 0.  1.
</event>
<event>
 5   0  0.2614212E-06  0.3304029E+04  0.7818609E-02  0.8161871E-01
       -2   -1    0    0    0  501  0.00000000000E+00  0.00000000000E+00  0.13066715737E+04  0.13066715737E+04  0.25500000920E-02 0.  1.
        2   -1    0    0  501    0  0.00000000000E+00  0.00000000000E+00 -0.20886290792E+04  0.20886290792E+04  0.25500000920E-02 0. -1.
    10030    2    1    2    0    0  0.00000000000E+00  0.00000000000E+00 -0.78195750548E+03  0.33953006529E+04  0.33040292044E+04 0.  0.
        2    1    3    3  502    0 -0.42197625513E+03  0.67449714272E+03 -0.18787792454E+04  0.20402994409E+04  0.25500000920E-02 0. -1.
       -2    1    3    3    0  502  0.42197625513E+03 -0.67449714272E+03  0.10968217399E+04  0.13550012120E+04  0.25500000920E-02 0.  1.
</event>
<event>
 5   0  0.2658600E-06  0.2629360E+04  0.7818609E-02  0.8358296E-01
        2   -1    0    0  501    0  0.00000000000E+00  0.00000000000E+00  0.21022610953E+04  0.21022610953E+04  0.25500000920E-02 0. -1.
       -2   -1    0    0    0  501  0.00000000000E+00  0.00000000000E+00 -0.82215453695E+03  0.82215453695E+03  0.25500000920E-02 0.  1.
    10030    2    1    2    0    0  0.00000000000E+00  0.00000000000E+00  0.12801065583E+04  0.29244156322E+04  0.26293599962E+04 0.  0.
        5    1    3    3  502    0  0.93600872160E+03  0.92171198012E+03  0.69780401720E+03  0.14874870882E+04  0.46999998093E+01 0. -1.
       -5    1    3    3    0  502 -0.93600872160E+03 -0.92171198012E+03  0.58230254114E+03  0.14369285440E+04  0.46999998093E+01 0.  1.
</event>
<event>
 5   0  0.8705956E-07  0.3308874E+04  0.7818609E-02  0.8160641E-01
       -1   -1    0    0    0  501  0.00000000000E+00  0.00000000000E+00  0.12095252711E+04  0.12095252712E+04  0.50400001928E-02 0.  1.
        1   -1    0    0  501    0  0.00000000000E+00  0.00000000000E+00 -0.22630044390E+04  0.22630044390E+04  0.50400001928E-02 0. -1.
    10030    2    1    2    0    0  0.00000000000E+00  0.00000000000E+00 -0.10534791678E+04  0.34725297101E+04  0.33088735592E+04 0.  0.
        2    1    3    3  502    0  0.15255657042E+04 -0.19253793843E+03 -0.11674599031E+04  0.19306434681E+04  0.25500000920E-02 0. -1.
       -2    1    3    3    0  502 -0.15255657042E+04  0.19253793843E+03  0.11398073526E+03  0.15418862421E+04  0.25500000920E-02 0.  1.
</event>
<event>
 5   0  0.9530268E-07  0.3300221E+04  0.7818609E-02  0.8162839E-01
       -1   -1    0    0    0  501  0.00000000000E+00  0.00000000000E+00  0.13484441893E+04  0.13484441893E+04  0.50400001928E-02 0. -1.
        1   -1    0    0  501    0  0.00000000000E+00  0.00000000000E+00 -0.20192640269E+04  0.20192640269E+04  0.50400001928E-02 0.  1.
    10030    2    1    2    0    0  0.00000000000E+00  0.00000000000E+00 -0.67081983759E+03  0.33677082161E+04  0.33002211099E+04 0.  0.
        5    1    3    3  502    0 -0.15290934722E+04  0.41286296180E+01 -0.96833436295E+03  0.18099274629E+04  0.46999998093E+01 0. -1.
       -5    1    3    3    0  502  0.15290934722E+04 -0.41286296180E+01  0.29751452537E+03  0.15577807533E+04  0.46999998093E+01 0.  1.
</event>
<event>
 5   0  0.2574803E-06  0.3312807E+04  0.7818609E-02  0.8159644E-01
        2   -1    0    0  501    0  0.00000000000E+00  0.00000000000E+00  0.21176917277E+04  0.21176917277E+04  0.25500000920E-02 0.  1.
       -2   -1    0    0    0  501  0.00000000000E+00  0.00000000000E+00 -0.12955954553E+04  0.12955954553E+04  0.25500000920E-02 0. -1.
    10030    2    1    2    0    0  0.00000000000E+00  0.00000000000E+00  0.82209627243E+03  0.34132871830E+04  0.33128065311E+04 0.  0.
        4    1    3    3  502    0  0.10547601048E+04 -0.35122283055E+03  0.16762147831E+04  0.20113612225E+04  0.12699999809E+01 0.  1.
       -4    1    3    3    0  502 -0.10547601048E+04  0.35122283055E+03 -0.85411851069E+03  0.14019259605E+04  0.12699999809E+01 0. -1.
</event>
<event>
 5   0  0.9268670E-07  0.3269029E+04  0.7818609E-02  0.8170821E-01
       -1   -1    0    0    0  501  0.00000000000E+00  0.00000000000E+00  0.14615575350E+04  0.14615575350E+04  0.50400001928E-02 0.  1.
        1   -1    0    0  501    0  0.00000000000E+00  0.00000000000E+00 -0.18279382076E+04  0.18279382076E+04  0.50400001928E-02 0. -1.
    10030    2    1    2    0    0  0.00000000000E+00  0.00000000000E+00 -0.36638067252E+03  0.32894957426E+04  0.32690285168E+04 0.  0.
        3    1    3    3  502    0 -0.80440213675E+03  0.89837178030E+03 -0.12935035195E+04  0.17684134184E+04  0.10100000352E+00 0. -1.
       -3    1    3    3    0  502  0.80440213675E+03 -0.89837178030E+03  0.92712284701E+03  0.15210823242E+04  0.10100000352E+00 0.  1.
</event>
<event>
 5   0  0.8705956E-07  0.3262016E+04  0.7818609E-02  0.8172628E-01
        1   -1    0    0  501    0  0.00000000000E+00  0.00000000000E+00  0.19491780709E+04  0.19491780709E+04  0.50400001928E-02 0. -1.
       -1   -1    0    0    0  501  0.00000000000E+00  0.00000000000E+00 -0.13647735000E+04  0.13647735000E+04  0.50400001928E-02 0.  1.
    10030    2    1    2    0    0  0.00000000000E+00  0.00000000000E+00  0.58440457088E+03  0.33139515709E+04  0.32620156824E+04 0.  0.
        2    1    3    3  502    0  0.12196561699E+04  0.10780346669E+04  0.39613785889E+03  0.16753044855E+04  0.25500000920E-02 0. -1.
       -2    1    3    3    0  502 -0.12196561699E+04 -0.10780346669E+04  0.18826671199E+03  0.16386470855E+04  0.25500000920E-02 0.  1.
</event>
<event>
 5   0  0.2614212E-06  0.3292264E+04  0.7818609E-02  0.8164867E-01
       -2   -1    0    0    0  501  0.00000000000E+00  0.00000000000E+00  0.84334335726E+03  0.84334335726E+03  0.25500000920E-02 0.  1.
        2   -1    0    0  501    0  0.00000000000E+00  0.00000000000E+00 -0.32131053082E+04  0.32131053082E+04  0.25500000920E-02 0. -1.
    10030    2    1    2    0    0  0.00000000000E+00  0.00000000000E+00 -0.23697619510E+04  0.40564486655E+04  0.32922642773E+04 0.  0.
        2    1    3    3  502    0  0.84953669059E+03 -0.12484790538E+04 -0.37755076803E+03  0.15565850824E+04  0.25500000920E-02 0.  1.
       -2    1    3    3    0  502 -0.84953669059E+03  0.12484790538E+04 -0.19922111829E+04  0.24998635831E+04  0.25500000920E-02 0. -1.
</event>
<event>
 5   0  0.2658600E-06  0.3388381E+04  0.7818609E-02  0.8140764E-01
       -2   -1    0    0    0  501  0.00000000000E+00  0.00000000000E+00  0.13781259706E+04  0.13781259706E+04  0.25500000920E-02 0.  1.
        2   -1    0    0  501    0  0.00000000000E+00  0.00000000000E+00 -0.20827422513E+04  0.20827422513E+04  0.25500000920E-02 0. -1.
    10030    2    1    2    0    0  0.00000000000E+00  0.00000000000E+00 -0.70461628066E+03  0.34608682219E+04  0.33883808444E+04 0.  0.
        5    1    3    3  502    0  0.94728031505E+03  0.46555662475E+03  0.10012498917E+04  0.14548561447E+04  0.46999998093E+01 0.  1.
       -5    1    3    3    0  502 -0.94728031505E+03 -0.46555662475E+03 -0.17058661723E+04  0.20060120772E+04  0.46999998093E+01 0. -1.
</event>
<event>
 5   0  0.9295663E-07  0.3287866E+04  0.7818609E-02  0.8165990E-01
       -1   -1    0    0    0  501  0.00000000000E+00  0.00000000000E+00  0.15517453588E+04  0.15517453588E+04  0.50400001928E-02 0. -1.
        1   -1    0    0  501    0  0.00000000000E+00  0.00000000000E+00 -0.17415975881E+04  0.17415975881E+04  0.50400001928E-02 0.  1.
    10030    2    1    2    0    0  0.00000000000E+00  0.00000000000E+00 -0.18985222935E+03  0.32933429469E+04  0.32878661617E+04 0.  0.
        4    1    3    3  502    0 -0.13879994278E+04 -0.28822970436E+03 -0.92871619678E+03  0.16947371953E+04  0.12699999809E+01 0.  1.
       -4    1    3    3    0  502  0.13879994278E+04  0.28822970436E+03  0.73886396743E+03  0.15986057517E+04  0.12699999809E+01 0. -1.
</event>
<event>
 5   0  0.2658600E-06  0.3412624E+04  0.7818609E-02  0.8134815E-01
        2   -1    0    0  501    0  0.00000000000E+00  0.00000000000E+00  0.11544267668E+04  0.11544267668E+04  0.25500000920E-02 0. -1.
       -2   -1    0    0    0  501  0.00000000000E+00  0.00000000000E+00 -0.25220321411E+04  0.25220321411E+04  0.25500000920E-02 0.  1.
    10030    2    1    2    0    0  0.00000000000E+00  0.00000000000E+00 -0.13676053743E+04  0.36764589080E+04  0.34126244508E+04 0.  0.
        5    1    3    3  502    0 -0.22627268567E+03  0.15879440706E+04 -0.13107882618E+04  0.20714617199E+04  0.46999998093E+01 0.  1.
       -5    1    3    3    0  502  0.22627268567E+03 -0.15879440706E+04 -0.56817112448E+02  0.16049971881E+04  0.46999998093E+01 0. -1.
</event>
<event>
 5   0  0.9268670E-07  0.3170609E+04  0.7818609E-02  0.8196623E-01
        1   -1    0    0  501    0  0.00000000000E+00  0.00000000000E+00  0.30260077648E+04  0.30260077648E+04  0.50400001928E-02 0. -1.
       -1   -1    0    0    0  501  0.00000000000E+00  0.00000000000E+00 -0.83052988906E+03  0.83052988907E+03  0.50400001928E-02 0.  1.
    10030    2    1    2    0    0  0.00000000000E+00  0.00000000000E+00  0.21954778757E+04  0.38565376539E+04  0.31706087070E+04 0.  0.
        3    1    3    3  502    0  0.26768152742E+02  0.15482129789E+04  0.15111333209E+04  0.21636089956E+04  0.10100000352E+00 0.  1.
       -3    1    3    3    0  502 -0.26768152742E+02 -0.15482129789E+04  0.68434455478E+03  0.16929286582E+04  0.10100000352E+00 0. -1.
</event>
<event>
 5   0  0.2614212E-06  0.3254400E+04  0.7818609E-02  0.8174596E-01
       -2   -1    0    0    0  501  0.00000000000E+00  0.00000000000E+00  0.14170162098E+04  0.14170162098E+04  0.25500000920E-02 0.  1.
        2   -1    0    0  501    0  0.00000000000E+00  0.00000000000E+00 -0.18685598901E+04  0.18685598901E+04  0.25500000920E-02 0. -1.
    10030    2    1    2    0    0  0.00000000000E+00  0.00000000000E+00 -0.45154368025E+03  0.32855760999E+04  0.32543998853E+04 0.  0.
        2    1    3    3  502    0 -0.16666899716E+03 -0.16128503643E+04 -0.36388441493E+03  0.16617691536E+04  0.25500000920E-02 0.  1.
       -2    1    3    3    0  502  0.16666899716E+03  0.16128503643E+04 -0.87659265318E+02  0.16238069464E+04  0.25500000920E-02 0. -1.
</event>
<event>
 5   0  0.2674551E-06  0.3292803E+04  0.7818609E-02  0.8164729E-01
       -2   -1    0    0    0  501  0.00000000000E+00  0.00000000000E+00  0.20030979017E+04  0.20030979017E+04  0.25500000920E-02 0.  1.
        2   -1    0    0  501    0  0.00000000000E+00  0.00000000000E+00 -0.13532229266E+04  0.13532229266E+04  0.25500000920E-02 0. -1.
    10030    2    1    2    0    0  0.00000000000E+00  0.00000000000E+00  0.64987497511E+03  0.33563208283E+04  0.32928030642E+04 0.  0.
        3    1    3    3  502    0 -0.97166786526E+03 -0.42372489840E+03 -0.95910755451E+03  0.14295343792E+04  0.10100000352E+00 0. -1.
       -3    1    3    3    0  502  0.97166786526E+03  0.42372489840E+03  0.16089825296E+04  0.19267864492E+04  0.10100000352E+00 0.  1.
</event>
<event>
 5   0  0.2705859E-06  0.3267770E+04  0.7818609E-02  0.8171145E-01
        2   -1    0    0  501    0  0.00000000000E+00  0.00000000000E+00  0.26482101079E+04  0.26482101079E+04  0.25500000920E-02 0.  1.
       -2   -1    0    0    0  501  0.00000000000E+00  0.00000000000E+00 -0.10080695790E+04  0.10080695790E+04  0.25500000920E-02 0. -1.
    10030    2    1    2    0    0  0.00000000000E+00  0.00000000000E+00  0.16401405289E+04  0.36562796869E+04  0.32677699115E+04 0.  0.
        1    1    3    3  502    0  0.11864368832E+04 -0.14251602109E+03  0.20668370386E+04  0.23874167291E+04  0.50400001928E-02 0.  1.
       -1    1    3    3    0  502 -0.11864368832E+04  0.14251602109E+03 -0.42669650970E+03  0.12688629578E+04  0.50400001928E-02 0. -1.
</event>
<event>
 5   0  0.8845526E-07  0.3237425E+04  0.7818609E-02  0.8179003E-01
       -1   -1    0    0    0  501  0.00000000000E+00  0.00000000000E+00  0.19327021022E+04  0.19327021023E+04  0.50400001928E-02 0.  1.
        1   -1    0    0  501    0  0.00000000000E+00  0.00000000000E+00 -0.13557341893E+04  0.13557341893E+04  0.50400001928E-02 0. -1.
    10030    2    1    2    0    0  0.00000000000E+00  0.00000000000E+00  0.57696791296E+03  0.32884362915E+04  0.32374250989E+04 0.  0.
        1    1    3    3  502    0  0.77548301016E+03 -0.10379225971E+04  0.12741203357E+04  0.18171515750E+04  0.50400001928E-02 0.  1.
       -1    1    3    3    0  502 -0.77548301016E+03  0.10379225971E+04 -0.69715242273E+03  0.14712847166E+04  0.50400001928E-02 0. -1.
</event>
<event>
 5   0  0.2674551E-06  0.3344284E+04  0.7818609E-02  0.8151718E-01
       -2   -1    0    0    0  501  0.00000000000E+00  0.00000000000E+00  0.32205864193E+04  0.32205864193E+04  0.25500000920E-02 0. -1.
        2   -1    0    0  501    0  0.00000000000E+00  0.00000000000E+00 -0.86818339478E+03  0.86818339478E+03  0.25500000920E-02 0.  1.
    10030    2    1    2    0    0  0.00000000000E+00  0.00000000000E+00  0.23524030245E+04  0.40887698141E+04  0.33442844680E+04 0.  0.
        3    1    3    3  502    0 -0.13954001528E+04 -0.19842375756E+03  0.22762459600E+04  0.26772764621E+04  0.10100000352E+00 0. -1.
       -3    1    3    3    0  502  0.13954001528E+04  0.19842375756E+03  0.76157064557E+02  0.14114933520E+04  0.10100000352E+00 0.  1.
</event>
<event>
 5   0  0.9295663E-07  0.3301688E+04  0.7818609E-02  0.8162466E-01
       -1   -1    0    0    0  501  0.00000000000E+00  0.00000000000E+00  0.32679977950E+04  0.32679977950E+04  0.50400001928E-02 0. -1.
        1   -1    0    0  501    0  0.00000000000E+00  0.00000000000E+00 -0.83393155503E+03  0.83393155505E+03  0.50400001928E-02 0.  1.
    10030    2    1    2    0    0  0.00000000000E+00  0.00000000000E+00  0.24340662400E+04  0.41019293500E+04  0.33016883457E+04 0.  0.
        4    1    3    3  502    0 -0.31159998646E+03 -0.58780404049E+03 -0.66001023943E+03  0.93713567355E+03  0.12699999809E+01 0.  1.
       -4    1    3    3    0  502  0.31159998646E+03  0.58780404049E+03  0.30940764794E+04  0.31647936765E+04  0.12699999809E+01 0. -1.
</event>
<event>
 5   0  0.2658600E-06  0.3052456E+04  0.7818609E-02  0.8228908E-01
        2   -1    0    0  501    0  0.00000000000E+00  0.00000000000E+00  0.16369791242E+04  0.16369791242E+04  0.25500000920E-02 0. -1.
       -2   -1    0    0    0  501  0.00000000000E+00  0.00000000000E+00 -0.14229697173E+04  0.14229697173E+04  0.25500000920E-02 0.  1.
    10030    2    1    2    0    0  0.00000000000E+00  0.00000000000E+00  0.21400940692E+03  0.30599488416E+04  0.30524558779E+04 0.  0.
        5    1    3    3  502    0  0.84504838269E+03 -0.37133895929E+03  0.13254513138E+04  0.16151912169E+04  0.46999998093E+01 0. -1.
       -5    1    3    3    0  502 -0.84504838269E+03  0.37133895929E+03 -0.11114419069E+04  0.14447576247E+04  0.46999998093E+01 0.  1.
</event>
<event>
 5   0  0.9295663E-07  0.3338193E+04  0.7818609E-02  0.8153245E-01
       -1   -1    0    0    0  501  0.00000000000E+00  0.00000000000E+00  0.11268291932E+04  0.11268291932E+04  0.50400001928E-02 0.  1.
        1   -1    0    0  501    0  0.00000000000E+00  0.00000000000E+00 -0.24723210921E+04  0.24723210921E+04  0.50400001928E-02 0. -1.
    10030    2    1    2    0    0  0.00000000000E+00  0.00000000000E+00 -0.13454918989E+04  0.35991502853E+04  0.33381932727E+04 0.  0.
        4    1    3    3  502    0  0.26770343095E+03  0.11121453566E+04 -0.19832251594E+04  0.22894794314E+04  0.12699999809E+01 0. -1.
       -4    1    3    3    0  502 -0.26770343095E+03 -0.11121453566E+04  0.63773326051E+03  0.13096708539E+04  0.12699999809E+01 0.  1.
</event>
<event>
 5   0  0.9530268E-07  0.3316576E+04  0.7818609E-02  0.8158690E-01
        1   -1    0    0  501    0  0.00000000000E+00  0.00000000000E+00  0.19624694942E+04  0.19624694942E+04  0.50400001928E-02 0. -1.
       -1   -1    0    0    0  501  0.00000000000E+00  0.00000000000E+00 -0.14012543541E+04  0.14012543541E+04  0.50400001928E-02 0.  1.
    10030    2    1    2    0    0  0.00000000000E+00  0.00000000000E+00  0.56121514015E+03  0.33637238483E+04  0.33165758990E+04 0.  0.
        5    1    3    3  502    0  0.62831790307E+03 -0.41837948359E+03 -0.12168889358E+04  0.14320145082E+04  0.46999998093E+01 0.  1.
       -5    1    3    3    0  502 -0.62831790307E+03  0.41837948359E+03  0.17781040760E+04  0.19317093401E+04  0.46999998093E+01 0. -1.
</event>
<event>
 5   0  0.2705859E-06  0.3107476E+04  0.7818609E-02  0.8213689E-01
       -2   -1    0    0    0  501  0.00000000000E+00  0.00000000000E+00  0.20667799481E+04  0.20667799482E+04  0.25500000920E-02 0. -1.
        2   -1    0    0  501    0  0.00000000000E+00  0.00000000000E+00 -0.11680494867E+04  0.11680494867E+04  0.25500000920E-02 0.  1.
    10030    2    1    2    0    0  0.00000000000E+00  0.00000000000E+00  0.89873046146E+03  0.32348294348E+04  0.31074756685E+04 0.  0.
        1    1    3    3  502    0  0.12720840503E+04 -0.72783547610E+03  0.98641456640E+03  0.17666227690E+04  0.50400001928E-02 0. -1.
       -1    1    3    3    0  502 -0.12720840503E+04  0.72783547610E+03 -0.87684104940E+02  0.14682066658E+04  0.50400001928E-02 0.  1.
</event>
<event>
 5   0  0.2574803E-06  0.2782162E+04  0.7818609E-02  0.8308828E-01
        2   -1    0    0  501    0  0.00000000000E+00  0.00000000000E+00  0.26150947181E+04  0.26150947181E+04  0.25500000920E-02 0. -1.
       -2   -1    0    0    0  501  0.00000000000E+00  0.00000000000E+00 -0.73997572067E+03  0.73997572068E+03  0.25500000920E-02 0.  1.
    10030    2    1    2    0    0  0.00000000000E+00  0.00000000000E+00  0.18751189974E+04  0.33550704387E+04  0.27821621798E+04 0.  0.
        4    1    3    3  502    0 -0.11037434782E+04  0.70438565929E+03  0.15040812528E+04  0.19941591839E+04  0.12699999809E+01 0. -1.
       -4    1    3    3    0  502  0.11037434782E+04 -0.70438565929E+03  0.37103774454E+03  0.13609112548E+04  0.12699999809E+01 0.  1.
</event>
<event>
 5   0  0.2674551E-06  0.3293528E+04  0.7818609E-02  0.8164544E-01
       -2   -1    0    0    0  501  0.00000000000E+00  0.00000000000E+00  0.19457920651E+04  0.19457920651E+04  0.25500000920E-02 0.  1.
        2   -1    0    0  501    0  0.00000000000E+00  0.00000000000E+00 -0.13936902046E+04  0.13936902046E+04  0.25500000920E-02 0. -1.
    10030    2    1    2    0    0  0.00000000000E+00  0.00000000000E+00  0.55210186054E+03  0.33394822697E+04  0.32935277994E+04 0.  0.
        3    1    3    3  502    0 -0.25341039461E+03 -0.14278533313E+04 -0.51512440186E+03  0.15389396101E+04  0.10100000352E+00 0. -1.
       -3    1    3    3    0  502  0.25341039461E+03  0.14278533313E+04  0.10672262624E+04  0.18005426597E+04  0.10100000352E+00 0.  1.
</event>
<event>
 5   0  0.9295663E-07  0.3338129E+04  0.7818609E-02  0.8153261E-01
        1   -1    0    0  501    0  0.00000000000E+00  0.00000000000E+00  0.15433084827E+04  0.15433084827E+04  0.50400001928E-02 0. -1.
       -1   -1    0    0    0  501  0.00000000000E+00  0.00000000000E+00 -0.18050675743E+04  0.18050675744E+04  0.50400001928E-02 0.  1.
    10030    2    1    2    0    0  0.00000000000E+00  0.00000000000E+00 -0.26175909166E+03  0.33483760570E+04  0.33381288767E+04 0.  0.
        4    1    3    3  502    0  0.11637608192E+02  0.98342879656E+03  0.12217803040E+04  0.15684439282E+04  0.12699999809E+01 0. -1.
       -4    1    3    3    0  502 -0.11637608192E+02 -0.98342879656E+03 -0.14835393957E+04  0.17799321288E+04  0.12699999809E+01 0.  1.
</event>
<event>
 5   0  0.8705956E-07  0.3366006E+04  0.7818609E-02  0.8146300E-01
        1   -1    0    0  501    0  0.00000000000E+00  0.00000000000E+00  0.18290235507E+04  0.18290235507E+04  0.50400001928E-02 0. -1.
       -1   -1    0    0    0  501  0.00000000000E+00  0.00000000000E+00 -0.15486398416E+04  0.15486398416E+04  0.50400001928E-02 0.  1.
    10030    2    1    2    0    0  0.00000000000E+00  0.00000000000E+00  0.28038370914E+03  0.33776633923E+04  0.33660057884E+04 0.  0.
        2    1    3    3  502    0 -0.10428069666E+04 -0.23315568118E+02  0.14655647515E+04  0.17988524193E+04  0.25500000920E-02 0. -1.
       -2    1    3    3    0  502  0.10428069666E+04  0.23315568118E+02 -0.11851810424E+04  0.15788109731E+04  0.25500000920E-02 0.  1.
</event>
<event>
 5   0  0.2658600E-06  0.3256175E+04  0.7818609E-02  0.8174137E-01
        2   -1    0    0  501    0  0.00000000000E+00  0.00000000000E+00  0.15214606807E+04  0.15214606807E+04  0.25500000920E-02 0.  1.
       -2   -1    0    0    0  501  0.00000000000E+00  0.00000000000E+00 -0.17421874340E+04  0.17421874340E+04  0.25500000920E-02 0. -1.
    10030    2    1    2    0    0  0.00000000000E+00  0.00000000000E+00 -0.22072675330E+03  0.32636481147E+04  0.32561754740E+04 0.  0.
        5    1    3    3  502    0 -0.16193879694E+04  0.14141490010E+03 -0.19424678892E+02  0.16256736996E+04  0.46999998093E+01 0. -1.
       -5    1    3    3    0  502  0.16193879694E+04 -0.14141490010E+03 -0.20130207440E+03  0.16379744151E+04  0.46999998093E+01 0.  1.
</event>
<event>
 5   0  0.8845526E-07  0.3309727E+04  0.7818609E-02  0.8160425E-01
        1   -1    0    0  501    0  0.00000000000E+00  0.00000000000E+00  0.18976542894E+04  0.18976542894E+04  0.50400001928E-02 0.  1.
       -1   -1    0    0    0  501  0.00000000000E+00  0.00000000000E+00 -0.14431356422E+04  0.14431356422E+04  0.50400001928E-02 0. -1.
    10030    2    1    2    0    0  0.00000000000E+00  0.00000000000E+00  0.45451864717E+03  0.33407899316E+04  0.33097266000E+04 0.  0.
        1    1    3    3  502    0 -0.42660486269E+01  0.95609606044E+03 -0.11361341337E+04  0.14849035813E+04  0.50400001928E-02 0.  1.
       -1    1    3    3    0  502  0.42660486269E+01 -0.95609606044E+03  0.15906527809E+04  0.18558863503E+04  0.50400001928E-02 0. -1.
</event>
<event>
 5   0  0.2674551E-06  0.3304902E+04  0.7818609E-02  0.8161649E-01
       -2   -1    0    0    0  501  0.00000000000E+00  0.00000000000E+00  0.10917245539E+04  0.10917245539E+04  0.25500000920E-02 0. -1.
        2   -1    0    0  501    0  0.00000000000E+00  0.00000000000E+00 -0.25011754378E+04  0.25011754378E+04  0.25500000920E-02 0.  1.
    10030    2    1    2    0    0  0.00000000000E+00  0.00000000000E+00 -0.14094508839E+04  0.35928999917E+04  0.33049022008E+04 0.  0.
        3    1    3    3  502    0  0.10382996217E+04 -0.62275803435E+03  0.51786343362E+03  0.13168432784E+04  0.10100000352E+00 0. -1.
       -3    1    3    3    0  502 -0.10382996217E+04  0.62275803435E+03 -0.19273143175E+04  0.22760567133E+04  0.10100000352E+00 0.  1.
</event>
<event>
 5   0  0.8705956E-07  0.3384958E+04  0.7818609E-02  0.8141608E-01
       -1   -1    0    0    0  501  0.00000000000E+00  0.00000000000E+00  0.14102482732E+04  0.14102482732E+04  0.50400001928E-02 0.  1.
        1   -1    0    0  501    0  0.00000000000E+00  0.00000000000E+00 -0.20311916561E+04  0.20311916561E+04  0.50400001928E-02 0. -1.
    10030    2    1    2    0    0  0.00000000000E+00  0.00000000000E+00 -0.62094338282E+03  0.34414399293E+04  0.33849576219E+04 0.  0.
        2    1    3    3  502    0  0.29461895162E+03  0.55817013233E+03 -0.19070674352E+04  0.20087957650E+04  0.25500000920E-02 0. -1.
       -2    1    3    3    0  502 -0.29461895162E+03 -0.55817013233E+03  0.12861240524E+04  0.14326441643E+04  0.25500000920E-02 0.  1.
</event>
<event>
 5   0  0.9295663E-07  0.3283148E+04  0.7818609E-02  0.8167197E-01
       -1   -1    0    0    0  501  0.00000000000E+00  0.00000000000E+00  0.14703308226E+04  0.14703308226E+04  0.50400001928E-02 0. -1.
        1   -1    0    0  501    0  0.00000000000E+00  0.00000000000E+00 -0.18327612712E+04  0.18327612712E+04  0.50400001928E-02 0.  1.
    10030    2    1    2    0    0  0.00000000000E+00  0.00000000000E+00 -0.36243044860E+03  0.33030920938E+04  0.32831481157E+04 0.  0.
        4    1    3    3  502    0 -0.12746465682E+04  0.10273405800E+04 -0.30282644498E+03  0.16648897891E+04  0.12699999809E+01 0. -1.
       -4    1    3    3    0  502  0.12746465682E+04 -0.10273405800E+04 -0.59604003619E+02  0.16382023047E+04  0.12699999809E+01 0.  1.
</event>
<event>
 5   0  0.8520125E-07  0.3322315E+04  0.7818609E-02  0.8157240E-01
        3   -1    0    0  501    0  0.00000000000E+00  0.00000000000E+00  0.14235738622E+04  0.14235738658E+04  0.10100000352E+00 0. -1.
       -3   -1    0    0    0  501  0.00000000000E+00  0.00000000000E+00 -0.19383923120E+04  0.19383923146E+04  0.10100000352E+00 0.  1.
    10030    2    1    2    0    0  0.00000000000E+00  0.00000000000E+00 -0.51481844982E+03  0.33619661804E+04  0.33223152412E+04 0.  0.
        5    1    3    3  502    0  0.14076566014E+04 -0.71045740787E+03  0.27149074922E+03  0.15999925477E+04  0.46999998093E+01 0. -1.
       -5    1    3    3    0  502 -0.14076566014E+04  0.71045740787E+03 -0.78630919904E+03  0.17619736327E+04  0.46999998093E+01 0.  1.
</event>
<event>
 5   0  0.2574803E-06  0.3273494E+04  0.7818609E-02  0.8169673E-01
       -2   -1    0    0    0  501  0.00000000000E+00  0.00000000000E+00  0.12221365262E+04  0.12221365262E+04  0.25500000920E-02 0. -1.
        2   -1    0    0  501    0  0.00000000000E+00  0.00000000000E+00 -0.21920147972E+04  0.21920147972E+04  0.25500000920E-02 0.  1.
    10030    2    1    2    0    0  0.00000000000E+00  0.00000000000E+00 -0.96987827100E+03  0.34141513234E+04  0.32734943712E+04 0.  0.
        4    1    3    3  502    0  0.13740685970E+04  0.65819273565E+03  0.13880268913E+03  0.15298856121E+04  0.12699999809E+01 0. -1.
       -4    1    3    3    0  502 -0.13740685970E+04 -0.65819273565E+03 -0.11086809601E+04  0.18842657113E+04  0.12699999809E+01 0.  1.
</event>
<event>
 5   0  0.9530268E-07  0.3296714E+04  0.7818609E-02  0.8163732E-01
       -1   -1    0    0    0  501  0.00000000000E+00  0.00000000000E+00  0.12881023460E+04  0.12881023460E+04  0.50400001928E-02 0. -1.
        1   -1    0    0  501    0  0.00000000000E+00  0.00000000000E+00 -0.21093666219E+04  0.21093666219E+04  0.50400001928E-02 0.  1.
    10030    2    1    2    0    0  0.00000000000E+00  0.00000000000E+00 -0.82126427592E+03  0.33974689680E+04  0.32967135722E+04 0.  0.
        5    1    3    3  502    0 -0.43175800870E+02 -0.16429841217E+04 -0.54015964510E+03  0.17300449434E+04  0.46999998093E+01 0. -1.
       -5    1    3    3    0  502  0.43175800870E+02  0.16429841217E+04 -0.28110463082E+03  0.16674240245E+04  0.46999998093E+01 0.  1.
</event>
<event>
 5   0  0.2614212E-06  0.3298951E+04  0.7818609E-02  0.8163162E-01
       -2   -1    0    0    0  501  0.00000000000E+00  0.00000000000E+00  0.14388969166E+04  0.14388969166E+04  0.25500000920E-02 0. -1.
        2   -1    0    0  501    0  0.00000000000E+00  0.00000000000E+00 -0.18908713579E+04  0.18908713579E+04  0.25500000920E-02 0.  1.
    10030    2    1    2    0    0  0.00000000000E+00  0.00000000000E+00 -0.45197444126E+03  0.33297682745E+04  0.32989507220E+04 0.  0.
        2    1    3    3  502    0  0.14420510985E+04 -0.71201162928E+03 -0.59587620329E+03  0.17150919453E+04  0.25500000920E-02 0.  1.
       -2    1    3    3    0  502 -0.14420510985E+04  0.71201162928E+03  0.14390176203E+03  0.16146763292E+04  0.25500000920E-02 0. -1.
</event>
<event>
 5   0  0.9295663E-07  0.3320391E+04  0.7818609E-02  0.8157726E-01
       -1   -1    0    0    0  501  0.00000000000E+00  0.00000000000E+00  0.11811393527E+04  0.11811393527E+04  0.50400001928E-02 0. -1.
        1   -1    0    0  501    0  0.00000000000E+00  0.00000000000E+00 -0.23335507819E+04  0.23335507819E+04  0.50400001928E-02 0.  1.
    10030    2    1    2    0    0  0.00000000000E+00  0.00000000000E+00 -0.11524114292E+04  0.35146901347E+04  0.33203907361E+04 0.  0.
        4    1    3    3  502    0 -0.39134527050E+03 -0.58760452054E+03 -0.21667369566E+04  0.22788551611E+04  0.12699999809E+01 0.  1.
       -4    1    3    3    0  502  0.39134527050E+03  0.58760452054E+03  0.10143255274E+04  0.12358349735E+04  0.12699999809E+01 0. -1.
</event>
<event>
 5   0  0.8845526E-07  0.3243653E+04  0.7818609E-02  0.8177383E-01
       -1   -1    0    0    0  501  0.00000000000E+00  0.00000000000E+00  0.31462521496E+04  0.31462521496E+04  0.50400001928E-02 0.  1.
        1   -1    0    0  501    0  0.00000000000E+00  0.00000000000E+00 -0.83601743195E+03  0.83601743196E+03  0.50400001928E-02 0. -1.
    10030    2    1    2    0    0  0.00000000000E+00  0.00000000000E+00  0.23102347177E+04  0.39822695816E+04  0.32436532752E+04 0.  0.
        1    1    3    3  502    0 -0.88182961503E+03 -0.93698144083E+03  0.23672383203E+04  0.26943227267E+04  0.50400001928E-02 0.  1.
       -1    1    3    3    0  502  0.88182961503E+03  0.93698144083E+03 -0.57003602592E+02  0.12879468549E+04  0.50400001928E-02 0. -1.
</event>
<event>
 5   0  0.2614212E-06  0.2378647E+04  0.7818609E-02  0.8447541E-01
        2   -1    0    0  501    0  0.00000000000E+00  0.00000000000E+00  0.12539077881E+04  0.12539077881E+04  0.25500000920E-02 0.  1.
       -2   -1    0    0    0  501  0.00000000000E+00  0.00000000000E+00 -0.11280654702E+04  0.11280654702E+04  0.25500000920E-02 0. -1.
    10030    2    1    2    0    0  0.00000000000E+00  0.00000000000E+00  0.12584231795E+03  0.23819732583E+04  0.23786467401E+04 0.  0.
        2    1    3    3  502    0  0.34114565143E+03 -0.11368349540E+04  0.13863119305E+03  0.11949864751E+04  0.25500000920E-02 0.  1.
       -2    1    3    3    0  502 -0.34114565143E+03  0.11368349540E+04 -0.12788875105E+02  0.11869867832E+04  0.25500000920E-02 0. -1.
</event>
<event>
 5   0  0.2574803E-06  0.3120153E+04  0.7818609E-02  0.8210229E-01
       -2   -1    0    0    0  501  0.00000000000E+00  0.00000000000E+00  0.14068689794E+04  0.14068689794E+04  0.25500000920E-02 0.  1.
        2   -1    0    0  501    0  0.00000000000E+00  0.00000000000E+00 -0.17299687230E+04  0.17299687230E+04  0.25500000920E-02 0. -1.
    10030    2    1    2    0    0  0.00000000000E+00  0.00000000000E+00 -0.32309974358E+03  0.31368377024E+04  0.31201534140E+04 0.  0.
        4    1    3    3  502    0  0.70632627474E+03  0.92843519056E+03 -0.12029212631E+04  0.16756819172E+04  0.12699999809E+01 0. -1.
       -4    1    3    3    0  502 -0.70632627474E+03 -0.92843519056E+03  0.87982151950E+03  0.14611557852E+04  0.12699999809E+01 0.  1.
</event>
<event>
 5   0  0.8705956E-07  0.3328458E+04  0.7818609E-02  0.8155692E-01
       -1   -1    0    0    0  501  0.00000000000E+00  0.00000000000E+00  0.15837834106E+04  0.15837834106E+04  0.50400001928E-02 0. -1.
        1   -1    0    0  501    0  0.00000000000E+00  0.00000000000E+00 -0.17487610791E+04  0.17487610791E+04  0.50400001928E-02 0.  1.
    10030    2    1    2    0    0  0.00000000000E+00  0.00000000000E+00 -0.16497766849E+03  0.33325444898E+04  0.33284583737E+04 0.  0.
        2    1    3    3  502    0 -0.74048101238E+03  0.14221141267E+04  0.36408345760E+03  0.16441646764E+04  0.25500000920E-02 0. -1.
       -2    1    3    3    0  502  0.74048101238E+03 -0.14221141267E+04 -0.52906112608E+03  0.16883798134E+04  0.25500000920E-02 0.  1.
</event>
<event>
 5   0  0.8845526E-07  0.3279964E+04  0.7818609E-02  0.8168012E-01
        1   -1    0    0  501    0  0.00000000000E+00  0.00000000000E+00  0.11798296910E+04  0.11798296910E+04  0.50400001928E-02 0. -1.
       -1   -1    0    0    0  501  0.00000000000E+00  0.00000000000E+00 -0.22796011154E+04  0.22796011154E+04  0.50400001928E-02 0.  1.
    10030    2    1    2    0    0  0.00000000000E+00  0.00000000000E+00 -0.10997714244E+04  0.34594308064E+04  0.32799640727E+04 0.  0.
        1    1    3    3  502    0 -0.77690215219E+03 -0.11007308920E+04  0.43634748470E+03  0.14161866325E+04  0.50400001928E-02 0. -1.
       -1    1    3    3    0  502  0.77690215219E+03  0.11007308920E+04 -0.15361189091E+04  0.20432441738E+04  0.50400001928E-02 0.  1.
</event>
<event>
 5   0  0.8845526E-07  0.3247762E+04  0.7818609E-02  0.8176316E-01
        1   -1    0    0  501    0  0.00000000000E+00  0.00000000000E+00  0.23168408955E+04  0.23168408955E+04  0.50400001928E-02 0. -1.
       -1   -1    0    0    0  501  0.00000000000E+00  0.00000000000E+00 -0.11381832945E+04  0.11381832945E+04  0.50400001928E-02 0.  1.
    10030    2    1    2    0    0  0.00000000000E+00  0.00000000000E+00  0.11786576010E+04  0.34550241900E+04  0.32477620623E+04 0.  0.
        1    1    3    3  502    0  0.10298303354E+04 -0.12073632226E+04  0.22279310934E+03  0.16024709796E+04  0.50400001928E-02 0.  1.
       -1    1    3    3    0  502 -0.10298303354E+04  0.12073632226E+04  0.95586449170E+03  0.18525532104E+04  0.50400001928E-02 0. -1.
</event>
<event>
 5   0  0.2574803E-06  0.3342130E+04  0.7818609E-02  0.8152257E-01
        2   -1    0    0  501    0  0.00000000000E+00  0.00000000000E+00  0.11793788189E+04  0.11793788189E+04  0.25500000920E-02 0. -1.
       -2   -1    0    0    0  501  0.00000000000E+00  0.00000000000E+00 -0.23677365340E+04  0.23677365340E+04  0.25500000920E-02 0.  1.
    10030    2    1    2    0    0  0.00000000000E+00  0.00000000000E+00 -0.11883577151E+04  0.35471153529E+04  0.33421300495E+04 0.  0.
        4    1    3    3  502    0  0.15524089511E+04  0.30004290964E+03 -0.11681410394E+04  0.19658469930E+04  0.12699999809E+01 0. -1.
       -4    1    3    3    0  502 -0.15524089511E+04 -0.30004290964E+03 -0.20216675743E+02  0.15812683599E+04  0.12699999809E+01 0.  1.
</event>
<event>
 5   0  0.9268670E-07  0.3302330E+04  0.7818609E-02  0.8162303E-01
        1   -1    0    0  501    0  0.00000000000E+00  0.00000000000E+00  0.24312284410E+04  0.24312284410E+04  0.50400001928E-02 0. -1.
       -1   -1    0    0    0  501  0.00000000000E+00  0.00000000000E+00 -0.11213863465E+04  0.11213863465E+04  0.50400001928E-02 0.  1.
    10030    2    1    2    0    0  0.00000000000E+00  0.00000000000E+00  0.13098420946E+04  0.35526147875E+04  0.33023303160E+04 0.  0.
        3    1    3    3  502    0  0.14031767006E+04 -0.36661419712E+03 -0.19422818313E+03  0.14632277403E+04  0.10100000352E+00 0.  1.
       -3    1    3    3    0  502 -0.14031767006E+04  0.36661419712E+03  0.15040702777E+04  0.20893870472E+04  0.10100000352E+00 0. -1.
</event>
<event>
 5   0  0.8845526E-07  0.3275884E+04  0.7818609E-02  0.8169059E-01
        1   -1    0    0  501    0  0.00000000000E+00  0.00000000000E+00  0.19858476808E+04  0.19858476809E+04  0.50400001928E-02 0.  1.
       -1   -1    0    0    0  501  0.00000000000E+00  0.00000000000E+00 -0.13509869565E+04  0.13509869565E+04  0.50400001928E-02 0. -1.
    10030    2    1    2    0    0  0.00000000000E+00  0.00000000000E+00  0.63486072437E+03  0.33368346373E+04  0.32758841948E+04 0.  0.
        1    1    3    3  502    0  0.10068186032E+04 -0.93475852985E+03  0.12258743340E+04  0.18412563894E+04  0.50400001928E-02 0. -1.
       -1    1    3    3    0  502 -0.10068186032E+04  0.93475852985E+03 -0.59101360961E+03  0.14955782479E+04  0.50400001928E-02 0.  1.
</event>
<event>
 5   0  0.8845526E-07  0.3418126E+04  0.7818609E-02  0.8133472E-01
       -1   -1    0    0    0  501  0.00000000000E+00  0.00000000000E+00  0.12184147028E+04  0.12184147028E+04  0.50400001928E-02 0.  1.
        1   -1    0    0  501    0  0.00000000000E+00  0.00000000000E+00 -0.23972924144E+04  0.23972924144E+04  0.50400001928E-02 0. -1.
    10030    2    1    2    0    0  0.00000000000E+00  0.00000000000E+00 -0.11788777115E+04  0.36157071172E+04  0.34181259922E+04 0.  0.
        1    1    3    3  502    0 -0.56260487448E+02 -0.59616468161E+03  0.11038137593E+04  0.12557795927E+04  0.50400001928E-02 0.  1.
       -1    1    3    3    0  502  0.56260487448E+02  0.59616468161E+03 -0.22826914709E+04  0.23599275246E+04  0.50400001928E-02 0. -1.
</event>
<event>
 5   0  0.2574803E-06  0.3093952E+04  0.7818609E-02  0.8217400E-01
       -2   -1    0    0    0  501  0.00000000000E+00  0.00000000000E+00  0.11796385268E+04  0.11796385268E+04  0.25500000920E-02 0. -1.
        2   -1    0    0  501    0  0.00000000000E+00  0.00000000000E+00 -0.20287012907E+04  0.20287012907E+04  0.25500000920E-02 0.  1.
    10030    2    1    2    0    0  0.00000000000E+00  0.00000000000E+00 -0.84906276398E+03  0.32083398175E+04  0.30939516492E+04 0.  0.
        4    1    3    3  502    0  0.74542227550E+03  0.62741759918E+03 -0.16705489741E+04  0.19339190005E+04  0.12699999809E+01 0.  1.
       -4    1    3    3    0  502 -0.74542227550E+03 -0.62741759918E+03  0.82148621013E+03  0.12744208170E+04  0.12699999809E+01 0. -1.
</event>
<event>
 5   0  0.2674551E-06  0.3140928E+04  0.7818609E-02  0.8204595E-01
        2   -1    0    0  501    0  0.00000000000E+00  0.00000000000E+00  0.23963370644E+04  0.23963370644E+04  0.25500000920E-02 0.  1.
       -2   -1    0    0    0  501  0.00000000000E+00  0.00000000000E+00 -0.10292194425E+04  0.10292194425E+04  0.25500000920E-02 0. -1.
    10030    2    1    2    0    0  0.00000000000E+00  0.00000000000E+00  0.13671176219E+04  0.34255565069E+04  0.31409276958E+04 0.  0.
        3    1    3    3  502    0 -0.15122202785E+04  0.29523266480E+03  0.35206759490E+03  0.15804822362E+04  0.10100000352E+00 0.  1.
       -3    1    3    3    0  502  0.15122202785E+04 -0.29523266480E+03  0.10150500270E+04  0.18450742708E+04  0.10100000352E+00 0. -1.
</event>
<event>
 5   0  0.2658600E-06  0.3218624E+04  0.7818609E-02  0.8183916E-01
       -2   -1    0    0    0  501  0.00000000000E+00  0.00000000000E+00  0.16290039363E+04  0.16290039363E+04  0.25500000920E-02 0.  1.
        2   -1    0    0  501    0  0.00000000000E+00  0.00000000000E+00 -0.15898581617E+04  0.15898581617E+04  0.25500000920E-02 0. -1.
    10030    2    1    2    0    0  0.00000000000E+00  0.00000000000E+00  0.39145774584E+02  0.32188620980E+04  0.32186240561E+04 0.  0.
        5    1    3    3  502    0  0.49566002183E+03  0.87448369880E+03  0.12764325263E+04  0.16247161847E+04  0.46999998093E+01 0.  1.
       -5    1    3    3    0  502 -0.49566002183E+03 -0.87448369880E+03 -0.12372867517E+04  0.15941459133E+04  0.46999998093E+01 0. -1.
</event>
<event>
 5   0  0.2674551E-06  0.3269521E+04  0.7818609E-02  0.8170694E-01
       -2   -1    0    0    0  501  0.00000000000E+00  0.00000000000E+00  0.11313160568E+04  0.11313160568E+04  0.25500000920E-02 0. -1.
        2   -1    0    0  501    0  0.00000000000E+00  0.00000000000E+00 -0.23622411552E+04  0.23622411552E+04  0.25500000920E-02 0.  1.
    10030    2    1    2    0    0  0.00000000000E+00  0.00000000000E+00 -0.12309250984E+04  0.34935572120E+04  0.32695206676E+04 0.  0.
        3    1    3    3  502    0  0.10164486058E+04 -0.16302242283E+02 -0.19834253383E+04  0.22287686318E+04  0.10100000352E+00 0.  1.
       -3    1    3    3    0  502 -0.10164486058E+04  0.16302242283E+02  0.75250023990E+03  0.12647885802E+04  0.10100000352E+00 0. -1.
</event>
<event>
 5   0  0.9530268E-07  0.3572182E+04  0.7818609E-02  0.8096894E-01
       -1   -1    0    0    0  501  0.00000000000E+00  0.00000000000E+00  0.19526867302E+04  0.19526867302E+04  0.50400001928E-02 0. -1.
        1   -1    0    0  501    0  0.00000000000E+00  0.00000000000E+00 -0.16337086153E+04  0.16337086153E+04  0.50400001928E-02 0.  1.
    10030    2    1    2    0    0  0.00000000000E+00  0.00000000000E+00  0.31897811490E+03  0.35863953455E+04  0.35721820413E+04 0.  0.
        5    1    3    3  502    0 -0.23038332370E+02 -0.15084058475E+03  0.19461245340E+04  0.19521030809E+04  0.46999998093E+01 0. -1.
       -5    1    3    3    0  502  0.23038332370E+02  0.15084058475E+03 -0.16271464191E+04  0.16342922645E+04  0.46999998093E+01 0.  1.
</event>
<event>
 5   0  0.2658600E-06  0.3093584E+04  0.7818609E-02  0.8217501E-01
        2   -1    0    0  501    0  0.00000000000E+00  0.00000000000E+00  0.15967721314E+04  0.15967721314E+04  0.25500000920E-02 0.  1.
       -2   -1    0    0    0  501  0.00000000000E+00  0.00000000000E+00 -0.14983760025E+04  0.14983760025E+04  0.25500000920E-02 0. -1.
    10030    2    1    2    0    0  0.00000000000E+00  0.00000000000E+00  0.98396128846E+02  0.30951481339E+04  0.30935837103E+04 0.  0.
        5    1    3    3  502    0  0.62318907007E+03 -0.96502494116E+03 -0.98713711713E+03  0.15146285129E+04  0.46999998093E+01 0. -1.
       -5    1    3    3    0  502 -0.62318907007E+03  0.96502494116E+03  0.10855332460E+04  0.15805196210E+04  0.46999998093E+01 0.  1.
</event>
<event>
 5   0  0.2614212E-06  0.3303397E+04  0.7818609E-02  0.8162032E-01
        2   -1    0    0  501    0  0.00000000000E+00  0.00000000000E+00  0.25542033275E+04  0.25542033275E+04  0.25500000920E-02 0. -1.
       -2   -1    0    0    0  501  0.00000000000E+00  0.00000000000E+00 -0.10680854645E+04  0.10680854645E+04  0.25500000920E-02 0.  1.
    10030    2    1    2    0    0  0.00000000000E+00  0.00000000000E+00  0.14861178630E+04  0.36222887920E+04  0.33033967049E+04 0.  0.
        2    1    3    3  502    0 -0.14351812557E+04  0.76689936136E+03  0.10536465851E+04  0.19385693161E+04  0.25500000920E-02 0.  1.
       -2    1    3    3    0  502  0.14351812557E+04 -0.76689936136E+03  0.43247127785E+03  0.16837194758E+04  0.25500000920E-02 0. -1.
</event>
<event>
 5   0  0.2658600E-06  0.3302478E+04  0.7818609E-02  0.8162265E-01
        2   -1    0    0  501    0  0.00000000000E+00  0.00000000000E+00  0.24032053247E+04  0.24032053247E+04  0.25500000920E-02 0.  1.
       -2   -1    0    0    0  501  0.00000000000E+00  0.00000000000E+00 -0.11345640085E+04  0.11345640085E+04  0.25500000920E-02 0. -1.
    10030    2    1    2    0    0  0.00000000000E+00  0.00000000000E+00  0.12686413162E+04  0.35377693332E+04  0.33024780190E+04 0.  0.
        5    1    3    3  502    0 -0.64947362805E+03 -0.87716163107E+02 -0.98926633458E+03  0.11866676407E+04  0.46999998093E+01 0. -1.
       -5    1    3    3    0  502  0.64947362805E+03  0.87716163107E+02  0.22579076508E+04  0.23511016925E+04  0.46999998093E+01 0.  1.
</event>
<event>
 5   0  0.8845526E-07  0.3297285E+04  0.7818609E-02  0.8163587E-01
        1   -1    0    0  501    0  0.00000000000E+00  0.00000000000E+00  0.15169874667E+04  0.15169874667E+04  0.50400001928E-02 0.  1.
       -1   -1    0    0    0  501  0.00000000000E+00  0.00000000000E+00 -0.17917232505E+04  0.17917232505E+04  0.50400001928E-02 0. -1.
    10030    2    1    2    0    0  0.00000000000E+00  0.00000000000E+00 -0.27473578383E+03  0.33087107172E+04  0.32972847708E+04 0.  0.
        1    1    3    3  502    0 -0.78582232837E+03 -0.11599054264E+04  0.73462227768E+03  0.15819504483E+04  0.50400001928E-02 0.  1.
       -1    1    3    3    0  502  0.78582232837E+03  0.11599054264E+04 -0.10093580615E+04  0.17267602689E+04  0.50400001928E-02 0. -1.
</event>
<event>
 5   0  0.2614212E-06  0.3324271E+04  0.7818609E-02  0.8156747E-01
       -2   -1    0    0    0  501  0.00000000000E+00  0.00000000000E+00  0.11571313929E+04  0.11571313929E+04  0.25500000920E-02 0. -1.
        2   -1    0    0  501    0  0.00000000000E+00  0.00000000000E+00 -0.23875368730E+04  0.23875368730E+04  0.25500000920E-02 0.  1.
    10030    2    1    2    0    0  0.00000000000E+00  0.00000000000E+00 -0.12304054801E+04  0.35446682660E+04  0.33242706674E+04 0.  0.
        2    1    3    3  502    0  0.27225530656E+03 -0.16175153459E+04 -0.32865763640E+03  0.16728701947E+04  0.25500000920E-02 0.  1.
       -2    1    3    3    0  502 -0.27225530656E+03  0.16175153459E+04 -0.90174784366E+03  0.18717980713E+04  0.25500000920E-02 0. -1.
</event>
<event>
 5   0  0.9530268E-07  0.3243901E+04  0.7818609E-02  0.8177318E-01
        1   -1    0    0  501    0  0.00000000000E+00  0.00000000000E+00  0.14284447777E+04  0.14284447777E+04  0.50400001928E-02 0.  1.
       -1   -1    0    0    0  501  0.00000000000E+00  0.00000000000E+00 -0.18416700491E+04  0.18416700491E+04  0.50400001928E-02 0. -1.
    10030    2    1    2    0    0  0.00000000000E+00  0.00000000000E+00 -0.41322527145E+03  0.32701148269E+04  0.32439013326E+04 0.  0.
        5    1    3    3  502    0  0.23739908755E+03 -0.13755883311E+04 -0.10391801933E+04  0.17402641029E+04  0.46999998093E+01 0.  1.
       -5    1    3    3    0  502 -0.23739908755E+03  0.13755883311E+04  0.62595492184E+03  0.15298507240E+04  0.46999998093E+01 0. -1.
</event>
<event>
 5   0  0.9268670E-07  0.3310533E+04  0.7818609E-02  0.8160220E-01
       -1   -1    0    0    0  501  0.00000000000E+00  0.00000000000E+00  0.16601638297E+04  0.16601638297E+04  0.50400001928E-02 0. -1.
        1   -1    0    0  501    0  0.00000000000E+00  0.00000000000E+00 -0.16503840221E+04  0.16503840221E+04  0.50400001928E-02 0.  1.
    10030    2    1    2    0    0  0.00000000000E+00  0.00000000000E+00  0.97798076268E+01  0.33105478517E+04  0.33105334063E+04 0.  0.
        3    1    3    3  502    0  0.14133517362E+04 -0.27718141241E+03 -0.81090479504E+03  0.16528639576E+04  0.10100000352E+00 0.  1.
       -3    1    3    3    0  502 -0.14133517362E+04  0.27718141241E+03  0.82068460266E+03  0.16576838941E+04  0.10100000352E+00 0. -1.
</event>
<event>
 5   0  0.2574803E-06  0.3264687E+04  0.7818609E-02  0.8171939E-01
        2   -1    0    0  501    0  0.00000000000E+00  0.00000000000E+00  0.83777714693E+03  0.83777714694E+03  0.25500000920E-02 0. -1.
       -2   -1    0    0    0  501  0.00000000000E+00  0.00000000000E+00 -0.31804933638E+04  0.31804933638E+04  0.25500000920E-02 0.  1.
    10030    2    1    2    0    0  0.00000000000E+00  0.00000000000E+00 -0.23427162169E+04  0.40182705107E+04  0.32646866044E+04 0.  0.
        4    1    3    3  502    0  0.15060907145E+04  0.48154633803E+03 -0.16703327415E+04  0.23000454769E+04  0.12699999809E+01 0. -1.
       -4    1    3    3    0  502 -0.15060907145E+04 -0.48154633803E+03 -0.67238347543E+03  0.17182250338E+04  0.12699999809E+01 0.  1.
</event>
<event>
 5   0  0.9530268E-07  0.3373044E+04  0.7818609E-02  0.8144554E-01
        1   -1    0    0  501    0  0.00000000000E+00  0.00000000000E+00  0.25610907747E+04  0.25610907747E+04  0.50400001928E-02 0. -1.
       -1   -1    0    0    0  501  0.00000000000E+00  0.00000000000E+00 -0.11106035233E+04  0.11106035233E+04  0.50400001928E-02 0.  1.
    10030    2    1    2    0    0  0.00000000000E+00  0.00000000000E+00  0.14504872514E+04  0.36716942980E+04  0.33730439890E+04 0.  0.
        5    1    3    3  502    0  0.77109585200E+02  0.88111383796E+03 -0.83787403369E+03  0.12183441508E+04  0.46999998093E+01 0.  1.
       -5    1    3    3    0  502 -0.77109585200E+02 -0.88111383796E+03  0.22883612851E+04  0.24533501472E+04  0.46999998093E+01 0. -1.
</event>
<event>
 5   0  0.8845526E-07  0.3311850E+04  0.7818609E-02  0.8159887E-01
        1   -1    0    0  501    0  0.00000000000E+00  0.00000000000E+00  0.27778654834E+04  0.27778654834E+04  0.50400001928E-02 0.  1.
       -1   -1    0    0    0  501  0.00000000000E+00  0.00000000000E+00 -0.98712056925E+03  0.98712056926E+03  0.50400001928E-02 0. -1.
    10030    2    1    2    0    0  0.00000000000E+00  0.00000000000E+00  0.17907449142E+04  0.37649860527E+04  0.33118503332E+04 0.  0.
        1    1    3    3  502    0  0.72910043337E+02  0.72623205820E+03 -0.79439072154E+03  0.10787889021E+04  0.50400001928E-02 0. -1.
       -1    1    3    3    0  502 -0.72910043337E+02 -0.72623205820E+03  0.25851356357E+04  0.26861971506E+04  0.50400001928E-02 0.  1.
</event>
<event>
 5   0  0.9530268E-07  0.2632238E+04  0.7818609E-02  0.8357333E-01
        1   -1    0    0  501    0  0.00000000000E+00  0.00000000000E+00  0.16507922518E+04  0.16507922518E+04  0.50400001928E-02 0.  1.
       -1   -1    0    0    0  501  0.00000000000E+00  0.00000000000E+00 -0.10492954754E+04  0.10492954755E+04  0.50400001928E-02 0. -1.
    10030    2    1    2    0    0  0.00000000000E+00  0.00000000000E+00  0.60149677640E+03  0.27000877273E+04  0.26322377102E+04 0.  0.
        5    1    3    3  502    0  0.99732207140E+03  0.85004481411E+03  0.42604123406E+03  0.13779552689E+04  0.46999998093E+01 0. -1.
       -5    1    3    3    0  502 -0.99732207140E+03 -0.85004481411E+03  0.17545554234E+03  0.13221324584E+04  0.46999998093E+01 0.  1.
</event>
<event>
 5   0  0.2658600E-06  0.3280462E+04  0.7818609E-02  0.8167885E-01
        2   -1    0    0  501    0  0.00000000000E+00  0.00000000000E+00  0.19366757524E+04  0.19366757524E+04  0.25500000920E-02 0. -1.
       -2   -1    0    0    0  501  0.00000000000E+00  0.00000000000E+00 -0.13891624089E+04  0.13891624089E+04  0.25500000920E-02 0.  1.
    10030    2    1    2    0    0  0.00000000000E+00  0.00000000000E+00  0.54751334349E+03  0.33258381614E+04  0.32804616465E+04 0.  0.
        5    1    3    3  502    0 -0.35134394889E+02 -0.16256752271E+04  0.49186190110E+03  0.16988244728E+04  0.46999998093E+01 0. -1.
       -5    1    3    3    0  502  0.35134394889E+02  0.16256752271E+04  0.55651442392E+02  0.16270136885E+04  0.46999998093E+01 0.  1.
</event>
<event>
 5   0  0.8845526E-07  0.3317016E+04  0.7818609E-02  0.8158579E-01
        1   -1    0    0  501    0  0.00000000000E+00  0.00000000000E+00  0.17980077578E+04  0.17980077578E+04  0.50400001928E-02 0.  1.
       -1   -1    0    0    0  501  0.00000000000E+00  0.00000000000E+00 -0.15298318788E+04  0.15298318788E+04  0.50400001928E-02 0. -1.
    10030    2    1    2    0    0  0.00000000000E+00  0.00000000000E+00  0.26817587904E+03  0.33278396366E+04  0.33170164824E+04 0.  0.
        1    1    3    3  502    0 -0.11464631808E+03 -0.78281773873E+03 -0.13283040314E+04  0.15460721167E+04  0.50400001928E-02 0. -1.
       -1    1    3    3    0  502  0.11464631808E+03  0.78281773873E+03  0.15964799104E+04  0.17817675199E+04  0.50400001928E-02 0.  1.
</event>
<event>
 5   0  0.8520125E-07  0.3275551E+04  0.7818609E-02  0.8169144E-01
        3   -1    0    0  501    0  0.00000000000E+00  0.00000000000E+00  0.13563962028E+04  0.13563962066E+04  0.10100000352E+00 0.  1.
       -3   -1    0    0    0  501  0.00000000000E+00  0.00000000000E+00 -0.19775257744E+04  0.19775257770E+04  0.10100000352E+00 0. -1.
    10030    2    1    2    0    0  0.00000000000E+00  0.00000000000E+00 -0.62112957161E+03  0.33339219836E+04  0.32755509228E+04 0.  0.
        3    1    3    3  502    0 -0.11378732047E+04 -0.10650565469E+04  0.20159965575E+03  0.15715416983E+04  0.10100000352E+00 0. -1.
       -3    1    3    3    0  502  0.11378732047E+04  0.10650565469E+04 -0.82272922736E+03  0.17623802853E+04  0.10100000352E+00 0.  1.
</event>
<event>
 5   0  0.2658600E-06  0.3300170E+04  0.7818609E-02  0.8162852E-01
        2   -1    0    0  501    0  0.00000000000E+00  0.00000000000E+00  0.16682475181E+04  0.16682475181E+04  0.25500000920E-02 0. -1.
       -2   -1    0    0    0  501  0.00000000000E+00  0.00000000000E+00 -0.16321203369E+04  0.16321203369E+04  0.25500000920E-02 0.  1.
    10030    2    1    2    0    0  0.00000000000E+00  0.00000000000E+00  0.36127181180E+02  0.33003678550E+04  0.33001701176E+04 0.  0.
        5    1    3    3  502    0 -0.51978114887E+03  0.40112343973E+03  0.15319859091E+04  0.16667559426E+04  0.46999998093E+01 0. -1.
       -5    1    3    3    0  502  0.51978114887E+03 -0.40112343973E+03 -0.14958587279E+04  0.16336119124E+04  0.46999998093E+01 0.  1.
</event>
<event>
 5   0  0.9530268E-07  0.3272202E+04  0.7818609E-02  0.8170005E-01
       -1   -1    0    0    0  501  0.00000000000E+00  0.00000000000E+00  0.19708106026E+04  0.19708106026E+04  0.50400001928E-02 0.  1.
        1   -1    0    0  501    0  0.00000000000E+00  0.00000000000E+00 -0.13582361112E+04  0.13582361112E+04  0.50400001928E-02 0. -1.
    10030    2    1    2    0    0  0.00000000000E+00  0.00000000000E+00  0.61257449141E+03  0.33290467139E+04  0.32722017840E+04 0.  0.
        5    1    3    3  502    0 -0.14904360673E+04 -0.61040849565E+03  0.59904626731E+03  0.17183936460E+04  0.46999998093E+01 0. -1.
       -5    1    3    3    0  502  0.14904360673E+04  0.61040849565E+03  0.13528224101E+02  0.16106530679E+04  0.46999998093E+01 0.  1.
</event>
<event>
 5   0  0.2574803E-06  0.3327190E+04  0.7818609E-02  0.8156011E-01
       -2   -1    0    0    0  501  0.00000000000E+00  0.00000000000E+00  0.23918682637E+04  0.23918682637E+04  0.25500000920E-02 0.  1.
        2   -1    0    0  501    0  0.00000000000E+00  0.00000000000E+00 -0.11570656973E+04  0.11570656973E+04  0.25500000920E-02 0. -1.
    10030    2    1    2    0    0  0.00000000000E+00  0.00000000000E+00  0.12348025663E+04  0.35489339610E+04  0.33271902383E+04 0.  0.
        4    1    3    3  502    0  0.13374154382E+04 -0.88217294005E+03  0.10951800371E+04  0.19407035005E+04  0.12699999809E+01 0.  1.
       -4    1    3    3    0  502 -0.13374154382E+04  0.88217294005E+03  0.13962252925E+03  0.16082304605E+04  0.12699999809E+01 0. -1.
</event>
<event>
 5   0  0.9295663E-07  0.3363028E+04  0.7818609E-02  0.8147040E-01
       -1   -1    0    0    0  501  0.00000000000E+00  0.00000000000E+00  0.14692625285E+04  0.14692625285E+04  0.50400001928E-02 0. -1.
        1   -1    0    0  501    0  0.00000000000E+00  0.00000000000E+00 -0.19244280685E+04  0.19244280685E+04  0.50400001928E-02 0.  1.
    10030    2    1    2    0    0  0.00000000000E+00  0.00000000000E+00 -0.45516553997E+03  0.33936905970E+04  0.33630284268E+04 0.  0.
        4    1    3    3  502    0  0.16434776470E+04 -0.24412168132E+03  0.33375593101E+02  0.16618452739E+04  0.12699999809E+01 0. -1.
       -4    1    3    3    0  502 -0.16434776470E+04  0.24412168132E+03 -0.48854113307E+03  0.17318453231E+04  0.12699999809E+01 0.  1.
</event>
<event>
 5   0  0.8705956E-07  0.3280569E+04  0.7818609E-02  0.8167857E-01
        1   -1    0    0  501    0  0.00000000000E+00  0.00000000000E+00  0.21832080033E+04  0.21832080033E+04  0.50400001928E-02 0. -1.
       -1   -1    0    0    0  501  0.00000000000E+00  0.00000000000E+00 -0.12323763678E+04  0.12323763678E+04  0.50400001928E-02 0.  1.
    10030    2    1    2    0    0  0.00000000000E+00  0.00000000000E+00  0.95083163553E+03  0.34155843711E+04  0.32805694318E+04 0.  0.
        2    1    3    3  502    0  0.11711374383E+04 -0.87405859293E+03  0.12510543756E+04  0.19237147330E+04  0.25500000920E-02 0. -1.
       -2    1    3    3    0  502 -0.11711374383E+04  0.87405859293E+03 -0.30022274006E+03  0.14918696381E+04  0.25500000920E-02 0.  1.
</event>
<event>
 5   0  0.9268670E-07  0.2402160E+04  0.7818609E-02  0.8438695E-01
       -1   -1    0    0    0  501  0.00000000000E+00  0.00000000000E+00  0.12728528852E+04  0.12728528852E+04  0.50400001928E-02 0.  1.
        1   -1    0    0  501    0  0.00000000000E+00  0.00000000000E+00 -0.11333538423E+04  0.11333538424E+04  0.50400001928E-02 0. -1.
    10030    2    1    2    0    0  0.00000000000E+00  0.00000000000E+00  0.13949904283E+03  0.24062067275E+04  0.24021596185E+04 0.  0.
        3    1    3    3  502    0 -0.10779870848E+04  0.48114854228E+03  0.29155569971E+03  0.12159625039E+04  0.10100000352E+00 0. -1.
       -3    1    3    3    0  502  0.10779870848E+04 -0.48114854228E+03 -0.15205665688E+03  0.11902442236E+04  0.10100000352E+00 0.  1.
</event>
<event>
 5   0  0.2674551E-06  0.3305129E+04  0.7818609E-02  0.8161592E-01
        2   -1    0    0  501    0  0.00000000000E+00  0.00000000000E+00  0.15593160128E+04  0.15593160128E+04  0.25500000920E-02 0. -1.
       -2   -1    0    0    0  501  0.00000000000E+00  0.00000000000E+00 -0.17513890677E+04  0.17513890677E+04  0.25500000920E-02 0.  1.
    10030    2    1    2    0    0  0.00000000000E+00  0.00000000000E+00 -0.19207305490E+03  0.33107050805E+04  0.33051287526E+04 0.  0.
        3    1    3    3  502    0  0.47485886882E+03 -0.15780577258E+04  0.27507997999E+02  0.16481850113E+04  0.10100000352E+00 0. -1.
       -3    1    3    3    0  502 -0.47485886882E+03  0.15780577258E+04 -0.21958105290E+03  0.16625200692E+04  0.10100000352E+00 0.  1.
</event>
<event>
 5   0  0.8705956E-07  0.2526675E+04  0.7818609E-02  0.8393544E-01
        1   -1    0    0  501    0  0.00000000000E+00  0.00000000000E+00  0.23692435372E+04  0.23692435372E+04  0.50400001928E-02 0. -1.
       -1   -1    0    0    0  501  0.00000000000E+00  0.00000000000E+00 -0.67364187316E+03  0.67364187318E+03  0.50400001928E-02 0.  1.
    10030    2    1    2    0    0  0.00000000000E+00  0.00000000000E+00  0.16956016640E+04  0.30428854104E+04  0.25266750123E+04 0.  0.
        2    1    3    3  502    0 -0.85925915526E+03  0.75675495499E+03  0.14907428674E+04  0.18797123861E+04  0.25500000920E-02 0. -1.
       -2    1    3    3    0  502  0.85925915526E+03 -0.75675495499E+03  0.20485879665E+03  0.11631730243E+04  0.25500000920E-02 0.  1.
</event>
<event>
 5   0  0.8705956E-07  0.3163342E+04  0.7818609E-02  0.8198566E-01
       -1   -1    0    0    0  501  0.00000000000E+00  0.00000000000E+00  0.10311543228E+04  0.10311543228E+04  0.50400001928E-02 0.  1.
        1   -1    0    0  501    0  0.00000000000E+00  0.00000000000E+00 -0.24260989737E+04  0.24260989737E+04  0.50400001928E-02 0. -1.
    10030    2    1    2    0    0  0.00000000000E+00  0.00000000000E+00 -0.13949446509E+04  0.34572532965E+04  0.31633415524E+04 0.  0.
        2    1    3    3  502    0  0.79860551047E+03 -0.69723827316E+03  0.58537079621E+03  0.12110206191E+04  0.25500000920E-02 0.  1.
       -2    1    3    3    0  502 -0.79860551047E+03  0.69723827316E+03 -0.19803154471E+04  0.22462326774E+04  0.25500000920E-02 0. -1.
</event>
<event>
 5   0  0.2658600E-06  0.3284519E+04  0.7818609E-02  0.8166846E-01
        2   -1    0    0  501    0  0.00000000000E+00  0.00000000000E+00  0.12395876737E+04  0.12395876737E+04  0.25500000920E-02 0.  1.
       -2   -1    0    0    0  501  0.00000000000E+00  0.00000000000E+00 -0.21757367541E+04  0.21757367541E+04  0.25500000920E-02 0. -1.
    10030    2    1    2    0    0  0.00000000000E+00  0.00000000000E+00 -0.93614908040E+03  0.34153244279E+04  0.32845191196E+04 0.  0.
        5    1    3    3  502    0 -0.15842545160E+04 -0.43195973938E+03 -0.44384899249E+03  0.17010219299E+04  0.46999998093E+01 0.  1.
       -5    1    3    3    0  502  0.15842545160E+04  0.43195973938E+03 -0.49230008792E+03  0.17143024980E+04  0.46999998093E+01 0. -1.
</event>
<event>
 5   0  0.2574803E-06  0.3291750E+04  0.7818609E-02  0.8164998E-01
       -2   -1    0    0    0  501  0.00000000000E+00  0.00000000000E+00  0.15282600874E+04  0.15282600874E+04  0.25500000920E-02 0.  1.
        2   -1    0    0  501    0  0.00000000000E+00  0.00000000000E+00 -0.17725412154E+04  0.17725412154E+04  0.25500000920E-02 0. -1.
    10030    2    1    2    0    0  0.00000000000E+00  0.00000000000E+00 -0.24428112797E+03  0.33008013028E+04  0.32917496823E+04 0.  0.
        4    1    3    3  502    0 -0.43470092645E+03 -0.12221297247E+04  0.89372783308E+03  0.15752196710E+04  0.12699999809E+01 0.  1.
       -4    1    3    3    0  502  0.43470092645E+03  0.12221297247E+04 -0.11380089611E+04  0.17255816317E+04  0.12699999809E+01 0. -1.
</event>
<event>
 5   0  0.8705956E-07  0.3273708E+04  0.7818609E-02  0.8169618E-01
       -1   -1    0    0    0  501  0.00000000000E+00  0.00000000000E+00  0.11496369981E+04  0.11496369981E+04  0.50400001928E-02 0.  1.
        1   -1    0    0  501    0  0.00000000000E+00  0.00000000000E+00 -0.23305540221E+04  0.23305540221E+04  0.50400001928E-02 0. -1.
    10030    2    1    2    0    0  0.00000000000E+00  0.00000000000E+00 -0.11809170240E+04  0.34801910203E+04  0.32737080688E+04 0.  0.
        2    1    3    3  502    0  0.15293066821E+04 -0.56524962602E+03 -0.43638601519E+03  0.16878148068E+04  0.25500000920E-02 0.  1.
       -2    1    3    3    0  502 -0.15293066821E+04  0.56524962602E+03 -0.74453100884E+03  0.17923762135E+04  0.25500000920E-02 0. -1.
</event>
<event>
 5   0  0.9268670E-07  0.3296924E+04  0.7818609E-02  0.8163678E-01
       -1   -1    0    0    0  501  0.00000000000E+00  0.00000000000E+00  0.16312759469E+04  0.16312759469E+04  0.50400001928E-02 0. -1.
        1   -1    0    0  501    0  0.00000000000E+00  0.00000000000E+00 -0.16658293341E+04  0.16658293341E+04  0.50400001928E-02 0.  1.
    10030    2    1    2    0    0  0.00000000000E+00  0.00000000000E+00 -0.34553387134E+02  0.32971052810E+04  0.32969242177E+04 0.  0.
        3    1    3    3  502    0  0.15607565838E+04  0.51196645631E+03 -0.15641214548E+03  0.16500107684E+04  0.10100000352E+00 0.  1.
       -3    1    3    3    0  502 -0.15607565838E+04 -0.51196645631E+03  0.12185875834E+03  0.16470945126E+04  0.10100000352E+00 0. -1.
</event>
<event>
 5   0  0.9268670E-07  0.3155865E+04  0.7818609E-02  0.8200571E-01
        1   -1    0    0  501    0  0.00000000000E+00  0.00000000000E+00  0.10257888318E+04  0.10257888318E+04  0.50400001928E-02 0.  1.
       -1   -1    0    0    0  501  0.00000000000E+00  0.00000000000E+00 -0.24272748487E+04  0.24272748488E+04  0.50400001928E-02 0. -1.
    10030    2    1    2    0    0  0.00000000000E+00  0.00000000000E+00 -0.14014860169E+04  0.34530636806E+04  0.31558652897E+04 0.  0.
        3    1    3    3  502    0  0.12616083309E+04  0.53474345434E+03 -0.15569050055E+04  0.20740200936E+04  0.10100000352E+00 0. -1.
       -3    1    3    3    0  502 -0.12616083309E+04 -0.53474345434E+03  0.15541898854E+03  0.13790435870E+04  0.10100000352E+00 0.  1.
</event>
<event>
 5   0  0.2614212E-06  0.3358492E+04  0.7818609E-02  0.8148169E-01
       -2   -1    0    0    0  501  0.00000000000E+00  0.00000000000E+00  0.12758939997E+04  0.12758939997E+04  0.25500000920E-02 0.  1.
        2   -1    0    0  501    0  0.00000000000E+00  0.00000000000E+00 -0.22101110631E+04  0.22101110631E+04  0.25500000920E-02 0. -1.
    10030    2    1    2    0    0  0.00000000000E+00  0.00000000000E+00 -0.93421706346E+03  0.34860050628E+04  0.33584921879E+04 0.  0.
        2    1    3    3  502    0 -0.98940350174E+03  0.10124985876E+03 -0.18715118956E+04  0.21193696229E+04  0.25500000920E-02 0. -1.
       -2    1    3    3    0  502  0.98940350174E+03 -0.10124985876E+03  0.93729483215E+03  0.13666354399E+04  0.25500000920E-02 0.  1.
</event>
<event>
 5   0  0.8845526E-07  0.3292629E+04  0.7818609E-02  0.8164774E-01
        1   -1    0    0  501    0  0.00000000000E+00  0.00000000000E+00  0.21739163399E+04  0.21739163399E+04  0.50400001928E-02 0.  1.
       -1   -1    0    0    0  501  0.00000000000E+00  0.00000000000E+00 -0.12467594214E+04  0.12467594215E+04  0.50400001928E-02 0. -1.
    10030    2    1    2    0    0  0.00000000000E+00  0.00000000000E+00  0.92715691842E+03  0.34206757613E+04  0.32926285416E+04 0.  0.
        1    1    3    3  502    0  0.13823321034E+04  0.65642909037E+03  0.10943214369E+04  0.18812975846E+04  0.50400001928E-02 0. -1.
       -1    1    3    3    0  502 -0.13823321034E+04 -0.65642909037E+03 -0.16716451846E+03  0.15393781767E+04  0.50400001928E-02 0.  1.
</event>
<event>
 5   0  0.2658600E-06  0.2729687E+04  0.7818609E-02  0.8325436E-01
        2   -1    0    0  501    0  0.00000000000E+00  0.00000000000E+00  0.13396303866E+04  0.13396303866E+04  0.25500000920E-02 0. -1.
       -2   -1    0    0    0  501  0.00000000000E+00  0.00000000000E+00 -0.13905310629E+04  0.13905310629E+04  0.25500000920E-02 0.  1.
    10030    2    1    2    0    0  0.00000000000E+00  0.00000000000E+00 -0.50900676288E+02  0.27301614496E+04  0.27296869165E+04 0.  0.
        5    1    3    3  502    0  0.10041905657E+04 -0.50338089069E+03 -0.80081704654E+03  0.13795365328E+04  0.46999998093E+01 0.  1.
       -5    1    3    3    0  502 -0.10041905657E+04  0.50338089069E+03  0.74991637025E+03  0.13506249168E+04  0.46999998093E+01 0. -1.
</event>
<event>
 5   0  0.9268670E-07  0.3238638E+04  0.7818609E-02  0.8178687E-01
       -1   -1    0    0    0  501  0.00000000000E+00  0.00000000000E+00  0.16499895730E+04  0.16499895730E+04  0.50400001928E-02 0. -1.
        1   -1    0    0  501    0  0.00000000000E+00  0.00000000000E+00 -0.15892185270E+04  0.15892185270E+04  0.50400001928E-02 0.  1.
    10030    2    1    2    0    0  0.00000000000E+00  0.00000000000E+00  0.60771046026E+02  0.32392081000E+04  0.32386379846E+04 0.  0.
        3    1    3    3  502    0  0.77978908564E+03 -0.10872638825E+04  0.94267558781E+03  0.16367195979E+04  0.10100000352E+00 0. -1.
       -3    1    3    3    0  502 -0.77978908564E+03  0.10872638825E+04 -0.88190454178E+03  0.16024885021E+04  0.10100000352E+00 0.  1.
</event>
<event>
 5   0  0.2614212E-06  0.3306331E+04  0.7818609E-02  0.8161286E-01
        2   -1    0    0  501    0  0.00000000000E+00  0.00000000000E+00  0.16850456660E+04  0.16850456660E+04  0.25500000920E-02 0. -1.
       -2   -1    0    0    0  501  0.00000000000E+00  0.00000000000E+00 -0.16218884494E+04  0.16218884494E+04  0.25500000920E-02 0.  1.
    10030    2    1    2    0    0  0.00000000000E+00  0.00000000000E+00  0.63157216560E+02  0.33069341154E+04  0.33063309588E+04 0.  0.
        2    1    3    3  502    0  0.97010345992E+03 -0.13381389054E+04  0.66793683507E+02  0.16541396100E+04  0.25500000920E-02 0. -1.
       -2    1    3    3    0  502 -0.97010345992E+03  0.13381389054E+04 -0.36364669469E+01  0.16527945054E+04  0.25500000920E-02 0.  1.
</event>
<event>
 5   0  0.2658600E-06  0.3260357E+04  0.7818609E-02  0.8173057E-01
       -2   -1    0    0    0  501  0.00000000000E+00  0.00000000000E+00  0.11077880809E+04  0.11077880809E+04  0.25500000920E-02 0.  1.
        2   -1    0    0  501    0  0.00000000000E+00  0.00000000000E+00 -0.23989075971E+04  0.23989075971E+04  0.25500000920E-02 0. -1.
    10030    2    1    2    0    0  0.00000000000E+00  0.00000000000E+00 -0.12911195162E+04  0.35066956780E+04  0.32603565715E+04 0.  0.
        5    1    3    3  502    0  0.87173463903E+03 -0.10739136458E+04 -0.15734393612E+04  0.20949809815E+04  0.46999998093E+01 0.  1.
       -5    1    3    3    0  502 -0.87173463903E+03  0.10739136458E+04  0.28231984501E+03  0.14117146965E+04  0.46999998093E+01 0. -1.
</event>
<event>
 5   0  0.8845526E-07  0.3226990E+04  0.7818609E-02  0.8181725E-01
        1   -1    0    0  501    0  0.00000000000E+00  0.00000000000E+00  0.86597669810E+03  0.86597669812E+03  0.50400001928E-02 0.  1.
       -1   -1    0    0    0  501  0.00000000000E+00  0.00000000000E+00 -0.30062781798E+04  0.30062781799E+04  0.50400001928E-02 0. -1.
    10030    2    1    2    0    0  0.00000000000E+00  0.00000000000E+00 -0.21403014817E+04  0.38722548780E+04  0.32269904566E+04 0.  0.
        1    1    3    3  502    0  0.22675213070E+02  0.93539216487E+03 -0.26474889581E+04  0.28079655359E+04  0.50400001928E-02 0. -1.
       -1    1    3    3    0  502 -0.22675213070E+02 -0.93539216487E+03  0.50718747639E+03  0.10642893421E+04  0.50400001928E-02 0.  1.
</event>
<event>
 5   0  0.9295663E-07  0.3398744E+04  0.7818609E-02  0.8138215E-01
        1   -1    0    0  501    0  0.00000000000E+00  0.00000000000E+00  0.15108073416E+04  0.15108073416E+04  0.50400001928E-02 0. -1.
       -1   -1    0    0    0  501  0.00000000000E+00  0.00000000000E+00 -0.19114720143E+04  0.19114720143E+04  0.50400001928E-02 0.  1.
    10030    2    1    2    0    0  0.00000000000E+00  0.00000000000E+00 -0.40066467274E+03  0.34222793559E+04  0.33987444461E+04 0.  0.
        4    1    3    3  502    0  0.90574800569E+03  0.92673227023E+03 -0.13073323292E+04  0.18407421282E+04  0.12699999809E+01 0.  1.
       -4    1    3    3    0  502 -0.90574800569E+03 -0.92673227023E+03  0.90666765648E+03  0.15815372277E+04  0.12699999809E+01 0. -1.
</event>
<event>
 5   0  0.2674551E-06  0.3324262E+04  0.7818609E-02  0.8156749E-01
       -2   -1    0    0    0  501  0.00000000000E+00  0.00000000000E+00  0.12466891567E+04  0.12466891567E+04  0.25500000920E-02 0. -1.
        2   -1    0    0  501    0  0.00000000000E+00  0.00000000000E+00 -0.22160128710E+04  0.22160128710E+04  0.25500000920E-02 0.  1.
    10030    2    1    2    0    0  0.00000000000E+00  0.00000000000E+00 -0.96932371425E+03  0.34627020277E+04  0.33242618533E+04 0.  0.
        3    1    3    3  502    0 -0.76233073490E+03 -0.76008374294E+03  0.83449217459E+03  0.13620765930E+04  0.10100000352E+00 0. -1.
       -3    1    3    3    0  502  0.76233073490E+03  0.76008374294E+03 -0.18038158888E+04  0.21006254346E+04  0.10100000352E+00 0.  1.
</event>
<event>
 5   0  0.9530268E-07  0.2830108E+04  0.7818609E-02  0.8293982E-01
       -1   -1    0    0    0  501  0.00000000000E+00  0.00000000000E+00  0.16228571547E+04  0.16228571547E+04  0.50400001928E-02 0.  1.
        1   -1    0    0  501    0  0.00000000000E+00  0.00000000000E+00 -0.12338594405E+04  0.12338594405E+04  0.50400001928E-02 0. -1.
    10030    2    1    2    0    0  0.00000000000E+00  0.00000000000E+00  0.38899771420E+03  0.28567165953E+04  0.28301078573E+04 0.  0.
        5    1    3    3  502    0  0.45133673008E+03 -0.13616822820E+03 -0.11522526073E+04  0.12449718035E+04  0.46999998093E+01 0. -1.
       -5    1    3    3    0  502 -0.45133673008E+03  0.13616822820E+03  0.15412503215E+04  0.16117447918E+04  0.46999998093E+01 0.  1.
</event>
<event>
 5   0  0.2705859E-06  0.3321934E+04  0.7818609E-02  0.8157337E-01
        2   -1    0    0  501    0  0.00000000000E+00  0.00000000000E+00  0.11536715747E+04  0.11536715747E+04  0.25500000920E-02 0. -1.
       -2   -1    0    0    0  501  0.00000000000E+00  0.00000000000E+00 -0.23913312638E+04  0.23913312638E+04  0.25500000920E-02 0.  1.
    10030    2    1    2    0    0  0.00000000000E+00  0.00000000000E+00 -0.12376596890E+04  0.35450028385E+04  0.33219337168E+04 0.  0.
        1    1    3    3  502    0 -0.14829269207E+04  0.72970338464E+03 -0.44259932661E+03  0.17109744141E+04  0.50400001928E-02 0. -1.
       -1    1    3    3    0  502  0.14829269207E+04 -0.72970338464E+03 -0.79506036242E+03  0.18340284244E+04  0.50400001928E-02 0.  1.
</event>
<event>
 5   0  0.8845526E-07  0.3261490E+04  0.7818609E-02  0.8172764E-01
       -1   -1    0    0    0  501  0.00000000000E+00  0.00000000000E+00  0.27654995903E+04  0.27654995903E+04  0.50400001928E-02 0. -1.
        1   -1    0    0  501    0  0.00000000000E+00  0.00000000000E+00 -0.96160873223E+03  0.96160873224E+03  0.50400001928E-02 0.  1.
    10030    2    1    2    0    0  0.00000000000E+00  0.00000000000E+00  0.18038908580E+04  0.37271083225E+04  0.32614895707E+04 0.  0.
        1    1    3    3  502    0 -0.56152338727E+03  0.36259285045E+03 -0.79787177675E+03  0.10408561196E+04  0.50400001928E-02 0.  1.
       -1    1    3    3    0  502  0.56152338727E+03 -0.36259285045E+03  0.26017626348E+04  0.26862522029E+04  0.50400001928E-02 0. -1.
</event>
<event>
 5   0  0.2614212E-06  0.2879986E+04  0.7818609E-02  0.8278857E-01
        2   -1    0    0  501    0  0.00000000000E+00  0.00000000000E+00  0.11090736783E+04  0.11090736783E+04  0.25500000920E-02 0. -1.
       -2   -1    0    0    0  501  0.00000000000E+00  0.00000000000E+00 -0.18696498661E+04  0.18696498661E+04  0.25500000920E-02 0.  1.
    10030    2    1    2    0    0  0.00000000000E+00  0.00000000000E+00 -0.76057618777E+03  0.29787235444E+04  0.28799857320E+04 0.  0.
        2    1    3    3  502    0 -0.17223146194E+03  0.95502997365E+03 -0.14806388322E+04  0.17703212360E+04  0.25500000920E-02 0.  1.
       -2    1    3    3    0  502  0.17223146194E+03 -0.95502997365E+03  0.72006264447E+03  0.12084023084E+04  0.25500000920E-02 0. -1.
</event>
<event>
 5   0  0.9268670E-07  0.3226464E+04  0.7818609E-02  0.8181863E-01
        1   -1    0    0  501    0  0.00000000000E+00  0.00000000000E+00  0.21425882367E+04  0.21425882367E+04  0.50400001928E-02 0.  1.
       -1   -1    0    0    0  501  0.00000000000E+00  0.00000000000E+00 -0.12146602125E+04  0.12146602125E+04  0.50400001928E-02 0. -1.
    10030    2    1    2    0    0  0.00000000000E+00  0.00000000000E+00  0.92792802417E+03  0.33572484493E+04  0.32264635024E+04 0.  0.
        3    1    3    3  502    0  0.46588366947E+03 -0.10006143287E+04  0.16881923539E+04  0.20169953055E+04  0.10100000352E+00 0.  1.
       -3    1    3    3    0  502 -0.46588366947E+03  0.10006143287E+04 -0.76026432975E+03  0.13402531438E+04  0.10100000352E+00 0. -1.
</event>
<event>
 5   0  0.2574803E-06  0.3217753E+04  0.7818609E-02  0.8184144E-01
        2   -1    0    0  501    0  0.00000000000E+00  0.00000000000E+00  0.23117978902E+04  0.23117978902E+04  0.25500000920E-02 0. -1.
       -2   -1    0    0    0  501  0.00000000000E+00  0.00000000000E+00 -0.11196840463E+04  0.11196840464E+04  0.25500000920E-02 0.  1.
    10030    2    1    2    0    0  0.00000000000E+00  0.00000000000E+00  0.11921138438E+04  0.34314819365E+04  0.32177527661E+04 0.  0.
        4    1    3    3  502    0 -0.76656654850E+03 -0.89736465787E+03  0.17621169503E+04  0.21208360054E+04  0.12699999809E+01 0. -1.
       -4    1    3    3    0  502  0.76656654850E+03  0.89736465787E+03 -0.57000310646E+03  0.13106459311E+04  0.12699999809E+01 0.  1.
</event>
<event>
 5   0  0.2705859E-06  0.2501222E+04  0.7818609E-02  0.8402550E-01
       -2   -1    0    0    0  501  0.00000000000E+00  0.00000000000E+00  0.13885454186E+04  0.13885454186E+04  0.25500000920E-02 0. -1.
        2   -1    0    0  501    0  0.00000000000E+00  0.00000000000E+00 -0.11263787913E+04  0.11263787913E+04  0.25500000920E-02 0.  1.
    10030    2    1    2    0    0  0.00000000000E+00  0.00000000000E+00  0.26216662735E+03  0.25149242099E+04  0.25012221895E+04 0.  0.
        1    1    3    3  502    0  0.42171482099E+03  0.60431396894E+03  0.11470588112E+04  0.13633718054E+04  0.50400001928E-02 0. -1.
       -1    1    3    3    0  502 -0.42171482099E+03 -0.60431396894E+03 -0.88489218387E+03  0.11515524045E+04  0.50400001928E-02 0.  1.
</event>
<event>
 5   0  0.9268670E-07  0.3279488E+04  0.7818609E-02  0.8168134E-01
       -1   -1    0    0    0  501  0.00000000000E+00  0.00000000000E+00  0.18280823692E+04  0.18280823692E+04  0.50400001928E-02 0.  1.
        1   -1    0    0  501    0  0.00000000000E+00  0.00000000000E+00 -0.14708088861E+04  0.14708088861E+04  0.50400001928E-02 0. -1.
    10030    2    1    2    0    0  0.00000000000E+00  0.00000000000E+00  0.35727348313E+03  0.32988912553E+04  0.32794876388E+04 0.  0.
        3    1    3    3  502    0 -0.70283168328E+03 -0.97561149870E+03 -0.94284512797E+03  0.15279879309E+04  0.10100000352E+00 0. -1.
       -3    1    3    3    0  502  0.70283168328E+03  0.97561149870E+03  0.13001186111E+04  0.17709033245E+04  0.10100000352E+00 0.  1.
</event>
<event>
 5   0  0.9530268E-07  0.3339249E+04  0.7818609E-02  0.8152980E-01
        1   -1    0    0  501    0  0.00000000000E+00  0.00000000000E+00  0.27615888386E+04  0.27615888387E+04  0.50400001928E-02 0. -1.
       -1   -1    0    0    0  501  0.00000000000E+00  0.00000000000E+00 -0.10094353981E+04  0.10094353981E+04  0.50400001928E-02 0.  1.
    10030    2    1    2    0    0  0.00000000000E+00  0.00000000000E+00  0.17521534405E+04  0.37710242368E+04  0.33392487352E+04 0.  0.
        5    1    3    3  502    0  0.41874758287E+03  0.33357749731E+03 -0.90986546358E+03  0.10556991696E+04  0.46999998093E+01 0.  1.
       -5    1    3    3    0  502 -0.41874758287E+03 -0.33357749731E+03  0.26620189041E+04  0.27153250672E+04  0.46999998093E+01 0. -1.
</event>
<event>
 5   0  0.9268670E-07  0.3304205E+04  0.7818609E-02  0.8161826E-01
        1   -1    0    0  501    0  0.00000000000E+00  0.00000000000E+00  0.22050277411E+04  0.22050277411E+04  0.50400001928E-02 0. -1.
       -1   -1    0    0    0  501  0.00000000000E+00  0.00000000000E+00 -0.12378272389E+04  0.12378272389E+04  0.50400001928E-02 0.  1.
    10030    2    1    2    0    0  0.00000000000E+00  0.00000000000E+00  0.96720050219E+03  0.34428549800E+04  0.33042054419E+04 0.  0.
        3    1    3    3  502    0  0.70453411370E+03  0.82291528744E+03 -0.81609192534E+03  0.13563052490E+04  0.10100000352E+00 0.  1.
       -3    1    3    3    0  502 -0.70453411370E+03 -0.82291528744E+03  0.17832924275E+04  0.20865497310E+04  0.10100000352E+00 0. -1.
</event>
<event>
 5   0  0.8520125E-07  0.3308479E+04  0.7818609E-02  0.8160741E-01
        3   -1    0    0  501    0  0.00000000000E+00  0.00000000000E+00  0.14459708440E+04  0.14459708475E+04  0.10100000352E+00 0.  1.
       -3   -1    0    0    0  501  0.00000000000E+00  0.00000000000E+00 -0.18925055688E+04  0.18925055715E+04  0.10100000352E+00 0. -1.
    10030    2    1    2    0    0  0.00000000000E+00  0.00000000000E+00 -0.44653472485E+03  0.33384764191E+04  0.33084787350E+04 0.  0.
        1    1    3    3  502    0 -0.83560607256E+03  0.16717592784E+03 -0.16539814101E+04  0.18606020005E+04  0.50400001928E-02 0. -1.
       -1    1    3    3    0  502  0.83560607256E+03 -0.16717592784E+03  0.12074466852E+04  0.14778744186E+04  0.50400001928E-02 0.  1.
</event>
<event>
 5   0  0.2614212E-06  0.3302884E+04  0.7818609E-02  0.8162162E-01
       -2   -1    0    0    0  501  0.00000000000E+00  0.00000000000E+00  0.14195735727E+04  0.14195735727E+04  0.25500000920E-02 0. -1.
        2   -1    0    0  501    0  0.00000000000E+00  0.00000000000E+00 -0.19211835085E+04  0.19211835085E+04  0.25500000920E-02 0.  1.
    10030    2    1    2    0    0  0.00000000000E+00  0.00000000000E+00 -0.50160993578E+03  0.33407570812E+04  0.33028843982E+04 0.  0.
        2    1    3    3  502    0 -0.97807537436E+02 -0.87927329312E+03  0.11596645517E+04  0.14585985434E+04  0.25500000920E-02 0. -1.
       -2    1    3    3    0  502  0.97807537436E+02  0.87927329312E+03 -0.16612744875E+04  0.18821585378E+04  0.25500000920E-02 0.  1.
</event>
<event>
 5   0  0.9268670E-07  0.3150077E+04  0.7818609E-02  0.8202128E-01
        1   -1    0    0  501    0  0.00000000000E+00  0.00000000000E+00  0.17687475173E+04  0.17687475173E+04  0.50400001928E-02 0.  1.
       -1   -1    0    0    0  501  0.00000000000E+00  0.00000000000E+00 -0.14025438568E+04  0.14025438568E+04  0.50400001928E-02 0. -1.
    10030    2    1    2    0    0  0.00000000000E+00  0.00000000000E+00  0.36620366052E+03  0.31712913740E+04  0.31500768019E+04 0.  0.
        3    1    3    3  502    0 -0.74072899650E+03  0.60275569853E+03  0.14440352651E+04  0.17312514939E+04  0.10100000352E+00 0.  1.
       -3    1    3    3    0  502  0.74072899650E+03 -0.60275569853E+03 -0.10778316045E+04  0.14400398801E+04  0.10100000352E+00 0. -1.
</event>
<event>
 5   0  0.2705859E-06  0.3275890E+04  0.7818609E-02  0.8169057E-01
       -2   -1    0    0    0  501  0.00000000000E+00  0.00000000000E+00  0.14455014664E+04  0.14455014664E+04  0.25500000920E-02 0. -1.
        2   -1    0    0  501    0  0.00000000000E+00  0.00000000000E+00 -0.18560091466E+04  0.18560091466E+04  0.25500000920E-02 0.  1.
    10030    2    1    2    0    0  0.00000000000E+00  0.00000000000E+00 -0.41050768024E+03  0.33015106129E+04  0.32758900732E+04 0.  0.
        1    1    3    3  502    0  0.19243879330E+03  0.25441213901E+02 -0.18443759977E+04  0.18545626884E+04  0.50400001928E-02 0.  1.
       -1    1    3    3    0  502 -0.19243879330E+03 -0.25441213901E+02  0.14338683174E+04  0.14469479245E+04  0.50400001928E-02 0. -1.
</event>
<event>
 5   0  0.2574803E-06  0.2428748E+04  0.7818609E-02  0.8428819E-01
       -2   -1    0    0    0  501  0.00000000000E+00  0.00000000000E+00  0.69721931243E+03  0.69721931243E+03  0.25500000920E-02 0. -1.
        2   -1    0    0  501    0  0.00000000000E+00  0.00000000000E+00 -0.21151216227E+04  0.21151216227E+04  0.25500000920E-02 0.  1.
    10030    2    1    2    0    0  0.00000000000E+00  0.00000000000E+00 -0.14179023103E+04  0.28123409352E+04  0.24287475320E+04 0.  0.
        4    1    3    3  502    0 -0.49823698282E+02  0.87801176059E+03 -0.16786617778E+04  0.18950709828E+04  0.12699999809E+01 0.  1.
       -4    1    3    3    0  502  0.49823698282E+02 -0.87801176059E+03  0.26075946754E+03  0.91726995234E+03  0.12699999809E+01 0. -1.
</event>
<event>
 5   0  0.9530268E-07  0.3761527E+04  0.7818609E-02  0.8054462E-01
        1   -1    0    0  501    0  0.00000000000E+00  0.00000000000E+00  0.20390734197E+04  0.20390734197E+04  0.50400001928E-02 0. -1.
       -1   -1    0    0    0  501  0.00000000000E+00  0.00000000000E+00 -0.17347440320E+04  0.17347440320E+04  0.50400001928E-02 0.  1.
    10030    2    1    2    0    0  0.00000000000E+00  0.00000000000E+00  0.30432938771E+03  0.37738174517E+04  0.37615265229E+04 0.  0.
        5    1    3    3  502    0  0.14253606213E+04  0.12980844370E+03 -0.10719636408E+04  0.17881921792E+04  0.46999998093E+01 0.  1.
       -5    1    3    3    0  502 -0.14253606213E+04 -0.12980844370E+03  0.13762930285E+04  0.19856252725E+04  0.46999998093E+01 0. -1.
</event>
<event>
 5   0  0.2674551E-06  0.3260437E+04  0.7818609E-02  0.8173036E-01
       -2   -1    0    0    0  501  0.00000000000E+00  0.00000000000E+00  0.22450732064E+04  0.22450732064E+04  0.25500000920E-02 0. -1.
        2   -1    0    0  501    0  0.00000000000E+00  0.00000000000E+00 -0.11837530668E+04  0.11837530668E+04  0.25500000920E-02 0.  1.
    10030    2    1    2    0    0  0.00000000000E+00  0.00000000000E+00  0.10613201397E+04  0.34288262732E+04  0.32604369605E+04 0.  0.
        3    1    3    3  502    0  0.14896331636E+04 -0.47713649182E+03  0.47650858707E+02  0.15649079233E+04  0.10100000352E+00 0.  1.
       -3    1    3    3    0  502 -0.14896331636E+04  0.47713649182E+03  0.10136692809E+04  0.18639183499E+04  0.10100000352E+00 0. -1.
</event>
<event>
 5   0  0.2674551E-06  0.3645406E+04  0.7818609E-02  0.8080169E-01
       -2   -1    0    0    0  501  0.00000000000E+00  0.00000000000E+00  0.26349722713E+04  0.26349722713E+04  0.25500000920E-02 0. -1.
        2   -1    0    0  501    0  0.00000000000E+00  0.00000000000E+00 -0.12608275758E+04  0.12608275758E+04  0.25500000920E-02 0.  1.
    10030    2    1    2    0    0  0.00000000000E+00  0.00000000000E+00  0.13741446955E+04  0.38957998471E+04  0.36454057119E+04 0.  0.
        3    1    3    3  502    0  0.14010688177E+04  0.10492458972E+04  0.14389417176E+03  0.17563075834E+04  0.10100000352E+00 0.  1.
       -3    1    3    3    0  502 -0.14010688177E+04 -0.10492458972E+04  0.12302505237E+04  0.21394922636E+04  0.10100000352E+00 0. -1.
</event>
<event>
 5   0  0.8705956E-07  0.3237636E+04  0.7818609E-02  0.8178948E-01
       -1   -1    0    0    0  501  0.00000000000E+00  0.00000000000E+00  0.97441354537E+03  0.97441354538E+03  0.50400001928E-02 0. -1.
        1   -1    0    0  501    0  0.00000000000E+00  0.00000000000E+00 -0.26893834818E+04  0.26893834818E+04  0.50400001928E-02 0.  1.
    10030    2    1    2    0    0  0.00000000000E+00  0.00000000000E+00 -0.17149699364E+04  0.36637970272E+04  0.32376359853E+04 0.  0.
        2    1    3    3  502    0  0.83456113120E+03 -0.10302343152E+04  0.19358698536E+03  0.13399070665E+04  0.25500000920E-02 0. -1.
       -2    1    3    3    0  502 -0.83456113120E+03  0.10302343152E+04 -0.19085569218E+04  0.23238899607E+04  0.25500000920E-02 0.  1.
</event>
<event>
 5   0  0.9530268E-07  0.3294238E+04  0.7818609E-02  0.8164363E-01
        1   -1    0    0  501    0  0.00000000000E+00  0.00000000000E+00  0.21953268656E+04  0.21953268656E+04  0.50400001928E-02 0.  1.
       -1   -1    0    0    0  501  0.00000000000E+00  0.00000000000E+00 -0.12358070041E+04  0.12358070041E+04  0.50400001928E-02 0. -1.
    10030    2    1    2    0    0  0.00000000000E+00  0.00000000000E+00  0.95951986144E+03  0.34311338697E+04  0.32942375852E+04 0.  0.
        5    1    3    3  502    0 -0.29951956279E+03 -0.97428051169E+03 -0.86785602997E+03  0.13387048452E+04  0.46999998093E+01 0. -1.
       -5    1    3    3    0  502  0.29951956279E+03  0.97428051169E+03  0.18273758914E+04  0.20924290245E+04  0.46999998093E+01 0.  1.
</event>
<event>
 5   0  0.8845526E-07  0.2952855E+04  0.7818609E-02  0.8257323E-01
        1   -1    0    0  501    0  0.00000000000E+00  0.00000000000E+00  0.12612584866E+04  0.12612584866E+04  0.50400001928E-02 0.  1.
       -1   -1    0    0    0  501  0.00000000000E+00  0.00000000000E+00 -0.17283035244E+04  0.17283035244E+04  0.50400001928E-02 0. -1.
    10030    2    1    2    0    0  0.00000000000E+00  0.00000000000E+00 -0.46704503780E+03  0.29895620110E+04  0.29528545427E+04 0.  0.
        1    1    3    3  502    0 -0.38140397748E+03  0.12713867372E+04  0.42100015121E+03  0.13925280453E+04  0.50400001928E-02 0. -1.
       -1    1    3    3    0  502  0.38140397748E+03 -0.12713867372E+04 -0.88804518901E+03  0.15970339656E+04  0.50400001928E-02 0.  1.
</event>
<event>
 5   0  0.2658600E-06  0.2554194E+04  0.7818609E-02  0.8383929E-01
       -2   -1    0    0    0  501  0.00000000000E+00  0.00000000000E+00  0.65563318928E+03  0.65563318928E+03  0.25500000920E-02 0. -1.
        2   -1    0    0  501    0  0.00000000000E+00  0.00000000000E+00 -0.24876351174E+04  0.24876351174E+04  0.25500000920E-02 0.  1.
    10030    2    1    2    0    0  0.00000000000E+00  0.00000000000E+00 -0.18320019281E+04  0.31432683066E+04  0.25541935289E+04 0.  0.
        5    1    3    3  502    0  0.12219515951E+03  0.15927755905E+03  0.63608362125E+03  0.66702733156E+03  0.46999998093E+01 0. -1.
       -5    1    3    3    0  502 -0.12219515951E+03 -0.15927755905E+03 -0.24680855493E+04  0.24762409751E+04  0.46999998093E+01 0.  1.
</event>
<event>
 5   0  0.2674551E-06  0.3323449E+04  0.7818609E-02  0.8156954E-01
       -2   -1    0    0    0  501  0.00000000000E+00  0.00000000000E+00  0.14116311277E+04  0.14116311277E+04  0.25500000920E-02 0.  1.
        2   -1    0    0  501    0  0.00000000000E+00  0.00000000000E+00 -0.19561257025E+04  0.19561257025E+04  0.25500000920E-02 0. -1.
    10030    2    1    2    0    0  0.00000000000E+00  0.00000000000E+00 -0.54449457486E+03  0.33677568302E+04  0.33234487698E+04 0.  0.
        3    1    3    3  502    0  0.82136689713E+03 -0.38154254151E+02 -0.17355311154E+04  0.19204602546E+04  0.10100000352E+00 0. -1.
       -3    1    3    3    0  502 -0.82136689713E+03  0.38154254151E+02  0.11910365405E+04  0.14472965756E+04  0.10100000352E+00 0.  1.
</event>
<event>
 5   0  0.2574803E-06  0.3273982E+04  0.7818609E-02  0.8169548E-01
       -2   -1    0    0    0  501  0.00000000000E+00  0.00000000000E+00  0.15424141512E+04  0.15424141512E+04  0.25500000920E-02 0.  1.
        2   -1    0    0  501    0  0.00000000000E+00  0.00000000000E+00 -0.17373665735E+04  0.17373665735E+04  0.25500000920E-02 0. -1.
    10030    2    1    2    0    0  0.00000000000E+00  0.00000000000E+00 -0.19495242236E+03  0.32797807247E+04  0.32739815448E+04 0.  0.
        4    1    3    3  502    0 -0.18165074275E+03  0.32667650452E+03 -0.16940440494E+04  0.17347914529E+04  0.12699999809E+01 0. -1.
       -4    1    3    3    0  502  0.18165074275E+03 -0.32667650452E+03  0.14990916270E+04  0.15449892718E+04  0.12699999809E+01 0.  1.
</event>
<event>
 5   0  0.2674551E-06  0.3290546E+04  0.7818609E-02  0.8165305E-01
        2   -1    0    0  501    0  0.00000000000E+00  0.00000000000E+00  0.28749622050E+04  0.28749622050E+04  0.25500000920E-02 0.  1.
       -2   -1    0    0    0  501  0.00000000000E+00  0.00000000000E+00 -0.94155087992E+03  0.94155087992E+03  0.25500000920E-02 0. -1.
    10030    2    1    2    0    0  0.00000000000E+00  0.00000000000E+00  0.19334113251E+04  0.38165130849E+04  0.32905459692E+04 0.  0.
        3    1    3    3  502    0 -0.37890435463E+03 -0.10733400881E+04 -0.41116294953E+03  0.12102406521E+04  0.10100000352E+00 0. -1.
       -3    1    3    3    0  502  0.37890435463E+03  0.10733400881E+04  0.23445742746E+04  0.26062724328E+04  0.10100000352E+00 0.  1.
</event>
<event>
 5   0  0.9530268E-07  0.3301870E+04  0.7818609E-02  0.8162420E-01
       -1   -1    0    0    0  501  0.00000000000E+00  0.00000000000E+00  0.12508917485E+04  0.12508917485E+04  0.50400001928E-02 0.  1.
        1   -1    0    0  501    0  0.00000000000E+00  0.00000000000E+00 -0.21789152578E+04  0.21789152579E+04  0.50400001928E-02 0. -1.
    10030    2    1    2    0    0  0.00000000000E+00  0.00000000000E+00 -0.92802350938E+03  0.34298070063E+04  0.33018704497E+04 0.  0.
        5    1    3    3  502    0  0.15359022569E+04  0.16391032169E+03 -0.10694350768E+04  0.18787165326E+04  0.46999998093E+01 0. -1.
       -5    1    3    3    0  502 -0.15359022569E+04 -0.16391032169E+03  0.14141156743E+03  0.15510904737E+04  0.46999998093E+01 0.  1.
</event>
<event>
 5   0  0.9295663E-07  0.3302234E+04  0.7818609E-02  0.8162327E-01
       -1   -1    0    0    0  501  0.00000000000E+00  0.00000000000E+00  0.15253308342E+04  0.15253308342E+04  0.50400001928E-02 0.  1.
        1   -1    0    0  501    0  0.00000000000E+00  0.00000000000E+00 -0.17872763532E+04  0.17872763532E+04  0.50400001928E-02 0. -1.
    10030    2    1    2    0    0  0.00000000000E+00  0.00000000000E+00 -0.26194551898E+03  0.33126071874E+04  0.33022342320E+04 0.  0.
        4    1    3    3  502    0 -0.10641174739E+04  0.24842560999E+03 -0.13726512015E+04  0.17544897309E+04  0.12699999809E+01 0. -1.
       -4    1    3    3    0  502  0.10641174739E+04 -0.24842560999E+03  0.11107056825E+04  0.15581174565E+04  0.12699999809E+01 0.  1.
</event>
<event>
 5   0  0.9530268E-07  0.3296786E+04  0.7818609E-02  0.8163714E-01
       -1   -1    0    0    0  501  0.00000000000E+00  0.00000000000E+00  0.12301049612E+04  0.12301049612E+04  0.50400001928E-02 0.  1.
        1   -1    0    0  501    0  0.00000000000E+00  0.00000000000E+00 -0.22089170548E+04  0.22089170548E+04  0.50400001928E-02 0. -1.
    10030    2    1    2    0    0  0.00000000000E+00  0.00000000000E+00 -0.97881209358E+03  0.34390220160E+04  0.32967862097E+04 0.  0.
        5    1    3    3  502    0 -0.47808628573E+03  0.13390849065E+04  0.38051760876E+03  0.14719139323E+04  0.46999998093E+01 0.  1.
       -5    1    3    3    0  502  0.47808628573E+03 -0.13390849065E+04 -0.13593297023E+04  0.19671080838E+04  0.46999998093E+01 0. -1.
</event>
<event>
 5   0  0.9295663E-07  0.3301784E+04  0.7818609E-02  0.8162442E-01
       -1   -1    0    0    0  501  0.00000000000E+00  0.00000000000E+00  0.15230099246E+04  0.15230099246E+04  0.50400001928E-02 0. -1.
        1   -1    0    0  501    0  0.00000000000E+00  0.00000000000E+00 -0.17895121570E+04  0.17895121570E+04  0.50400001928E-02 0.  1.
    10030    2    1    2    0    0  0.00000000000E+00  0.00000000000E+00 -0.26650223237E+03  0.33125220816E+04  0.33017842299E+04 0.  0.
        4    1    3    3  502    0 -0.54075561780E+03 -0.62020781545E+03 -0.15691179632E+04  0.17717807900E+04  0.12699999809E+01 0.  1.
       -4    1    3    3    0  502  0.54075561780E+03  0.62020781545E+03  0.13026157308E+04  0.15407412916E+04  0.12699999809E+01 0. -1.
</event>
<event>
 5   0  0.2674551E-06  0.3319766E+04  0.7818609E-02  0.8157884E-01
        2   -1    0    0  501    0  0.00000000000E+00  0.00000000000E+00  0.18010705532E+04  0.18010705532E+04  0.25500000920E-02 0.  1.
       -2   -1    0    0    0  501  0.00000000000E+00  0.00000000000E+00 -0.15297630031E+04  0.15297630031E+04  0.25500000920E-02 0. -1.
    10030    2    1    2    0    0  0.00000000000E+00  0.00000000000E+00  0.27130755017E+03  0.33308335563E+04  0.33197657135E+04 0.  0.
        3    1    3    3  502    0  0.10382604922E+04 -0.10453381515E+04  0.90272495980E+03  0.17278972955E+04  0.10100000352E+00 0.  1.
       -3    1    3    3    0  502 -0.10382604922E+04  0.10453381515E+04 -0.63141740963E+03  0.16029362608E+04  0.10100000352E+00 0. -1.
</event>
<event>
 5   0  0.9268670E-07  0.3325335E+04  0.7818609E-02  0.8156479E-01
        1   -1    0    0  501    0  0.00000000000E+00  0.00000000000E+00  0.15703525156E+04  0.15703525156E+04  0.50400001928E-02 0. -1.
       -1   -1    0    0    0  501  0.00000000000E+00  0.00000000000E+00 -0.17604094372E+04  0.17604094372E+04  0.50400001928E-02 0.  1.
    10030    2    1    2    0    0  0.00000000000E+00  0.00000000000E+00 -0.19005692158E+03  0.33307619529E+04  0.33253351039E+04 0.  0.
        3    1    3    3  502    0  0.56005471136E+03  0.90923115075E+02  0.14703832683E+04  0.15760568703E+04  0.10100000352E+00 0. -1.
       -3    1    3    3    0  502 -0.56005471136E+03 -0.90923115075E+02 -0.16604401898E+04  0.17547050826E+04  0.10100000352E+00 0.  1.
</event>
<event>
 5   0  0.2658600E-06  0.3303796E+04  0.7818609E-02  0.8161930E-01
        2   -1    0    0  501    0  0.00000000000E+00  0.00000000000E+00  0.17909639741E+04  0.17909639741E+04  0.25500000920E-02 0. -1.
       -2   -1    0    0    0  501  0.00000000000E+00  0.00000000000E+00 -0.15236301907E+04  0.15236301907E+04  0.25500000920E-02 0.  1.
    10030    2    1    2    0    0  0.00000000000E+00  0.00000000000E+00  0.26733378345E+03  0.33145941648E+04  0.33037958662E+04 0.  0.
        5    1    3    3  502    0 -0.32896958727E+03 -0.13105905785E+04  0.10869704619E+04  0.17341843988E+04  0.46999998093E+01 0.  1.
       -5    1    3    3    0  502  0.32896958727E+03  0.13105905785E+04 -0.81963667847E+03  0.15804097660E+04  0.46999998093E+01 0. -1.
</event>
<event>
 5   0  0.2674551E-06  0.3403801E+04  0.7818609E-02  0.8136974E-01
       -2   -1    0    0    0  501  0.00000000000E+00  0.00000000000E+00  0.83652518435E+03  0.83652518435E+03  0.25500000920E-02 0.  1.
        2   -1    0    0  501    0  0.00000000000E+00  0.00000000000E+00 -0.34624967501E+04  0.34624967501E+04  0.25500000920E-02 0. -1.
    10030    2    1    2    0    0  0.00000000000E+00  0.00000000000E+00 -0.26259715658E+04  0.42990219345E+04  0.34038012470E+04 0.  0.
        3    1    3    3  502    0 -0.16469857465E+04 -0.41482952132E+03 -0.14503004097E+04  0.22333868606E+04  0.10100000352E+00 0. -1.
       -3    1    3    3    0  502  0.16469857465E+04  0.41482952132E+03 -0.11756711561E+04  0.20656350739E+04  0.10100000352E+00 0.  1.
</event>
<event>
 5   0  0.9268670E-07  0.3350915E+04  0.7818609E-02  0.8150060E-01
        1   -1    0    0  501    0  0.00000000000E+00  0.00000000000E+00  0.12070148351E+04  0.12070148351E+04  0.50400001928E-02 0.  1.
       -1   -1    0    0    0  501  0.00000000000E+00  0.00000000000E+00 -0.23257030372E+04  0.23257030372E+04  0.50400001928E-02 0. -1.
    10030    2    1    2    0    0  0.00000000000E+00  0.00000000000E+00 -0.11186882022E+04  0.35327178723E+04  0.33509151394E+04 0.  0.
        3    1    3    3  502    0 -0.13640331934E+04  0.88586053690E+03 -0.98344103466E+03  0.19006556033E+04  0.10100000352E+00 0. -1.
       -3    1    3    3    0  502  0.13640331934E+04 -0.88586053690E+03 -0.13524716749E+03  0.16320622690E+04  0.10100000352E+00 0.  1.
</event>
<event>
 5   0  0.2574803E-06  0.3342960E+04  0.7818609E-02  0.8152049E-01
       -2   -1    0    0    0  501  0.00000000000E+00  0.00000000000E+00  0.11441684062E+04  0.11441684062E+04  0.25500000920E-02 0. -1.
        2   -1    0    0  501    0  0.00000000000E+00  0.00000000000E+00 -0.24418134958E+04  0.24418134958E+04  0.25500000920E-02 0.  1.
    10030    2    1    2    0    0  0.00000000000E+00  0.00000000000E+00 -0.12976450895E+04  0.35859819020E+04  0.33429602784E+04 0.  0.
        4    1    3    3  502    0 -0.11336365297E+04  0.94505072032E+03 -0.14904564424E+04  0.20975496811E+04  0.12699999809E+01 0.  1.
       -4    1    3    3    0  502  0.11336365297E+04 -0.94505072032E+03  0.19281135285E+03  0.14884322208E+04  0.12699999809E+01 0. -1.
</event>
<event>
 5   0  0.8520125E-07  0.3255335E+04  0.7818609E-02  0.8174354E-01
       -4   -1    0    0    0  501  0.00000000000E+00  0.00000000000E+00  0.21893609833E+04  0.21893613517E+04  0.12699999809E+01 0.  1.
        4   -1    0    0  501    0  0.00000000000E+00  0.00000000000E+00 -0.12100789834E+04  0.12100796498E+04  0.12699999809E+01 0. -1.
    10030    2    1    2    0    0  0.00000000000E+00  0.00000000000E+00  0.97928199995E+03  0.33994410015E+04  0.32553349885E+04 0.  0.
        1    1    3    3  502    0  0.13062402374E+04 -0.91491651848E+03  0.14970713431E+03  0.16017952490E+04  0.50400001928E-02 0. -1.
       -1    1    3    3    0  502 -0.13062402374E+04  0.91491651848E+03  0.82957486564E+03  0.17976457525E+04  0.50400001928E-02 0.  1.
</event>
<event>
 5   0  0.8705956E-07  0.3277312E+04  0.7818609E-02  0.8168693E-01
       -1   -1    0    0    0  501  0.00000000000E+00  0.00000000000E+00  0.10499579601E+04  0.10499579601E+04  0.50400001928E-02 0.  1.
        1   -1    0    0  501    0  0.00000000000E+00  0.00000000000E+00 -0.25574291371E+04  0.25574291371E+04  0.50400001928E-02 0. -1.
    10030    2    1    2    0    0  0.00000000000E+00  0.00000000000E+00 -0.15074711770E+04  0.36073870972E+04  0.32773117520E+04 0.  0.
        2    1    3    3  502    0 -0.75797174842E+02 -0.90787989006E+03 -0.22529736218E+04  0.24302018943E+04  0.25500000920E-02 0. -1.
       -2    1    3    3    0  502  0.75797174842E+02  0.90787989006E+03  0.74550244487E+03  0.11771852028E+04  0.25500000920E-02 0.  1.
</event>
<event>
 5   0  0.9295663E-07  0.3254658E+04  0.7818609E-02  0.8174529E-01
        1   -1    0    0  501    0  0.00000000000E+00  0.00000000000E+00  0.23099659349E+04  0.23099659349E+04  0.50400001928E-02 0. -1.
       -1   -1    0    0    0  501  0.00000000000E+00  0.00000000000E+00 -0.11464237793E+04  0.11464237793E+04  0.50400001928E-02 0.  1.
    10030    2    1    2    0    0  0.00000000000E+00  0.00000000000E+00  0.11635421556E+04  0.34563897142E+04  0.32546581247E+04 0.  0.
        4    1    3    3  502    0  0.11459801429E+04 -0.11468749213E+04  0.73047020107E+03  0.17782522039E+04  0.12699999809E+01 0. -1.
       -4    1    3    3    0  502 -0.11459801429E+04  0.11468749213E+04  0.43307195450E+03  0.16781375103E+04  0.12699999809E+01 0.  1.
</event>
<event>
 5   0  0.9268670E-07  0.3280453E+04  0.7818609E-02  0.8167887E-01
        1   -1    0    0  501    0  0.00000000000E+00  0.00000000000E+00  0.22151334766E+04  0.22151334767E+04  0.50400001928E-02 0.  1.
       -1   -1    0    0    0  501  0.00000000000E+00  0.00000000000E+00 -0.12145282877E+04  0.12145282877E+04  0.50400001928E-02 0. -1.
    10030    2    1    2    0    0  0.00000000000E+00  0.00000000000E+00  0.10006051889E+04  0.34296617644E+04  0.32804525715E+04 0.  0.
        3    1    3    3  502    0  0.22033043991E+03 -0.15763455715E+04  0.86138499533E+02  0.15939983422E+04  0.10100000352E+00 0. -1.
       -3    1    3    3    0  502 -0.22033043991E+03  0.15763455715E+04  0.91446668938E+03  0.18356634222E+04  0.10100000352E+00 0.  1.
</event>
<event>
 5   0  0.9530268E-07  0.3120984E+04  0.7818609E-02  0.8210002E-01
       -1   -1    0    0    0  501  0.00000000000E+00  0.00000000000E+00  0.12635978556E+04  0.12635978556E+04  0.50400001928E-02 0.  1.
        1   -1    0    0  501    0  0.00000000000E+00  0.00000000000E+00 -0.19271446308E+04  0.19271446308E+04  0.50400001928E-02 0. -1.
    10030    2    1    2    0    0  0.00000000000E+00  0.00000000000E+00 -0.66354677519E+03  0.31907424865E+04  0.31209843466E+04 0.  0.
        5    1    3    3  502    0  0.10918814591E+04 -0.87027163554E+03 -0.10441519386E+04  0.17435174795E+04  0.46999998093E+01 0. -1.
       -5    1    3    3    0  502 -0.10918814591E+04  0.87027163554E+03  0.38060516338E+03  0.14472250070E+04  0.46999998093E+01 0.  1.
</event>
<event>
 5   0  0.2674551E-06  0.3313450E+04  0.7818609E-02  0.8159481E-01
       -2   -1    0    0    0  501  0.00000000000E+00  0.00000000000E+00  0.20339616341E+04  0.20339616341E+04  0.25500000920E-02 0.  1.
        2   -1    0    0  501    0  0.00000000000E+00  0.00000000000E+00 -0.13494539696E+04  0.13494539696E+04  0.25500000920E-02 0. -1.
    10030    2    1    2    0    0  0.00000000000E+00  0.00000000000E+00  0.68450766455E+03  0.33834156037E+04  0.33134499249E+04 0.  0.
        3    1    3    3  502    0 -0.49144688772E+03 -0.15362849205E+04  0.72845455704E+03  0.17698410811E+04  0.10100000352E+00 0.  1.
       -3    1    3    3    0  502  0.49144688772E+03  0.15362849205E+04 -0.43946892496E+02  0.16135745226E+04  0.10100000352E+00 0. -1.
</event>
<event>
 5   0  0.8845526E-07  0.3283599E+04  0.7818609E-02  0.8167081E-01
        1   -1    0    0  501    0  0.00000000000E+00  0.00000000000E+00  0.17682095152E+04  0.17682095152E+04  0.50400001928E-02 0. -1.
       -1   -1    0    0    0  501  0.00000000000E+00  0.00000000000E+00 -0.15244268695E+04  0.15244268695E+04  0.50400001928E-02 0.  1.
    10030    2    1    2    0    0  0.00000000000E+00  0.00000000000E+00  0.24378264565E+03  0.32926363847E+04  0.32835993031E+04 0.  0.
        1    1    3    3  502    0 -0.19990992698E+03  0.68067067964E+03 -0.13628015755E+04  0.15363934025E+04  0.50400001928E-02 0.  1.
       -1    1    3    3    0  502  0.19990992698E+03 -0.68067067964E+03  0.16065842211E+04  0.17562429822E+04  0.50400001928E-02 0. -1.
</event>
<event>
 5   0  0.2705859E-06  0.3192761E+04  0.7818609E-02  0.8190732E-01
       -2   -1    0    0    0  501  0.00000000000E+00  0.00000000000E+00  0.19638522944E+04  0.19638522944E+04  0.25500000920E-02 0.  1.
        2   -1    0    0  501    0  0.00000000000E+00  0.00000000000E+00 -0.12976692551E+04  0.12976692551E+04  0.25500000920E-02 0. -1.
    10030    2    1    2    0    0  0.00000000000E+00  0.00000000000E+00  0.66618303924E+03  0.32615215495E+04  0.31927610271E+04 0.  0.
        1    1    3    3  502    0  0.92841193069E+03  0.10801577588E+04 -0.40336554207E+03  0.14803355219E+04  0.50400001928E-02 0. -1.
       -1    1    3    3    0  502 -0.92841193069E+03 -0.10801577588E+04  0.10695485813E+04  0.17811860276E+04  0.50400001928E-02 0.  1.
</event>
<event>
 5   0  0.9268670E-07  0.3302971E+04  0.7818609E-02  0.8162140E-01
        1   -1    0    0  501    0  0.00000000000E+00  0.00000000000E+00  0.25703475868E+04  0.25703475868E+04  0.50400001928E-02 0.  1.
       -1   -1    0    0    0  501  0.00000000000E+00  0.00000000000E+00 -0.10611031023E+04  0.10611031023E+04  0.50400001928E-02 0. -1.
    10030    2    1    2    0    0  0.00000000000E+00  0.00000000000E+00  0.15092444846E+04  0.36314506891E+04  0.33029706619E+04 0.  0.
        3    1    3    3  502    0  0.16349894253E+04 -0.94828627961E+02  0.52082196081E+03  0.17185570734E+04  0.10100000352E+00 0. -1.
       -3    1    3    3    0  502 -0.16349894253E+04  0.94828627961E+02  0.98842252376E+03  0.19128936157E+04  0.10100000352E+00 0.  1.
</event>
<event>
 5   0  0.8705956E-07  0.2977837E+04  0.7818609E-02  0.8250088E-01
       -1   -1    0    0    0  501  0.00000000000E+00  0.00000000000E+00  0.10142370341E+04  0.10142370341E+04  0.50400001928E-02 0.  1.
        1   -1    0    0  501    0  0.00000000000E+00  0.00000000000E+00 -0.21857599381E+04  0.21857599381E+04  0.50400001928E-02 0. -1.
    10030    2    1    2    0    0  0.00000000000E+00  0.00000000000E+00 -0.11715229040E+04  0.31999969722E+04  0.29778372533E+04 0.  0.
        2    1    3    3  502    0  0.12042394078E+03 -0.30582529893E+03 -0.21462881763E+04  0.21713092766E+04  0.25500000920E-02 0. -1.
       -2    1    3    3    0  502 -0.12042394078E+03  0.30582529893E+03  0.97476527228E+03  0.10286876956E+04  0.25500000920E-02 0.  1.
</event>
<event>
 5   0  0.9530268E-07  0.3242892E+04  0.7818609E-02  0.8177580E-01
       -1   -1    0    0    0  501  0.00000000000E+00  0.00000000000E+00  0.21713958637E+04  0.21713958637E+04  0.50400001928E-02 0.  1.
        1   -1    0    0  501    0  0.00000000000E+00  0.00000000000E+00 -0.12107823026E+04  0.12107823026E+04  0.50400001928E-02 0. -1.
    10030    2    1    2    0    0  0.00000000000E+00  0.00000000000E+00  0.96061356114E+03  0.33821781663E+04  0.32428923410E+04 0.  0.
        5    1    3    3  502    0  0.83958873753E+03  0.13631774828E+04  0.74804981275E+03  0.17671340385E+04  0.46999998093E+01 0.  1.
       -5    1    3    3    0  502 -0.83958873753E+03 -0.13631774828E+04  0.21256374839E+03  0.16150441278E+04  0.46999998093E+01 0. -1.
</event>
<event>
 5   0  0.2658600E-06  0.3286275E+04  0.7818609E-02  0.8166397E-01
       -2   -1    0    0    0  501  0.00000000000E+00  0.00000000000E+00  0.18938621216E+04  0.18938621216E+04  0.25500000920E-02 0.  1.
        2   -1    0    0  501    0  0.00000000000E+00  0.00000000000E+00 -0.14256058099E+04  0.14256058099E+04  0.25500000920E-02 0. -1.
    10030    2    1    2    0    0  0.00000000000E+00  0.00000000000E+00  0.46825631166E+03  0.33194679315E+04  0.32862749998E+04 0.  0.
        5    1    3    3  502    0  0.57898476645E+03  0.60391113584E+03 -0.11943506096E+04  0.14582275160E+04  0.46999998093E+01 0. -1.
       -5    1    3    3    0  502 -0.57898476645E+03 -0.60391113584E+03  0.16626069212E+04  0.18612404155E+04  0.46999998093E+01 0.  1.
</event>
<event>
 5   0  0.2658600E-06  0.3034895E+04  0.7818609E-02  0.8233836E-01
        2   -1    0    0  501    0  0.00000000000E+00  0.00000000000E+00  0.14612302938E+04  0.14612302938E+04  0.25500000920E-02 0.  1.
       -2   -1    0    0    0  501  0.00000000000E+00  0.00000000000E+00 -0.15758275142E+04  0.15758275142E+04  0.25500000920E-02 0. -1.
    10030    2    1    2    0    0  0.00000000000E+00  0.00000000000E+00 -0.11459722038E+03  0.30370578081E+04  0.30348949910E+04 0.  0.
        5    1    3    3  502    0 -0.95967667417E+03  0.96238211909E+03 -0.73266188763E+03  0.15440123684E+04  0.46999998093E+01 0.  1.
       -5    1    3    3    0  502  0.95967667417E+03 -0.96238211909E+03  0.61806466725E+03  0.14930454397E+04  0.46999998093E+01 0. -1.
</event>
<event>
 5   0  0.2658600E-06  0.3323323E+04  0.7818609E-02  0.8156986E-01
       -2   -1    0    0    0  501  0.00000000000E+00  0.00000000000E+00  0.14836819329E+04  0.14836819329E+04  0.25500000920E-02 0.  1.
        2   -1    0    0  501    0  0.00000000000E+00  0.00000000000E+00 -0.18609909547E+04  0.18609909547E+04  0.25500000920E-02 0. -1.
    10030    2    1    2    0    0  0.00000000000E+00  0.00000000000E+00 -0.37730902184E+03  0.33446728876E+04  0.33233228292E+04 0.  0.
        5    1    3    3  502    0  0.15199046686E+04 -0.67075340241E+03 -0.22167133953E+03  0.16760610374E+04  0.46999998093E+01 0.  1.
       -5    1    3    3    0  502 -0.15199046686E+04  0.67075340241E+03 -0.15563768231E+03  0.16686118502E+04  0.46999998093E+01 0. -1.
</event>
<event>
 5   0  0.9295663E-07  0.3252092E+04  0.7818609E-02  0.8175194E-01
        1   -1    0    0  501    0  0.00000000000E+00  0.00000000000E+00  0.16025521092E+04  0.16025521093E+04  0.50400001928E-02 0. -1.
       -1   -1    0    0    0  501  0.00000000000E+00  0.00000000000E+00 -0.16498840933E+04  0.16498840933E+04  0.50400001928E-02 0.  1.
    10030    2    1    2    0    0  0.00000000000E+00  0.00000000000E+00 -0.47331984045E+02  0.32524362025E+04  0.32520917784E+04 0.  0.
        4    1    3    3  502    0  0.96633046642E+03 -0.82761664892E+03 -0.10363342082E+04  0.16409552376E+04  0.12699999809E+01 0.  1.
       -4    1    3    3    0  502 -0.96633046642E+03  0.82761664892E+03  0.98900222418E+03  0.16114809649E+04  0.12699999809E+01 0. -1.
</event>
<event>
 5   0  0.2614212E-06  0.3278238E+04  0.7818609E-02  0.8168455E-01
        2   -1    0    0  501    0  0.00000000000E+00  0.00000000000E+00  0.26181705123E+04  0.26181705123E+04  0.25500000920E-02 0.  1.
       -2   -1    0    0    0  501  0.00000000000E+00  0.00000000000E+00 -0.10261787103E+04  0.10261787103E+04  0.25500000920E-02 0. -1.
    10030    2    1    2    0    0  0.00000000000E+00  0.00000000000E+00  0.15919918020E+04  0.36443492227E+04  0.32782378436E+04 0.  0.
        2    1    3    3  502    0  0.25600210797E+01  0.83596375351E+02 -0.10238051296E+04  0.10272155816E+04  0.25500000920E-02 0. -1.
       -2    1    3    3    0  502 -0.25600210797E+01 -0.83596375351E+02  0.26157969316E+04  0.26171336411E+04  0.25500000920E-02 0.  1.
</event>
<event>
 5   0  0.2674551E-06  0.3310539E+04  0.7818609E-02  0.8160219E-01
       -2   -1    0    0    0  501  0.00000000000E+00  0.00000000000E+00  0.13677470022E+04  0.13677470022E+04  0.25500000920E-02 0.  1.
        2   -1    0    0  501    0  0.00000000000E+00  0.00000000000E+00 -0.20032333459E+04  0.20032333459E+04  0.25500000920E-02 0. -1.
    10030    2    1    2    0    0  0.00000000000E+00  0.00000000000E+00 -0.63548634369E+03  0.33709803481E+04  0.33105385686E+04 0.  0.
        3    1    3    3  502    0 -0.62567470805E+03 -0.35164962213E+03 -0.18365484234E+04  0.19718104419E+04  0.10100000352E+00 0. -1.
       -3    1    3    3    0  502  0.62567470805E+03  0.35164962213E+03  0.12010620797E+04  0.13991699062E+04  0.10100000352E+00 0.  1.
</event>
<event>
 5   0  0.9268670E-07  0.3485485E+04  0.7818609E-02  0.8117238E-01
       -1   -1    0    0    0  501  0.00000000000E+00  0.00000000000E+00  0.25413877095E+04  0.25413877095E+04  0.50400001928E-02 0.  1.
        1   -1    0    0  501    0  0.00000000000E+00  0.00000000000E+00 -0.11950762225E+04  0.11950762225E+04  0.50400001928E-02 0. -1.
    10030    2    1    2    0    0  0.00000000000E+00  0.00000000000E+00  0.13463114870E+04  0.37364639320E+04  0.34854853458E+04 0.  0.
        3    1    3    3  502    0  0.37871493100E+03 -0.16184230010E+03  0.24884700387E+04  0.25223205729E+04  0.10100000352E+00 0.  1.
       -3    1    3    3    0  502 -0.37871493100E+03  0.16184230010E+03 -0.11421585517E+04  0.12141433591E+04  0.10100000352E+00 0. -1.
</event>
<event>
 5   0  0.2674551E-06  0.3286458E+04  0.7818609E-02  0.8166350E-01
       -2   -1    0    0    0  501  0.00000000000E+00  0.00000000000E+00  0.28276315592E+04  0.28276315592E+04  0.25500000920E-02 0. -1.
        2   -1    0    0  501    0  0.00000000000E+00  0.00000000000E+00 -0.95493381745E+03  0.95493381746E+03  0.25500000920E-02 0.  1.
    10030    2    1    2    0    0  0.00000000000E+00  0.00000000000E+00  0.18726977417E+04  0.37825653766E+04  0.32864576670E+04 0.  0.
        3    1    3    3  502    0  0.97211202244E+03  0.12658259630E+04  0.13863765089E+04  0.21140853784E+04  0.10100000352E+00 0.  1.
       -3    1    3    3    0  502 -0.97211202244E+03 -0.12658259630E+04  0.48632123281E+03  0.16684799982E+04  0.10100000352E+00 0. -1.
</event>
<event>
 5   0  0.9295663E-07  0.3306140E+04  0.7818609E-02  0.8161335E-01
       -1   -1    0    0    0  501  0.00000000000E+00  0.00000000000E+00  0.16522911428E+04  0.16522911428E+04  0.50400001928E-02 0. -1.
        1   -1    0    0  501    0  0.00000000000E+00  0.00000000000E+00 -0.16538489842E+04  0.16538489842E+04  0.50400001928E-02 0.  1.
    10030    2    1    2    0    0  0.00000000000E+00  0.00000000000E+00 -0.15578413466E+01  0.33061401270E+04  0.33061397600E+04 0.  0.
        4    1    3    3  502    0  0.13395464800E+04 -0.54989507090E+03  0.79663514699E+03  0.16526943249E+04  0.12699999809E+01 0. -1.
       -4    1    3    3    0  502 -0.13395464800E+04  0.54989507090E+03 -0.79819298834E+03  0.16534458021E+04  0.12699999809E+01 0.  1.
</event>
<event>
 5   0  0.2658600E-06  0.3215195E+04  0.7818609E-02  0.8184816E-01
        2   -1    0    0  501    0  0.00000000000E+00  0.00000000000E+00  0.16393632792E+04  0.16393632792E+04  0.25500000920E-02 0.  1.
       -2   -1    0    0    0  501  0.00000000000E+00  0.00000000000E+00 -0.15764475353E+04  0.15764475353E+04  0.25500000920E-02 0. -1.
    10030    2    1    2    0    0  0.00000000000E+00  0.00000000000E+00  0.62915743900E+02  0.32158108144E+04  0.32151952979E+04 0.  0.
        5    1    3    3  502    0  0.15603157938E+03  0.69740050642E+03 -0.14088298838E+04  0.15797268915E+04  0.46999998093E+01 0. -1.
       -5    1    3    3    0  502 -0.15603157938E+03 -0.69740050642E+03  0.14717456277E+04  0.16360839229E+04  0.46999998093E+01 0.  1.
</event>
<event>
 5   0  0.9268670E-07  0.3302017E+04  0.7818609E-02  0.8162382E-01
        1   -1    0    0  501    0  0.00000000000E+00  0.00000000000E+00  0.14143770900E+04  0.14143770901E+04  0.50400001928E-02 0.  1.
       -1   -1    0    0    0  501  0.00000000000E+00  0.00000000000E+00 -0.19272295452E+04  0.19272295452E+04  0.50400001928E-02 0. -1.
    10030    2    1    2    0    0  0.00000000000E+00  0.00000000000E+00 -0.51285245518E+03  0.33416066353E+04  0.33020171508E+04 0.  0.
        3    1    3    3  502    0 -0.10337088900E+04 -0.12368721296E+04 -0.61766901322E+03  0.17262449868E+04  0.10100000352E+00 0. -1.
       -3    1    3    3    0  502  0.10337088900E+04  0.12368721296E+04  0.10481655804E+03  0.16153616485E+04  0.10100000352E+00 0.  1.
</event>
<event>
 5   0  0.2614212E-06  0.3269115E+04  0.7818609E-02  0.8170799E-01
        2   -1    0    0  501    0  0.00000000000E+00  0.00000000000E+00  0.22167566762E+04  0.22167566762E+04  0.25500000920E-02 0.  1.
       -2   -1    0    0    0  501  0.00000000000E+00  0.00000000000E+00 -0.12052646374E+04  0.12052646374E+04  0.25500000920E-02 0. -1.
    10030    2    1    2    0    0  0.00000000000E+00  0.00000000000E+00  0.10114920388E+04  0.34220213136E+04  0.32691151289E+04 0.  0.
        2    1    3    3  502    0  0.32164403361E+03 -0.11572959049E+04 -0.65470448746E+03  0.13680009729E+04  0.25500000920E-02 0. -1.
       -2    1    3    3    0  502 -0.32164403361E+03  0.11572959049E+04  0.16661965262E+04  0.20540203407E+04  0.25500000920E-02 0.  1.
</event>
<event>
 5   0  0.9530268E-07  0.3322916E+04  0.7818609E-02  0.8157089E-01
        1   -1    0    0  501    0  0.00000000000E+00  0.00000000000E+00  0.17909623269E+04  0.17909623269E+04  0.50400001928E-02 0.  1.
       -1   -1    0    0    0  501  0.00000000000E+00  0.00000000000E+00 -0.15413179994E+04  0.15413179994E+04  0.50400001928E-02 0. -1.
    10030    2    1    2    0    0  0.00000000000E+00  0.00000000000E+00  0.24964432748E+03  0.33322803263E+04  0.33229158706E+04 0.  0.
        5    1    3    3  502    0  0.13475411438E+04 -0.90513391118E+03 -0.23013275085E+03  0.16395480184E+04  0.46999998093E+01 0. -1.
       -5    1    3    3    0  502 -0.13475411438E+04  0.90513391118E+03  0.47977707833E+03  0.16927323079E+04  0.46999998093E+01 0.  1.
</event>
<event>
 5   0  0.8705956E-07  0.2389400E+04  0.7818609E-02  0.8443483E-01
       -1   -1    0    0    0  501  0.00000000000E+00  0.00000000000E+00  0.72862500946E+03  0.72862500947E+03  0.50400001928E-02 0.  1.
        1   -1    0    0  501    0  0.00000000000E+00  0.00000000000E+00 -0.19589057832E+04  0.19589057832E+04  0.50400001928E-02 0. -1.
    10030    2    1    2    0    0  0.00000000000E+00  0.00000000000E+00 -0.12302807737E+04  0.26875307926E+04  0.23893997111E+04 0.  0.
        2    1    3    3  502    0 -0.51743089129E+02  0.17780555735E+02  0.72721512889E+03  0.72927041564E+03  0.25500000920E-02 0.  1.
       -2    1    3    3    0  502  0.51743089129E+02 -0.17780555735E+02 -0.19574959026E+04  0.19582603770E+04  0.25500000920E-02 0. -1.
</event>
<event>
 5   0  0.8520125E-07  0.3330430E+04  0.7818609E-02  0.8155195E-01
        3   -1    0    0  501    0  0.00000000000E+00  0.00000000000E+00  0.17048564183E+04  0.17048564213E+04  0.10100000352E+00 0.  1.
       -3   -1    0    0    0  501  0.00000000000E+00  0.00000000000E+00 -0.16264950938E+04  0.16264950969E+04  0.10100000352E+00 0. -1.
    10030    2    1    2    0    0  0.00000000000E+00  0.00000000000E+00  0.78361324520E+02  0.33313515182E+04  0.33304297681E+04 0.  0.
        2    1    3    3  502    0 -0.78818290185E+03  0.67039536569E+03  0.13442556690E+04  0.16963742325E+04  0.25500000920E-02 0.  1.
       -2    1    3    3    0  502  0.78818290185E+03 -0.67039536569E+03 -0.12658943445E+04  0.16349772856E+04  0.25500000920E-02 0. -1.
</event>
<event>
 5   0  0.2658600E-06  0.3323202E+04  0.7818609E-02  0.8157017E-01
        2   -1    0    0  501    0  0.00000000000E+00  0.00000000000E+00  0.17360964162E+04  0.17360964162E+04  0.25500000920E-02 0.  1.
       -2   -1    0    0    0  501  0.00000000000E+00  0.00000000000E+00 -0.15903020259E+04  0.15903020259E+04  0.25500000920E-02 0. -1.
    10030    2    1    2    0    0  0.00000000000E+00  0.00000000000E+00  0.14579439030E+03  0.33263984420E+04  0.33232018583E+04 0.  0.
        5    1    3    3  502    0  0.13330998787E+03 -0.54380766259E+03  0.16388179441E+04  0.17318327491E+04  0.46999998093E+01 0.  1.
       -5    1    3    3    0  502 -0.13330998787E+03  0.54380766259E+03 -0.14930235538E+04  0.15945656929E+04  0.46999998093E+01 0. -1.
</event>
<event>
 5   0  0.9530268E-07  0.3315057E+04  0.7818609E-02  0.8159075E-01
       -1   -1    0    0    0  501  0.00000000000E+00  0.00000000000E+00  0.30610413832E+04  0.30610413832E+04  0.50400001928E-02 0.  1.
        1   -1    0    0  501    0  0.00000000000E+00  0.00000000000E+00 -0.89753809752E+03  0.89753809753E+03  0.50400001928E-02 0. -1.
    10030    2    1    2    0    0  0.00000000000E+00  0.00000000000E+00  0.21635032857E+04  0.39585794808E+04  0.33150573205E+04 0.  0.
        5    1    3    3  502    0 -0.91057237751E+03  0.63098506004E+03 -0.39050556024E+03  0.11746492597E+04  0.46999998093E+01 0. -1.
       -5    1    3    3    0  502  0.91057237751E+03 -0.63098506004E+03  0.25540088459E+04  0.27839302211E+04  0.46999998093E+01 0.  1.
</event>
<event>
 5   0  0.2705859E-06  0.3205065E+04  0.7818609E-02  0.8187481E-01
        2   -1    0    0  501    0  0.00000000000E+00  0.00000000000E+00  0.11009118293E+04  0.11009118293E+04  0.25500000920E-02 0. -1.
       -2   -1    0    0    0  501  0.00000000000E+00  0.00000000000E+00 -0.23327118287E+04  0.23327118287E+04  0.25500000920E-02 0.  1.
    10030    2    1    2    0    0  0.00000000000E+00  0.00000000000E+00 -0.12317999994E+04  0.34336236580E+04  0.32050647709E+04 0.  0.
        1    1    3    3  502    0 -0.27251042506E+03 -0.83682364897E+03 -0.20506478002E+04  0.22315223843E+04  0.50400001928E-02 0.  1.
       -1    1    3    3    0  502  0.27251042506E+03  0.83682364897E+03  0.81884780077E+03  0.12021012736E+04  0.50400001928E-02 0. -1.
</event>
<event>
 5   0  0.2658600E-06  0.3282568E+04  0.7818609E-02  0.8167345E-01
       -2   -1    0    0    0  501  0.00000000000E+00  0.00000000000E+00  0.15372561923E+04  0.15372561923E+04  0.25500000920E-02 0. -1.
        2   -1    0    0  501    0  0.00000000000E+00  0.00000000000E+00 -0.17523515623E+04  0.17523515623E+04  0.25500000920E-02 0.  1.
    10030    2    1    2    0    0  0.00000000000E+00  0.00000000000E+00 -0.21509536999E+03  0.32896077546E+04  0.32825680741E+04 0.  0.
        5    1    3    3  502    0  0.21711253650E+03 -0.12375527386E+04  0.95070775408E+03  0.15756084406E+04  0.46999998093E+01 0. -1.
       -5    1    3    3    0  502 -0.21711253650E+03  0.12375527386E+04 -0.11658031241E+04  0.17139993140E+04  0.46999998093E+01 0.  1.
</event>
<event>
 5   0  0.2658600E-06  0.3323552E+04  0.7818609E-02  0.8156928E-01
       -2   -1    0    0    0  501  0.00000000000E+00  0.00000000000E+00  0.19785228171E+04  0.19785228171E+04  0.25500000920E-02 0. -1.
        2   -1    0    0  501    0  0.00000000000E+00  0.00000000000E+00 -0.13957376748E+04  0.13957376748E+04  0.25500000920E-02 0.  1.
    10030    2    1    2    0    0  0.00000000000E+00  0.00000000000E+00  0.58278514226E+03  0.33742604919E+04  0.33235516162E+04 0.  0.
        5    1    3    3  502    0  0.27999291296E+03  0.76869874303E+03  0.17598995306E+04  0.19407633129E+04  0.46999998093E+01 0. -1.
       -5    1    3    3    0  502 -0.27999291296E+03 -0.76869874303E+03 -0.11771143884E+04  0.14334971790E+04  0.46999998093E+01 0.  1.
</event>
<event>
 5   0  0.9530268E-07  0.3293305E+04  0.7818609E-02  0.8164601E-01
        1   -1    0    0  501    0  0.00000000000E+00  0.00000000000E+00  0.13530747776E+04  0.13530747776E+04  0.50400001928E-02 0. -1.
       -1   -1    0    0    0  501  0.00000000000E+00  0.00000000000E+00 -0.20039278804E+04  0.20039278805E+04  0.50400001928E-02 0.  1.
    10030    2    1    2    0    0  0.00000000000E+00  0.00000000000E+00 -0.65085310288E+03  0.33570026580E+04  0.32933048879E+04 0.  0.
        5    1    3    3  502    0 -0.98545908429E+03  0.99483011776E+03 -0.12085703742E+04  0.18497245766E+04  0.46999998093E+01 0.  1.
       -5    1    3    3    0  502  0.98545908429E+03 -0.99483011776E+03  0.55771727128E+03  0.15072780814E+04  0.46999998093E+01 0. -1.
</event>
<event>
 5   0  0.9530268E-07  0.3226921E+04  0.7818609E-02  0.8181743E-01
       -1   -1    0    0    0  501  0.00000000000E+00  0.00000000000E+00  0.13364188570E+04  0.13364188570E+04  0.50400001928E-02 0.  1.
        1   -1    0    0  501    0  0.00000000000E+00  0.00000000000E+00 -0.19479337173E+04  0.19479337173E+04  0.50400001928E-02 0. -1.
    10030    2    1    2    0    0  0.00000000000E+00  0.00000000000E+00 -0.61151486028E+03  0.32843525743E+04  0.32269213514E+04 0.  0.
        5    1    3    3  502    0  0.12039163480E+04  0.10206418828E+04  0.35028231524E+02  0.15787252747E+04  0.46999998093E+01 0.  1.
       -5    1    3    3    0  502 -0.12039163480E+04 -0.10206418828E+04 -0.64654309180E+03  0.17056272997E+04  0.46999998093E+01 0. -1.
</event>
<event>
 5   0  0.2658600E-06  0.3389667E+04  0.7818609E-02  0.8140447E-01
       -2   -1    0    0    0  501  0.00000000000E+00  0.00000000000E+00  0.16914454264E+04  0.16914454264E+04  0.25500000920E-02 0. -1.
        2   -1    0    0  501    0  0.00000000000E+00  0.00000000000E+00 -0.16982287530E+04  0.16982287530E+04  0.25500000920E-02 0.  1.
    10030    2    1    2    0    0  0.00000000000E+00  0.00000000000E+00 -0.67833265323E+01  0.33896741794E+04  0.33896673921E+04 0.  0.
        5    1    3    3  502    0 -0.44677900971E+03 -0.51596869408E+03  0.15479347460E+04  0.16917326162E+04  0.46999998093E+01 0. -1.
       -5    1    3    3    0  502  0.44677900971E+03  0.51596869408E+03 -0.15547180726E+04  0.16979415632E+04  0.46999998093E+01 0.  1.
</event>
<event>
 5   0  0.9295663E-07  0.3255337E+04  0.7818609E-02  0.8174354E-01
        1   -1    0    0  501    0  0.00000000000E+00  0.00000000000E+00  0.16053898117E+04  0.16053898117E+04  0.50400001928E-02 0.  1.
       -1   -1    0    0    0  501  0.00000000000E+00  0.00000000000E+00 -0.16502563664E+04  0.16502563664E+04  0.50400001928E-02 0. -1.
    10030    2    1    2    0    0  0.00000000000E+00  0.00000000000E+00 -0.44866554692E+02  0.32556461781E+04  0.32553370070E+04 0.  0.
        4    1    3    3  502    0 -0.13790198838E+04  0.85726495797E+03  0.90289877214E+02  0.16262696341E+04  0.12699999809E+01 0.  1.
       -4    1    3    3    0  502  0.13790198838E+04 -0.85726495797E+03 -0.13515643191E+03  0.16293765440E+04  0.12699999809E+01 0. -1.
</event>
<event>
 5   0  0.2705859E-06  0.3303448E+04  0.7818609E-02  0.8162018E-01
       -2   -1    0    0    0  501  0.00000000000E+00  0.00000000000E+00  0.12751755299E+04  0.12751755299E+04  0.25500000920E-02 0. -1.
        2   -1    0    0  501    0  0.00000000000E+00  0.00000000000E+00 -0.21394646101E+04  0.21394646101E+04  0.25500000920E-02 0.  1.
    10030    2    1    2    0    0  0.00000000000E+00  0.00000000000E+00 -0.86428908016E+03  0.34146401400E+04  0.33034484515E+04 0.  0.
        1    1    3    3  502    0  0.86357716916E+02 -0.72056762283E+03  0.11015486326E+04  0.13191227177E+04  0.50400001928E-02 0. -1.
       -1    1    3    3    0  502 -0.86357716916E+02  0.72056762283E+03 -0.19658377127E+04  0.20955174223E+04  0.50400001928E-02 0.  1.
</event>
<event>
 5   0  0.9530268E-07  0.3327792E+04  0.7818609E-02  0.8155860E-01
        1   -1    0    0  501    0  0.00000000000E+00  0.00000000000E+00  0.23612912434E+04  0.23612912434E+04  0.50400001928E-02 0.  1.
       -1   -1    0    0    0  501  0.00000000000E+00  0.00000000000E+00 -0.11724725752E+04  0.11724725752E+04  0.50400001928E-02 0. -1.
    10030    2    1    2    0    0  0.00000000000E+00  0.00000000000E+00  0.11888186682E+04  0.35337638186E+04  0.33277915950E+04 0.  0.
        5    1    3    3  502    0  0.10152760770E+03 -0.11884089185E+04  0.18263459514E+04  0.21813264857E+04  0.46999998093E+01 0.  1.
       -5    1    3    3    0  502 -0.10152760770E+03  0.11884089185E+04 -0.63752728320E+03  0.13524373329E+04  0.46999998093E+01 0. -1.
</event>
<event>
 5   0  0.8845526E-07  0.3115534E+04  0.7818609E-02  0.8211488E-01
        1   -1    0    0  501    0  0.00000000000E+00  0.00000000000E+00  0.23212516774E+04  0.23212516774E+04  0.50400001928E-02 0.  1.
       -1   -1    0    0    0  501  0.00000000000E+00  0.00000000000E+00 -0.10454004251E+04  0.10454004251E+04  0.50400001928E-02 0. -1.
    10030    2    1    2    0    0  0.00000000000E+00  0.00000000000E+00  0.12758512523E+04  0.33666521025E+04  0.31155336559E+04 0.  0.
        1    1    3    3  502    0 -0.94494333436E+03  0.10381193563E+04  0.13676543582E+04  0.19598694208E+04  0.50400001928E-02 0.  1.
       -1    1    3    3    0  502  0.94494333436E+03 -0.10381193563E+04 -0.91803105913E+02  0.14067826817E+04  0.50400001928E-02 0. -1.
</event>
<event>
 5   0  0.8845526E-07  0.3288024E+04  0.7818609E-02  0.8165949E-01
       -1   -1    0    0    0  501  0.00000000000E+00  0.00000000000E+00  0.99229551757E+03  0.99229551758E+03  0.50400001928E-02 0. -1.
        1   -1    0    0  501    0  0.00000000000E+00  0.00000000000E+00 -0.27237607466E+04  0.27237607466E+04  0.50400001928E-02 0.  1.
    10030    2    1    2    0    0  0.00000000000E+00  0.00000000000E+00 -0.17314652290E+04  0.37160562642E+04  0.32880240752E+04 0.  0.
        1    1    3    3  502    0  0.69014804494E+03  0.14245833888E+04 -0.36406363829E+03  0.16242796829E+04  0.50400001928E-02 0. -1.
       -1    1    3    3    0  502 -0.69014804494E+03 -0.14245833888E+04 -0.13674015908E+04  0.20917765813E+04  0.50400001928E-02 0.  1.
</event>
<event>
 5   0  0.9295663E-07  0.3432306E+04  0.7818609E-02  0.8130023E-01
       -1   -1    0    0    0  501  0.00000000000E+00  0.00000000000E+00  0.15729108014E+04  0.15729108014E+04  0.50400001928E-02 0.  1.
        1   -1    0    0  501    0  0.00000000000E+00  0.00000000000E+00 -0.18724398519E+04  0.18724398519E+04  0.50400001928E-02 0. -1.
    10030    2    1    2    0    0  0.00000000000E+00  0.00000000000E+00 -0.29952905054E+03  0.34453506533E+04  0.34323058535E+04 0.  0.
        4    1    3    3  502    0  0.98588634567E+03  0.68022414130E+03 -0.13834605643E+04  0.18299293743E+04  0.12699999809E+01 0. -1.
       -4    1    3    3    0  502 -0.98588634567E+03 -0.68022414130E+03  0.10839315138E+04  0.16154212790E+04  0.12699999809E+01 0.  1.
</event>
<event>
 5   0  0.2574803E-06  0.2679674E+04  0.7818609E-02  0.8341630E-01
       -2   -1    0    0    0  501  0.00000000000E+00  0.00000000000E+00  0.14400142010E+04  0.14400142010E+04  0.25500000920E-02 0. -1.
        2   -1    0    0  501    0  0.00000000000E+00  0.00000000000E+00 -0.12466289658E+04  0.12466289658E+04  0.25500000920E-02 0.  1.
    10030    2    1    2    0    0  0.00000000000E+00  0.00000000000E+00  0.19338523522E+03  0.26866431668E+04  0.26796741698E+04 0.  0.
        4    1    3    3  502    0 -0.99905903008E+03  0.42035371025E+03  0.88636119411E+03  0.14001621216E+04  0.12699999809E+01 0. -1.
       -4    1    3    3    0  502  0.99905903008E+03 -0.42035371025E+03 -0.69297595889E+03  0.12864810453E+04  0.12699999809E+01 0.  1.
</event>
<event>
 5   0  0.2674551E-06  0.3090955E+04  0.7818609E-02  0.8218225E-01
        2   -1    0    0  501    0  0.00000000000E+00  0.00000000000E+00  0.21074195912E+04  0.21074195912E+04  0.25500000920E-02 0. -1.
       -2   -1    0    0    0  501  0.00000000000E+00  0.00000000000E+00 -0.11333766246E+04  0.11333766246E+04  0.25500000920E-02 0.  1.
    10030    2    1    2    0    0  0.00000000000E+00  0.00000000000E+00  0.97404296654E+03  0.32407962158E+04  0.30909546117E+04 0.  0.
        3    1    3    3  502    0 -0.95090127031E+03  0.12169772324E+04  0.54682407376E+03  0.16383721762E+04  0.10100000352E+00 0.  1.
       -3    1    3    3    0  502  0.95090127031E+03 -0.12169772324E+04  0.42721889277E+03  0.16024240396E+04  0.10100000352E+00 0. -1.
</event>
<event>
 5   0  0.9295663E-07  0.3383586E+04  0.7818609E-02  0.8141947E-01
       -1   -1    0    0    0  501  0.00000000000E+00  0.00000000000E+00  0.11902107122E+04  0.11902107122E+04  0.50400001928E-02 0. -1.
        1   -1    0    0  501    0  0.00000000000E+00  0.00000000000E+00 -0.24047541206E+04  0.24047541207E+04  0.50400001928E-02 0.  1.
    10030    2    1    2    0    0  0.00000000000E+00  0.00000000000E+00 -0.12145434085E+04  0.35949648328E+04  0.33835863309E+04 0.  0.
        4    1    3    3  502    0  0.21703468999E+03  0.22009869439E+03  0.11599528981E+04  0.12004331846E+04  0.12699999809E+01 0. -1.
       -4    1    3    3    0  502 -0.21703468999E+03 -0.22009869439E+03 -0.23744963065E+04  0.23945316483E+04  0.12699999809E+01 0.  1.
</event>
<event>
 5   0  0.2658600E-06  0.3326857E+04  0.7818609E-02  0.8156095E-01
        2   -1    0    0  501    0  0.00000000000E+00  0.00000000000E+00  0.21901991158E+04  0.21901991158E+04  0.25500000920E-02 0. -1.
       -2   -1    0    0    0  501  0.00000000000E+00  0.00000000000E+00 -0.12633530424E+04  0.12633530425E+04  0.25500000920E-02 0.  1.
    10030    2    1    2    0    0  0.00000000000E+00  0.00000000000E+00  0.92684607336E+03  0.34535521583E+04  0.33268572055E+04 0.  0.
        5    1    3    3  502    0 -0.86659305920E+03  0.10435057369E+04 -0.53609723437E+03  0.14585301121E+04  0.46999998093E+01 0.  1.
       -5    1    3    3    0  502  0.86659305920E+03 -0.10435057369E+04  0.14629433077E+04  0.19950220462E+04  0.46999998093E+01 0. -1.
</event>
<event>
 5   0  0.2674551E-06  0.3328584E+04  0.7818609E-02  0.8155660E-01
        2   -1    0    0  501    0  0.00000000000E+00  0.00000000000E+00  0.24345539881E+04  0.24345539881E+04  0.25500000920E-02 0. -1.
       -2   -1    0    0    0  501  0.00000000000E+00  0.00000000000E+00 -0.11377311424E+04  0.11377311424E+04  0.25500000920E-02 0.  1.
    10030    2    1    2    0    0  0.00000000000E+00  0.00000000000E+00  0.12968228457E+04  0.35722851306E+04  0.33285840174E+04 0.  0.
        3    1    3    3  502    0  0.33347152704E+02 -0.94803045974E+03 -0.81918522085E+03  0.12533707438E+04  0.10100000352E+00 0.  1.
       -3    1    3    3    0  502 -0.33347152704E+02  0.94803045974E+03  0.21160080666E+04  0.23189143868E+04  0.10100000352E+00 0. -1.
</event>
<event>
 5   0  0.2574803E-06  0.3455138E+04  0.7818609E-02  0.8124505E-01
       -2   -1    0    0    0  501  0.00000000000E+00  0.00000000000E+00  0.15232744289E+04  0.15232744289E+04  0.25500000920E-02 0.  1.
        2   -1    0    0  501    0  0.00000000000E+00  0.00000000000E+00 -0.19592622364E+04  0.19592622364E+04  0.25500000920E-02 0. -1.
    10030    2    1    2    0    0  0.00000000000E+00  0.00000000000E+00 -0.43598780751E+03  0.34825366652E+04  0.34551376610E+04 0.  0.
        4    1    3    3  502    0 -0.69956121322E+03 -0.15453004835E+04 -0.54793199731E+03  0.17825741392E+04  0.12699999809E+01 0.  1.
       -4    1    3    3    0  502  0.69956121322E+03  0.15453004835E+04  0.11194418979E+03  0.16999625260E+04  0.12699999809E+01 0. -1.
</event>
<event>
 5   0  0.2614212E-06  0.3402737E+04  0.7818609E-02  0.8137235E-01
       -2   -1    0    0    0  501  0.00000000000E+00  0.00000000000E+00  0.15456717552E+04  0.15456717552E+04  0.25500000920E-02 0.  1.
        2   -1    0    0  501    0  0.00000000000E+00  0.00000000000E+00 -0.18727489419E+04  0.18727489419E+04  0.25500000920E-02 0. -1.
    10030    2    1    2    0    0  0.00000000000E+00  0.00000000000E+00 -0.32707718665E+03  0.34184206971E+04  0.34027372182E+04 0.  0.
        2    1    3    3  502    0 -0.76917439633E+03 -0.11646490627E+04 -0.11409661546E+04  0.18027313880E+04  0.25500000920E-02 0. -1.
       -2    1    3    3    0  502  0.76917439633E+03  0.11646490627E+04  0.81388896798E+03  0.16156893091E+04  0.25500000920E-02 0.  1.
</event>
<event>
 5   0  0.2614212E-06  0.3336785E+04  0.7818609E-02  0.8153598E-01
        2   -1    0    0  501    0  0.00000000000E+00  0.00000000000E+00  0.29436000678E+04  0.29436000678E+04  0.25500000920E-02 0.  1.
       -2   -1    0    0    0  501  0.00000000000E+00  0.00000000000E+00 -0.94562238003E+03  0.94562238003E+03  0.25500000920E-02 0. -1.
    10030    2    1    2    0    0  0.00000000000E+00  0.00000000000E+00  0.19979776878E+04  0.38892224479E+04  0.33367853404E+04 0.  0.
        2    1    3    3  502    0 -0.14099564393E+04  0.50490760689E+02 -0.38953420024E+02  0.14113978343E+04  0.25500000920E-02 0. -1.
       -2    1    3    3    0  502  0.14099564393E+04 -0.50490760689E+02  0.20369311078E+04  0.24778246136E+04  0.25500000920E-02 0.  1.
</event>
<event>
 5   0  0.2614212E-06  0.3399551E+04  0.7818609E-02  0.8138016E-01
       -2   -1    0    0    0  501  0.00000000000E+00  0.00000000000E+00  0.20179419756E+04  0.20179419756E+04  0.25500000920E-02 0.  1.
        2   -1    0    0  501    0  0.00000000000E+00  0.00000000000E+00 -0.14317743398E+04  0.14317743398E+04  0.25500000920E-02 0. -1.
    10030    2    1    2    0    0  0.00000000000E+00  0.00000000000E+00  0.58616763585E+03  0.34497163154E+04  0.33995514644E+04 0.  0.
        2    1    3    3  502    0  0.21854333475E+03 -0.66595731369E+02 -0.14161229195E+04  0.14344337921E+04  0.25500000920E-02 0. -1.
       -2    1    3    3    0  502 -0.21854333475E+03  0.66595731369E+02  0.20022905554E+04  0.20152825233E+04  0.25500000920E-02 0.  1.
</event>
<event>
 5   0  0.2674551E-06  0.3273678E+04  0.7818609E-02  0.8169625E-01
       -2   -1    0    0    0  501  0.00000000000E+00  0.00000000000E+00  0.12846917577E+04  0.12846917577E+04  0.25500000920E-02 0.  1.
        2   -1    0    0  501    0  0.00000000000E+00  0.00000000000E+00 -0.20855137272E+04  0.20855137272E+04  0.25500000920E-02 0. -1.
    10030    2    1    2    0    0  0.00000000000E+00  0.00000000000E+00 -0.80082196951E+03  0.33702054849E+04  0.32736782345E+04 0.  0.
        3    1    3    3  502    0 -0.11846563444E+04  0.25328384565E+03  0.73280884945E+03  0.14158291496E+04  0.10100000352E+00 0.  1.
       -3    1    3    3    0  502  0.11846563444E+04 -0.25328384565E+03 -0.15336308190E+04  0.19543763353E+04  0.10100000352E+00 0. -1.
</event>
<event>
 5   0  0.2574803E-06  0.3356774E+04  0.7818609E-02  0.8148598E-01
       -2   -1    0    0    0  501  0.00000000000E+00  0.00000000000E+00  0.14904456168E+04  0.14904456168E+04  0.25500000920E-02 0. -1.
        2   -1    0    0  501    0  0.00000000000E+00  0.00000000000E+00 -0.18900274808E+04  0.18900274808E+04  0.25500000920E-02 0.  1.
    10030    2    1    2    0    0  0.00000000000E+00  0.00000000000E+00 -0.39958186393E+03  0.33804730976E+04  0.33567741505E+04 0.  0.
        4    1    3    3  502    0  0.16770541746E+04  0.66775819739E+02 -0.20325716427E+03  0.16906462677E+04  0.12699999809E+01 0.  1.
       -4    1    3    3    0  502 -0.16770541746E+04 -0.66775819739E+02 -0.19632469966E+03  0.16898268299E+04  0.12699999809E+01 0. -1.
</event>
<event>
 5   0  0.2705859E-06  0.3328713E+04  0.7818609E-02  0.8155628E-01
        2   -1    0    0  501    0  0.00000000000E+00  0.00000000000E+00  0.13059780933E+04  0.13059780933E+04  0.25500000920E-02 0.  1.
       -2   -1    0    0    0  501  0.00000000000E+00  0.00000000000E+00 -0.21210791240E+04  0.21210791240E+04  0.25500000920E-02 0. -1.
    10030    2    1    2    0    0  0.00000000000E+00  0.00000000000E+00 -0.81510103067E+03  0.34270572173E+04  0.33287131869E+04 0.  0.
        1    1    3    3  502    0  0.95670071213E+02 -0.16406844187E+04 -0.13694536304E+03  0.16491671100E+04  0.50400001928E-02 0. -1.
       -1    1    3    3    0  502 -0.95670071213E+02  0.16406844187E+04 -0.67815566762E+03  0.17778901073E+04  0.50400001928E-02 0.  1.
</event>
<event>
 5   0  0.8845526E-07  0.3268179E+04  0.7818609E-02  0.8171040E-01
        1   -1    0    0  501    0  0.00000000000E+00  0.00000000000E+00  0.21807207385E+04  0.21807207386E+04  0.50400001928E-02 0.  1.
       -1   -1    0    0    0  501  0.00000000000E+00  0.00000000000E+00 -0.12244795405E+04  0.12244795405E+04  0.50400001928E-02 0. -1.
    10030    2    1    2    0    0  0.00000000000E+00  0.00000000000E+00  0.95624119803E+03  0.34052002791E+04  0.32681786536E+04 0.  0.
        1    1    3    3  502    0 -0.27832901212E+03 -0.29901575622E+03 -0.11704191890E+04  0.12396606550E+04  0.50400001928E-02 0. -1.
       -1    1    3    3    0  502  0.27832901212E+03  0.29901575622E+03  0.21266603871E+04  0.21655396241E+04  0.50400001928E-02 0.  1.
</event>
<event>
 5   0  0.9268670E-07  0.3197731E+04  0.7818609E-02  0.8189417E-01
        1   -1    0    0  501    0  0.00000000000E+00  0.00000000000E+00  0.21033193165E+04  0.21033193165E+04  0.50400001928E-02 0.  1.
       -1   -1    0    0    0  501  0.00000000000E+00  0.00000000000E+00 -0.12153980264E+04  0.12153980264E+04  0.50400001928E-02 0. -1.
    10030    2    1    2    0    0  0.00000000000E+00  0.00000000000E+00  0.88792129004E+03  0.33187173429E+04  0.31977305366E+04 0.  0.
        3    1    3    3  502    0  0.44708735762E+03  0.48805438115E+03 -0.10665392299E+04  0.12552251286E+04  0.10100000352E+00 0. -1.
       -3    1    3    3    0  502 -0.44708735762E+03 -0.48805438115E+03  0.19544605200E+04  0.20634922143E+04  0.10100000352E+00 0.  1.
</event>
<event>
 5   0  0.8845526E-07  0.3365410E+04  0.7818609E-02  0.8146448E-01
       -1   -1    0    0    0  501  0.00000000000E+00  0.00000000000E+00  0.13213236734E+04  0.13213236734E+04  0.50400001928E-02 0. -1.
        1   -1    0    0  501    0  0.00000000000E+00  0.00000000000E+00 -0.21429236892E+04  0.21429236892E+04  0.50400001928E-02 0.  1.
    10030    2    1    2    0    0  0.00000000000E+00  0.00000000000E+00 -0.82160001576E+03  0.34642473626E+04  0.33654098121E+04 0.  0.
        1    1    3    3  502    0 -0.12134531800E+03 -0.11718004102E+04 -0.16476090026E+04  0.20254521256E+04  0.50400001928E-02 0.  1.
       -1    1    3    3    0  502  0.12134531800E+03  0.11718004102E+04  0.82600898681E+03  0.14387952370E+04  0.50400001928E-02 0. -1.
</event>
<event>
 5   0  0.2574803E-06  0.3247439E+04  0.7818609E-02  0.8176400E-01
        2   -1    0    0  501    0  0.00000000000E+00  0.00000000000E+00  0.22890952302E+04  0.22890952302E+04  0.25500000920E-02 0. -1.
       -2   -1    0    0    0  501  0.00000000000E+00  0.00000000000E+00 -0.11517501382E+04  0.11517501382E+04  0.25500000920E-02 0.  1.
    10030    2    1    2    0    0  0.00000000000E+00  0.00000000000E+00  0.11373450920E+04  0.34408453684E+04  0.32474394514E+04 0.  0.
        4    1    3    3  502    0 -0.91833013445E+03 -0.85553242342E+03  0.16601690272E+04  0.20812084891E+04  0.12699999809E+01 0. -1.
       -4    1    3    3    0  502  0.91833013445E+03  0.85553242342E+03 -0.52282393521E+03  0.13596368793E+04  0.12699999809E+01 0.  1.
</event>
<event>
 5   0  0.2614212E-06  0.3295860E+04  0.7818609E-02  0.8163950E-01
        2   -1    0    0  501    0  0.00000000000E+00  0.00000000000E+00  0.20782207934E+04  0.20782207934E+04  0.25500000920E-02 0.  1.
       -2   -1    0    0    0  501  0.00000000000E+00  0.00000000000E+00 -0.13067297963E+04  0.13067297963E+04  0.25500000920E-02 0. -1.
    10030    2    1    2    0    0  0.00000000000E+00  0.00000000000E+00  0.77149099706E+03  0.33849505898E+04  0.32958598478E+04 0.  0.
        2    1    3    3  502    0  0.22879548925E+03  0.16298275376E+04  0.29989247967E+03  0.16729078509E+04  0.25500000920E-02 0.  1.
       -2    1    3    3    0  502 -0.22879548925E+03 -0.16298275376E+04  0.47159851739E+03  0.17120427389E+04  0.25500000920E-02 0. -1.
</event>
<event>
 5   0  0.2614212E-06  0.3203933E+04  0.7818609E-02  0.8187779E-01
       -2   -1    0    0    0  501  0.00000000000E+00  0.00000000000E+00  0.11036035260E+04  0.11036035260E+04  0.25500000920E-02 0. -1.
        2   -1    0    0  501    0  0.00000000000E+00  0.00000000000E+00 -0.23253786093E+04  0.23253786093E+04  0.25500000920E-02 0.  1.
    10030    2    1    2    0    0  0.00000000000E+00  0.00000000000E+00 -0.12217750832E+04  0.34289821353E+04  0.32039326039E+04 0.  0.
        2    1    3    3  502    0  0.11713819129E+04 -0.45068157703E+03  0.45455217094E+03  0.13348659655E+04  0.25500000920E-02 0. -1.
       -2    1    3    3    0  502 -0.11713819129E+04  0.45068157703E+03 -0.16763272542E+04  0.20941161698E+04  0.25500000920E-02 0.  1.
</event>
<event>
 5   0  0.2705859E-06  0.3286690E+04  0.7818609E-02  0.8166290E-01
       -2   -1    0    0    0  501  0.00000000000E+00  0.00000000000E+00  0.32203247362E+04  0.32203247362E+04  0.25500000920E-02 0. -1.
        2   -1    0    0  501    0  0.00000000000E+00  0.00000000000E+00 -0.83860560333E+03  0.83860560334E+03  0.25500000920E-02 0.  1.
    10030    2    1    2    0    0  0.00000000000E+00  0.00000000000E+00  0.23817191329E+04  0.40589303396E+04  0.32866897440E+04 0.  0.
        1    1    3    3  502    0  0.10680276687E+04  0.51537243124E+03 -0.21411600814E+03  0.12050466833E+04  0.50400001928E-02 0.  1.
       -1    1    3    3    0  502 -0.10680276687E+04 -0.51537243124E+03  0.25958351411E+04  0.28538836563E+04  0.50400001928E-02 0. -1.
</event>
<event>
 5   0  0.2658600E-06  0.3221084E+04  0.7818609E-02  0.8183271E-01
        2   -1    0    0  501    0  0.00000000000E+00  0.00000000000E+00  0.13107288443E+04  0.13107288443E+04  0.25500000920E-02 0. -1.
       -2   -1    0    0    0  501  0.00000000000E+00  0.00000000000E+00 -0.19789339363E+04  0.19789339363E+04  0.25500000920E-02 0.  1.
    10030    2    1    2    0    0  0.00000000000E+00  0.00000000000E+00 -0.66820509192E+03  0.32896627806E+04  0.32210841599E+04 0.  0.
        5    1    3    3  502    0  0.17130766901E+03 -0.16003619778E+04 -0.27526589365E+03  0.16328803323E+04  0.46999998093E+01 0. -1.
       -5    1    3    3    0  502 -0.17130766901E+03  0.16003619778E+04 -0.39293919827E+03  0.16567824483E+04  0.46999998093E+01 0.  1.
</event>
<event>
 5   0  0.8705956E-07  0.3354555E+04  0.7818609E-02  0.8149151E-01
       -1   -1    0    0    0  501  0.00000000000E+00  0.00000000000E+00  0.13387246870E+04  0.13387246870E+04  0.50400001928E-02 0. -1.
        1   -1    0    0  501    0  0.00000000000E+00  0.00000000000E+00 -0.21014474409E+04  0.21014474409E+04  0.50400001928E-02 0.  1.
    10030    2    1    2    0    0  0.00000000000E+00  0.00000000000E+00 -0.76272275391E+03  0.34401721279E+04  0.33545548542E+04 0.  0.
        2    1    3    3  502    0  0.14708168699E+04 -0.23311540668E+03 -0.11728194431E+04  0.18955607360E+04  0.25500000920E-02 0. -1.
       -2    1    3    3    0  502 -0.14708168699E+04  0.23311540668E+03  0.41009668922E+03  0.15446113919E+04  0.25500000920E-02 0.  1.
</event>
<event>
 5   0  0.9268670E-07  0.2939825E+04  0.7818609E-02  0.8261126E-01
       -1   -1    0    0    0  501  0.00000000000E+00  0.00000000000E+00  0.12024945948E+04  0.12024945948E+04  0.50400001928E-02 0. -1.
        1   -1    0    0  501    0  0.00000000000E+00  0.00000000000E+00 -0.17968006234E+04  0.17968006234E+04  0.50400001928E-02 0.  1.
    10030    2    1    2    0    0  0.00000000000E+00  0.00000000000E+00 -0.59430602865E+03  0.29992952182E+04  0.29398251904E+04 0.  0.
        3    1    3    3  502    0  0.72949507457E+03  0.12681449540E+04 -0.15183449735E+03  0.14708529542E+04  0.10100000352E+00 0. -1.
       -3    1    3    3    0  502 -0.72949507457E+03 -0.12681449540E+04 -0.44247153129E+03  0.15284422640E+04  0.10100000352E+00 0.  1.
</event>
<event>
 5   0  0.8845526E-07  0.3239239E+04  0.7818609E-02  0.8178530E-01
       -1   -1    0    0    0  501  0.00000000000E+00  0.00000000000E+00  0.23359274005E+04  0.23359274005E+04  0.50400001928E-02 0. -1.
        1   -1    0    0  501    0  0.00000000000E+00  0.00000000000E+00 -0.11229662567E+04  0.11229662567E+04  0.50400001928E-02 0.  1.
    10030    2    1    2    0    0  0.00000000000E+00  0.00000000000E+00  0.12129611438E+04  0.34588936572E+04  0.32392392001E+04 0.  0.
        1    1    3    3  502    0 -0.13402855588E+03 -0.86286642374E+03  0.20630404623E+04  0.22402316996E+04  0.50400001928E-02 0. -1.
       -1    1    3    3    0  502  0.13402855588E+03  0.86286642374E+03 -0.85007931847E+03  0.12186619575E+04  0.50400001928E-02 0.  1.
</event>
<event>
 5   0  0.8705956E-07  0.3359916E+04  0.7818609E-02  0.8147815E-01
        1   -1    0    0  501    0  0.00000000000E+00  0.00000000000E+00  0.17298396264E+04  0.17298396264E+04  0.50400001928E-02 0. -1.
       -1   -1    0    0    0  501  0.00000000000E+00  0.00000000000E+00 -0.16315151407E+04  0.16315151407E+04  0.50400001928E-02 0.  1.
    10030    2    1    2    0    0  0.00000000000E+00  0.00000000000E+00  0.98324485672E+02  0.33613547671E+04  0.33599163927E+04 0.  0.
        2    1    3    3  502    0  0.25226928119E+03  0.31752095423E+03  0.16801362712E+04  0.17283857314E+04  0.25500000920E-02 0. -1.
       -2    1    3    3    0  502 -0.25226928119E+03 -0.31752095423E+03 -0.15818117856E+04  0.16329690357E+04  0.25500000920E-02 0.  1.
</event>
<event>
 5   0  0.2674551E-06  0.3338546E+04  0.7818609E-02  0.8153156E-01
       -2   -1    0    0    0  501  0.00000000000E+00  0.00000000000E+00  0.15473971713E+04  0.15473971713E+04  0.25500000920E-02 0. -1.
        2   -1    0    0  501    0  0.00000000000E+00  0.00000000000E+00 -0.18007479125E+04  0.18007479125E+04  0.25500000920E-02 0.  1.
    10030    2    1    2    0    0  0.00000000000E+00  0.00000000000E+00 -0.25335074118E+03  0.33481450838E+04  0.33385459266E+04 0.  0.
        3    1    3    3  502    0 -0.16650394734E+04 -0.10338949949E+03 -0.67971784662E+02  0.16696305011E+04  0.10100000352E+00 0. -1.
       -3    1    3    3    0  502  0.16650394734E+04  0.10338949949E+03 -0.18537895651E+03  0.16785145827E+04  0.10100000352E+00 0.  1.
</event>
<event>
 5   0  0.8705956E-07  0.2677097E+04  0.7818609E-02  0.8342475E-01
        1   -1    0    0  501    0  0.00000000000E+00  0.00000000000E+00  0.21584066739E+04  0.21584066739E+04  0.50400001928E-02 0. -1.
       -1   -1    0    0    0  501  0.00000000000E+00  0.00000000000E+00 -0.83010879644E+03  0.83010879646E+03  0.50400001928E-02 0.  1.
    10030    2    1    2    0    0  0.00000000000E+00  0.00000000000E+00  0.13282978774E+04  0.29885154703E+04  0.26770972088E+04 0.  0.
        2    1    3    3  502    0  0.12255363886E+04 -0.31504044238E+03  0.17688480900E+03  0.12776846856E+04  0.25500000920E-02 0.  1.
       -2    1    3    3    0  502 -0.12255363886E+04  0.31504044238E+03  0.11514130684E+04  0.17108307848E+04  0.25500000920E-02 0. -1.
</event>
<event>
 5   0  0.2658600E-06  0.3319539E+04  0.7818609E-02  0.8157941E-01
       -2   -1    0    0    0  501  0.00000000000E+00  0.00000000000E+00  0.17841286447E+04  0.17841286447E+04  0.25500000920E-02 0. -1.
        2   -1    0    0  501    0  0.00000000000E+00  0.00000000000E+00 -0.15440784282E+04  0.15440784282E+04  0.25500000920E-02 0.  1.
    10030    2    1    2    0    0  0.00000000000E+00  0.00000000000E+00  0.24005021658E+03  0.33282070729E+04  0.33195388556E+04 0.  0.
        5    1    3    3  502    0 -0.56252852219E+02  0.15800507035E+04  0.62640619111E+03  0.17006267713E+04  0.46999998093E+01 0. -1.
       -5    1    3    3    0  502  0.56252852219E+02 -0.15800507035E+04 -0.38635597452E+03  0.16275803016E+04  0.46999998093E+01 0.  1.
</event>
<event>
 5   0  0.2574803E-06  0.3449118E+04  0.7818609E-02  0.8125955E-01
        2   -1    0    0  501    0  0.00000000000E+00  0.00000000000E+00  0.19518295806E+04  0.19518295806E+04  0.25500000920E-02 0. -1.
       -2   -1    0    0    0  501  0.00000000000E+00  0.00000000000E+00 -0.15237517924E+04  0.15237517924E+04  0.25500000920E-02 0.  1.
    10030    2    1    2    0    0  0.00000000000E+00  0.00000000000E+00  0.42807778827E+03  0.34755813730E+04  0.34491180449E+04 0.  0.
        4    1    3    3  502    0  0.86344848094E+02  0.40660891512E+03 -0.14725158830E+04  0.15300623783E+04  0.12699999809E+01 0.  1.
       -4    1    3    3    0  502 -0.86344848094E+02 -0.40660891512E+03  0.19005936713E+04  0.19455189948E+04  0.12699999809E+01 0. -1.
</event>
<event>
 5   0  0.9530268E-07  0.3389045E+04  0.7818609E-02  0.8140600E-01
        1   -1    0    0  501    0  0.00000000000E+00  0.00000000000E+00  0.25339772851E+04  0.25339772851E+04  0.50400001928E-02 0. -1.
       -1   -1    0    0    0  501  0.00000000000E+00  0.00000000000E+00 -0.11331617408E+04  0.11331617408E+04  0.50400001928E-02 0.  1.
    10030    2    1    2    0    0  0.00000000000E+00  0.00000000000E+00  0.14008155444E+04  0.36671390259E+04  0.33890447689E+04 0.  0.
        5    1    3    3  502    0  0.75350534502E+02  0.11968958234E+04 -0.59496687842E+03  0.13387475459E+04  0.46999998093E+01 0. -1.
       -5    1    3    3    0  502 -0.75350534502E+02 -0.11968958234E+04  0.19957824228E+04  0.23283914800E+04  0.46999998093E+01 0.  1.
</event>
<event>
 5   0  0.9268670E-07  0.3306335E+04  0.7818609E-02  0.8161285E-01
        1   -1    0    0  501    0  0.00000000000E+00  0.00000000000E+00  0.30491017025E+04  0.30491017025E+04  0.50400001928E-02 0.  1.
       -1   -1    0    0    0  501  0.00000000000E+00  0.00000000000E+00 -0.89631727154E+03  0.89631727155E+03  0.50400001928E-02 0. -1.
    10030    2    1    2    0    0  0.00000000000E+00  0.00000000000E+00  0.21527844309E+04  0.39454189740E+04  0.33063348401E+04 0.  0.
        3    1    3    3  502    0  0.48963629829E+03  0.50607964914E+03  0.28611907764E+04  0.29465696980E+04  0.10100000352E+00 0.  1.
       -3    1    3    3    0  502 -0.48963629829E+03 -0.50607964914E+03 -0.70840634544E+03  0.99884927608E+03  0.10100000352E+00 0. -1.
</event>
<event>
 5   0  0.8845526E-07  0.3254726E+04  0.7818609E-02  0.8174512E-01
       -1   -1    0    0    0  501  0.00000000000E+00  0.00000000000E+00  0.12729038194E+04  0.12729038194E+04  0.50400001928E-02 0.  1.
        1   -1    0    0  501    0  0.00000000000E+00  0.00000000000E+00 -0.20805265747E+04  0.20805265747E+04  0.50400001928E-02 0. -1.
    10030    2    1    2    0    0  0.00000000000E+00  0.00000000000E+00 -0.80762275528E+03  0.33534303941E+04  0.32547259321E+04 0.  0.
        1    1    3    3  502    0 -0.16097051124E+04 -0.18403125646E+03 -0.24656528637E+03  0.16388448653E+04  0.50400001928E-02 0. -1.
       -1    1    3    3    0  502  0.16097051124E+04  0.18403125646E+03 -0.56105746891E+03  0.17145855288E+04  0.50400001928E-02 0.  1.
</event>
<event>
 5   0  0.9530268E-07  0.3293369E+04  0.7818609E-02  0.8164585E-01
       -1   -1    0    0    0  501  0.00000000000E+00  0.00000000000E+00  0.12636542394E+04  0.12636542394E+04  0.50400001928E-02 0. -1.
        1   -1    0    0  501    0  0.00000000000E+00  0.00000000000E+00 -0.21458162207E+04  0.21458162207E+04  0.50400001928E-02 0.  1.
    10030    2    1    2    0    0  0.00000000000E+00  0.00000000000E+00 -0.88216198124E+03  0.34094704601E+04  0.32933689525E+04 0.  0.
        5    1    3    3  502    0 -0.81118161639E+03 -0.11813971323E+04 -0.12807426673E+04  0.19219882073E+04  0.46999998093E+01 0.  1.
       -5    1    3    3    0  502  0.81118161639E+03  0.11813971323E+04  0.39858068610E+03  0.14874822528E+04  0.46999998093E+01 0. -1.
</event>
<event>
 5   0  0.2614212E-06  0.2953056E+04  0.7818609E-02  0.8257265E-01
       -2   -1    0    0    0  501  0.00000000000E+00  0.00000000000E+00  0.12281899638E+04  0.12281899638E+04  0.25500000920E-02 0. -1.
        2   -1    0    0  501    0  0.00000000000E+00  0.00000000000E+00 -0.17750794623E+04  0.17750794623E+04  0.25500000920E-02 0.  1.
    10030    2    1    2    0    0  0.00000000000E+00  0.00000000000E+00 -0.54688949855E+03  0.30032694261E+04  0.29530558955E+04 0.  0.
        2    1    3    3  502    0  0.10934573023E+04  0.29801205854E+03 -0.12359382070E+04  0.16769028924E+04  0.25500000920E-02 0.  1.
       -2    1    3    3    0  502 -0.10934573023E+04 -0.29801205854E+03  0.68904870846E+03  0.13263665337E+04  0.25500000920E-02 0. -1.
</event>
<event>
 5   0  0.8705956E-07  0.3237727E+04  0.7818609E-02  0.8178924E-01
        1   -1    0    0  501    0  0.00000000000E+00  0.00000000000E+00  0.11031549389E+04  0.11031549389E+04  0.50400001928E-02 0.  1.
       -1   -1    0    0    0  501  0.00000000000E+00  0.00000000000E+00 -0.23756587705E+04  0.23756587705E+04  0.50400001928E-02 0. -1.
    10030    2    1    2    0    0  0.00000000000E+00  0.00000000000E+00 -0.12725038316E+04  0.34788137094E+04  0.32377274164E+04 0.  0.
        2    1    3    3  502    0  0.69253327578E+03 -0.39782437526E+03  0.87673845536E+03  0.11859750801E+04  0.25500000920E-02 0.  1.
       -2    1    3    3    0  502 -0.69253327578E+03  0.39782437526E+03 -0.21492422870E+04  0.22928386293E+04  0.25500000920E-02 0. -1.
</event>
<event>
 5   0  0.2658600E-06  0.3265647E+04  0.7818609E-02  0.8171692E-01
        2   -1    0    0  501    0  0.00000000000E+00  0.00000000000E+00  0.23874216086E+04  0.23874216086E+04  0.25500000920E-02 0. -1.
       -2   -1    0    0    0  501  0.00000000000E+00  0.00000000000E+00 -0.11167329845E+04  0.11167329845E+04  0.25500000920E-02 0.  1.
    10030    2    1    2    0    0  0.00000000000E+00  0.00000000000E+00  0.12706886242E+04  0.35041545931E+04  0.32656469241E+04 0.  0.
        5    1    3    3  502    0  0.23445943392E+03 -0.76257884536E+03  0.21640309529E+04  0.23064149186E+04  0.46999998093E+01 0. -1.
       -5    1    3    3    0  502 -0.23445943392E+03  0.76257884536E+03 -0.89334232877E+03  0.11977396745E+04  0.46999998093E+01 0.  1.
</event>
<event>
 5   0  0.8845526E-07  0.3313337E+04  0.7818609E-02  0.8159510E-01
       -1   -1    0    0    0  501  0.00000000000E+00  0.00000000000E+00  0.15829026195E+04  0.15829026195E+04  0.50400001928E-02 0.  1.
        1   -1    0    0  501    0  0.00000000000E+00  0.00000000000E+00 -0.17338718530E+04  0.17338718530E+04  0.50400001928E-02 0. -1.
    10030    2    1    2    0    0  0.00000000000E+00  0.00000000000E+00 -0.15096923345E+03  0.33167744725E+04  0.33133368667E+04 0.  0.
        1    1    3    3  502    0 -0.75974090052E+03 -0.12039697498E+04  0.77262570707E+03  0.16197838984E+04  0.50400001928E-02 0.  1.
       -1    1    3    3    0  502  0.75974090052E+03  0.12039697498E+04 -0.92359494052E+03  0.16969905741E+04  0.50400001928E-02 0. -1.
</event>
<event>
 5   0  0.2674551E-06  0.3222770E+04  0.7818609E-02  0.8182830E-01
       -2   -1    0    0    0  501  0.00000000000E+00  0.00000000000E+00  0.18489089667E+04  0.18489089667E+04  0.25500000920E-02 0. -1.
        2   -1    0    0  501    0  0.00000000000E+00  0.00000000000E+00 -0.14043748145E+04  0.14043748145E+04  0.25500000920E-02 0.  1.
    10030    2    1    2    0    0  0.00000000000E+00  0.00000000000E+00  0.44453415224E+03  0.32532837812E+04  0.32227697324E+04 0.  0.
        3    1    3    3  502    0 -0.15790557133E+04  0.18937432486E+03  0.48410998377E+03  0.16624205446E+04  0.10100000352E+00 0.  1.
       -3    1    3    3    0  502  0.15790557133E+04 -0.18937432486E+03 -0.39575831524E+02  0.15908632365E+04  0.10100000352E+00 0. -1.
</event>
<event>
 5   0  0.2658600E-06  0.3169816E+04  0.7818609E-02  0.8196835E-01
        2   -1    0    0  501    0  0.00000000000E+00  0.00000000000E+00  0.25771060349E+04  0.25771060349E+04  0.25500000920E-02 0.  1.
       -2   -1    0    0    0  501  0.00000000000E+00  0.00000000000E+00 -0.97471067874E+03  0.97471067875E+03  0.25500000920E-02 0. -1.
    10030    2    1    2    0    0  0.00000000000E+00  0.00000000000E+00  0.16023953561E+04  0.35518167136E+04  0.31698156239E+04 0.  0.
        5    1    3    3  502    0 -0.11962522482E+03 -0.71622511449E+03  0.23797371772E+04  0.24880634501E+04  0.46999998093E+01 0.  1.
       -5    1    3    3    0  502  0.11962522482E+03  0.71622511449E+03 -0.77734182104E+03  0.10637532636E+04  0.46999998093E+01 0. -1.
</event>
<event>
 5   0  0.2658600E-06  0.3036298E+04  0.7818609E-02  0.8233441E-01
       -2   -1    0    0    0  501  0.00000000000E+00  0.00000000000E+00  0.15706197454E+04  0.15706197454E+04  0.25500000920E-02 0.  1.
        2   -1    0    0  501    0  0.00000000000E+00  0.00000000000E+00 -0.14674310617E+04  0.14674310617E+04  0.25500000920E-02 0. -1.
    10030    2    1    2    0    0  0.00000000000E+00  0.00000000000E+00  0.10318868364E+03  0.30380508071E+04  0.30362978777E+04 0.  0.
        5    1    3    3  502    0  0.34414441017E+03 -0.69449989280E+03 -0.12545284362E+04  0.14746623897E+04  0.46999998093E+01 0. -1.
       -5    1    3    3    0  502 -0.34414441017E+03  0.69449989280E+03  0.13577171199E+04  0.15633884174E+04  0.46999998093E+01 0.  1.
</event>
<event>
 5   0  0.2674551E-06  0.3243432E+04  0.7818609E-02  0.8177440E-01
        2   -1    0    0  501    0  0.00000000000E+00  0.00000000000E+00  0.25980923813E+04  0.25980923813E+04  0.25500000920E-02 0.  1.
       -2   -1    0    0    0  501  0.00000000000E+00  0.00000000000E+00 -0.10122670579E+04  0.10122670579E+04  0.25500000920E-02 0. -1.
    10030    2    1    2    0    0  0.00000000000E+00  0.00000000000E+00  0.15858253234E+04  0.36103594392E+04  0.32434323369E+04 0.  0.
        3    1    3    3  502    0  0.51036370904E+02  0.39702346821E+03 -0.95641201887E+03  0.10368009961E+04  0.10100000352E+00 0. -1.
       -3    1    3    3    0  502 -0.51036370904E+02 -0.39702346821E+03  0.25422373423E+04  0.25735584431E+04  0.10100000352E+00 0.  1.
</event>
<event>
 5   0  0.8845526E-07  0.3262814E+04  0.7818609E-02  0.8172422E-01
       -1   -1    0    0    0  501  0.00000000000E+00  0.00000000000E+00  0.13125048682E+04  0.13125048682E+04  0.50400001928E-02 0. -1.
        1   -1    0    0  501    0  0.00000000000E+00  0.00000000000E+00 -0.20277931772E+04  0.20277931772E+04  0.50400001928E-02 0.  1.
    10030    2    1    2    0    0  0.00000000000E+00  0.00000000000E+00 -0.71528830904E+03  0.33402980455E+04  0.32628137654E+04 0.  0.
        1    1    3    3  502    0 -0.14696614990E+04 -0.40432536132E+03  0.23763189222E+03  0.15426771651E+04  0.50400001928E-02 0. -1.
       -1    1    3    3    0  502  0.14696614990E+04  0.40432536132E+03 -0.95292020126E+03  0.17976208804E+04  0.50400001928E-02 0.  1.
</event>
<event>
 5   0  0.9295663E-07  0.3318972E+04  0.7818609E-02  0.8158085E-01
        1   -1    0    0  501    0  0.00000000000E+00  0.00000000000E+00  0.15346208078E+04  0.15346208078E+04  0.50400001928E-02 0. -1.
       -1   -1    0    0    0  501  0.00000000000E+00  0.00000000000E+00 -0.17945107553E+04  0.17945107553E+04  0.50400001928E-02 0.  1.
    10030    2    1    2    0    0  0.00000000000E+00  0.00000000000E+00 -0.25988994749E+03  0.33291315631E+04  0.33189718558E+04 0.  0.
        4    1    3    3  502    0  0.70128951784E+03 -0.14366644459E+04  0.31647944000E+03  0.16297154864E+04  0.12699999809E+01 0.  1.
       -4    1    3    3    0  502 -0.70128951784E+03  0.14366644459E+04 -0.57636938749E+03  0.16994160767E+04  0.12699999809E+01 0. -1.
</event>
<event>
 5   0  0.9530268E-07  0.3270157E+04  0.7818609E-02  0.8170531E-01
        1   -1    0    0  501    0  0.00000000000E+00  0.00000000000E+00  0.24354919105E+04  0.24354919105E+04  0.50400001928E-02 0.  1.
       -1   -1    0    0    0  501  0.00000000000E+00  0.00000000000E+00 -0.10977172408E+04  0.10977172408E+04  0.50400001928E-02 0. -1.
    10030    2    1    2    0    0  0.00000000000E+00  0.00000000000E+00  0.13377746697E+04  0.35332091513E+04  0.32701568525E+04 0.  0.
        5    1    3    3  502    0  0.93125006945E+03  0.12701283281E+04  0.11435520670E+04  0.19463263040E+04  0.46999998093E+01 0.  1.
       -5    1    3    3    0  502 -0.93125006945E+03 -0.12701283281E+04  0.19422260268E+03  0.15868828473E+04  0.46999998093E+01 0. -1.
</event>
<event>
 5   0  0.2614212E-06  0.3323959E+04  0.7818609E-02  0.8156826E-01
       -2   -1    0    0    0  501  0.00000000000E+00  0.00000000000E+00  0.12625406536E+04  0.12625406536E+04  0.25500000920E-02 0. -1.
        2   -1    0    0  501    0  0.00000000000E+00  0.00000000000E+00 -0.21877920727E+04  0.21877920727E+04  0.25500000920E-02 0.  1.
    10030    2    1    2    0    0  0.00000000000E+00  0.00000000000E+00 -0.92525141906E+03  0.34503327263E+04  0.33239593460E+04 0.  0.
        2    1    3    3  502    0  0.10997732588E+04  0.99656637551E+03  0.31383095715E+03  0.15169494491E+04  0.25500000920E-02 0. -1.
       -2    1    3    3    0  502 -0.10997732588E+04 -0.99656637551E+03 -0.12390823762E+04  0.19333832772E+04  0.25500000920E-02 0.  1.
</event>
<event>
 5   0  0.9268670E-07  0.3185174E+04  0.7818609E-02  0.8192744E-01
        1   -1    0    0  501    0  0.00000000000E+00  0.00000000000E+00  0.26343522066E+04  0.26343522066E+04  0.50400001928E-02 0. -1.
       -1   -1    0    0    0  501  0.00000000000E+00  0.00000000000E+00 -0.96279226151E+03  0.96279226153E+03  0.50400001928E-02 0.  1.
    10030    2    1    2    0    0  0.00000000000E+00  0.00000000000E+00  0.16715599451E+04  0.35971444681E+04  0.31851743554E+04 0.  0.
        3    1    3    3  502    0 -0.15612424589E+04  0.30912882706E+03  0.77095093255E+03  0.17684467755E+04  0.10100000352E+00 0.  1.
       -3    1    3    3    0  502  0.15612424589E+04 -0.30912882706E+03  0.90060901254E+03  0.18286976926E+04  0.10100000352E+00 0. -1.
</event>
<event>
 5   0  0.9295663E-07  0.3321847E+04  0.7818609E-02  0.8157359E-01
        1   -1    0    0  501    0  0.00000000000E+00  0.00000000000E+00  0.15796379428E+04  0.15796379428E+04  0.50400001928E-02 0.  1.
       -1   -1    0    0    0  501  0.00000000000E+00  0.00000000000E+00 -0.17463918038E+04  0.17463918038E+04  0.50400001928E-02 0. -1.
    10030    2    1    2    0    0  0.00000000000E+00  0.00000000000E+00 -0.16675386102E+03  0.33260297466E+04  0.33218469299E+04 0.  0.
        4    1    3    3  502    0 -0.58837363575E+03 -0.12325910652E+04  0.86290616617E+03  0.16155720144E+04  0.12699999809E+01 0.  1.
       -4    1    3    3    0  502  0.58837363575E+03  0.12325910652E+04 -0.10296600272E+04  0.17104577322E+04  0.12699999809E+01 0. -1.
</event>
<event>
 5   0  0.2574803E-06  0.3313007E+04  0.7818609E-02  0.8159594E-01
        2   -1    0    0  501    0  0.00000000000E+00  0.00000000000E+00  0.15694437539E+04  0.15694437539E+04  0.25500000920E-02 0.  1.
       -2   -1    0    0    0  501  0.00000000000E+00  0.00000000000E+00 -0.17483925235E+04  0.17483925235E+04  0.25500000920E-02 0. -1.
    10030    2    1    2    0    0  0.00000000000E+00  0.00000000000E+00 -0.17894876958E+03  0.33178362775E+04  0.33130069276E+04 0.  0.
        4    1    3    3  502    0  0.12377317756E+04  0.96115597750E+03  0.44815204905E+03  0.16299210512E+04  0.12699999809E+01 0. -1.
       -4    1    3    3    0  502 -0.12377317756E+04 -0.96115597750E+03 -0.62710081863E+03  0.16879152262E+04  0.12699999809E+01 0.  1.
</event>
<event>
 5   0  0.9295663E-07  0.3317816E+04  0.7818609E-02  0.8158377E-01
       -1   -1    0    0    0  501  0.00000000000E+00  0.00000000000E+00  0.14925424216E+04  0.14925424216E+04  0.50400001928E-02 0.  1.
        1   -1    0    0  501    0  0.00000000000E+00  0.00000000000E+00 -0.18438177879E+04  0.18438177879E+04  0.50400001928E-02 0. -1.
    10030    2    1    2    0    0  0.00000000000E+00  0.00000000000E+00 -0.35127536630E+03  0.33363602096E+04  0.33178163097E+04 0.  0.
        4    1    3    3  502    0 -0.16401335392E+04  0.19357520858E+03 -0.33292567354E+03  0.16847404858E+04  0.12699999809E+01 0. -1.
       -4    1    3    3    0  502  0.16401335392E+04 -0.19357520858E+03 -0.18349692762E+02  0.16516197237E+04  0.12699999809E+01 0.  1.
</event>
<event>
 5   0  0.9295663E-07  0.3301757E+04  0.7818609E-02  0.8162448E-01
       -1   -1    0    0    0  501  0.00000000000E+00  0.00000000000E+00  0.11283200460E+04  0.11283200461E+04  0.50400001928E-02 0. -1.
        1   -1    0    0  501    0  0.00000000000E+00  0.00000000000E+00 -0.24154492573E+04  0.24154492573E+04  0.50400001928E-02 0.  1.
    10030    2    1    2    0    0  0.00000000000E+00  0.00000000000E+00 -0.12871292112E+04  0.35437693033E+04  0.33017569972E+04 0.  0.
        4    1    3    3  502    0 -0.54139356153E+03  0.40498523354E+03 -0.22600377441E+04  0.23590023836E+04  0.12699999809E+01 0.  1.
       -4    1    3    3    0  502  0.54139356153E+03 -0.40498523354E+03  0.97290853292E+03  0.11847669198E+04  0.12699999809E+01 0. -1.
</event>
<event>
 5   0  0.8845526E-07  0.3375871E+04  0.7818609E-02  0.8143854E-01
        1   -1    0    0  501    0  0.00000000000E+00  0.00000000000E+00  0.99016731396E+03  0.99016731397E+03  0.50400001928E-02 0.  1.
       -1   -1    0    0    0  501  0.00000000000E+00  0.00000000000E+00 -0.28774185888E+04  0.28774185888E+04  0.50400001928E-02 0. -1.
    10030    2    1    2    0    0  0.00000000000E+00  0.00000000000E+00 -0.18872512748E+04  0.38675859028E+04  0.33758707530E+04 0.  0.
        1    1    3    3  502    0 -0.84214126888E+03 -0.66098365669E+03 -0.24387062454E+04  0.26633417848E+04  0.50400001928E-02 0. -1.
       -1    1    3    3    0  502  0.84214126888E+03  0.66098365669E+03  0.55145497056E+03  0.12042441180E+04  0.50400001928E-02 0.  1.
</event>
<event>
 5   0  0.2705859E-06  0.3339483E+04  0.7818609E-02  0.8152921E-01
        2   -1    0    0  501    0  0.00000000000E+00  0.00000000000E+00  0.16808126733E+04  0.16808126733E+04  0.25500000920E-02 0. -1.
       -2   -1    0    0    0  501  0.00000000000E+00  0.00000000000E+00 -0.16587434978E+04  0.16587434979E+04  0.25500000920E-02 0.  1.
    10030    2    1    2    0    0  0.00000000000E+00  0.00000000000E+00  0.22069175421E+02  0.33395561711E+04  0.33394832492E+04 0.  0.
        1    1    3    3  502    0 -0.12857226670E+04  0.90887856542E+02  0.10725160619E+04  0.16767927964E+04  0.50400001928E-02 0. -1.
       -1    1    3    3    0  502  0.12857226670E+04 -0.90887856542E+02 -0.10504468865E+04  0.16627633747E+04  0.50400001928E-02 0.  1.
</event>
<event>
 5   0  0.9268670E-07  0.3252974E+04  0.7818609E-02  0.8174965E-01
        1   -1    0    0  501    0  0.00000000000E+00  0.00000000000E+00  0.18817028341E+04  0.18817028341E+04  0.50400001928E-02 0. -1.
       -1   -1    0    0    0  501  0.00000000000E+00  0.00000000000E+00 -0.14058859726E+04  0.14058859727E+04  0.50400001928E-02 0.  1.
    10030    2    1    2    0    0  0.00000000000E+00  0.00000000000E+00  0.47581686147E+03  0.32875888068E+04  0.32529737898E+04 0.  0.
        3    1    3    3  502    0  0.10725240882E+04 -0.10310832859E+04 -0.42636720844E+03  0.15476529549E+04  0.10100000352E+00 0.  1.
       -3    1    3    3    0  502 -0.10725240882E+04  0.10310832859E+04  0.90218406991E+03  0.17399358518E+04  0.10100000352E+00 0. -1.
</event>
<event>
 5   0  0.2614212E-06  0.3268708E+04  0.7818609E-02  0.8170903E-01
        2   -1    0    0  501    0  0.00000000000E+00  0.00000000000E+00  0.10480359429E+04  0.10480359429E+04  0.25500000920E-02 0.  1.
       -2   -1    0    0    0  501  0.00000000000E+00  0.00000000000E+00 -0.25486851456E+04  0.25486851456E+04  0.25500000920E-02 0. -1.
    10030    2    1    2    0    0  0.00000000000E+00  0.00000000000E+00 -0.15006492028E+04  0.35967210885E+04  0.32687083930E+04 0.  0.
        2    1    3    3  502    0 -0.10500595369E+04  0.25688952377E+03  0.59844354413E+03  0.12356180373E+04  0.25500000920E-02 0.  1.
       -2    1    3    3    0  502  0.10500595369E+04 -0.25688952377E+03 -0.20990927469E+04  0.23611030512E+04  0.25500000920E-02 0. -1.
</event>
<event>
 5   0  0.2674551E-06  0.3313973E+04  0.7818609E-02  0.8159349E-01
        2   -1    0    0  501    0  0.00000000000E+00  0.00000000000E+00  0.22688821476E+04  0.22688821476E+04  0.25500000920E-02 0.  1.
       -2   -1    0    0    0  501  0.00000000000E+00  0.00000000000E+00 -0.12101134310E+04  0.12101134310E+04  0.25500000920E-02 0. -1.
    10030    2    1    2    0    0  0.00000000000E+00  0.00000000000E+00  0.10587687165E+04  0.34789955786E+04  0.33139733012E+04 0.  0.
        3    1    3    3  502    0 -0.10496287239E+04  0.43479668336E+03 -0.73684363785E+03  0.13541444424E+04  0.10100000352E+00 0. -1.
       -3    1    3    3    0  502  0.10496287239E+04 -0.43479668336E+03  0.17956123544E+04  0.21248511363E+04  0.10100000352E+00 0.  1.
</event>
<event>
 5   0  0.9530268E-07  0.3269236E+04  0.7818609E-02  0.8170768E-01
        1   -1    0    0  501    0  0.00000000000E+00  0.00000000000E+00  0.25361690941E+04  0.25361690941E+04  0.50400001928E-02 0. -1.
       -1   -1    0    0    0  501  0.00000000000E+00  0.00000000000E+00 -0.10535479834E+04  0.10535479834E+04  0.50400001928E-02 0.  1.
    10030    2    1    2    0    0  0.00000000000E+00  0.00000000000E+00  0.14826211107E+04  0.35897170775E+04  0.32692358952E+04 0.  0.
        5    1    3    3  502    0 -0.12034359967E+04  0.10696873877E+04  0.10508388631E+04  0.19226995896E+04  0.46999998093E+01 0.  1.
       -5    1    3    3    0  502  0.12034359967E+04 -0.10696873877E+04  0.43178224761E+03  0.16670174879E+04  0.46999998093E+01 0. -1.
</event>
<event>
 5   0  0.2574803E-06  0.3311848E+04  0.7818609E-02  0.8159887E-01
        2   -1    0    0  501    0  0.00000000000E+00  0.00000000000E+00  0.15993264240E+04  0.15993264240E+04  0.25500000920E-02 0.  1.
       -2   -1    0    0    0  501  0.00000000000E+00  0.00000000000E+00 -0.17145247150E+04  0.17145247150E+04  0.25500000920E-02 0. -1.
    10030    2    1    2    0    0  0.00000000000E+00  0.00000000000E+00 -0.11519829098E+03  0.33138511390E+04  0.33118482340E+04 0.  0.
        4    1    3    3  502    0  0.11557569624E+04  0.65376403861E+03  0.93239371902E+03  0.16225107810E+04  0.12699999809E+01 0.  1.
       -4    1    3    3    0  502 -0.11557569624E+04 -0.65376403861E+03 -0.10475920100E+04  0.16913403580E+04  0.12699999809E+01 0. -1.
</event>
<event>
 5   0  0.2574803E-06  0.3312022E+04  0.7818609E-02  0.8159843E-01
       -2   -1    0    0    0  501  0.00000000000E+00  0.00000000000E+00  0.24424155041E+04  0.24424155041E+04  0.25500000920E-02 0.  1.
        2   -1    0    0  501    0  0.00000000000E+00  0.00000000000E+00 -0.11228116702E+04  0.11228116702E+04  0.25500000920E-02 0. -1.
    10030    2    1    2    0    0  0.00000000000E+00  0.00000000000E+00  0.13196038339E+04  0.35652271743E+04  0.33120221204E+04 0.  0.
        4    1    3    3  502    0  0.84632465144E+03 -0.13946235814E+04  0.35319178068E+03  0.16691274356E+04  0.12699999809E+01 0.  1.
       -4    1    3    3    0  502 -0.84632465144E+03  0.13946235814E+04  0.96641205317E+03  0.18960997387E+04  0.12699999809E+01 0. -1.
</event>
<event>
 5   0  0.2614212E-06  0.3293579E+04  0.7818609E-02  0.8164531E-01
        2   -1    0    0  501    0  0.00000000000E+00  0.00000000000E+00  0.20307274168E+04  0.20307274168E+04  0.25500000920E-02 0. -1.
       -2   -1    0    0    0  501  0.00000000000E+00  0.00000000000E+00 -0.13354403447E+04  0.13354403447E+04  0.25500000920E-02 0.  1.
    10030    2    1    2    0    0  0.00000000000E+00  0.00000000000E+00  0.69528707217E+03  0.33661677615E+04  0.32935787960E+04 0.  0.
        2    1    3    3  502    0  0.10403230045E+04  0.97708385404E+03 -0.49201684784E+03  0.15096507510E+04  0.25500000920E-02 0.  1.
       -2    1    3    3    0  502 -0.10403230045E+04 -0.97708385404E+03  0.11873039200E+04  0.18565170104E+04  0.25500000920E-02 0. -1.
</event>
<event>
 5   0  0.9530268E-07  0.3424213E+04  0.7818609E-02  0.8131989E-01
       -1   -1    0    0    0  501  0.00000000000E+00  0.00000000000E+00  0.17911838799E+04  0.17911838800E+04  0.50400001928E-02 0. -1.
        1   -1    0    0  501    0  0.00000000000E+00  0.00000000000E+00 -0.16365202942E+04  0.16365202942E+04  0.50400001928E-02 0.  1.
    10030    2    1    2    0    0  0.00000000000E+00  0.00000000000E+00  0.15466358572E+03  0.34277041742E+04  0.34242130601E+04 0.  0.
        5    1    3    3  502    0  0.71539524846E+03 -0.93760206026E+03  0.13197251627E+04  0.17699108960E+04  0.46999998093E+01 0. -1.
       -5    1    3    3    0  502 -0.71539524846E+03  0.93760206026E+03 -0.11650615770E+04  0.16577932781E+04  0.46999998093E+01 0.  1.
</event>
<event>
 5   0  0.2674551E-06  0.3072622E+04  0.7818609E-02  0.8223292E-01
       -2   -1    0    0    0  501  0.00000000000E+00  0.00000000000E+00  0.96076012154E+03  0.96076012155E+03  0.25500000920E-02 0. -1.
        2   -1    0    0  501    0  0.00000000000E+00  0.00000000000E+00 -0.24566499114E+04  0.24566499114E+04  0.25500000920E-02 0.  1.
    10030    2    1    2    0    0  0.00000000000E+00  0.00000000000E+00 -0.14958897898E+04  0.34174100329E+04  0.30726218560E+04 0.  0.
        3    1    3    3  502    0 -0.12470356703E+04  0.18386245551E+03  0.22887191128E+03  0.12811267414E+04  0.10100000352E+00 0. -1.
       -3    1    3    3    0  502  0.12470356703E+04 -0.18386245551E+03 -0.17247617011E+04  0.21362832915E+04  0.10100000352E+00 0.  1.
</event>
<event>
 5   0  0.9268670E-07  0.2893750E+04  0.7818609E-02  0.8274739E-01
       -1   -1    0    0    0  501  0.00000000000E+00  0.00000000000E+00  0.14727543360E+04  0.14727543361E+04  0.50400001928E-02 0.  1.
        1   -1    0    0  501    0  0.00000000000E+00  0.00000000000E+00 -0.14214505000E+04  0.14214505000E+04  0.50400001928E-02 0. -1.
    10030    2    1    2    0    0  0.00000000000E+00  0.00000000000E+00  0.51303836082E+02  0.28942048360E+04  0.28937500841E+04 0.  0.
        3    1    3    3  502    0 -0.27634002362E+03 -0.10762308148E+04 -0.90121417075E+03  0.14306724179E+04  0.10100000352E+00 0. -1.
       -3    1    3    3    0  502  0.27634002362E+03  0.10762308148E+04  0.95251800683E+03  0.14635324182E+04  0.10100000352E+00 0.  1.
</event>
<event>
 5   0  0.2574803E-06  0.2763349E+04  0.7818609E-02  0.8314738E-01
       -2   -1    0    0    0  501  0.00000000000E+00  0.00000000000E+00  0.76620211995E+03  0.76620211995E+03  0.25500000920E-02 0.  1.
        2   -1    0    0  501    0  0.00000000000E+00  0.00000000000E+00 -0.24915424004E+04  0.24915424004E+04  0.25500000920E-02 0. -1.
    10030    2    1    2    0    0  0.00000000000E+00  0.00000000000E+00 -0.17253402804E+04  0.32577445203E+04  0.27633494669E+04 0.  0.
        4    1    3    3  502    0 -0.31097323342E+03  0.23939823520E+03  0.69911293071E+03  0.80173335325E+03  0.12699999809E+01 0.  1.
       -4    1    3    3    0  502  0.31097323342E+03 -0.23939823520E+03 -0.24244532111E+04  0.24560111671E+04  0.12699999809E+01 0. -1.
</event>
<event>
 5   0  0.9295663E-07  0.3291157E+04  0.7818609E-02  0.8165149E-01
        1   -1    0    0  501    0  0.00000000000E+00  0.00000000000E+00  0.21869117117E+04  0.21869117117E+04  0.50400001928E-02 0. -1.
       -1   -1    0    0    0  501  0.00000000000E+00  0.00000000000E+00 -0.12382431255E+04  0.12382431255E+04  0.50400001928E-02 0.  1.
    10030    2    1    2    0    0  0.00000000000E+00  0.00000000000E+00  0.94866858613E+03  0.34251548372E+04  0.32911568745E+04 0.  0.
        4    1    3    3  502    0  0.10751639607E+04  0.44256340051E+02 -0.82134094660E+03  0.13537129421E+04  0.12699999809E+01 0.  1.
       -4    1    3    3    0  502 -0.10751639607E+04 -0.44256340051E+02  0.17700095327E+04  0.20714418951E+04  0.12699999809E+01 0. -1.
</event>
<event>
 5   0  0.9268670E-07  0.3171446E+04  0.7818609E-02  0.8196399E-01
       -1   -1    0    0    0  501  0.00000000000E+00  0.00000000000E+00  0.29824647636E+04  0.29824647636E+04  0.50400001928E-02 0. -1.
        1   -1    0    0  501    0  0.00000000000E+00  0.00000000000E+00 -0.84310020513E+03  0.84310020514E+03  0.50400001928E-02 0.  1.
    10030    2    1    2    0    0  0.00000000000E+00  0.00000000000E+00  0.21393645585E+04  0.38255649688E+04  0.31714455089E+04 0.  0.
        3    1    3    3  502    0 -0.12571377617E+04  0.28797370779E+03 -0.43207632925E+02  0.12904228447E+04  0.10100000352E+00 0.  1.
       -3    1    3    3    0  502  0.12571377617E+04 -0.28797370779E+03  0.21825721914E+04  0.25351421241E+04  0.10100000352E+00 0. -1.
</event>
<event>
 5   0  0.2614212E-06  0.3294284E+04  0.7818609E-02  0.8164351E-01
        2   -1    0    0  501    0  0.00000000000E+00  0.00000000000E+00  0.20670604398E+04  0.20670604398E+04  0.25500000920E-02 0. -1.
       -2   -1    0    0    0  501  0.00000000000E+00  0.00000000000E+00 -0.13125291558E+04  0.13125291558E+04  0.25500000920E-02 0.  1.
    10030    2    1    2    0    0  0.00000000000E+00  0.00000000000E+00  0.75453128402E+03  0.33795895956E+04  0.32942841978E+04 0.  0.
        2    1    3    3  502    0 -0.15721795611E+04 -0.48929996909E+03  0.33238274435E+03  0.16797741875E+04  0.25500000920E-02 0.  1.
       -2    1    3    3    0  502  0.15721795611E+04  0.48929996909E+03  0.42214853967E+03  0.16998154081E+04  0.25500000920E-02 0. -1.
</event>
<event>
 5   0  0.9268670E-07  0.3188602E+04  0.7818609E-02  0.8191834E-01
       -1   -1    0    0    0  501  0.00000000000E+00  0.00000000000E+00  0.13459544980E+04  0.13459544980E+04  0.50400001928E-02 0. -1.
        1   -1    0    0  501    0  0.00000000000E+00  0.00000000000E+00 -0.18884704823E+04  0.18884704823E+04  0.50400001928E-02 0.  1.
    10030    2    1    2    0    0  0.00000000000E+00  0.00000000000E+00 -0.54251598427E+03  0.32344249803E+04  0.31886017877E+04 0.  0.
        3    1    3    3  502    0  0.12367508496E+04  0.85928309341E+03  0.25959366306E+03  0.15281717766E+04  0.10100000352E+00 0. -1.
       -3    1    3    3    0  502 -0.12367508496E+04 -0.85928309341E+03 -0.80210964733E+03  0.17062532037E+04  0.10100000352E+00 0.  1.
</event>
<event>
 5   0  0.2574803E-06  0.3310167E+04  0.7818609E-02  0.8160313E-01
       -2   -1    0    0    0  501  0.00000000000E+00  0.00000000000E+00  0.16423272974E+04  0.16423272974E+04  0.25500000920E-02 0. -1.
        2   -1    0    0  501    0  0.00000000000E+00  0.00000000000E+00 -0.16679388272E+04  0.16679388272E+04  0.25500000920E-02 0.  1.
    10030    2    1    2    0    0  0.00000000000E+00  0.00000000000E+00 -0.25611529774E+02  0.33102661246E+04  0.33101670450E+04 0.  0.
        4    1    3    3  502    0  0.91293591618E+03  0.64852985016E+03 -0.12315534067E+04  0.16645625131E+04  0.12699999809E+01 0.  1.
       -4    1    3    3    0  502 -0.91293591618E+03 -0.64852985016E+03  0.12059418769E+04  0.16457036115E+04  0.12699999809E+01 0. -1.
</event>
<event>
 5   0  0.2705859E-06  0.3287015E+04  0.7818609E-02  0.8166207E-01
       -2   -1    0    0    0  501  0.00000000000E+00  0.00000000000E+00  0.10203339656E+04  0.10203339656E+04  0.25500000920E-02 0.  1.
        2   -1    0    0  501    0  0.00000000000E+00  0.00000000000E+00 -0.26472865237E+04  0.26472865237E+04  0.25500000920E-02 0. -1.
    10030    2    1    2    0    0  0.00000000000E+00  0.00000000000E+00 -0.16269525580E+04  0.36676204893E+04  0.32870146680E+04 0.  0.
        1    1    3    3  502    0 -0.16223988839E+03 -0.95248358962E+03 -0.22969197737E+04  0.24918642051E+04  0.50400001928E-02 0. -1.
       -1    1    3    3    0  502  0.16223988839E+03  0.95248358962E+03  0.66996721561E+03  0.11757562842E+04  0.50400001928E-02 0.  1.
</event>
<event>
 5   0  0.2705859E-06  0.3308928E+04  0.7818609E-02  0.8160627E-01
        2   -1    0    0  501    0  0.00000000000E+00  0.00000000000E+00  0.17692303959E+04  0.17692303959E+04  0.25500000920E-02 0. -1.
       -2   -1    0    0    0  501  0.00000000000E+00  0.00000000000E+00 -0.15471422751E+04  0.15471422751E+04  0.25500000920E-02 0.  1.
    10030    2    1    2    0    0  0.00000000000E+00  0.00000000000E+00  0.22208812084E+03  0.33163726710E+04  0.33089280077E+04 0.  0.
        1    1    3    3  502    0 -0.30055172728E+03  0.50244542082E+03 -0.14398443985E+04  0.15543277112E+04  0.50400001928E-02 0.  1.
       -1    1    3    3    0  502  0.30055172728E+03 -0.50244542082E+03  0.16619325194E+04  0.17620449599E+04  0.50400001928E-02 0. -1.
</event>
<event>
 5   0  0.2674551E-06  0.3362083E+04  0.7818609E-02  0.8147276E-01
       -2   -1    0    0    0  501  0.00000000000E+00  0.00000000000E+00  0.13428642506E+04  0.13428642506E+04  0.25500000920E-02 0.  1.
        2   -1    0    0  501    0  0.00000000000E+00  0.00000000000E+00 -0.21043824737E+04  0.21043824737E+04  0.25500000920E-02 0. -1.
    10030    2    1    2    0    0  0.00000000000E+00  0.00000000000E+00 -0.76151822315E+03  0.34472467243E+04  0.33620826840E+04 0.  0.
        3    1    3    3  502    0 -0.10665531504E+03  0.10176564150E+04 -0.17482982079E+04  0.20257212466E+04  0.10100000352E+00 0. -1.
       -3    1    3    3    0  502  0.10665531504E+03 -0.10176564150E+04  0.98677998472E+03  0.14215254777E+04  0.10100000352E+00 0.  1.
</event>
<event>
 5   0  0.2658600E-06  0.3271394E+04  0.7818609E-02  0.8170213E-01
       -2   -1    0    0    0  501  0.00000000000E+00  0.00000000000E+00  0.17140931875E+04  0.17140931875E+04  0.25500000920E-02 0. -1.
        2   -1    0    0  501    0  0.00000000000E+00  0.00000000000E+00 -0.15608861325E+04  0.15608861325E+04  0.25500000920E-02 0.  1.
    10030    2    1    2    0    0  0.00000000000E+00  0.00000000000E+00  0.15320705507E+03  0.32749793200E+04  0.32713937618E+04 0.  0.
        5    1    3    3  502    0 -0.10940395087E+04  0.47239051726E+03 -0.10450739635E+04  0.15850163805E+04  0.46999998093E+01 0.  1.
       -5    1    3    3    0  502  0.10940395087E+04 -0.47239051726E+03  0.11982810185E+04  0.16899629395E+04  0.46999998093E+01 0. -1.
</event>
<event>
 5   0  0.9268670E-07  0.3274111E+04  0.7818609E-02  0.8169514E-01
       -1   -1    0    0    0  501  0.00000000000E+00  0.00000000000E+00  0.14237489149E+04  0.14237489149E+04  0.50400001928E-02 0.  1.
        1   -1    0    0  501    0  0.00000000000E+00  0.00000000000E+00 -0.18823193285E+04  0.18823193285E+04  0.50400001928E-02 0. -1.
    10030    2    1    2    0    0  0.00000000000E+00  0.00000000000E+00 -0.45857041356E+03  0.33060682434E+04  0.32741106283E+04 0.  0.
        3    1    3    3  502    0 -0.15219884619E+04 -0.33758455080E+02  0.37855515756E+03  0.15687232162E+04  0.10100000352E+00 0.  1.
       -3    1    3    3    0  502  0.15219884619E+04  0.33758455080E+02 -0.83712557112E+03  0.17373450272E+04  0.10100000352E+00 0. -1.
</event>
<event>
 5   0  0.9295663E-07  0.3293013E+04  0.7818609E-02  0.8164675E-01
        1   -1    0    0  501    0  0.00000000000E+00  0.00000000000E+00  0.79914166496E+03  0.79914166498E+03  0.50400001928E-02 0. -1.
       -1   -1    0    0    0  501  0.00000000000E+00  0.00000000000E+00 -0.33923693315E+04  0.33923693315E+04  0.50400001928E-02 0.  1.
    10030    2    1    2    0    0  0.00000000000E+00  0.00000000000E+00 -0.25932276665E+04  0.41915109964E+04  0.32930130129E+04 0.  0.
        4    1    3    3  502    0  0.11609732056E+04 -0.11546526451E+04 -0.15167121575E+04  0.22319271710E+04  0.12699999809E+01 0.  1.
       -4    1    3    3    0  502 -0.11609732056E+04  0.11546526451E+04 -0.10765155090E+04  0.19595838254E+04  0.12699999809E+01 0. -1.
</event>
<event>
 5   0  0.2574803E-06  0.3343529E+04  0.7818609E-02  0.8151907E-01
       -2   -1    0    0    0  501  0.00000000000E+00  0.00000000000E+00  0.10223249663E+04  0.10223249663E+04  0.25500000920E-02 0. -1.
        2   -1    0    0  501    0  0.00000000000E+00  0.00000000000E+00 -0.27337658597E+04  0.27337658597E+04  0.25500000920E-02 0.  1.
    10030    2    1    2    0    0  0.00000000000E+00  0.00000000000E+00 -0.17114408934E+04  0.37560908260E+04  0.33435293272E+04 0.  0.
        4    1    3    3  502    0 -0.12085395920E+04 -0.66823228084E+03 -0.19141510367E+04  0.23603131425E+04  0.12699999809E+01 0.  1.
       -4    1    3    3    0  502  0.12085395920E+04  0.66823228084E+03  0.20271014327E+03  0.13957776835E+04  0.12699999809E+01 0. -1.
</event>
<event>
 5   0  0.9268670E-07  0.3317704E+04  0.7818609E-02  0.8158405E-01
       -1   -1    0    0    0  501  0.00000000000E+00  0.00000000000E+00  0.10898340745E+04  0.10898340745E+04  0.50400001928E-02 0.  1.
        1   -1    0    0  501    0  0.00000000000E+00  0.00000000000E+00 -0.25249625833E+04  0.25249625833E+04  0.50400001928E-02 0. -1.
    10030    2    1    2    0    0  0.00000000000E+00  0.00000000000E+00 -0.14351285088E+04  0.36147966578E+04  0.33177041822E+04 0.  0.
        3    1    3    3  502    0 -0.88848747080E+03 -0.11223264018E+04 -0.16309429465E+04  0.21700233738E+04  0.10100000352E+00 0. -1.
       -3    1    3    3    0  502  0.88848747080E+03  0.11223264018E+04  0.19581443772E+03  0.14447732840E+04  0.10100000352E+00 0.  1.
</event>
<event>
 5   0  0.8705956E-07  0.3027587E+04  0.7818609E-02  0.8235897E-01
        1   -1    0    0  501    0  0.00000000000E+00  0.00000000000E+00  0.87442327647E+03  0.87442327649E+03  0.50400001928E-02 0. -1.
       -1   -1    0    0    0  501  0.00000000000E+00  0.00000000000E+00 -0.26206657469E+04  0.26206657469E+04  0.50400001928E-02 0.  1.
    10030    2    1    2    0    0  0.00000000000E+00  0.00000000000E+00 -0.17462424705E+04  0.34950890234E+04  0.30275872433E+04 0.  0.
        2    1    3    3  502    0  0.34470806732E+03  0.70235251519E+03  0.62292463887E+03  0.10000789034E+04  0.25500000920E-02 0. -1.
       -2    1    3    3    0  502 -0.34470806732E+03 -0.70235251519E+03 -0.23691671093E+04  0.24950101200E+04  0.25500000920E-02 0.  1.
</event>
<event>
 5   0  0.9530268E-07  0.3308636E+04  0.7818609E-02  0.8160702E-01
        1   -1    0    0  501    0  0.00000000000E+00  0.00000000000E+00  0.10195400000E+04  0.10195400000E+04  0.50400001928E-02 0.  1.
       -1   -1    0    0    0  501  0.00000000000E+00  0.00000000000E+00 -0.26843158611E+04  0.26843158611E+04  0.50400001928E-02 0. -1.
    10030    2    1    2    0    0  0.00000000000E+00  0.00000000000E+00 -0.16647758611E+04  0.37038558612E+04  0.33086356059E+04 0.  0.
        5    1    3    3  502    0 -0.10464076791E+04  0.70090878624E+03  0.36835224936E+03  0.13122300207E+04  0.46999998093E+01 0.  1.
       -5    1    3    3    0  502  0.10464076791E+04 -0.70090878624E+03 -0.20331281104E+04  0.23916258405E+04  0.46999998093E+01 0. -1.
</event>
<event>
 5   0  0.9268670E-07  0.3326688E+04  0.7818609E-02  0.8156138E-01
        1   -1    0    0  501    0  0.00000000000E+00  0.00000000000E+00  0.14586888914E+04  0.14586888914E+04  0.50400001928E-02 0. -1.
       -1   -1    0    0    0  501  0.00000000000E+00  0.00000000000E+00 -0.18967125580E+04  0.18967125580E+04  0.50400001928E-02 0.  1.
    10030    2    1    2    0    0  0.00000000000E+00  0.00000000000E+00 -0.43802366658E+03  0.33554014494E+04  0.33266881660E+04 0.  0.
        3    1    3    3  502    0  0.67452198097E+03 -0.13253124841E+04 -0.97061497053E+03  0.17758171400E+04  0.10100000352E+00 0.  1.
       -3    1    3    3    0  502 -0.67452198097E+03  0.13253124841E+04  0.53259130396E+03  0.15795843094E+04  0.10100000352E+00 0. -1.
</event>
<event>
 5   0  0.9530268E-07  0.3294203E+04  0.7818609E-02  0.8164372E-01
       -1   -1    0    0    0  501  0.00000000000E+00  0.00000000000E+00  0.18189107707E+04  0.18189107707E+04  0.50400001928E-02 0.  1.
        1   -1    0    0  501    0  0.00000000000E+00  0.00000000000E+00 -0.14915210284E+04  0.14915210284E+04  0.50400001928E-02 0. -1.
    10030    2    1    2    0    0  0.00000000000E+00  0.00000000000E+00  0.32738974230E+03  0.33104317990E+04  0.32942031893E+04 0.  0.
        5    1    3    3  502    0 -0.59011909325E+03  0.10973528743E+04 -0.91887616477E+03  0.15481535361E+04  0.46999998093E+01 0. -1.
       -5    1    3    3    0  502  0.59011909325E+03 -0.10973528743E+04  0.12462659071E+04  0.17622782630E+04  0.46999998093E+01 0.  1.
</event>
<event>
 5   0  0.8705956E-07  0.3456473E+04  0.7818609E-02  0.8124183E-01
       -1   -1    0    0    0  501  0.00000000000E+00  0.00000000000E+00  0.18811778146E+04  0.18811778146E+04  0.50400001928E-02 0. -1.
        1   -1    0    0  501    0  0.00000000000E+00  0.00000000000E+00 -0.15877297808E+04  0.15877297808E+04  0.50400001928E-02 0.  1.
    10030    2    1    2    0    0  0.00000000000E+00  0.00000000000E+00  0.29344803383E+03  0.34689075954E+04  0.34564733699E+04 0.  0.
        2    1    3    3  502    0  0.16838413076E+04  0.21336463335E+03 -0.17995582803E+03  0.17068187121E+04  0.25500000920E-02 0.  1.
       -2    1    3    3    0  502 -0.16838413076E+04 -0.21336463335E+03  0.47340386186E+03  0.17620888832E+04  0.25500000920E-02 0. -1.
</event>
<event>
 5   0  0.8705956E-07  0.3283948E+04  0.7818609E-02  0.8166992E-01
        1   -1    0    0  501    0  0.00000000000E+00  0.00000000000E+00  0.20546880818E+04  0.20546880818E+04  0.50400001928E-02 0.  1.
       -1   -1    0    0    0  501  0.00000000000E+00  0.00000000000E+00 -0.13121599271E+04  0.13121599271E+04  0.50400001928E-02 0. -1.
    10030    2    1    2    0    0  0.00000000000E+00  0.00000000000E+00  0.74252815478E+03  0.33668480089E+04  0.32839484549E+04 0.  0.
        2    1    3    3  502    0  0.43705245838E+03  0.12307457454E+04  0.13915385496E+04  0.19084363956E+04  0.25500000920E-02 0.  1.
       -2    1    3    3    0  502 -0.43705245838E+03 -0.12307457454E+04 -0.64901039480E+03  0.14584116133E+04  0.25500000920E-02 0. -1.
</event>
<event>
 5   0  0.2658600E-06  0.3299970E+04  0.7818609E-02  0.8162903E-01
       -2   -1    0    0    0  501  0.00000000000E+00  0.00000000000E+00  0.14029495350E+04  0.14029495350E+04  0.25500000920E-02 0.  1.
        2   -1    0    0  501    0  0.00000000000E+00  0.00000000000E+00 -0.19405195351E+04  0.19405195351E+04  0.25500000920E-02 0. -1.
    10030    2    1    2    0    0  0.00000000000E+00  0.00000000000E+00 -0.53757000016E+03  0.33434690701E+04  0.32999702904E+04 0.  0.
        5    1    3    3  502    0  0.40333393637E+02  0.11076537723E+04  0.96958038338E+03  0.14726275401E+04  0.46999998093E+01 0.  1.
       -5    1    3    3    0  502 -0.40333393637E+02 -0.11076537723E+04 -0.15071503835E+04  0.18708415301E+04  0.46999998093E+01 0. -1.
</event>
<event>
 5   0  0.9268670E-07  0.3300678E+04  0.7818609E-02  0.8162723E-01
       -1   -1    0    0    0  501  0.00000000000E+00  0.00000000000E+00  0.20530855412E+04  0.20530855412E+04  0.50400001928E-02 0.  1.
        1   -1    0    0  501    0  0.00000000000E+00  0.00000000000E+00 -0.13265981205E+04  0.13265981205E+04  0.50400001928E-02 0. -1.
    10030    2    1    2    0    0  0.00000000000E+00  0.00000000000E+00  0.72648742071E+03  0.33796836617E+04  0.33006783667E+04 0.  0.
        3    1    3    3  502    0 -0.28389951648E+03  0.36115551826E+03 -0.12598119518E+04  0.13409542900E+04  0.10100000352E+00 0. -1.
       -3    1    3    3    0  502  0.28389951648E+03 -0.36115551826E+03  0.19862993725E+04  0.20387293717E+04  0.10100000352E+00 0.  1.
</event>
<event>
 5   0  0.2658600E-06  0.3036583E+04  0.7818609E-02  0.8233361E-01
       -2   -1    0    0    0  501  0.00000000000E+00  0.00000000000E+00  0.15237275819E+04  0.15237275819E+04  0.25500000920E-02 0.  1.
        2   -1    0    0  501    0  0.00000000000E+00  0.00000000000E+00 -0.15128746897E+04  0.15128746897E+04  0.25500000920E-02 0. -1.
    10030    2    1    2    0    0  0.00000000000E+00  0.00000000000E+00  0.10852892174E+02  0.30366022716E+04  0.30365828773E+04 0.  0.
        5    1    3    3  502    0 -0.13837577208E+04 -0.60736377828E+03  0.15209235371E+03  0.15188253234E+04  0.46999998093E+01 0. -1.
       -5    1    3    3    0  502  0.13837577208E+04  0.60736377828E+03 -0.14123946154E+03  0.15177769482E+04  0.46999998093E+01 0.  1.
</event>
<event>
 5   0  0.9268670E-07  0.3043388E+04  0.7818609E-02  0.8231449E-01
        1   -1    0    0  501    0  0.00000000000E+00  0.00000000000E+00  0.74425357455E+03  0.74425357457E+03  0.50400001928E-02 0.  1.
       -1   -1    0    0    0  501  0.00000000000E+00  0.00000000000E+00 -0.31112405264E+04  0.31112405264E+04  0.50400001928E-02 0. -1.
    10030    2    1    2    0    0  0.00000000000E+00  0.00000000000E+00 -0.23669869518E+04  0.38554941010E+04  0.30433875094E+04 0.  0.
        3    1    3    3  502    0  0.14385397405E+04 -0.17220387018E+03 -0.59403548732E+03  0.15658636365E+04  0.10100000352E+00 0. -1.
       -3    1    3    3    0  502 -0.14385397405E+04  0.17220387018E+03 -0.17729514645E+04  0.22896304644E+04  0.10100000352E+00 0.  1.
</event>
<event>
 5   0  0.2574803E-06  0.3284878E+04  0.7818609E-02  0.8166754E-01
       -2   -1    0    0    0  501  0.00000000000E+00  0.00000000000E+00  0.17106955427E+04  0.17106955427E+04  0.25500000920E-02 0. -1.
        2   -1    0    0  501    0  0.00000000000E+00  0.00000000000E+00 -0.15769062530E+04  0.15769062530E+04  0.25500000920E-02 0.  1.
    10030    2    1    2    0    0  0.00000000000E+00  0.00000000000E+00  0.13378928965E+03  0.32876017957E+04  0.32848783833E+04 0.  0.
        4    1    3    3  502    0 -0.61725910622E+03 -0.15217460408E+04  0.37119880748E+02  0.16425892108E+04  0.12699999809E+01 0. -1.
       -4    1    3    3    0  502  0.61725910622E+03  0.15217460408E+04  0.96669408902E+02  0.16450125849E+04  0.12699999809E+01 0.  1.
</event>
<event>
 5   0  0.9295663E-07  0.3241360E+04  0.7818609E-02  0.8177979E-01
       -1   -1    0    0    0  501  0.00000000000E+00  0.00000000000E+00  0.19432476755E+04  0.19432476755E+04  0.50400001928E-02 0. -1.
        1   -1    0    0  501    0  0.00000000000E+00  0.00000000000E+00 -0.13516569823E+04  0.13516569824E+04  0.50400001928E-02 0.  1.
    10030    2    1    2    0    0  0.00000000000E+00  0.00000000000E+00  0.59159069315E+03  0.32949046578E+04  0.32413603866E+04 0.  0.
        4    1    3    3  502    0  0.33764579172E+03  0.14933639038E+04  0.83604654168E+03  0.17444528835E+04  0.12699999809E+01 0. -1.
       -4    1    3    3    0  502 -0.33764579172E+03 -0.14933639038E+04 -0.24445584853E+03  0.15504517744E+04  0.12699999809E+01 0.  1.
</event>
<event>
 5   0  0.2574803E-06  0.3264295E+04  0.7818609E-02  0.8172040E-01
       -2   -1    0    0    0  501  0.00000000000E+00  0.00000000000E+00  0.15010500314E+04  0.15010500314E+04  0.25500000920E-02 0. -1.
        2   -1    0    0  501    0  0.00000000000E+00  0.00000000000E+00 -0.17746947714E+04  0.17746947714E+04  0.25500000920E-02 0.  1.
    10030    2    1    2    0    0  0.00000000000E+00  0.00000000000E+00 -0.27364474006E+03  0.32757448028E+04  0.32642951106E+04 0.  0.
        4    1    3    3  502    0 -0.14292657717E+04 -0.63783613176E+03  0.32769265120E+03  0.15990683736E+04  0.12699999809E+01 0. -1.
       -4    1    3    3    0  502  0.14292657717E+04  0.63783613176E+03 -0.60133739126E+03  0.16766764292E+04  0.12699999809E+01 0.  1.
</event>
<event>
 5   0  0.2614212E-06  0.3304809E+04  0.7818609E-02  0.8161673E-01
        2   -1    0    0  501    0  0.00000000000E+00  0.00000000000E+00  0.20526241968E+04  0.20526241968E+04  0.25500000920E-02 0.  1.
       -2   -1    0    0    0  501  0.00000000000E+00  0.00000000000E+00 -0.13302192274E+04  0.13302192274E+04  0.25500000920E-02 0. -1.
    10030    2    1    2    0    0  0.00000000000E+00  0.00000000000E+00  0.72240496941E+03  0.33828434241E+04  0.33048087225E+04 0.  0.
        2    1    3    3  502    0  0.59186579942E+03  0.12425467489E+04 -0.57483648263E+03  0.14915309348E+04  0.25500000920E-02 0. -1.
       -2    1    3    3    0  502 -0.59186579942E+03 -0.12425467489E+04  0.12972414520E+04  0.18913124894E+04  0.25500000920E-02 0.  1.
</event>
<event>
 5   0  0.8845526E-07  0.3314467E+04  0.7818609E-02  0.8159224E-01
       -1   -1    0    0    0  501  0.00000000000E+00  0.00000000000E+00  0.16216221364E+04  0.16216221364E+04  0.50400001928E-02 0.  1.
        1   -1    0    0  501    0  0.00000000000E+00  0.00000000000E+00 -0.16936269820E+04  0.16936269820E+04  0.50400001928E-02 0. -1.
    10030    2    1    2    0    0  0.00000000000E+00  0.00000000000E+00 -0.72004845596E+02  0.33152491184E+04  0.33144670792E+04 0.  0.
        1    1    3    3  502    0  0.57865834813E+03 -0.63770782794E+03  0.13802787861E+04  0.16268639418E+04  0.50400001928E-02 0.  1.
       -1    1    3    3    0  502 -0.57865834813E+03  0.63770782794E+03 -0.14522836317E+04  0.16883851766E+04  0.50400001928E-02 0. -1.
</event>
<event>
 5   0  0.8845526E-07  0.3273596E+04  0.7818609E-02  0.8169646E-01
       -1   -1    0    0    0  501  0.00000000000E+00  0.00000000000E+00  0.22284176845E+04  0.22284176845E+04  0.50400001928E-02 0. -1.
        1   -1    0    0  501    0  0.00000000000E+00  0.00000000000E+00 -0.12022469527E+04  0.12022469527E+04  0.50400001928E-02 0.  1.
    10030    2    1    2    0    0  0.00000000000E+00  0.00000000000E+00  0.10261707318E+04  0.34306646372E+04  0.32735964141E+04 0.  0.
        1    1    3    3  502    0  0.11017756676E+04 -0.63942750394E+03  0.15901783242E+04  0.20375093269E+04  0.50400001928E-02 0. -1.
       -1    1    3    3    0  502 -0.11017756676E+04  0.63942750394E+03 -0.56400759237E+03  0.13931553104E+04  0.50400001928E-02 0.  1.
</event>
<event>
 5   0  0.2658600E-06  0.3276903E+04  0.7818609E-02  0.8168797E-01
        2   -1    0    0  501    0  0.00000000000E+00  0.00000000000E+00  0.24871459867E+04  0.24871459867E+04  0.25500000920E-02 0. -1.
       -2   -1    0    0    0  501  0.00000000000E+00  0.00000000000E+00 -0.10793590475E+04  0.10793590475E+04  0.25500000920E-02 0.  1.
    10030    2    1    2    0    0  0.00000000000E+00  0.00000000000E+00  0.14077869392E+04  0.35665050341E+04  0.32769031253E+04 0.  0.
        5    1    3    3  502    0 -0.15357788053E+04 -0.28527276703E+03  0.12420672403E+04  0.19956828931E+04  0.46999998093E+01 0. -1.
       -5    1    3    3    0  502  0.15357788053E+04  0.28527276703E+03  0.16571969890E+03  0.15708221411E+04  0.46999998093E+01 0.  1.
</event>
<event>
 5   0  0.2674551E-06  0.3381641E+04  0.7818609E-02  0.8142427E-01
       -2   -1    0    0    0  501  0.00000000000E+00  0.00000000000E+00  0.12222056959E+04  0.12222056959E+04  0.25500000920E-02 0.  1.
        2   -1    0    0  501    0  0.00000000000E+00  0.00000000000E+00 -0.23391105083E+04  0.23391105083E+04  0.25500000920E-02 0. -1.
    10030    2    1    2    0    0  0.00000000000E+00  0.00000000000E+00 -0.11169048124E+04  0.35613162041E+04  0.33816411320E+04 0.  0.
        3    1    3    3  502    0 -0.57807356520E+03 -0.77723337905E+03 -0.20179486990E+04  0.22383873066E+04  0.10100000352E+00 0. -1.
       -3    1    3    3    0  502  0.57807356520E+03  0.77723337905E+03  0.90104388659E+03  0.13229288976E+04  0.10100000352E+00 0.  1.
</event>
<event>
 5   0  0.2658600E-06  0.3304828E+04  0.7818609E-02  0.8161668E-01
       -2   -1    0    0    0  501  0.00000000000E+00  0.00000000000E+00  0.12901455816E+04  0.12901455816E+04  0.25500000920E-02 0.  1.
        2   -1    0    0  501    0  0.00000000000E+00  0.00000000000E+00 -0.21164062560E+04  0.21164062560E+04  0.25500000920E-02 0. -1.
    10030    2    1    2    0    0  0.00000000000E+00  0.00000000000E+00 -0.82626067435E+03  0.34065518377E+04  0.33048280924E+04 0.  0.
        5    1    3    3  502    0  0.94564141904E+02  0.10786769366E+04  0.87347339456E+03  0.13912096073E+04  0.46999998093E+01 0.  1.
       -5    1    3    3    0  502 -0.94564141904E+02 -0.10786769366E+04 -0.16997340689E+04  0.20153422304E+04  0.46999998093E+01 0. -1.
</event>
<event>
 5   0  0.8705956E-07  0.3228183E+04  0.7818609E-02  0.8181414E-01
        1   -1    0    0  501    0  0.00000000000E+00  0.00000000000E+00  0.19578475907E+04  0.19578475907E+04  0.50400001928E-02 0. -1.
       -1   -1    0    0    0  501  0.00000000000E+00  0.00000000000E+00 -0.13306915284E+04  0.13306915284E+04  0.50400001928E-02 0.  1.
    10030    2    1    2    0    0  0.00000000000E+00  0.00000000000E+00  0.62715606230E+03  0.32885391191E+04  0.32281828962E+04 0.  0.
        2    1    3    3  502    0  0.12467257009E+04  0.55363494074E+03  0.11925276534E+04  0.18118937124E+04  0.25500000920E-02 0. -1.
       -2    1    3    3    0  502 -0.12467257009E+04 -0.55363494074E+03 -0.56537159107E+03  0.14766454067E+04  0.25500000920E-02 0.  1.
</event>
<event>
 5   0  0.2574803E-06  0.3268189E+04  0.7818609E-02  0.8171037E-01
       -2   -1    0    0    0  501  0.00000000000E+00  0.00000000000E+00  0.18053374067E+04  0.18053374067E+04  0.25500000920E-02 0. -1.
        2   -1    0    0  501    0  0.00000000000E+00  0.00000000000E+00 -0.14790948136E+04  0.14790948136E+04  0.25500000920E-02 0.  1.
    10030    2    1    2    0    0  0.00000000000E+00  0.00000000000E+00  0.32624259312E+03  0.32844322203E+04  0.32681892204E+04 0.  0.
        4    1    3    3  502    0  0.42422160009E+03 -0.13278879920E+04  0.10200096261E+04  0.17273308124E+04  0.12699999809E+01 0. -1.
       -4    1    3    3    0  502 -0.42422160009E+03  0.13278879920E+04 -0.69376703297E+03  0.15571014078E+04  0.12699999809E+01 0.  1.
</event>
<event>
 5   0  0.8845526E-07  0.3315347E+04  0.7818609E-02  0.8159001E-01
        1   -1    0    0  501    0  0.00000000000E+00  0.00000000000E+00  0.13535835614E+04  0.13535835614E+04  0.50400001928E-02 0. -1.
       -1   -1    0    0    0  501  0.00000000000E+00  0.00000000000E+00 -0.20300788795E+04  0.20300788795E+04  0.50400001928E-02 0.  1.
    10030    2    1    2    0    0  0.00000000000E+00  0.00000000000E+00 -0.67649531808E+03  0.33836624409E+04  0.33153469801E+04 0.  0.
        1    1    3    3  502    0  0.16277683093E+04 -0.47347022231E+02 -0.22008056455E+02  0.16286054660E+04  0.50400001928E-02 0. -1.
       -1    1    3    3    0  502 -0.16277683093E+04  0.47347022231E+02 -0.65448726163E+03  0.17550569749E+04  0.50400001928E-02 0.  1.
</event>
<event>
 5   0  0.2674551E-06  0.3312939E+04  0.7818609E-02  0.8159611E-01
       -2   -1    0    0    0  501  0.00000000000E+00  0.00000000000E+00  0.11405310751E+04  0.11405310751E+04  0.25500000920E-02 0.  1.
        2   -1    0    0  501    0  0.00000000000E+00  0.00000000000E+00 -0.24058010405E+04  0.24058010405E+04  0.25500000920E-02 0. -1.
    10030    2    1    2    0    0  0.00000000000E+00  0.00000000000E+00 -0.12652699654E+04  0.35463321156E+04  0.33129387843E+04 0.  0.
        3    1    3    3  502    0 -0.11765039014E+04  0.51826117041E+03  0.48552820618E+03  0.13742247705E+04  0.10100000352E+00 0.  1.
       -3    1    3    3    0  502  0.11765039014E+04 -0.51826117041E+03 -0.17507981716E+04  0.21721073451E+04  0.10100000352E+00 0. -1.
</event>
<event>
 5   0  0.8845526E-07  0.2568667E+04  0.7818609E-02  0.8378923E-01
       -1   -1    0    0    0  501  0.00000000000E+00  0.00000000000E+00  0.12729122140E+04  0.12729122140E+04  0.50400001928E-02 0.  1.
        1   -1    0    0  501    0  0.00000000000E+00  0.00000000000E+00 -0.12958573053E+04  0.12958573053E+04  0.50400001928E-02 0. -1.
    10030    2    1    2    0    0  0.00000000000E+00  0.00000000000E+00 -0.22945091278E+02  0.25687695193E+04  0.25686670408E+04 0.  0.
        1    1    3    3  502    0 -0.19764567661E+03  0.93405731655E+03  0.84762267227E+03  0.12767110396E+04  0.50400001928E-02 0.  1.
       -1    1    3    3    0  502  0.19764567661E+03 -0.93405731655E+03 -0.87056776355E+03  0.12920584797E+04  0.50400001928E-02 0. -1.
</event>
<event>
 5   0  0.2658600E-06  0.3309804E+04  0.7818609E-02  0.8160405E-01
       -2   -1    0    0    0  501  0.00000000000E+00  0.00000000000E+00  0.14005793126E+04  0.14005793126E+04  0.25500000920E-02 0. -1.
        2   -1    0    0  501    0  0.00000000000E+00  0.00000000000E+00 -0.19554056685E+04  0.19554056685E+04  0.25500000920E-02 0.  1.
    10030    2    1    2    0    0  0.00000000000E+00  0.00000000000E+00 -0.55482635594E+03  0.33559849812E+04  0.33098040589E+04 0.  0.
        5    1    3    3  502    0  0.84611988758E+03 -0.10752632561E+04 -0.12212984821E+04  0.18340398050E+04  0.46999998093E+01 0.  1.
       -5    1    3    3    0  502 -0.84611988758E+03  0.10752632561E+04  0.66647212615E+03  0.15219451761E+04  0.46999998093E+01 0. -1.
</event>
<event>
 5   0  0.9295663E-07  0.3278360E+04  0.7818609E-02  0.8168424E-01
        1   -1    0    0  501    0  0.00000000000E+00  0.00000000000E+00  0.25185554936E+04  0.25185554937E+04  0.50400001928E-02 0. -1.
       -1   -1    0    0    0  501  0.00000000000E+00  0.00000000000E+00 -0.10668457635E+04  0.10668457635E+04  0.50400001928E-02 0.  1.
    10030    2    1    2    0    0  0.00000000000E+00  0.00000000000E+00  0.14517097302E+04  0.35854012571E+04  0.32783595035E+04 0.  0.
        4    1    3    3  502    0  0.72159387819E+03  0.96243418178E+03  0.19436662035E+04  0.22857859049E+04  0.12699999809E+01 0.  1.
       -4    1    3    3    0  502 -0.72159387819E+03 -0.96243418178E+03 -0.49195647334E+03  0.12996153523E+04  0.12699999809E+01 0. -1.
</event>
<event>
 5   0  0.2614212E-06  0.3282397E+04  0.7818609E-02  0.8167389E-01
       -2   -1    0    0    0  501  0.00000000000E+00  0.00000000000E+00  0.14344938211E+04  0.14344938211E+04  0.25500000920E-02 0. -1.
        2   -1    0    0  501    0  0.00000000000E+00  0.00000000000E+00 -0.18776889414E+04  0.18776889414E+04  0.25500000920E-02 0.  1.
    10030    2    1    2    0    0  0.00000000000E+00  0.00000000000E+00 -0.44319512035E+03  0.33121827625E+04  0.32823974070E+04 0.  0.
        2    1    3    3  502    0  0.60665604294E+03 -0.54508369151E+03  0.12155400981E+04  0.14637914863E+04  0.25500000920E-02 0. -1.
       -2    1    3    3    0  502 -0.60665604294E+03  0.54508369151E+03 -0.16587352184E+04  0.18483912762E+04  0.25500000920E-02 0.  1.
</event>
<event>
 5   0  0.2674551E-06  0.3102727E+04  0.7818609E-02  0.8214990E-01
       -2   -1    0    0    0  501  0.00000000000E+00  0.00000000000E+00  0.11651449278E+04  0.11651449278E+04  0.25500000920E-02 0.  1.
        2   -1    0    0  501    0  0.00000000000E+00  0.00000000000E+00 -0.20656046443E+04  0.20656046443E+04  0.25500000920E-02 0. -1.
    10030    2    1    2    0    0  0.00000000000E+00  0.00000000000E+00 -0.90045971644E+03  0.32307495721E+04  0.31027270419E+04 0.  0.
        3    1    3    3  502    0  0.91029159554E+02 -0.89636121213E+03  0.86480484522E+03  0.12488543394E+04  0.10100000352E+00 0.  1.
       -3    1    3    3    0  502 -0.91029159554E+02  0.89636121213E+03 -0.17652645617E+04  0.19818952327E+04  0.10100000352E+00 0. -1.
</event>
<event>
 5   0  0.9530268E-07  0.3258497E+04  0.7818609E-02  0.8173537E-01
       -1   -1    0    0    0  501  0.00000000000E+00  0.00000000000E+00  0.10398463343E+04  0.10398463343E+04  0.50400001928E-02 0.  1.
        1   -1    0    0  501    0  0.00000000000E+00  0.00000000000E+00 -0.25527330384E+04  0.25527330384E+04  0.50400001928E-02 0. -1.
    10030    2    1    2    0    0  0.00000000000E+00  0.00000000000E+00 -0.15128867040E+04  0.35925793727E+04  0.32584966426E+04 0.  0.
        5    1    3    3  502    0 -0.86725255935E+03  0.13791259173E+04 -0.77593984587E+03  0.18044999396E+04  0.46999998093E+01 0. -1.
       -5    1    3    3    0  502  0.86725255935E+03 -0.13791259173E+04 -0.73694685817E+03  0.17880794331E+04  0.46999998093E+01 0.  1.
</event>
<event>
 5   0  0.8705956E-07  0.3162552E+04  0.7818609E-02  0.8198778E-01
       -1   -1    0    0    0  501  0.00000000000E+00  0.00000000000E+00  0.89717830552E+03  0.89717830554E+03  0.50400001928E-02 0. -1.
        1   -1    0    0  501    0  0.00000000000E+00  0.00000000000E+00 -0.27869975571E+04  0.27869975571E+04  0.50400001928E-02 0.  1.
    10030    2    1    2    0    0  0.00000000000E+00  0.00000000000E+00 -0.18898192516E+04  0.36841758626E+04  0.31625519732E+04 0.  0.
        2    1    3    3  502    0 -0.29049300957E+03  0.65133381650E+02  0.86423711885E+03  0.91407567718E+03  0.25500000920E-02 0. -1.
       -2    1    3    3    0  502  0.29049300957E+03 -0.65133381650E+02 -0.27540563704E+04  0.27701001854E+04  0.25500000920E-02 0.  1.
</event>
<event>
 5   0  0.2574803E-06  0.3295434E+04  0.7818609E-02  0.8164058E-01
       -2   -1    0    0    0  501  0.00000000000E+00  0.00000000000E+00  0.13580123190E+04  0.13580123190E+04  0.25500000920E-02 0. -1.
        2   -1    0    0  501    0  0.00000000000E+00  0.00000000000E+00 -0.19992249429E+04  0.19992249429E+04  0.25500000920E-02 0.  1.
    10030    2    1    2    0    0  0.00000000000E+00  0.00000000000E+00 -0.64121262394E+03  0.33572372619E+04  0.32954344787E+04 0.  0.
        4    1    3    3  502    0  0.32985825228E+03  0.30602432114E+02  0.13237358079E+04  0.13645589315E+04  0.12699999809E+01 0. -1.
       -4    1    3    3    0  502 -0.32985825228E+03 -0.30602432114E+02 -0.19649484319E+04  0.19926783304E+04  0.12699999809E+01 0.  1.
</event>
<event>
 5   0  0.2614212E-06  0.3314834E+04  0.7818609E-02  0.8159131E-01
        2   -1    0    0  501    0  0.00000000000E+00  0.00000000000E+00  0.21783472101E+04  0.21783472101E+04  0.25500000920E-02 0.  1.
       -2   -1    0    0    0  501  0.00000000000E+00  0.00000000000E+00 -0.12610622802E+04  0.12610622803E+04  0.25500000920E-02 0. -1.
    10030    2    1    2    0    0  0.00000000000E+00  0.00000000000E+00  0.91728492985E+03  0.34394094903E+04  0.33148342341E+04 0.  0.
        2    1    3    3  502    0  0.15455672159E+04 -0.17851445991E+03  0.10514147314E+04  0.18777961467E+04  0.25500000920E-02 0.  1.
       -2    1    3    3    0  502 -0.15455672159E+04  0.17851445991E+03 -0.13412980155E+03  0.15616133436E+04  0.25500000920E-02 0. -1.
</event>
<event>
 5   0  0.8705956E-07  0.3224890E+04  0.7818609E-02  0.8182275E-01
       -1   -1    0    0    0  501  0.00000000000E+00  0.00000000000E+00  0.30666117497E+04  0.30666117497E+04  0.50400001928E-02 0.  1.
        1   -1    0    0  501    0  0.00000000000E+00  0.00000000000E+00 -0.84783422961E+03  0.84783422962E+03  0.50400001928E-02 0. -1.
    10030    2    1    2    0    0  0.00000000000E+00  0.00000000000E+00  0.22187775201E+04  0.39144459793E+04  0.32248897100E+04 0.  0.
        2    1    3    3  502    0 -0.61844482918E+03  0.82323587708E+03 -0.39682210186E+03  0.11034759157E+04  0.25500000920E-02 0. -1.
       -2    1    3    3    0  502  0.61844482918E+03 -0.82323587708E+03  0.26155996220E+04  0.28109700636E+04  0.25500000920E-02 0.  1.
</event>
<event>
 5   0  0.2614212E-06  0.3358399E+04  0.7818609E-02  0.8148193E-01
        2   -1    0    0  501    0  0.00000000000E+00  0.00000000000E+00  0.14347632695E+04  0.14347632695E+04  0.25500000920E-02 0.  1.
       -2   -1    0    0    0  501  0.00000000000E+00  0.00000000000E+00 -0.19652796025E+04  0.19652796025E+04  0.25500000920E-02 0. -1.
    10030    2    1    2    0    0  0.00000000000E+00  0.00000000000E+00 -0.53051633307E+03  0.34000428720E+04  0.33583990162E+04 0.  0.
        2    1    3    3  502    0 -0.63279388121E+03 -0.13212001477E+04 -0.10962362751E+04  0.18296808184E+04  0.25500000920E-02 0. -1.
       -2    1    3    3    0  502  0.63279388121E+03  0.13212001477E+04  0.56571994202E+03  0.15703620536E+04  0.25500000920E-02 0.  1.
</event>
<event>
 5   0  0.2658600E-06  0.3331160E+04  0.7818609E-02  0.8155012E-01
        2   -1    0    0  501    0  0.00000000000E+00  0.00000000000E+00  0.22835396322E+04  0.22835396322E+04  0.25500000920E-02 0. -1.
       -2   -1    0    0    0  501  0.00000000000E+00  0.00000000000E+00 -0.12148493117E+04  0.12148493117E+04  0.25500000920E-02 0.  1.
    10030    2    1    2    0    0  0.00000000000E+00  0.00000000000E+00  0.10686903205E+04  0.34983889438E+04  0.33311598883E+04 0.  0.
        5    1    3    3  502    0  0.90593114258E+03  0.18921541111E+02 -0.93333351576E+03  0.13008469554E+04  0.46999998093E+01 0.  1.
       -5    1    3    3    0  502 -0.90593114258E+03 -0.18921541111E+02  0.20020238363E+04  0.21975419884E+04  0.46999998093E+01 0. -1.
</event>
<event>
 5   0  0.2574803E-06  0.3110295E+04  0.7818609E-02  0.8212918E-01
       -2   -1    0    0    0  501  0.00000000000E+00  0.00000000000E+00  0.13400804866E+04  0.13400804867E+04  0.25500000920E-02 0. -1.
        2   -1    0    0  501    0  0.00000000000E+00  0.00000000000E+00 -0.18047305237E+04  0.18047305237E+04  0.25500000920E-02 0.  1.
    10030    2    1    2    0    0  0.00000000000E+00  0.00000000000E+00 -0.46465003700E+03  0.31448110103E+04  0.31102952647E+04 0.  0.
        4    1    3    3  502    0  0.24030356565E+03 -0.14475473684E+04  0.28850624178E+03  0.14954519892E+04  0.12699999809E+01 0. -1.
       -4    1    3    3    0  502 -0.24030356565E+03  0.14475473684E+04 -0.75315627878E+03  0.16493590211E+04  0.12699999809E+01 0.  1.
</event>
<event>
 5   0  0.2614212E-06  0.3273810E+04  0.7818609E-02  0.8169592E-01
       -2   -1    0    0    0  501  0.00000000000E+00  0.00000000000E+00  0.18054121103E+04  0.18054121103E+04  0.25500000920E-02 0. -1.
        2   -1    0    0  501    0  0.00000000000E+00  0.00000000000E+00 -0.14841252602E+04  0.14841252602E+04  0.25500000920E-02 0.  1.
    10030    2    1    2    0    0  0.00000000000E+00  0.00000000000E+00  0.32128685019E+03  0.32895373705E+04  0.32738098405E+04 0.  0.
        2    1    3    3  502    0 -0.23584285147E+03 -0.98039304603E+03  0.14562817826E+04  0.17713127916E+04  0.25500000920E-02 0. -1.
       -2    1    3    3    0  502  0.23584285147E+03  0.98039304603E+03 -0.11349949324E+04  0.15182245789E+04  0.25500000920E-02 0.  1.
</event>
<event>
 5   0  0.2658600E-06  0.2752988E+04  0.7818609E-02  0.8318014E-01
       -2   -1    0    0    0  501  0.00000000000E+00  0.00000000000E+00  0.10992532009E+04  0.10992532009E+04  0.25500000920E-02 0.  1.
        2   -1    0    0  501    0  0.00000000000E+00  0.00000000000E+00 -0.17236567731E+04  0.17236567731E+04  0.25500000920E-02 0. -1.
    10030    2    1    2    0    0  0.00000000000E+00  0.00000000000E+00 -0.62440357216E+03  0.28229099740E+04  0.27529876317E+04 0.  0.
        5    1    3    3  502    0  0.73604491242E+03  0.75042688807E+03 -0.12234867858E+04  0.16130234445E+04  0.46999998093E+01 0. -1.
       -5    1    3    3    0  502 -0.73604491242E+03 -0.75042688807E+03  0.59908321363E+03  0.12098865295E+04  0.46999998093E+01 0.  1.
</event>
<event>
 5   0  0.8845526E-07  0.3247650E+04  0.7818609E-02  0.8176345E-01
       -1   -1    0    0    0  501  0.00000000000E+00  0.00000000000E+00  0.17290607090E+04  0.17290607090E+04  0.50400001928E-02 0. -1.
        1   -1    0    0  501    0  0.00000000000E+00  0.00000000000E+00 -0.15249941111E+04  0.15249941111E+04  0.50400001928E-02 0.  1.
    10030    2    1    2    0    0  0.00000000000E+00  0.00000000000E+00  0.20406659784E+03  0.32540548201E+04  0.32476498574E+04 0.  0.
        1    1    3    3  502    0  0.11616677978E+04 -0.75686840996E+03  0.94897279454E+03  0.16801402404E+04  0.50400001928E-02 0. -1.
       -1    1    3    3    0  502 -0.11616677978E+04  0.75686840996E+03 -0.74490619669E+03  0.15739145798E+04  0.50400001928E-02 0.  1.
</event>
<event>
 5   0  0.2674551E-06  0.3219445E+04  0.7818609E-02  0.8183700E-01
       -2   -1    0    0    0  501  0.00000000000E+00  0.00000000000E+00  0.11643044025E+04  0.11643044025E+04  0.25500000920E-02 0.  1.
        2   -1    0    0  501    0  0.00000000000E+00  0.00000000000E+00 -0.22255410462E+04  0.22255410462E+04  0.25500000920E-02 0. -1.
    10030    2    1    2    0    0  0.00000000000E+00  0.00000000000E+00 -0.10612366437E+04  0.33898454487E+04  0.32194454417E+04 0.  0.
        3    1    3    3  502    0  0.47265567503E+03  0.15026542253E+04 -0.18166489660E+03  0.15856781681E+04  0.10100000352E+00 0.  1.
       -3    1    3    3    0  502 -0.47265567503E+03 -0.15026542253E+04 -0.87957174705E+03  0.18041672806E+04  0.10100000352E+00 0. -1.
</event>
<event>
 5   0  0.8845526E-07  0.3226686E+04  0.7818609E-02  0.8181805E-01
        1   -1    0    0  501    0  0.00000000000E+00  0.00000000000E+00  0.19009607010E+04  0.19009607010E+04  0.50400001928E-02 0. -1.
       -1   -1    0    0    0  501  0.00000000000E+00  0.00000000000E+00 -0.13692423931E+04  0.13692423931E+04  0.50400001928E-02 0.  1.
    10030    2    1    2    0    0  0.00000000000E+00  0.00000000000E+00  0.53171830792E+03  0.32702030941E+04  0.32266862130E+04 0.  0.
        1    1    3    3  502    0  0.90258062746E+03  0.59318934936E+03  0.14805009456E+04  0.18325960939E+04  0.50400001928E-02 0. -1.
       -1    1    3    3    0  502 -0.90258062746E+03 -0.59318934936E+03 -0.94878263772E+03  0.14376070002E+04  0.50400001928E-02 0.  1.
</event>
<event>
 5   0  0.2614212E-06  0.3300021E+04  0.7818609E-02  0.8162890E-01
       -2   -1    0    0    0  501  0.00000000000E+00  0.00000000000E+00  0.20210477222E+04  0.20210477222E+04  0.25500000920E-02 0.  1.
        2   -1    0    0  501    0  0.00000000000E+00  0.00000000000E+00 -0.13470910271E+04  0.13470910271E+04  0.25500000920E-02 0. -1.
    10030    2    1    2    0    0  0.00000000000E+00  0.00000000000E+00  0.67395669518E+03  0.33681387493E+04  0.33000213647E+04 0.  0.
        2    1    3    3  502    0 -0.32584865229E+03  0.11075125354E+04  0.15401990525E+04  0.19248310268E+04  0.25500000920E-02 0.  1.
       -2    1    3    3    0  502  0.32584865229E+03 -0.11075125354E+04 -0.86624235729E+03  0.14433077225E+04  0.25500000920E-02 0. -1.
</event>
<event>
 5   0  0.2658600E-06  0.3289651E+04  0.7818609E-02  0.8165534E-01
        2   -1    0    0  501    0  0.00000000000E+00  0.00000000000E+00  0.28815426445E+04  0.28815426445E+04  0.25500000920E-02 0.  1.
       -2   -1    0    0    0  501  0.00000000000E+00  0.00000000000E+00 -0.93888949870E+03  0.93888949871E+03  0.25500000920E-02 0. -1.
    10030    2    1    2    0    0  0.00000000000E+00  0.00000000000E+00  0.19426531458E+04  0.38204321432E+04  0.32896505158E+04 0.  0.
        5    1    3    3  502    0 -0.30603500400E+03 -0.11267630494E+04  0.23167760846E+04  0.25943642591E+04  0.46999998093E+01 0.  1.
       -5    1    3    3    0  502  0.30603500400E+03  0.11267630494E+04 -0.37412293875E+03  0.12260678841E+04  0.46999998093E+01 0. -1.
</event>
<event>
 5   0  0.9268670E-07  0.3309927E+04  0.7818609E-02  0.8160374E-01
       -1   -1    0    0    0  501  0.00000000000E+00  0.00000000000E+00  0.20186117183E+04  0.20186117183E+04  0.50400001928E-02 0. -1.
        1   -1    0    0  501    0  0.00000000000E+00  0.00000000000E+00 -0.13568260553E+04  0.13568260553E+04  0.50400001928E-02 0.  1.
    10030    2    1    2    0    0  0.00000000000E+00  0.00000000000E+00  0.66178566302E+03  0.33754377736E+04  0.33099274765E+04 0.  0.
        3    1    3    3  502    0  0.14071943614E+04 -0.55902640256E+03 -0.35030878358E+03  0.15541630364E+04  0.10100000352E+00 0.  1.
       -3    1    3    3    0  502 -0.14071943614E+04  0.55902640256E+03  0.10120944466E+04  0.18212747373E+04  0.10100000352E+00 0. -1.
</event>
<event>
 5   0  0.8845526E-07  0.3327842E+04  0.7818609E-02  0.8155847E-01
       -1   -1    0    0    0  501  0.00000000000E+00  0.00000000000E+00  0.12967421271E+04  0.12967421271E+04  0.50400001928E-02 0. -1.
        1   -1    0    0  501    0  0.00000000000E+00  0.00000000000E+00 -0.21350689338E+04  0.21350689338E+04  0.50400001928E-02 0.  1.
    10030    2    1    2    0    0  0.00000000000E+00  0.00000000000E+00 -0.83832680663E+03  0.34318110609E+04  0.33278424426E+04 0.  0.
        1    1    3    3  502    0  0.36920193641E+03 -0.12331930232E+04 -0.15064069033E+04  0.19814986401E+04  0.50400001928E-02 0.  1.
       -1    1    3    3    0  502 -0.36920193641E+03  0.12331930232E+04  0.66808009666E+03  0.14503124208E+04  0.50400001928E-02 0. -1.
</event>
<event>
 5   0  0.9530268E-07  0.3312972E+04  0.7818609E-02  0.8159603E-01
       -1   -1    0    0    0  501  0.00000000000E+00  0.00000000000E+00  0.14588972371E+04  0.14588972371E+04  0.50400001928E-02 0. -1.
        1   -1    0    0  501    0  0.00000000000E+00  0.00000000000E+00 -0.18808353769E+04  0.18808353770E+04  0.50400001928E-02 0.  1.
    10030    2    1    2    0    0  0.00000000000E+00  0.00000000000E+00 -0.42193813990E+03  0.33397326140E+04  0.33129717987E+04 0.  0.
        5    1    3    3  502    0  0.13114950389E+04  0.32779113558E+03 -0.11760195864E+04  0.17917897263E+04  0.46999998093E+01 0.  1.
       -5    1    3    3    0  502 -0.13114950389E+04 -0.32779113558E+03  0.75408144651E+03  0.15479428877E+04  0.46999998093E+01 0. -1.
</event>
<event>
 5   0  0.9268670E-07  0.2525426E+04  0.7818609E-02  0.8393983E-01
        1   -1    0    0  501    0  0.00000000000E+00  0.00000000000E+00  0.15551894990E+04  0.15551894990E+04  0.50400001928E-02 0.  1.
       -1   -1    0    0    0  501  0.00000000000E+00  0.00000000000E+00 -0.10252413632E+04  0.10252413632E+04  0.50400001928E-02 0. -1.
    10030    2    1    2    0    0  0.00000000000E+00  0.00000000000E+00  0.52994813580E+03  0.25804308621E+04  0.25254263813E+04 0.  0.
        3    1    3    3  502    0 -0.33536898494E+03  0.12133777742E+04  0.36553828675E+03  0.13108685015E+04  0.10100000352E+00 0.  1.
       -3    1    3    3    0  502  0.33536898494E+03 -0.12133777742E+04  0.16440984905E+03  0.12695623606E+04  0.10100000352E+00 0. -1.
</event>
<event>
 5   0  0.2658600E-06  0.3272131E+04  0.7818609E-02  0.8170023E-01
        2   -1    0    0  501    0  0.00000000000E+00  0.00000000000E+00  0.14553731633E+04  0.14553731633E+04  0.25500000920E-02 0. -1.
       -2   -1    0    0    0  501  0.00000000000E+00  0.00000000000E+00 -0.18391918720E+04  0.18391918720E+04  0.25500000920E-02 0.  1.
    10030    2    1    2    0    0  0.00000000000E+00  0.00000000000E+00 -0.38381870861E+03  0.32945650353E+04  0.32721311054E+04 0.  0.
        5    1    3    3  502    0  0.11346624314E+03 -0.16237806289E+04 -0.26006226256E+02  0.16279547085E+04  0.46999998093E+01 0. -1.
       -5    1    3    3    0  502 -0.11346624314E+03  0.16237806289E+04 -0.35781248235E+03  0.16666103268E+04  0.46999998093E+01 0.  1.
</event>
<event>
 5   0  0.2658600E-06  0.3289558E+04  0.7818609E-02  0.8165557E-01
       -2   -1    0    0    0  501  0.00000000000E+00  0.00000000000E+00  0.96779480479E+03  0.96779480479E+03  0.25500000920E-02 0. -1.
        2   -1    0    0  501    0  0.00000000000E+00  0.00000000000E+00 -0.27953223325E+04  0.27953223325E+04  0.25500000920E-02 0.  1.
    10030    2    1    2    0    0  0.00000000000E+00  0.00000000000E+00 -0.18275275277E+04  0.37631171373E+04  0.32895582871E+04 0.  0.
        5    1    3    3  502    0 -0.60471244834E+03  0.11462760064E+03 -0.26586130453E+04  0.27289305683E+04  0.46999998093E+01 0.  1.
       -5    1    3    3    0  502  0.60471244834E+03 -0.11462760064E+03  0.83108551757E+03  0.10341865690E+04  0.46999998093E+01 0. -1.
</event>
<event>
 5   0  0.8845526E-07  0.3278462E+04  0.7818609E-02  0.8168398E-01
       -1   -1    0    0    0  501  0.00000000000E+00  0.00000000000E+00  0.14406337563E+04  0.14406337563E+04  0.50400001928E-02 0.  1.
        1   -1    0    0  501    0  0.00000000000E+00  0.00000000000E+00 -0.18652054088E+04  0.18652054088E+04  0.50400001928E-02 0. -1.
    10030    2    1    2    0    0  0.00000000000E+00  0.00000000000E+00 -0.42457165246E+03  0.33058391651E+04  0.32784617578E+04 0.  0.
        1    1    3    3  502    0 -0.64265943038E+03  0.32409766498E+03  0.12727745856E+04  0.14621920481E+04  0.50400001928E-02 0.  1.
       -1    1    3    3    0  502  0.64265943038E+03 -0.32409766498E+03 -0.16973462380E+04  0.18436471169E+04  0.50400001928E-02 0. -1.
</event>
<event>
 5   0  0.8520125E-07  0.3370784E+04  0.7818609E-02  0.8145114E-01
        3   -1    0    0  501    0  0.00000000000E+00  0.00000000000E+00  0.24701437381E+04  0.24701437402E+04  0.10100000352E+00 0. -1.
       -3   -1    0    0    0  501  0.00000000000E+00  0.00000000000E+00 -0.11499520993E+04  0.11499521037E+04  0.10100000352E+00 0.  1.
    10030    2    1    2    0    0  0.00000000000E+00  0.00000000000E+00  0.13201916388E+04  0.36200958439E+04  0.33707844719E+04 0.  0.
        2    1    3    3  502    0  0.11696648904E+04 -0.33107428933E+03 -0.59364702860E+03  0.13528277552E+04  0.25500000920E-02 0.  1.
       -2    1    3    3    0  502 -0.11696648904E+04  0.33107428933E+03  0.19138386674E+04  0.22672680886E+04  0.25500000920E-02 0. -1.
</event>
<event>
 5   0  0.2674551E-06  0.3266830E+04  0.7818609E-02  0.8171387E-01
        2   -1    0    0  501    0  0.00000000000E+00  0.00000000000E+00  0.22586682407E+04  0.22586682407E+04  0.25500000920E-02 0. -1.
       -2   -1    0    0    0  501  0.00000000000E+00  0.00000000000E+00 -0.11812466361E+04  0.11812466361E+04  0.25500000920E-02 0.  1.
    10030    2    1    2    0    0  0.00000000000E+00  0.00000000000E+00  0.10774216046E+04  0.34399148768E+04  0.32668298159E+04 0.  0.
        3    1    3    3  502    0  0.11434202241E+04  0.85216557262E+03  0.13774352397E+04  0.19826557497E+04  0.10100000352E+00 0.  1.
       -3    1    3    3    0  502 -0.11434202241E+04 -0.85216557262E+03 -0.30001363514E+03  0.14572591271E+04  0.10100000352E+00 0. -1.
</event>
<event>
 5   0  0.2658600E-06  0.3319003E+04  0.7818609E-02  0.8158077E-01
       -2   -1    0    0    0  501  0.00000000000E+00  0.00000000000E+00  0.13893877693E+04  0.13893877693E+04  0.25500000920E-02 0. -1.
        2   -1    0    0  501    0  0.00000000000E+00  0.00000000000E+00 -0.19821286470E+04  0.19821286470E+04  0.25500000920E-02 0.  1.
    10030    2    1    2    0    0  0.00000000000E+00  0.00000000000E+00 -0.59274087767E+03  0.33715164163E+04  0.33190030427E+04 0.  0.
        5    1    3    3  502    0 -0.60063215770E+03  0.14750117837E+04  0.17738227398E+03  0.16024685058E+04  0.46999998093E+01 0. -1.
       -5    1    3    3    0  502  0.60063215770E+03 -0.14750117837E+04 -0.77012315165E+03  0.17690479105E+04  0.46999998093E+01 0.  1.
</event>
<event>
 5   0  0.2574803E-06  0.3292643E+04  0.7818609E-02  0.8164770E-01
       -2   -1    0    0    0  501  0.00000000000E+00  0.00000000000E+00  0.10860999126E+04  0.10860999126E+04  0.25500000920E-02 0. -1.
        2   -1    0    0  501    0  0.00000000000E+00  0.00000000000E+00 -0.24955116148E+04  0.24955116148E+04  0.25500000920E-02 0.  1.
    10030    2    1    2    0    0  0.00000000000E+00  0.00000000000E+00 -0.14094117022E+04  0.35816115274E+04  0.32926432827E+04 0.  0.
        4    1    3    3  502    0  0.65127774858E+03  0.14206755353E+04 -0.14169938073E+03  0.15692552405E+04  0.12699999809E+01 0.  1.
       -4    1    3    3    0  502 -0.65127774858E+03 -0.14206755353E+04 -0.12677123214E+04  0.20123562869E+04  0.12699999809E+01 0. -1.
</event>
<event>
 5   0  0.9268670E-07  0.3279262E+04  0.7818609E-02  0.8168192E-01
        1   -1    0    0  501    0  0.00000000000E+00  0.00000000000E+00  0.12083070056E+04  0.12083070057E+04  0.50400001928E-02 0.  1.
       -1   -1    0    0    0  501  0.00000000000E+00  0.00000000000E+00 -0.22249222293E+04  0.22249222294E+04  0.50400001928E-02 0. -1.
    10030    2    1    2    0    0  0.00000000000E+00  0.00000000000E+00 -0.10166152237E+04  0.34332292350E+04  0.32792615734E+04 0.  0.
        3    1    3    3  502    0 -0.17221735578E+03  0.10370372471E+03  0.11953556179E+04  0.12121420476E+04  0.10100000352E+00 0.  1.
       -3    1    3    3    0  502  0.17221735578E+03 -0.10370372471E+03 -0.22119708416E+04  0.22210871874E+04  0.10100000352E+00 0. -1.
</event>
<event>
 5   0  0.9295663E-07  0.3392033E+04  0.7818609E-02  0.8139864E-01
       -1   -1    0    0    0  501  0.00000000000E+00  0.00000000000E+00  0.18616392684E+04  0.18616392684E+04  0.50400001928E-02 0.  1.
        1   -1    0    0  501    0  0.00000000000E+00  0.00000000000E+00 -0.15451289411E+04  0.15451289411E+04  0.50400001928E-02 0. -1.
    10030    2    1    2    0    0  0.00000000000E+00  0.00000000000E+00  0.31651032732E+03  0.34067682095E+04  0.33920334382E+04 0.  0.
        4    1    3    3  502    0 -0.69279050302E+03  0.76192067647E+03 -0.11951851361E+04  0.15776409353E+04  0.12699999809E+01 0. -1.
       -4    1    3    3    0  502  0.69279050302E+03 -0.76192067647E+03  0.15116954634E+04  0.18291272742E+04  0.12699999809E+01 0.  1.
</event>
<event>
 5   0  0.9295663E-07  0.3296225E+04  0.7818609E-02  0.8163856E-01
        1   -1    0    0  501    0  0.00000000000E+00  0.00000000000E+00  0.14052100397E+04  0.14052100397E+04  0.50400001928E-02 0.  1.
       -1   -1    0    0    0  501  0.00000000000E+00  0.00000000000E+00 -0.19330031843E+04  0.19330031843E+04  0.50400001928E-02 0. -1.
    10030    2    1    2    0    0  0.00000000000E+00  0.00000000000E+00 -0.52779314464E+03  0.33382132240E+04  0.32962254058E+04 0.  0.
        4    1    3    3  502    0  0.78991458348E+03 -0.57709490610E+03  0.10793738589E+04  0.14567268515E+04  0.12699999809E+01 0.  1.
       -4    1    3    3    0  502 -0.78991458348E+03  0.57709490610E+03 -0.16071670035E+04  0.18814863725E+04  0.12699999809E+01 0. -1.
</event>
<event>
 5   0  0.9295663E-07  0.3305852E+04  0.7818609E-02  0.8161408E-01
       -1   -1    0    0    0  501  0.00000000000E+00  0.00000000000E+00  0.20641787250E+04  0.20641787250E+04  0.50400001928E-02 0.  1.
        1   -1    0    0  501    0  0.00000000000E+00  0.00000000000E+00 -0.13236083277E+04  0.13236083277E+04  0.50400001928E-02 0. -1.
    10030    2    1    2    0    0  0.00000000000E+00  0.00000000000E+00  0.74057039735E+03  0.33877870527E+04  0.33058518722E+04 0.  0.
        4    1    3    3  502    0 -0.39900107287E+03  0.53543281663E+03  0.19198034602E+04  0.20326182858E+04  0.12699999809E+01 0.  1.
       -4    1    3    3    0  502  0.39900107287E+03 -0.53543281663E+03 -0.11792330628E+04  0.13551687669E+04  0.12699999809E+01 0. -1.
</event>
<event>
 5   0  0.8845526E-07  0.3313007E+04  0.7818609E-02  0.8159594E-01
        1   -1    0    0  501    0  0.00000000000E+00  0.00000000000E+00  0.25858510812E+04  0.25858510812E+04  0.50400001928E-02 0. -1.
       -1   -1    0    0    0  501  0.00000000000E+00  0.00000000000E+00 -0.10611607811E+04  0.10611607811E+04  0.50400001928E-02 0.  1.
    10030    2    1    2    0    0  0.00000000000E+00  0.00000000000E+00  0.15246903001E+04  0.36470118623E+04  0.33130069443E+04 0.  0.
        1    1    3    3  502    0  0.52528633238E+03  0.89363682399E+03 -0.66000624543E+03  0.12288697035E+04  0.50400001928E-02 0.  1.
       -1    1    3    3    0  502 -0.52528633238E+03 -0.89363682399E+03  0.21846965455E+04  0.24181421588E+04  0.50400001928E-02 0. -1.
</event>
<event>
 5   0  0.9530268E-07  0.3261947E+04  0.7818609E-02  0.8172646E-01
       -1   -1    0    0    0  501  0.00000000000E+00  0.00000000000E+00  0.15045230067E+04  0.15045230067E+04  0.50400001928E-02 0.  1.
        1   -1    0    0  501    0  0.00000000000E+00  0.00000000000E+00 -0.17680521138E+04  0.17680521138E+04  0.50400001928E-02 0. -1.
    10030    2    1    2    0    0  0.00000000000E+00  0.00000000000E+00 -0.26352910715E+03  0.32725751205E+04  0.32619473216E+04 0.  0.
        5    1    3    3  502    0 -0.16672107631E+03  0.10515327059E+04 -0.13713207272E+04  0.17361047133E+04  0.46999998093E+01 0. -1.
       -5    1    3    3    0  502  0.16672107631E+03 -0.10515327059E+04  0.11077916200E+04  0.15364704072E+04  0.46999998093E+01 0.  1.
</event>
<event>
 5   0  0.2574803E-06  0.3320240E+04  0.7818609E-02  0.8157764E-01
       -2   -1    0    0    0  501  0.00000000000E+00  0.00000000000E+00  0.93375546631E+03  0.93375546632E+03  0.25500000920E-02 0.  1.
        2   -1    0    0  501    0  0.00000000000E+00  0.00000000000E+00 -0.29515196485E+04  0.29515196485E+04  0.25500000920E-02 0. -1.
    10030    2    1    2    0    0  0.00000000000E+00  0.00000000000E+00 -0.20177641822E+04  0.38852751148E+04  0.33202395129E+04 0.  0.
        4    1    3    3  502    0 -0.91597630964E+03  0.13097469536E+04 -0.15342212677E+04  0.22154652319E+04  0.12699999809E+01 0. -1.
       -4    1    3    3    0  502  0.91597630964E+03 -0.13097469536E+04 -0.48354291444E+03  0.16698098830E+04  0.12699999809E+01 0.  1.
</event>
<event>
 5   0  0.9530268E-07  0.3193128E+04  0.7818609E-02  0.8190635E-01
        1   -1    0    0  501    0  0.00000000000E+00  0.00000000000E+00  0.13785200567E+04  0.13785200567E+04  0.50400001928E-02 0.  1.
       -1   -1    0    0    0  501  0.00000000000E+00  0.00000000000E+00 -0.18490959821E+04  0.18490959821E+04  0.50400001928E-02 0. -1.
    10030    2    1    2    0    0  0.00000000000E+00  0.00000000000E+00 -0.47057592536E+03  0.32276160388E+04  0.31931275566E+04 0.  0.
        5    1    3    3  502    0 -0.11030582526E+04 -0.11530272055E+04 -0.28862686915E+03  0.16215846586E+04  0.46999998093E+01 0. -1.
       -5    1    3    3    0  502  0.11030582526E+04  0.11530272055E+04 -0.18194905620E+03  0.16060313802E+04  0.46999998093E+01 0.  1.
</event>
<event>
 5   0  0.2574803E-06  0.3422171E+04  0.7818609E-02  0.8132486E-01
        2   -1    0    0  501    0  0.00000000000E+00  0.00000000000E+00  0.25506570244E+04  0.25506570244E+04  0.25500000920E-02 0. -1.
       -2   -1    0    0    0  501  0.00000000000E+00  0.00000000000E+00 -0.11478665592E+04  0.11478665592E+04  0.25500000920E-02 0.  1.
    10030    2    1    2    0    0  0.00000000000E+00  0.00000000000E+00  0.14027904653E+04  0.36985235836E+04  0.34221711835E+04 0.  0.
        4    1    3    3  502    0 -0.13223662243E+04  0.93261112040E+03  0.13025471820E+04  0.20772690503E+04  0.12699999809E+01 0.  1.
       -4    1    3    3    0  502  0.13223662243E+04 -0.93261112040E+03  0.10024328330E+03  0.16212545333E+04  0.12699999809E+01 0. -1.
</event>
<event>
 5   0  0.8845526E-07  0.3250429E+04  0.7818609E-02  0.8175625E-01
       -1   -1    0    0    0  501  0.00000000000E+00  0.00000000000E+00  0.17931119827E+04  0.17931119827E+04  0.50400001928E-02 0.  1.
        1   -1    0    0  501    0  0.00000000000E+00  0.00000000000E+00 -0.14730379014E+04  0.14730379014E+04  0.50400001928E-02 0. -1.
    10030    2    1    2    0    0  0.00000000000E+00  0.00000000000E+00  0.32007408132E+03  0.32661498841E+04  0.32504288406E+04 0.  0.
        1    1    3    3  502    0 -0.24618838556E+02  0.70199196594E+03 -0.13126308329E+04  0.14887573714E+04  0.50400001928E-02 0. -1.
       -1    1    3    3    0  502  0.24618838556E+02 -0.70199196594E+03  0.16327049142E+04  0.17773925127E+04  0.50400001928E-02 0.  1.
</event>
<event>
 5   0  0.2705859E-06  0.3295772E+04  0.7818609E-02  0.8163972E-01
       -2   -1    0    0    0  501  0.00000000000E+00  0.00000000000E+00  0.11563755429E+04  0.11563755429E+04  0.25500000920E-02 0. -1.
        2   -1    0    0  501    0  0.00000000000E+00  0.00000000000E+00 -0.23483106524E+04  0.23483106524E+04  0.25500000920E-02 0.  1.
    10030    2    1    2    0    0  0.00000000000E+00  0.00000000000E+00 -0.11919351095E+04  0.35046861953E+04  0.32957724470E+04 0.  0.
        1    1    3    3  502    0  0.15972638277E+04  0.61068682473E+02 -0.10220505631E+04  0.18972528753E+04  0.50400001928E-02 0.  1.
       -1    1    3    3    0  502 -0.15972638277E+04 -0.61068682473E+02 -0.16988454641E+03  0.16074333200E+04  0.50400001928E-02 0. -1.
</event>
<event>
 5   0  0.9268670E-07  0.3366921E+04  0.7818609E-02  0.8146073E-01
       -1   -1    0    0    0  501  0.00000000000E+00  0.00000000000E+00  0.25079543752E+04  0.25079543752E+04  0.50400001928E-02 0. -1.
        1   -1    0    0  501    0  0.00000000000E+00  0.00000000000E+00 -0.11300199505E+04  0.11300199505E+04  0.50400001928E-02 0.  1.
    10030    2    1    2    0    0  0.00000000000E+00  0.00000000000E+00  0.13779344248E+04  0.36379743257E+04  0.33669205389E+04 0.  0.
        3    1    3    3  502    0  0.11969872321E+04 -0.91504532343E+03  0.15003912489E+04  0.21263255366E+04  0.10100000352E+00 0.  1.
       -3    1    3    3    0  502 -0.11969872321E+04  0.91504532343E+03 -0.12245682408E+03  0.15116487891E+04  0.10100000352E+00 0. -1.
</event>
<event>
 5   0  0.2614212E-06  0.3169984E+04  0.7818609E-02  0.8196790E-01
        2   -1    0    0  501    0  0.00000000000E+00  0.00000000000E+00  0.14310273809E+04  0.14310273809E+04  0.25500000920E-02 0.  1.
       -2   -1    0    0    0  501  0.00000000000E+00  0.00000000000E+00 -0.17555212366E+04  0.17555212366E+04  0.25500000920E-02 0. -1.
    10030    2    1    2    0    0  0.00000000000E+00  0.00000000000E+00 -0.32449385565E+03  0.31865486175E+04  0.31699835692E+04 0.  0.
        2    1    3    3  502    0  0.10496552059E+04  0.71677231406E+02  0.10293950302E+04  0.14719265623E+04  0.25500000920E-02 0.  1.
       -2    1    3    3    0  502 -0.10496552059E+04 -0.71677231406E+02 -0.13538888859E+04  0.17146220551E+04  0.25500000920E-02 0. -1.
</event>
<event>
 5   0  0.8845526E-07  0.3305607E+04  0.7818609E-02  0.8161470E-01
       -1   -1    0    0    0  501  0.00000000000E+00  0.00000000000E+00  0.19940648213E+04  0.19940648213E+04  0.50400001928E-02 0.  1.
        1   -1    0    0  501    0  0.00000000000E+00  0.00000000000E+00 -0.13699448103E+04  0.13699448103E+04  0.50400001928E-02 0. -1.
    10030    2    1    2    0    0  0.00000000000E+00  0.00000000000E+00  0.62412001093E+03  0.33640096316E+04  0.33056066029E+04 0.  0.
        1    1    3    3  502    0  0.16263935199E+04  0.12672578772E+03  0.41767253525E+02  0.16318577788E+04  0.50400001928E-02 0. -1.
       -1    1    3    3    0  502 -0.16263935199E+04 -0.12672578772E+03  0.58235275741E+03  0.17321518527E+04  0.50400001928E-02 0.  1.
</event>
<event>
 5   0  0.9268670E-07  0.3155469E+04  0.7818609E-02  0.8200678E-01
        1   -1    0    0  501    0  0.00000000000E+00  0.00000000000E+00  0.16072135285E+04  0.16072135285E+04  0.50400001928E-02 0. -1.
       -1   -1    0    0    0  501  0.00000000000E+00  0.00000000000E+00 -0.15487961767E+04  0.15487961767E+04  0.50400001928E-02 0.  1.
    10030    2    1    2    0    0  0.00000000000E+00  0.00000000000E+00  0.58417351856E+02  0.31560097052E+04  0.31554690099E+04 0.  0.
        3    1    3    3  502    0  0.32639696393E+03 -0.18367566369E+03 -0.15036903753E+04  0.15496310795E+04  0.10100000352E+00 0.  1.
       -3    1    3    3    0  502 -0.32639696393E+03  0.18367566369E+03  0.15621077272E+04  0.16063786257E+04  0.10100000352E+00 0. -1.
</event>
<event>
 5   0  0.8845526E-07  0.3347243E+04  0.7818609E-02  0.8150977E-01
        1   -1    0    0  501    0  0.00000000000E+00  0.00000000000E+00  0.16977222444E+04  0.16977222444E+04  0.50400001928E-02 0. -1.
       -1   -1    0    0    0  501  0.00000000000E+00  0.00000000000E+00 -0.16498624992E+04  0.16498624992E+04  0.50400001928E-02 0.  1.
    10030    2    1    2    0    0  0.00000000000E+00  0.00000000000E+00  0.47859745193E+02  0.33475847435E+04  0.33472426055E+04 0.  0.
        1    1    3    3  502    0  0.60391141079E+03 -0.53302440719E+03  0.14911122905E+04  0.16947683834E+04  0.50400001928E-02 0. -1.
       -1    1    3    3    0  502 -0.60391141079E+03  0.53302440719E+03 -0.14432525453E+04  0.16528163601E+04  0.50400001928E-02 0.  1.
</event>
<event>
 5   0  0.2658600E-06  0.3308423E+04  0.7818609E-02  0.8160755E-01
       -2   -1    0    0    0  501  0.00000000000E+00  0.00000000000E+00  0.17799551457E+04  0.17799551457E+04  0.25500000920E-02 0.  1.
        2   -1    0    0  501    0  0.00000000000E+00  0.00000000000E+00 -0.15373508966E+04  0.15373508966E+04  0.25500000920E-02 0. -1.
    10030    2    1    2    0    0  0.00000000000E+00  0.00000000000E+00  0.24260424914E+03  0.33173060422E+04  0.33084229712E+04 0.  0.
        5    1    3    3  502    0 -0.18226210523E+03  0.38198425319E+03 -0.14821357347E+04  0.15413889421E+04  0.46999998093E+01 0. -1.
       -5    1    3    3    0  502  0.18226210523E+03 -0.38198425319E+03  0.17247399839E+04  0.17759171001E+04  0.46999998093E+01 0.  1.
</event>
<event>
 5   0  0.2674551E-06  0.3280530E+04  0.7818609E-02  0.8167867E-01
       -2   -1    0    0    0  501  0.00000000000E+00  0.00000000000E+00  0.15596093333E+04  0.15596093333E+04  0.25500000920E-02 0.  1.
        2   -1    0    0  501    0  0.00000000000E+00  0.00000000000E+00 -0.17250913208E+04  0.17250913208E+04  0.25500000920E-02 0. -1.
    10030    2    1    2    0    0  0.00000000000E+00  0.00000000000E+00 -0.16548198742E+03  0.32847006541E+04  0.32805295455E+04 0.  0.
        3    1    3    3  502    0 -0.10544202446E+04  0.99619897535E+03  0.68390483415E+03  0.16037269977E+04  0.10100000352E+00 0.  1.
       -3    1    3    3    0  502  0.10544202446E+04 -0.99619897535E+03 -0.84938682158E+03  0.16809736564E+04  0.10100000352E+00 0. -1.
</event>
<event>
 5   0  0.2705859E-06  0.3490743E+04  0.7818609E-02  0.8115987E-01
       -2   -1    0    0    0  501  0.00000000000E+00  0.00000000000E+00  0.13072358536E+04  0.13072358536E+04  0.25500000920E-02 0. -1.
        2   -1    0    0  501    0  0.00000000000E+00  0.00000000000E+00 -0.23303539936E+04  0.23303539936E+04  0.25500000920E-02 0.  1.
    10030    2    1    2    0    0  0.00000000000E+00  0.00000000000E+00 -0.10231181400E+04  0.36375898472E+04  0.34907433546E+04 0.  0.
        1    1    3    3  502    0  0.12292976693E+04  0.11671094961E+04 -0.94499517196E+03  0.19407043079E+04  0.50400001928E-02 0.  1.
       -1    1    3    3    0  502 -0.12292976693E+04 -0.11671094961E+04 -0.78122968018E+02  0.16968855393E+04  0.50400001928E-02 0. -1.
</event>
<event>
 5   0  0.8705956E-07  0.3293130E+04  0.7818609E-02  0.8164646E-01
       -1   -1    0    0    0  501  0.00000000000E+00  0.00000000000E+00  0.15737022332E+04  0.15737022332E+04  0.50400001928E-02 0. -1.
        1   -1    0    0  501    0  0.00000000000E+00  0.00000000000E+00 -0.17228013387E+04  0.17228013388E+04  0.50400001928E-02 0.  1.
    10030    2    1    2    0    0  0.00000000000E+00  0.00000000000E+00 -0.14909910557E+03  0.32965035719E+04  0.32931300091E+04 0.  0.
        2    1    3    3  502    0  0.36955635735E+03  0.15743377920E+04  0.23571139038E+03  0.16342188483E+04  0.25500000920E-02 0. -1.
       -2    1    3    3    0  502 -0.36955635735E+03 -0.15743377920E+04 -0.38481049595E+03  0.16622847236E+04  0.25500000920E-02 0.  1.
</event>
<event>
 5   0  0.8845526E-07  0.2856186E+04  0.7818609E-02  0.8286034E-01
        1   -1    0    0  501    0  0.00000000000E+00  0.00000000000E+00  0.27550405914E+04  0.27550405914E+04  0.50400001928E-02 0.  1.
       -1   -1    0    0    0  501  0.00000000000E+00  0.00000000000E+00 -0.74026115178E+03  0.74026115179E+03  0.50400001928E-02 0. -1.
    10030    2    1    2    0    0  0.00000000000E+00  0.00000000000E+00  0.20147794396E+04  0.34953017432E+04  0.28561859333E+04 0.  0.
        1    1    3    3  502    0  0.11754180353E+04  0.80591162174E+03  0.89557463860E+03  0.16831978592E+04  0.50400001928E-02 0.  1.
       -1    1    3    3    0  502 -0.11754180353E+04 -0.80591162174E+03  0.11192048010E+04  0.18121038840E+04  0.50400001928E-02 0. -1.
</event>
<event>
 5   0  0.2658600E-06  0.3312468E+04  0.7818609E-02  0.8159730E-01
       -2   -1    0    0    0  501  0.00000000000E+00  0.00000000000E+00  0.11655599088E+04  0.11655599088E+04  0.25500000920E-02 0. -1.
        2   -1    0    0  501    0  0.00000000000E+00  0.00000000000E+00 -0.23534699655E+04  0.23534699655E+04  0.25500000920E-02 0.  1.
    10030    2    1    2    0    0  0.00000000000E+00  0.00000000000E+00 -0.11879100567E+04  0.35190298743E+04  0.33124675022E+04 0.  0.
        5    1    3    3  502    0  0.47478677984E+03 -0.76248937922E+03  0.88431889090E+03  0.12604977313E+04  0.46999998093E+01 0. -1.
       -5    1    3    3    0  502 -0.47478677984E+03  0.76248937922E+03 -0.20722289476E+04  0.22585321430E+04  0.46999998093E+01 0.  1.
</event>
<event>
 5   0  0.9530268E-07  0.3310950E+04  0.7818609E-02  0.8160115E-01
        1   -1    0    0  501    0  0.00000000000E+00  0.00000000000E+00  0.29572969840E+04  0.29572969841E+04  0.50400001928E-02 0.  1.
       -1   -1    0    0    0  501  0.00000000000E+00  0.00000000000E+00 -0.92672396836E+03  0.92672396838E+03  0.50400001928E-02 0. -1.
    10030    2    1    2    0    0  0.00000000000E+00  0.00000000000E+00  0.20305730157E+04  0.38840209524E+04  0.33109503148E+04 0.  0.
        5    1    3    3  502    0 -0.20184166288E+03 -0.13389023308E+04  0.21325993021E+04  0.25261435790E+04  0.46999998093E+01 0. -1.
       -5    1    3    3    0  502  0.20184166288E+03  0.13389023308E+04 -0.10202628640E+03  0.13578773735E+04  0.46999998093E+01 0.  1.
</event>
<event>
 5   0  0.9295663E-07  0.3335813E+04  0.7818609E-02  0.8153842E-01
        1   -1    0    0  501    0  0.00000000000E+00  0.00000000000E+00  0.17001774624E+04  0.17001774624E+04  0.50400001928E-02 0. -1.
       -1   -1    0    0    0  501  0.00000000000E+00  0.00000000000E+00 -0.16362478629E+04  0.16362478629E+04  0.50400001928E-02 0.  1.
    10030    2    1    2    0    0  0.00000000000E+00  0.00000000000E+00  0.63929599507E+02  0.33364253254E+04  0.33358127882E+04 0.  0.
        4    1    3    3  502    0  0.39868835691E+03  0.13068523601E+03  0.16465347686E+04  0.16991496091E+04  0.12699999809E+01 0. -1.
       -4    1    3    3    0  502 -0.39868835691E+03 -0.13068523601E+03 -0.15826051691E+04  0.16372757163E+04  0.12699999809E+01 0.  1.
</event>
<event>
 5   0  0.2658600E-06  0.3195045E+04  0.7818609E-02  0.8190127E-01
       -2   -1    0    0    0  501  0.00000000000E+00  0.00000000000E+00  0.27573935639E+04  0.27573935639E+04  0.25500000920E-02 0.  1.
        2   -1    0    0  501    0  0.00000000000E+00  0.00000000000E+00 -0.92554021661E+03  0.92554021661E+03  0.25500000920E-02 0. -1.
    10030    2    1    2    0    0  0.00000000000E+00  0.00000000000E+00  0.18318533473E+04  0.36829337805E+04  0.31950453120E+04 0.  0.
        5    1    3    3  502    0 -0.10409980996E+04 -0.10211427473E+04  0.16388540520E+03  0.14674093055E+04  0.46999998093E+01 0. -1.
       -5    1    3    3    0  502  0.10409980996E+04  0.10211427473E+04  0.16679679421E+04  0.22155244750E+04  0.46999998093E+01 0.  1.
</event>
<event>
 5   0  0.8520125E-07  0.3286923E+04  0.7818609E-02  0.8166231E-01
       -3   -1    0    0    0  501  0.00000000000E+00  0.00000000000E+00  0.25910481570E+04  0.25910481590E+04  0.10100000352E+00 0. -1.
        3   -1    0    0  501    0  0.00000000000E+00  0.00000000000E+00 -0.10424220985E+04  0.10424221034E+04  0.10100000352E+00 0.  1.
    10030    2    1    2    0    0  0.00000000000E+00  0.00000000000E+00  0.15486260585E+04  0.36334702624E+04  0.32869231021E+04 0.  0.
        3    1    3    3  502    0  0.93958842009E+03 -0.24312777134E+03  0.22404295428E+04  0.24416105461E+04  0.10100000352E+00 0. -1.
       -3    1    3    3    0  502 -0.93958842009E+03  0.24312777134E+03 -0.69180348430E+03  0.11918597163E+04  0.10100000352E+00 0.  1.
</event>
<event>
 5   0  0.2658600E-06  0.3235973E+04  0.7818609E-02  0.8179381E-01
        2   -1    0    0  501    0  0.00000000000E+00  0.00000000000E+00  0.25650886293E+04  0.25650886293E+04  0.25500000920E-02 0. -1.
       -2   -1    0    0    0  501  0.00000000000E+00  0.00000000000E+00 -0.10205805538E+04  0.10205805538E+04  0.25500000920E-02 0.  1.
    10030    2    1    2    0    0  0.00000000000E+00  0.00000000000E+00  0.15445080755E+04  0.35856691831E+04  0.32359725425E+04 0.  0.
        5    1    3    3  502    0 -0.26730240020E+03  0.42756813708E+03 -0.93128340326E+03  0.10590448301E+04  0.46999998093E+01 0.  1.
       -5    1    3    3    0  502  0.26730240020E+03 -0.42756813708E+03  0.24757914787E+04  0.25266243530E+04  0.46999998093E+01 0. -1.
</event>
<event>
 5   0  0.2574803E-06  0.3256477E+04  0.7818609E-02  0.8174059E-01
       -2   -1    0    0    0  501  0.00000000000E+00  0.00000000000E+00  0.16066250583E+04  0.16066250583E+04  0.25500000920E-02 0.  1.
        2   -1    0    0  501    0  0.00000000000E+00  0.00000000000E+00 -0.16501424174E+04  0.16501424174E+04  0.25500000920E-02 0. -1.
    10030    2    1    2    0    0  0.00000000000E+00  0.00000000000E+00 -0.43517359096E+02  0.32567674757E+04  0.32564767204E+04 0.  0.
        4    1    3    3  502    0 -0.58791158532E+03  0.11157302378E+04  0.10082189711E+04  0.16146210398E+04  0.12699999809E+01 0.  1.
       -4    1    3    3    0  502  0.58791158532E+03 -0.11157302378E+04 -0.10517363302E+04  0.16421464359E+04  0.12699999809E+01 0. -1.
</event>
<event>
 5   0  0.2705859E-06  0.3678434E+04  0.7818609E-02  0.8072758E-01
        2   -1    0    0  501    0  0.00000000000E+00  0.00000000000E+00  0.19044472337E+04  0.19044472337E+04  0.25500000920E-02 0.  1.
       -2   -1    0    0    0  501  0.00000000000E+00  0.00000000000E+00 -0.17762211618E+04  0.17762211618E+04  0.25500000920E-02 0. -1.
    10030    2    1    2    0    0  0.00000000000E+00  0.00000000000E+00  0.12822607199E+03  0.36806683955E+04  0.36784341658E+04 0.  0.
        1    1    3    3  502    0  0.86972761748E+03 -0.12487343082E+04 -0.96944996592E+03  0.18043272257E+04  0.50400001928E-02 0.  1.
       -1    1    3    3    0  502 -0.86972761748E+03  0.12487343082E+04  0.10976760379E+04  0.18763411698E+04  0.50400001928E-02 0. -1.
</event>
<event>
 5   0  0.2705859E-06  0.3261588E+04  0.7818609E-02  0.8172739E-01
        2   -1    0    0  501    0  0.00000000000E+00  0.00000000000E+00  0.20819765905E+04  0.20819765905E+04  0.25500000920E-02 0.  1.
       -2   -1    0    0    0  501  0.00000000000E+00  0.00000000000E+00 -0.12773863714E+04  0.12773863714E+04  0.25500000920E-02 0. -1.
    10030    2    1    2    0    0  0.00000000000E+00  0.00000000000E+00  0.80459021908E+03  0.33593629618E+04  0.32615876638E+04 0.  0.
        1    1    3    3  502    0 -0.13191953995E+04 -0.12486441443E+03 -0.57679126559E+03  0.14451836520E+04  0.50400001928E-02 0. -1.
       -1    1    3    3    0  502  0.13191953995E+04  0.12486441443E+03  0.13813814847E+04  0.19141793098E+04  0.50400001928E-02 0.  1.
</event>
<event>
 5   0  0.8705956E-07  0.3324250E+04  0.7818609E-02  0.8156752E-01
       -1   -1    0    0    0  501  0.00000000000E+00  0.00000000000E+00  0.20231811679E+04  0.20231811679E+04  0.50400001928E-02 0.  1.
        1   -1    0    0  501    0  0.00000000000E+00  0.00000000000E+00 -0.13655029514E+04  0.13655029515E+04  0.50400001928E-02 0. -1.
    10030    2    1    2    0    0  0.00000000000E+00  0.00000000000E+00  0.65767821642E+03  0.33886841193E+04  0.33242502048E+04 0.  0.
        2    1    3    3  502    0 -0.13307025564E+04  0.15423043164E+03 -0.67415477969E+03  0.14996802948E+04  0.25500000920E-02 0. -1.
       -2    1    3    3    0  502  0.13307025564E+04 -0.15423043164E+03  0.13318329961E+04  0.18890038245E+04  0.25500000920E-02 0.  1.
</event>
<event>
 5   0  0.2705859E-06  0.3274850E+04  0.7818609E-02  0.8169325E-01
        2   -1    0    0  501    0  0.00000000000E+00  0.00000000000E+00  0.15029965716E+04  0.15029965716E+04  0.25500000920E-02 0. -1.
       -2   -1    0    0    0  501  0.00000000000E+00  0.00000000000E+00 -0.17838764284E+04  0.17838764284E+04  0.25500000920E-02 0.  1.
    10030    2    1    2    0    0  0.00000000000E+00  0.00000000000E+00 -0.28087985682E+03  0.32868730000E+04  0.32748497102E+04 0.  0.
        1    1    3    3  502    0 -0.12398918201E+04 -0.20367085108E+03 -0.11942215893E+04  0.17334874518E+04  0.50400001928E-02 0.  1.
       -1    1    3    3    0  502  0.12398918201E+04  0.20367085108E+03  0.91334173245E+03  0.15533855482E+04  0.50400001928E-02 0. -1.
</event>
<event>
 5   0  0.9530268E-07  0.3256320E+04  0.7818609E-02  0.8174099E-01
       -1   -1    0    0    0  501  0.00000000000E+00  0.00000000000E+00  0.38320484573E+04  0.38320484573E+04  0.50400001928E-02 0.  1.
        1   -1    0    0  501    0  0.00000000000E+00  0.00000000000E+00 -0.69177250291E+03  0.69177250293E+03  0.50400001928E-02 0. -1.
    10030    2    1    2    0    0  0.00000000000E+00  0.00000000000E+00  0.31402759544E+04  0.45238209602E+04  0.32563204711E+04 0.  0.
        5    1    3    3  502    0  0.33930996119E+03 -0.43713873185E+03 -0.55711139718E+03  0.78524946323E+03  0.46999998093E+01 0. -1.
       -5    1    3    3    0  502 -0.33930996119E+03  0.43713873185E+03  0.36973873516E+04  0.37385714970E+04  0.46999998093E+01 0.  1.
</event>
<event>
 5   0  0.9268670E-07  0.3316794E+04  0.7818609E-02  0.8158635E-01
        1   -1    0    0  501    0  0.00000000000E+00  0.00000000000E+00  0.13834898287E+04  0.13834898288E+04  0.50400001928E-02 0. -1.
       -1   -1    0    0    0  501  0.00000000000E+00  0.00000000000E+00 -0.19879298837E+04  0.19879298837E+04  0.50400001928E-02 0.  1.
    10030    2    1    2    0    0  0.00000000000E+00  0.00000000000E+00 -0.60444005492E+03  0.33714197124E+04  0.33167940993E+04 0.  0.
        3    1    3    3  502    0 -0.12797960368E+04 -0.18404579171E+03 -0.13578468763E+04  0.18749663727E+04  0.10100000352E+00 0.  1.
       -3    1    3    3    0  502  0.12797960368E+04  0.18404579171E+03  0.75340682140E+03  0.14964533397E+04  0.10100000352E+00 0. -1.
</event>
<event>
 5   0  0.2574803E-06  0.3249110E+04  0.7818609E-02  0.8175966E-01
        2   -1    0    0  501    0  0.00000000000E+00  0.00000000000E+00  0.15913807202E+04  0.15913807202E+04  0.25500000920E-02 0.  1.
       -2   -1    0    0    0  501  0.00000000000E+00  0.00000000000E+00 -0.16584208639E+04  0.16584208639E+04  0.25500000920E-02 0. -1.
    10030    2    1    2    0    0  0.00000000000E+00  0.00000000000E+00 -0.67040143648E+02  0.32498015841E+04  0.32491100251E+04 0.  0.
        4    1    3    3  502    0 -0.62140774771E+03 -0.52186736639E+03  0.13741473210E+04  0.15958620271E+04  0.12699999809E+01 0.  1.
       -4    1    3    3    0  502  0.62140774771E+03  0.52186736639E+03 -0.14411874646E+04  0.16539395570E+04  0.12699999809E+01 0. -1.
</event>
<event>
 5   0  0.8845526E-07  0.2940241E+04  0.7818609E-02  0.8261004E-01
        1   -1    0    0  501    0  0.00000000000E+00  0.00000000000E+00  0.15730023413E+04  0.15730023413E+04  0.50400001928E-02 0. -1.
       -1   -1    0    0    0  501  0.00000000000E+00  0.00000000000E+00 -0.13739679118E+04  0.13739679118E+04  0.50400001928E-02 0.  1.
    10030    2    1    2    0    0  0.00000000000E+00  0.00000000000E+00  0.19903442954E+03  0.29469702531E+04  0.29402413113E+04 0.  0.
        1    1    3    3  502    0  0.23604691635E+03 -0.12436456991E+04  0.84881220086E+03  0.15240915078E+04  0.50400001928E-02 0. -1.
       -1    1    3    3    0  502 -0.23604691635E+03  0.12436456991E+04 -0.64977777132E+03  0.14228787453E+04  0.50400001928E-02 0.  1.
</event>
<event>
 5   0  0.2674551E-06  0.3296465E+04  0.7818609E-02  0.8163795E-01
        2   -1    0    0  501    0  0.00000000000E+00  0.00000000000E+00  0.21519811314E+04  0.21519811314E+04  0.25500000920E-02 0. -1.
       -2   -1    0    0    0  501  0.00000000000E+00  0.00000000000E+00 -0.12624044676E+04  0.12624044676E+04  0.25500000920E-02 0.  1.
    10030    2    1    2    0    0  0.00000000000E+00  0.00000000000E+00  0.88957666382E+03  0.34143855989E+04  0.32964651337E+04 0.  0.
        3    1    3    3  502    0  0.26573162027E+02  0.11716290001E+04  0.16452339588E+04  0.20199543154E+04  0.10100000352E+00 0. -1.
       -3    1    3    3    0  502 -0.26573162027E+02 -0.11716290001E+04 -0.75565729501E+03  0.13944312835E+04  0.10100000352E+00 0.  1.
</event>
<event>
 5   0  0.2674551E-06  0.3255990E+04  0.7818609E-02  0.8174185E-01
        2   -1    0    0  501    0  0.00000000000E+00  0.00000000000E+00  0.24831516169E+04  0.24831516169E+04  0.25500000920E-02 0. -1.
       -2   -1    0    0    0  501  0.00000000000E+00  0.00000000000E+00 -0.10673401290E+04  0.10673401290E+04  0.25500000920E-02 0.  1.
    10030    2    1    2    0    0  0.00000000000E+00  0.00000000000E+00  0.14158114879E+04  0.35504917459E+04  0.32559897832E+04 0.  0.
        3    1    3    3  502    0  0.41555646276E+03  0.13001150223E+04  0.16755104460E+04  0.21610926657E+04  0.10100000352E+00 0. -1.
       -3    1    3    3    0  502 -0.41555646276E+03 -0.13001150223E+04 -0.25969895807E+03  0.13893990802E+04  0.10100000352E+00 0.  1.
</event>
<event>
 5   0  0.2674551E-06  0.3076383E+04  0.7818609E-02  0.8222249E-01
        2   -1    0    0  501    0  0.00000000000E+00  0.00000000000E+00  0.13276237124E+04  0.13276237124E+04  0.25500000920E-02 0. -1.
       -2   -1    0    0    0  501  0.00000000000E+00  0.00000000000E+00 -0.17821564400E+04  0.17821564400E+04  0.25500000920E-02 0.  1.
    10030    2    1    2    0    0  0.00000000000E+00  0.00000000000E+00 -0.45453272759E+03  0.31097801524E+04  0.30763830379E+04 0.  0.
        3    1    3    3  502    0  0.10762156413E+04  0.10237274662E+04 -0.63132448312E+03  0.16139481543E+04  0.10100000352E+00 0.  1.
       -3    1    3    3    0  502 -0.10762156413E+04 -0.10237274662E+04  0.17679175554E+03  0.14958319981E+04  0.10100000352E+00 0. -1.
</event>
<event>
 5   0  0.8705956E-07  0.3407397E+04  0.7818609E-02  0.8136093E-01
       -1   -1    0    0    0  501  0.00000000000E+00  0.00000000000E+00  0.20804654258E+04  0.20804654258E+04  0.50400001928E-02 0.  1.
        1   -1    0    0  501    0  0.00000000000E+00  0.00000000000E+00 -0.13951631588E+04  0.13951631588E+04  0.50400001928E-02 0. -1.
    10030    2    1    2    0    0  0.00000000000E+00  0.00000000000E+00  0.68530226702E+03  0.34756285846E+04  0.34073970800E+04 0.  0.
        2    1    3    3  502    0 -0.15915098281E+04  0.23564720513E+03 -0.22906836006E+03  0.16250862906E+04  0.25500000920E-02 0. -1.
       -2    1    3    3    0  502  0.15915098281E+04 -0.23564720513E+03  0.91437062709E+03  0.18505422940E+04  0.25500000920E-02 0.  1.
</event>
<event>
 5   0  0.2658600E-06  0.3307512E+04  0.7818609E-02  0.8160987E-01
       -2   -1    0    0    0  501  0.00000000000E+00  0.00000000000E+00  0.11690256068E+04  0.11690256068E+04  0.25500000920E-02 0.  1.
        2   -1    0    0  501    0  0.00000000000E+00  0.00000000000E+00 -0.23394766375E+04  0.23394766375E+04  0.25500000920E-02 0. -1.
    10030    2    1    2    0    0  0.00000000000E+00  0.00000000000E+00 -0.11704510307E+04  0.35085022443E+04  0.33075115091E+04 0.  0.
        5    1    3    3  502    0  0.10850637088E+03 -0.16433389268E+04 -0.74451579891E+03  0.18073910273E+04  0.46999998093E+01 0.  1.
       -5    1    3    3    0  502 -0.10850637088E+03  0.16433389268E+04 -0.42593523183E+03  0.17011112170E+04  0.46999998093E+01 0. -1.
</event>
<event>
 5   0  0.2658600E-06  0.3158266E+04  0.7818609E-02  0.8199927E-01
       -2   -1    0    0    0  501  0.00000000000E+00  0.00000000000E+00  0.93585722453E+03  0.93585722453E+03  0.25500000920E-02 0. -1.
        2   -1    0    0  501    0  0.00000000000E+00  0.00000000000E+00 -0.26645736444E+04  0.26645736444E+04  0.25500000920E-02 0.  1.
    10030    2    1    2    0    0  0.00000000000E+00  0.00000000000E+00 -0.17287164199E+04  0.36004308690E+04  0.31582656604E+04 0.  0.
        5    1    3    3  502    0 -0.37943046381E+03 -0.46376369870E+03  0.80121404112E+03  0.10005050099E+04  0.46999998093E+01 0. -1.
       -5    1    3    3    0  502  0.37943046381E+03  0.46376369870E+03 -0.25299304610E+04  0.25999258591E+04  0.46999998093E+01 0.  1.
</event>
<event>
 5   0  0.2574803E-06  0.3252330E+04  0.7818609E-02  0.8175132E-01
       -2   -1    0    0    0  501  0.00000000000E+00  0.00000000000E+00  0.12789164553E+04  0.12789164553E+04  0.25500000920E-02 0.  1.
        2   -1    0    0  501    0  0.00000000000E+00  0.00000000000E+00 -0.20676979950E+04  0.20676979950E+04  0.25500000920E-02 0. -1.
    10030    2    1    2    0    0  0.00000000000E+00  0.00000000000E+00 -0.78878153976E+03  0.33466144503E+04  0.32523302356E+04 0.  0.
        4    1    3    3  502    0 -0.23900216001E+03 -0.88989315565E+03 -0.17731523667E+04  0.19982749534E+04  0.12699999809E+01 0. -1.
       -4    1    3    3    0  502  0.23900216001E+03  0.88989315565E+03  0.98437082695E+03  0.13483394969E+04  0.12699999809E+01 0.  1.
</event>
<event>
 5   0  0.2574803E-06  0.3503933E+04  0.7818609E-02  0.8112858E-01
        2   -1    0    0  501    0  0.00000000000E+00  0.00000000000E+00  0.17944987475E+04  0.17944987475E+04  0.25500000920E-02 0.  1.
       -2   -1    0    0    0  501  0.00000000000E+00  0.00000000000E+00 -0.17104425348E+04  0.17104425348E+04  0.25500000920E-02 0. -1.
    10030    2    1    2    0    0  0.00000000000E+00  0.00000000000E+00  0.84056212737E+02  0.35049412823E+04  0.35039332107E+04 0.  0.
        4    1    3    3  502    0 -0.43267709493E+03 -0.14705891331E+04  0.89053125150E+03  0.17728196157E+04  0.12699999809E+01 0.  1.
       -4    1    3    3    0  502  0.43267709493E+03  0.14705891331E+04 -0.80647503877E+03  0.17321216666E+04  0.12699999809E+01 0. -1.
</event>
<event>
 5   0  0.8705956E-07  0.3298587E+04  0.7818609E-02  0.8163255E-01
       -1   -1    0    0    0  501  0.00000000000E+00  0.00000000000E+00  0.14803740353E+04  0.14803740353E+04  0.50400001928E-02 0. -1.
        1   -1    0    0  501    0  0.00000000000E+00  0.00000000000E+00 -0.18374881934E+04  0.18374881934E+04  0.50400001928E-02 0.  1.
    10030    2    1    2    0    0  0.00000000000E+00  0.00000000000E+00 -0.35711415812E+03  0.33178622288E+04  0.32985874624E+04 0.  0.
        2    1    3    3  502    0 -0.75021917846E+03 -0.28954271525E+03  0.12698245040E+04  0.15030362839E+04  0.25500000920E-02 0. -1.
       -2    1    3    3    0  502  0.75021917846E+03  0.28954271525E+03 -0.16269386622E+04  0.18148259449E+04  0.25500000920E-02 0.  1.
</event>
<event>
 5   0  0.2674551E-06  0.3258125E+04  0.7818609E-02  0.8173633E-01
        2   -1    0    0  501    0  0.00000000000E+00  0.00000000000E+00  0.17317696928E+04  0.17317696929E+04  0.25500000920E-02 0.  1.
       -2   -1    0    0    0  501  0.00000000000E+00  0.00000000000E+00 -0.15324465118E+04  0.15324465118E+04  0.25500000920E-02 0. -1.
    10030    2    1    2    0    0  0.00000000000E+00  0.00000000000E+00  0.19932318105E+03  0.32642162046E+04  0.32581248749E+04 0.  0.
        3    1    3    3  502    0  0.11355354809E+04  0.29027274432E+03 -0.10338887907E+04  0.15628899949E+04  0.10100000352E+00 0. -1.
       -3    1    3    3    0  502 -0.11355354809E+04 -0.29027274432E+03  0.12332119718E+04  0.17013262097E+04  0.10100000352E+00 0.  1.
</event>
<event>
 5   0  0.9295663E-07  0.3302908E+04  0.7818609E-02  0.8162156E-01
        1   -1    0    0  501    0  0.00000000000E+00  0.00000000000E+00  0.19327296246E+04  0.19327296246E+04  0.50400001928E-02 0.  1.
       -1   -1    0    0    0  501  0.00000000000E+00  0.00000000000E+00 -0.14111136013E+04  0.14111136013E+04  0.50400001928E-02 0. -1.
    10030    2    1    2    0    0  0.00000000000E+00  0.00000000000E+00  0.52161602327E+03  0.33438432259E+04  0.33029084522E+04 0.  0.
        4    1    3    3  502    0 -0.45874124010E+03  0.10908409503E+04 -0.90538936287E+03  0.14900030253E+04  0.12699999809E+01 0. -1.
       -4    1    3    3    0  502  0.45874124010E+03 -0.10908409503E+04  0.14270053861E+04  0.18538402005E+04  0.12699999809E+01 0.  1.
</event>
<event>
 5   0  0.2705859E-06  0.3318926E+04  0.7818609E-02  0.8158096E-01
       -2   -1    0    0    0  501  0.00000000000E+00  0.00000000000E+00  0.13440009810E+04  0.13440009810E+04  0.25500000920E-02 0. -1.
        2   -1    0    0  501    0  0.00000000000E+00  0.00000000000E+00 -0.20489692220E+04  0.20489692220E+04  0.25500000920E-02 0.  1.
    10030    2    1    2    0    0  0.00000000000E+00  0.00000000000E+00 -0.70496824104E+03  0.33929702030E+04  0.33189255155E+04 0.  0.
        1    1    3    3  502    0  0.12215852773E+04  0.62836369720E+03  0.59925565637E+03  0.14987390925E+04  0.50400001928E-02 0.  1.
       -1    1    3    3    0  502 -0.12215852773E+04 -0.62836369720E+03 -0.13042238974E+04  0.18942311105E+04  0.50400001928E-02 0. -1.
</event>
<event>
 5   0  0.2614212E-06  0.3086447E+04  0.7818609E-02  0.8219467E-01
       -2   -1    0    0    0  501  0.00000000000E+00  0.00000000000E+00  0.10744830247E+04  0.10744830247E+04  0.25500000920E-02 0. -1.
        2   -1    0    0  501    0  0.00000000000E+00  0.00000000000E+00 -0.22164509430E+04  0.22164509430E+04  0.25500000920E-02 0.  1.
    10030    2    1    2    0    0  0.00000000000E+00  0.00000000000E+00 -0.11419679183E+04  0.32909339677E+04  0.30864470923E+04 0.  0.
        2    1    3    3  502    0 -0.36005780688E+03 -0.32918305774E+03 -0.21320659104E+04  0.21871689820E+04  0.25500000920E-02 0.  1.
       -2    1    3    3    0  502  0.36005780688E+03  0.32918305774E+03  0.99009799207E+03  0.11037649857E+04  0.25500000920E-02 0. -1.
</event>
<event>
 5   0  0.9295663E-07  0.3292981E+04  0.7818609E-02  0.8164684E-01
       -1   -1    0    0    0  501  0.00000000000E+00  0.00000000000E+00  0.13654935444E+04  0.13654935445E+04  0.50400001928E-02 0. -1.
        1   -1    0    0  501    0  0.00000000000E+00  0.00000000000E+00 -0.19853120403E+04  0.19853120403E+04  0.50400001928E-02 0.  1.
    10030    2    1    2    0    0  0.00000000000E+00  0.00000000000E+00 -0.61981849585E+03  0.33508055848E+04  0.32929808835E+04 0.  0.
        4    1    3    3  502    0  0.34463351217E+02 -0.91344745174E+03  0.10835741173E+04  0.14176418625E+04  0.12699999809E+01 0. -1.
       -4    1    3    3    0  502 -0.34463351217E+02  0.91344745174E+03 -0.17033926132E+04  0.19331637223E+04  0.12699999809E+01 0.  1.
</event>
<event>
 5   0  0.8705956E-07  0.3299088E+04  0.7818609E-02  0.8163128E-01
        1   -1    0    0  501    0  0.00000000000E+00  0.00000000000E+00  0.28342229394E+04  0.28342229394E+04  0.50400001928E-02 0. -1.
       -1   -1    0    0    0  501  0.00000000000E+00  0.00000000000E+00 -0.96004964363E+03  0.96004964364E+03  0.50400001928E-02 0.  1.
    10030    2    1    2    0    0  0.00000000000E+00  0.00000000000E+00  0.18741732957E+04  0.37942725830E+04  0.32990875847E+04 0.  0.
        2    1    3    3  502    0 -0.13717172887E+04 -0.70345094020E+03  0.16121686188E+04  0.22305916705E+04  0.25500000920E-02 0. -1.
       -2    1    3    3    0  502  0.13717172887E+04  0.70345094020E+03  0.26200467696E+03  0.15636809125E+04  0.25500000920E-02 0.  1.
</event>
<event>
 5   0  0.2574803E-06  0.3318322E+04  0.7818609E-02  0.8158249E-01
        2   -1    0    0  501    0  0.00000000000E+00  0.00000000000E+00  0.23324417402E+04  0.23324417402E+04  0.25500000920E-02 0. -1.
       -2   -1    0    0    0  501  0.00000000000E+00  0.00000000000E+00 -0.11802285812E+04  0.11802285812E+04  0.25500000920E-02 0.  1.
    10030    2    1    2    0    0  0.00000000000E+00  0.00000000000E+00  0.11522131590E+04  0.35126703214E+04  0.33183215069E+04 0.  0.
        4    1    3    3  502    0 -0.15725686202E+04 -0.10290057618E+03  0.11253926161E+04  0.19365099399E+04  0.12699999809E+01 0. -1.
       -4    1    3    3    0  502  0.15725686202E+04  0.10290057618E+03  0.26820542948E+02  0.15761603815E+04  0.12699999809E+01 0.  1.
</event>
<event>
 5   0  0.2574803E-06  0.3277731E+04  0.7818609E-02  0.8168585E-01
       -2   -1    0    0    0  501  0.00000000000E+00  0.00000000000E+00  0.30368743191E+04  0.30368743191E+04  0.25500000920E-02 0. -1.
        2   -1    0    0  501    0  0.00000000000E+00  0.00000000000E+00 -0.88442277724E+03  0.88442277724E+03  0.25500000920E-02 0.  1.
    10030    2    1    2    0    0  0.00000000000E+00  0.00000000000E+00  0.21524515419E+04  0.39212970964E+04  0.32777314225E+04 0.  0.
        4    1    3    3  502    0  0.11525818249E+04  0.41156201974E+03  0.23802147894E+04  0.26764252681E+04  0.12699999809E+01 0. -1.
       -4    1    3    3    0  502 -0.11525818249E+04 -0.41156201974E+03 -0.22776324748E+03  0.12448718283E+04  0.12699999809E+01 0.  1.
</event>
<event>
 5   0  0.9295663E-07  0.3263712E+04  0.7818609E-02  0.8172191E-01
       -1   -1    0    0    0  501  0.00000000000E+00  0.00000000000E+00  0.12437239643E+04  0.12437239643E+04  0.50400001928E-02 0. -1.
        1   -1    0    0  501    0  0.00000000000E+00  0.00000000000E+00 -0.21411136838E+04  0.21411136838E+04  0.50400001928E-02 0.  1.
    10030    2    1    2    0    0  0.00000000000E+00  0.00000000000E+00 -0.89738971951E+03  0.33848376481E+04  0.32637122415E+04 0.  0.
        4    1    3    3  502    0 -0.22170576066E+02 -0.14731904846E+04  0.27889060366E+03  0.14995210302E+04  0.12699999809E+01 0. -1.
       -4    1    3    3    0  502  0.22170576066E+02  0.14731904846E+04 -0.11762803232E+04  0.18853166179E+04  0.12699999809E+01 0.  1.
</event>
<event>
 5   0  0.8705956E-07  0.3275725E+04  0.7818609E-02  0.8169100E-01
       -1   -1    0    0    0  501  0.00000000000E+00  0.00000000000E+00  0.17803098199E+04  0.17803098200E+04  0.50400001928E-02 0.  1.
        1   -1    0    0  501    0  0.00000000000E+00  0.00000000000E+00 -0.15068126608E+04  0.15068126608E+04  0.50400001928E-02 0. -1.
    10030    2    1    2    0    0  0.00000000000E+00  0.00000000000E+00  0.27349715914E+03  0.32871224808E+04  0.32757248828E+04 0.  0.
        2    1    3    3  502    0  0.51339267685E+03 -0.96434161950E+03 -0.10877704108E+04  0.15416780684E+04  0.25500000920E-02 0. -1.
       -2    1    3    3    0  502 -0.51339267685E+03  0.96434161950E+03  0.13612675700E+04  0.17454444124E+04  0.25500000920E-02 0.  1.
</event>
<event>
 5   0  0.2658600E-06  0.3326243E+04  0.7818609E-02  0.8156250E-01
       -2   -1    0    0    0  501  0.00000000000E+00  0.00000000000E+00  0.13595683594E+04  0.13595683594E+04  0.25500000920E-02 0. -1.
        2   -1    0    0  501    0  0.00000000000E+00  0.00000000000E+00 -0.20344497332E+04  0.20344497332E+04  0.25500000920E-02 0.  1.
    10030    2    1    2    0    0  0.00000000000E+00  0.00000000000E+00 -0.67488137386E+03  0.33940180926E+04  0.33262432179E+04 0.  0.
        5    1    3    3  502    0  0.29835230554E+03 -0.10924998439E+04  0.90531730305E+03  0.14498936224E+04  0.46999998093E+01 0. -1.
       -5    1    3    3    0  502 -0.29835230554E+03  0.10924998439E+04 -0.15801986769E+04  0.19441244702E+04  0.46999998093E+01 0.  1.
</event>
<event>
 5   0  0.2658600E-06  0.3236110E+04  0.7818609E-02  0.8179345E-01
        2   -1    0    0  501    0  0.00000000000E+00  0.00000000000E+00  0.16713068945E+04  0.16713068945E+04  0.25500000920E-02 0. -1.
       -2   -1    0    0    0  501  0.00000000000E+00  0.00000000000E+00 -0.15664995366E+04  0.15664995366E+04  0.25500000920E-02 0.  1.
    10030    2    1    2    0    0  0.00000000000E+00  0.00000000000E+00  0.10480735796E+03  0.32378064311E+04  0.32361096865E+04 0.  0.
        5    1    3    3  502    0 -0.72960681908E+03  0.10265397429E+04 -0.96398791468E+03  0.15860027566E+04  0.46999998093E+01 0.  1.
       -5    1    3    3    0  502  0.72960681908E+03 -0.10265397429E+04  0.10687952726E+04  0.16518036745E+04  0.46999998093E+01 0. -1.
</event>
<event>
 5   0  0.9530268E-07  0.3302914E+04  0.7818609E-02  0.8162154E-01
        1   -1    0    0  501    0  0.00000000000E+00  0.00000000000E+00  0.28977642591E+04  0.28977642591E+04  0.50400001928E-02 0.  1.
       -1   -1    0    0    0  501  0.00000000000E+00  0.00000000000E+00 -0.94117729884E+03  0.94117729885E+03  0.50400001928E-02 0. -1.
    10030    2    1    2    0    0  0.00000000000E+00  0.00000000000E+00  0.19565869603E+04  0.38389415580E+04  0.33029138276E+04 0.  0.
        5    1    3    3  502    0  0.93449337832E+02  0.10232979073E+04 -0.52435222772E+03  0.11536198397E+04  0.46999998093E+01 0. -1.
       -5    1    3    3    0  502 -0.93449337832E+02 -0.10232979073E+04  0.24809391880E+04  0.26853217182E+04  0.46999998093E+01 0.  1.
</event>
<event>
 5   0  0.2614212E-06  0.3320295E+04  0.7818609E-02  0.8157750E-01
       -2   -1    0    0    0  501  0.00000000000E+00  0.00000000000E+00  0.19022792331E+04  0.19022792331E+04  0.25500000920E-02 0. -1.
        2   -1    0    0  501    0  0.00000000000E+00  0.00000000000E+00 -0.14488354650E+04  0.14488354650E+04  0.25500000920E-02 0.  1.
    10030    2    1    2    0    0  0.00000000000E+00  0.00000000000E+00  0.45344376818E+03  0.33511146981E+04  0.33202949371E+04 0.  0.
        2    1    3    3  502    0 -0.15876173674E+04 -0.31207621449E+01  0.71656282476E+03  0.17418383755E+04  0.25500000920E-02 0.  1.
       -2    1    3    3    0  502  0.15876173674E+04  0.31207621449E+01 -0.26311905658E+03  0.16092763226E+04  0.25500000920E-02 0. -1.
</event>
<event>
 5   0  0.9295663E-07  0.3205436E+04  0.7818609E-02  0.8187383E-01
       -1   -1    0    0    0  501  0.00000000000E+00  0.00000000000E+00  0.23601785189E+04  0.23601785189E+04  0.50400001928E-02 0.  1.
        1   -1    0    0  501    0  0.00000000000E+00  0.00000000000E+00 -0.10883518389E+04  0.10883518389E+04  0.50400001928E-02 0. -1.
    10030    2    1    2    0    0  0.00000000000E+00  0.00000000000E+00  0.12718266800E+04  0.34485303578E+04  0.32054357776E+04 0.  0.
        4    1    3    3  502    0 -0.12102893905E+04  0.57221824071E+03  0.15839147968E+04  0.20738905034E+04  0.12699999809E+01 0.  1.
       -4    1    3    3    0  502  0.12102893905E+04 -0.57221824071E+03 -0.31208811674E+03  0.13746398544E+04  0.12699999809E+01 0. -1.
</event>
<event>
 5   0  0.2674551E-06  0.2488620E+04  0.7818609E-02  0.8407051E-01
       -2   -1    0    0    0  501  0.00000000000E+00  0.00000000000E+00  0.94776819541E+03  0.94776819541E+03  0.25500000920E-02 0.  1.
        2   -1    0    0  501    0  0.00000000000E+00  0.00000000000E+00 -0.16336349245E+04  0.16336349245E+04  0.25500000920E-02 0. -1.
    10030    2    1    2    0    0  0.00000000000E+00  0.00000000000E+00 -0.68586672912E+03  0.25814031199E+04  0.24886198781E+04 0.  0.
        3    1    3    3  502    0  0.68157359574E+03  0.46939875812E+03 -0.13067861229E+04  0.15467927274E+04  0.10100000352E+00 0. -1.
       -3    1    3    3    0  502 -0.68157359574E+03 -0.46939875812E+03  0.62091939375E+03  0.10346103925E+04  0.10100000352E+00 0.  1.
</event>
<event>
 5   0  0.8520125E-07  0.3332180E+04  0.7818609E-02  0.8154755E-01
        4   -1    0    0  501    0  0.00000000000E+00  0.00000000000E+00  0.12029263525E+04  0.12029270229E+04  0.12699999809E+01 0. -1.
       -4   -1    0    0    0  501  0.00000000000E+00  0.00000000000E+00 -0.23075850688E+04  0.23075854183E+04  0.12699999809E+01 0.  1.
    10030    2    1    2    0    0  0.00000000000E+00  0.00000000000E+00 -0.11046587163E+04  0.35105124413E+04  0.33321804754E+04 0.  0.
        5    1    3    3  502    0  0.20203611322E+03  0.12406370156E+04  0.59973774481E+03  0.13927333729E+04  0.46999998093E+01 0. -1.
       -5    1    3    3    0  502 -0.20203611322E+03 -0.12406370156E+04 -0.17043964611E+04  0.21177790683E+04  0.46999998093E+01 0.  1.
</event>
<event>
 5   0  0.2614212E-06  0.2730810E+04  0.7818609E-02  0.8325077E-01
        2   -1    0    0  501    0  0.00000000000E+00  0.00000000000E+00  0.12523075698E+04  0.12523075698E+04  0.25500000920E-02 0.  1.
       -2   -1    0    0    0  501  0.00000000000E+00  0.00000000000E+00 -0.14887167365E+04  0.14887167365E+04  0.25500000920E-02 0. -1.
    10030    2    1    2    0    0  0.00000000000E+00  0.00000000000E+00 -0.23640916665E+03  0.27410243063E+04  0.27308103108E+04 0.  0.
        2    1    3    3  502    0  0.89210390438E+03 -0.46757295346E+03  0.80712059952E+03  0.12907042671E+04  0.25500000920E-02 0.  1.
       -2    1    3    3    0  502 -0.89210390438E+03  0.46757295346E+03 -0.10435297662E+04  0.14503200391E+04  0.25500000920E-02 0. -1.
</event>
<event>
 5   0  0.9268670E-07  0.3359383E+04  0.7818609E-02  0.8147948E-01
        1   -1    0    0  501    0  0.00000000000E+00  0.00000000000E+00  0.13052515781E+04  0.13052515781E+04  0.50400001928E-02 0. -1.
       -1   -1    0    0    0  501  0.00000000000E+00  0.00000000000E+00 -0.21615473815E+04  0.21615473815E+04  0.50400001928E-02 0.  1.
    10030    2    1    2    0    0  0.00000000000E+00  0.00000000000E+00 -0.85629580349E+03  0.34667989596E+04  0.33593827593E+04 0.  0.
        3    1    3    3  502    0  0.11526084726E+03 -0.10015086261E+04 -0.18146317442E+04  0.20758595733E+04  0.10100000352E+00 0.  1.
       -3    1    3    3    0  502 -0.11526084726E+03  0.10015086261E+04  0.95833594068E+03  0.13909393863E+04  0.10100000352E+00 0. -1.
</event>
<event>
 5   0  0.2614212E-06  0.3430010E+04  0.7818609E-02  0.8130580E-01
       -2   -1    0    0    0  501  0.00000000000E+00  0.00000000000E+00  0.14055654580E+04  0.14055654580E+04  0.25500000920E-02 0. -1.
        2   -1    0    0  501    0  0.00000000000E+00  0.00000000000E+00 -0.20925691193E+04  0.20925691193E+04  0.25500000920E-02 0.  1.
    10030    2    1    2    0    0  0.00000000000E+00  0.00000000000E+00 -0.68700366128E+03  0.34981345772E+04  0.34300104212E+04 0.  0.
        2    1    3    3  502    0  0.49674848012E+03  0.22901743465E+03  0.13142149869E+04  0.14235059079E+04  0.25500000920E-02 0. -1.
       -2    1    3    3    0  502 -0.49674848012E+03 -0.22901743465E+03 -0.20012186482E+04  0.20746286694E+04  0.25500000920E-02 0.  1.
</event>
<event>
 5   0  0.9530268E-07  0.2939333E+04  0.7818609E-02  0.8261270E-01
        1   -1    0    0  501    0  0.00000000000E+00  0.00000000000E+00  0.15243843854E+04  0.15243843854E+04  0.50400001928E-02 0.  1.
       -1   -1    0    0    0  501  0.00000000000E+00  0.00000000000E+00 -0.14169127374E+04  0.14169127374E+04  0.50400001928E-02 0. -1.
    10030    2    1    2    0    0  0.00000000000E+00  0.00000000000E+00  0.10747164800E+03  0.29412971228E+04  0.29393330211E+04 0.  0.
        5    1    3    3  502    0  0.12200065219E+04  0.81943976459E+03  0.54083848019E+02  0.14706612778E+04  0.46999998093E+01 0. -1.
       -5    1    3    3    0  502 -0.12200065219E+04 -0.81943976459E+03  0.53387799985E+02  0.14706358450E+04  0.46999998093E+01 0.  1.
</event>
<event>
 5   0  0.9295663E-07  0.3417668E+04  0.7818609E-02  0.8133584E-01
       -1   -1    0    0    0  501  0.00000000000E+00  0.00000000000E+00  0.11661884953E+04  0.11661884954E+04  0.50400001928E-02 0. -1.
        1   -1    0    0  501    0  0.00000000000E+00  0.00000000000E+00 -0.25039810981E+04  0.25039810981E+04  0.50400001928E-02 0.  1.
    10030    2    1    2    0    0  0.00000000000E+00  0.00000000000E+00 -0.13377926027E+04  0.36701695934E+04  0.34176681812E+04 0.  0.
        4    1    3    3  502    0 -0.12118661526E+04 -0.42052866598E+02  0.62410496471E+03  0.13637802739E+04  0.12699999809E+01 0. -1.
       -4    1    3    3    0  502  0.12118661526E+04  0.42052866598E+02 -0.19618975674E+04  0.23063893196E+04  0.12699999809E+01 0.  1.
</event>
<event>
 5   0  0.2674551E-06  0.3297974E+04  0.7818609E-02  0.8163411E-01
        2   -1    0    0  501    0  0.00000000000E+00  0.00000000000E+00  0.18764859598E+04  0.18764859598E+04  0.25500000920E-02 0.  1.
       -2   -1    0    0    0  501  0.00000000000E+00  0.00000000000E+00 -0.14490690548E+04  0.14490690548E+04  0.25500000920E-02 0. -1.
    10030    2    1    2    0    0  0.00000000000E+00  0.00000000000E+00  0.42741690501E+03  0.33255550146E+04  0.32979737635E+04 0.  0.
        3    1    3    3  502    0  0.15626402827E+04  0.47673990373E+03  0.43925774365E+03  0.16917662263E+04  0.10100000352E+00 0.  1.
       -3    1    3    3    0  502 -0.15626402827E+04 -0.47673990373E+03 -0.11840838644E+02  0.16337887883E+04  0.10100000352E+00 0. -1.
</event>
<event>
 5   0  0.9268670E-07  0.3283217E+04  0.7818609E-02  0.8167179E-01
       -1   -1    0    0    0  501  0.00000000000E+00  0.00000000000E+00  0.19640570211E+04  0.19640570211E+04  0.50400001928E-02 0.  1.
        1   -1    0    0  501    0  0.00000000000E+00  0.00000000000E+00 -0.13720981813E+04  0.13720981813E+04  0.50400001928E-02 0. -1.
    10030    2    1    2    0    0  0.00000000000E+00  0.00000000000E+00  0.59195883981E+03  0.33361552024E+04  0.32832173651E+04 0.  0.
        3    1    3    3  502    0 -0.11904202999E+04  0.10569913927E+04  0.70312407518E+03  0.17403203067E+04  0.10100000352E+00 0.  1.
       -3    1    3    3    0  502  0.11904202999E+04 -0.10569913927E+04 -0.11116523537E+03  0.15958348957E+04  0.10100000352E+00 0. -1.
</event>
<event>
 5   0  0.8705956E-07  0.3279040E+04  0.7818609E-02  0.8168249E-01
       -1   -1    0    0    0  501  0.00000000000E+00  0.00000000000E+00  0.11706571435E+04  0.11706571435E+04  0.50400001928E-02 0. -1.
        1   -1    0    0  501    0  0.00000000000E+00  0.00000000000E+00 -0.22961678848E+04  0.22961678848E+04  0.50400001928E-02 0.  1.
    10030    2    1    2    0    0  0.00000000000E+00  0.00000000000E+00 -0.11255107413E+04  0.34668250283E+04  0.32790396990E+04 0.  0.
        2    1    3    3  502    0 -0.63524977971E+03 -0.15076883730E+04 -0.45007404807E+03  0.16968303279E+04  0.25500000920E-02 0.  1.
       -2    1    3    3    0  502  0.63524977971E+03  0.15076883730E+04 -0.67543669324E+03  0.17699947004E+04  0.25500000920E-02 0. -1.
</event>
<event>
 5   0  0.8705956E-07  0.3276279E+04  0.7818609E-02  0.8168958E-01
        1   -1    0    0  501    0  0.00000000000E+00  0.00000000000E+00  0.19944889137E+04  0.19944889138E+04  0.50400001928E-02 0.  1.
       -1   -1    0    0    0  501  0.00000000000E+00  0.00000000000E+00 -0.13454579126E+04  0.13454579126E+04  0.50400001928E-02 0. -1.
    10030    2    1    2    0    0  0.00000000000E+00  0.00000000000E+00  0.64903100118E+03  0.33399468263E+04  0.32762789201E+04 0.  0.
        2    1    3    3  502    0  0.84136183746E+03 -0.12746760152E+04 -0.27928856432E+03  0.15526399414E+04  0.25500000920E-02 0. -1.
       -2    1    3    3    0  502 -0.84136183746E+03  0.12746760152E+04  0.92831956550E+03  0.17873068850E+04  0.25500000920E-02 0.  1.
</event>
<event>
 5   0  0.2574803E-06  0.3124013E+04  0.7818609E-02  0.8209178E-01
       -2   -1    0    0    0  501  0.00000000000E+00  0.00000000000E+00  0.13003353717E+04  0.13003353717E+04  0.25500000920E-02 0.  1.
        2   -1    0    0  501    0  0.00000000000E+00  0.00000000000E+00 -0.18763347636E+04  0.18763347636E+04  0.25500000920E-02 0. -1.
    10030    2    1    2    0    0  0.00000000000E+00  0.00000000000E+00 -0.57599939193E+03  0.31766701352E+04  0.31240130999E+04 0.  0.
        4    1    3    3  502    0  0.15114471244E+03  0.12052668764E+04 -0.12865652702E+04  0.17693967262E+04  0.12699999809E+01 0. -1.
       -4    1    3    3    0  502 -0.15114471244E+03 -0.12052668764E+04  0.71056587828E+03  0.14072734090E+04  0.12699999809E+01 0.  1.
</event>
<event>
 5   0  0.8845526E-07  0.3265581E+04  0.7818609E-02  0.8171709E-01
        1   -1    0    0  501    0  0.00000000000E+00  0.00000000000E+00  0.25897736455E+04  0.25897736455E+04  0.50400001928E-02 0. -1.
       -1   -1    0    0    0  501  0.00000000000E+00  0.00000000000E+00 -0.10294352688E+04  0.10294352689E+04  0.50400001928E-02 0.  1.
    10030    2    1    2    0    0  0.00000000000E+00  0.00000000000E+00  0.15603383767E+04  0.36192089144E+04  0.32655807012E+04 0.  0.
        1    1    3    3  502    0  0.14011768619E+04  0.50907412732E+03  0.42052299345E+02  0.14913823994E+04  0.50400001928E-02 0. -1.
       -1    1    3    3    0  502 -0.14011768619E+04 -0.50907412732E+03  0.15182860773E+04  0.21278265150E+04  0.50400001928E-02 0.  1.
</event>
<event>
 5   0  0.8845526E-07  0.3341863E+04  0.7818609E-02  0.8152324E-01
       -1   -1    0    0    0  501  0.00000000000E+00  0.00000000000E+00  0.17826439917E+04  0.17826439917E+04  0.50400001928E-02 0.  1.
        1   -1    0    0  501    0  0.00000000000E+00  0.00000000000E+00 -0.15662200511E+04  0.15662200511E+04  0.50400001928E-02 0. -1.
    10030    2    1    2    0    0  0.00000000000E+00  0.00000000000E+00  0.21642394059E+03  0.33488640428E+04  0.33418634106E+04 0.  0.
        1    1    3    3  502    0 -0.81867499608E+03  0.14217544841E+04  0.42573248341E+03  0.16949521261E+04  0.50400001928E-02 0. -1.
       -1    1    3    3    0  502  0.81867499608E+03 -0.14217544841E+04 -0.20930854283E+03  0.16539119168E+04  0.50400001928E-02 0.  1.
</event>
<event>
 5   0  0.2658600E-06  0.3320822E+04  0.7818609E-02  0.8157617E-01
        2   -1    0    0  501    0  0.00000000000E+00  0.00000000000E+00  0.20366716711E+04  0.20366716711E+04  0.25500000920E-02 0.  1.
       -2   -1    0    0    0  501  0.00000000000E+00  0.00000000000E+00 -0.13536616666E+04  0.13536616666E+04  0.25500000920E-02 0. -1.
    10030    2    1    2    0    0  0.00000000000E+00  0.00000000000E+00  0.68301000454E+03  0.33903333377E+04  0.33208218071E+04 0.  0.
        5    1    3    3  502    0  0.16224296609E+04  0.19209400122E+03  0.64395629800E+03  0.17560979226E+04  0.46999998093E+01 0.  1.
       -5    1    3    3    0  502 -0.16224296609E+04 -0.19209400122E+03  0.39053706541E+02  0.16342354151E+04  0.46999998093E+01 0. -1.
</event>
<event>
 5   0  0.2705859E-06  0.3313666E+04  0.7818609E-02  0.8159427E-01
       -2   -1    0    0    0  501  0.00000000000E+00  0.00000000000E+00  0.11622961596E+04  0.11622961596E+04  0.25500000920E-02 0.  1.
        2   -1    0    0  501    0  0.00000000000E+00  0.00000000000E+00 -0.23617866600E+04  0.23617866600E+04  0.25500000920E-02 0. -1.
    10030    2    1    2    0    0  0.00000000000E+00  0.00000000000E+00 -0.11994905003E+04  0.35240828196E+04  0.33136659849E+04 0.  0.
        1    1    3    3  502    0  0.10795517344E+04 -0.69125241455E+03  0.51659197147E+03  0.13820742067E+04  0.50400001928E-02 0.  1.
       -1    1    3    3    0  502 -0.10795517344E+04  0.69125241455E+03 -0.17160824718E+04  0.21420086129E+04  0.50400001928E-02 0. -1.
</event>
<event>
 5   0  0.2705859E-06  0.3280074E+04  0.7818609E-02  0.8167984E-01
        2   -1    0    0  501    0  0.00000000000E+00  0.00000000000E+00  0.21517718777E+04  0.21517718777E+04  0.25500000920E-02 0. -1.
       -2   -1    0    0    0  501  0.00000000000E+00  0.00000000000E+00 -0.12500027071E+04  0.12500027071E+04  0.25500000920E-02 0.  1.
    10030    2    1    2    0    0  0.00000000000E+00  0.00000000000E+00  0.90176917059E+03  0.34017745848E+04  0.32800735798E+04 0.  0.
        1    1    3    3  502    0 -0.57172173285E+03  0.15115598803E+04  0.74060906882E+03  0.17776897379E+04  0.50400001928E-02 0. -1.
       -1    1    3    3    0  502  0.57172173285E+03 -0.15115598803E+04  0.16116010178E+03  0.16240848469E+04  0.50400001928E-02 0.  1.
</event>
<event>
 5   0  0.9268670E-07  0.3313579E+04  0.7818609E-02  0.8159449E-01
        1   -1    0    0  501    0  0.00000000000E+00  0.00000000000E+00  0.15157662900E+04  0.15157662900E+04  0.50400001928E-02 0. -1.
       -1   -1    0    0    0  501  0.00000000000E+00  0.00000000000E+00 -0.18109331049E+04  0.18109331050E+04  0.50400001928E-02 0.  1.
    10030    2    1    2    0    0  0.00000000000E+00  0.00000000000E+00 -0.29516681499E+03  0.33266993949E+04  0.33135789436E+04 0.  0.
        3    1    3    3  502    0 -0.65293617379E+03 -0.44162614260E+03  0.13154417108E+04  0.15335404141E+04  0.10100000352E+00 0. -1.
       -3    1    3    3    0  502  0.65293617379E+03  0.44162614260E+03 -0.16106085258E+04  0.17931589808E+04  0.10100000352E+00 0.  1.
</event>
<event>
 5   0  0.2658600E-06  0.3307714E+04  0.7818609E-02  0.8160935E-01
       -2   -1    0    0    0  501  0.00000000000E+00  0.00000000000E+00  0.11107686068E+04  0.11107686068E+04  0.25500000920E-02 0.  1.
        2   -1    0    0  501    0  0.00000000000E+00  0.00000000000E+00 -0.24624770757E+04  0.24624770757E+04  0.25500000920E-02 0. -1.
    10030    2    1    2    0    0  0.00000000000E+00  0.00000000000E+00 -0.13517084689E+04  0.35732456826E+04  0.33077135491E+04 0.  0.
        5    1    3    3  502    0 -0.55379714858E+03  0.11931455594E+04  0.40708337945E+03  0.13769628083E+04  0.46999998093E+01 0.  1.
       -5    1    3    3    0  502  0.55379714858E+03 -0.11931455594E+04 -0.17587918484E+04  0.21962828742E+04  0.46999998093E+01 0. -1.
</event>
<event>
 5   0  0.2614212E-06  0.3278578E+04  0.7818609E-02  0.8168368E-01
       -2   -1    0    0    0  501  0.00000000000E+00  0.00000000000E+00  0.21303074482E+04  0.21303074482E+04  0.25500000920E-02 0. -1.
        2   -1    0    0  501    0  0.00000000000E+00  0.00000000000E+00 -0.12614466285E+04  0.12614466285E+04  0.25500000920E-02 0.  1.
    10030    2    1    2    0    0  0.00000000000E+00  0.00000000000E+00  0.86886081974E+03  0.33917540767E+04  0.32785784408E+04 0.  0.
        2    1    3    3  502    0  0.13038168444E+04  0.79349920852E+02  0.14590930206E+04  0.19583634026E+04  0.25500000920E-02 0. -1.
       -2    1    3    3    0  502 -0.13038168444E+04 -0.79349920852E+02 -0.59023220088E+03  0.14333906741E+04  0.25500000920E-02 0.  1.
</event>
<event>
 5   0  0.9530268E-07  0.3334966E+04  0.7818609E-02  0.8154055E-01
       -1   -1    0    0    0  501  0.00000000000E+00  0.00000000000E+00  0.26036829237E+04  0.26036829237E+04  0.50400001928E-02 0. -1.
        1   -1    0    0  501    0  0.00000000000E+00  0.00000000000E+00 -0.10679103964E+04  0.10679103964E+04  0.50400001928E-02 0.  1.
    10030    2    1    2    0    0  0.00000000000E+00  0.00000000000E+00  0.15357725273E+04  0.36715933201E+04  0.33349663045E+04 0.  0.
        5    1    3    3  502    0  0.11808287483E+04  0.69080285165E+03  0.18174872858E+04  0.22748290566E+04  0.46999998093E+01 0. -1.
       -5    1    3    3    0  502 -0.11808287483E+04 -0.69080285165E+03 -0.28171475854E+03  0.13967642635E+04  0.46999998093E+01 0.  1.
</event>
<event>
 5   0  0.2705859E-06  0.3276241E+04  0.7818609E-02  0.8168967E-01
        2   -1    0    0  501    0  0.00000000000E+00  0.00000000000E+00  0.21510020786E+04  0.21510020786E+04  0.25500000920E-02 0. -1.
       -2   -1    0    0    0  501  0.00000000000E+00  0.00000000000E+00 -0.12475294212E+04  0.12475294212E+04  0.25500000920E-02 0.  1.
    10030    2    1    2    0    0  0.00000000000E+00  0.00000000000E+00  0.90347265736E+03  0.33985314998E+04  0.32762407593E+04 0.  0.
        1    1    3    3  502    0 -0.11250710929E+04 -0.11741811985E+04  0.24700704583E+03  0.16448400931E+04  0.50400001928E-02 0.  1.
       -1    1    3    3    0  502  0.11250710929E+04  0.11741811985E+04  0.65646561153E+03  0.17536914068E+04  0.50400001928E-02 0. -1.
</event>
<event>
 5   0  0.2574803E-06  0.3280354E+04  0.7818609E-02  0.8167912E-01
        2   -1    0    0  501    0  0.00000000000E+00  0.00000000000E+00  0.12209363231E+04  0.12209363231E+04  0.25500000920E-02 0.  1.
       -2   -1    0    0    0  501  0.00000000000E+00  0.00000000000E+00 -0.22033749011E+04  0.22033749011E+04  0.25500000920E-02 0. -1.
    10030    2    1    2    0    0  0.00000000000E+00  0.00000000000E+00 -0.98243857801E+03  0.34243112243E+04  0.32803539140E+04 0.  0.
        4    1    3    3  502    0 -0.16210764422E+04 -0.17768159319E+03 -0.30825855895E+03  0.16596639817E+04  0.12699999809E+01 0.  1.
       -4    1    3    3    0  502  0.16210764422E+04  0.17768159319E+03 -0.67418001906E+03  0.17646472426E+04  0.12699999809E+01 0. -1.
</event>
<event>
 5   0  0.2705859E-06  0.3234337E+04  0.7818609E-02  0.8179807E-01
       -2   -1    0    0    0  501  0.00000000000E+00  0.00000000000E+00  0.28725770298E+04  0.28725770298E+04  0.25500000920E-02 0.  1.
        2   -1    0    0  501    0  0.00000000000E+00  0.00000000000E+00 -0.91041369335E+03  0.91041369335E+03  0.25500000920E-02 0. -1.
    10030    2    1    2    0    0  0.00000000000E+00  0.00000000000E+00  0.19621633365E+04  0.37829907232E+04  0.32343366944E+04 0.  0.
        1    1    3    3  502    0  0.60764826946E+03 -0.12651908827E+04  0.41515859468E+02  0.14041609436E+04  0.50400001928E-02 0.  1.
       -1    1    3    3    0  502 -0.60764826946E+03  0.12651908827E+04  0.19206474770E+04  0.23788297795E+04  0.50400001928E-02 0. -1.
</event>
<event>
 5   0  0.2614212E-06  0.3286379E+04  0.7818609E-02  0.8166370E-01
       -2   -1    0    0    0  501  0.00000000000E+00  0.00000000000E+00  0.11494542718E+04  0.11494542718E+04  0.25500000920E-02 0. -1.
        2   -1    0    0  501    0  0.00000000000E+00  0.00000000000E+00 -0.23490028283E+04  0.23490028283E+04  0.25500000920E-02 0.  1.
    10030    2    1    2    0    0  0.00000000000E+00  0.00000000000E+00 -0.11995485566E+04  0.34984571001E+04  0.32863787581E+04 0.  0.
        2    1    3    3  502    0 -0.10994648547E+03 -0.14890124376E+04 -0.13302213059E+04  0.19996837229E+04  0.25500000920E-02 0.  1.
       -2    1    3    3    0  502  0.10994648547E+03  0.14890124376E+04  0.13067274930E+03  0.14987733772E+04  0.25500000920E-02 0. -1.
</event>
<event>
 5   0  0.8705956E-07  0.3252054E+04  0.7818609E-02  0.8175204E-01
        1   -1    0    0  501    0  0.00000000000E+00  0.00000000000E+00  0.18959137976E+04  0.18959137976E+04  0.50400001928E-02 0. -1.
       -1   -1    0    0    0  501  0.00000000000E+00  0.00000000000E+00 -0.13945586837E+04  0.13945586837E+04  0.50400001928E-02 0.  1.
    10030    2    1    2    0    0  0.00000000000E+00  0.00000000000E+00  0.50135511391E+03  0.32904724813E+04  0.32520535358E+04 0.  0.
        2    1    3    3  502    0  0.57338118562E+03 -0.46008183376E+03  0.17181639479E+04  0.18688308189E+04  0.25500000920E-02 0. -1.
       -2    1    3    3    0  502 -0.57338118562E+03  0.46008183376E+03 -0.12168088340E+04  0.14216416624E+04  0.25500000920E-02 0.  1.
</event>
<event>
 5   0  0.8705956E-07  0.3344447E+04  0.7818609E-02  0.8151677E-01
       -1   -1    0    0    0  501  0.00000000000E+00  0.00000000000E+00  0.13983948960E+04  0.13983948960E+04  0.50400001928E-02 0. -1.
        1   -1    0    0  501    0  0.00000000000E+00  0.00000000000E+00 -0.19996725786E+04  0.19996725786E+04  0.50400001928E-02 0.  1.
    10030    2    1    2    0    0  0.00000000000E+00  0.00000000000E+00 -0.60127768260E+03  0.33980674747E+04  0.33444472953E+04 0.  0.
        2    1    3    3  502    0  0.10084778818E+04 -0.72847186999E+03 -0.14359765184E+04  0.18999282789E+04  0.25500000920E-02 0.  1.
       -2    1    3    3    0  502 -0.10084778818E+04  0.72847186999E+03  0.83469883576E+03  0.14981391958E+04  0.25500000920E-02 0. -1.
</event>
<event>
 5   0  0.2705859E-06  0.3267436E+04  0.7818609E-02  0.8171231E-01
       -2   -1    0    0    0  501  0.00000000000E+00  0.00000000000E+00  0.14434917308E+04  0.14434917308E+04  0.25500000920E-02 0. -1.
        2   -1    0    0  501    0  0.00000000000E+00  0.00000000000E+00 -0.18490124107E+04  0.18490124107E+04  0.25500000920E-02 0.  1.
    10030    2    1    2    0    0  0.00000000000E+00  0.00000000000E+00 -0.40552067998E+03  0.32925041415E+04  0.32674357683E+04 0.  0.
        1    1    3    3  502    0 -0.15679104598E+03  0.14683787771E+04  0.50139595043E+03  0.15595247880E+04  0.50400001928E-02 0. -1.
       -1    1    3    3    0  502  0.15679104598E+03 -0.14683787771E+04 -0.90691663041E+03  0.17329793535E+04  0.50400001928E-02 0.  1.
</event>
<event>
 5   0  0.8845526E-07  0.3297592E+04  0.7818609E-02  0.8163508E-01
        1   -1    0    0  501    0  0.00000000000E+00  0.00000000000E+00  0.20243720849E+04  0.20243720849E+04  0.50400001928E-02 0.  1.
       -1   -1    0    0    0  501  0.00000000000E+00  0.00000000000E+00 -0.13428997515E+04  0.13428997515E+04  0.50400001928E-02 0. -1.
    10030    2    1    2    0    0  0.00000000000E+00  0.00000000000E+00  0.68147233347E+03  0.33672718364E+04  0.32975923155E+04 0.  0.
        1    1    3    3  502    0 -0.10468518682E+04 -0.10537592529E+04 -0.39008322660E+03  0.15357318518E+04  0.50400001928E-02 0. -1.
       -1    1    3    3    0  502  0.10468518682E+04  0.10537592529E+04  0.10715555601E+04  0.18315399846E+04  0.50400001928E-02 0.  1.
</event>
<event>
 5   0  0.9530268E-07  0.2914083E+04  0.7818609E-02  0.8268700E-01
        1   -1    0    0  501    0  0.00000000000E+00  0.00000000000E+00  0.13322023111E+04  0.13322023112E+04  0.50400001928E-02 0.  1.
       -1   -1    0    0    0  501  0.00000000000E+00  0.00000000000E+00 -0.15935790831E+04  0.15935790831E+04  0.50400001928E-02 0. -1.
    10030    2    1    2    0    0  0.00000000000E+00  0.00000000000E+00 -0.26137677194E+03  0.29257813943E+04  0.29140828660E+04 0.  0.
        5    1    3    3  502    0 -0.19019061663E+03  0.14434618607E+04 -0.18742216655E+03  0.14679590500E+04  0.46999998093E+01 0. -1.
       -5    1    3    3    0  502  0.19019061663E+03 -0.14434618607E+04 -0.73954605390E+02  0.14578223443E+04  0.46999998093E+01 0.  1.
</event>
<event>
 5   0  0.2705859E-06  0.3036473E+04  0.7818609E-02  0.8233392E-01
        2   -1    0    0  501    0  0.00000000000E+00  0.00000000000E+00  0.22219553361E+04  0.22219553361E+04  0.25500000920E-02 0. -1.
       -2   -1    0    0    0  501  0.00000000000E+00  0.00000000000E+00 -0.10373935884E+04  0.10373935884E+04  0.25500000920E-02 0.  1.
    10030    2    1    2    0    0  0.00000000000E+00  0.00000000000E+00  0.11845617477E+04  0.32593489244E+04  0.30364730984E+04 0.  0.
        1    1    3    3  502    0 -0.85664110194E+02  0.96465178015E+03  0.18473557379E+04  0.20858126999E+04  0.50400001928E-02 0. -1.
       -1    1    3    3    0  502  0.85664110194E+02 -0.96465178015E+03 -0.66279399022E+03  0.11735362245E+04  0.50400001928E-02 0.  1.
</event>
<event>
 5   0  0.9295663E-07  0.3292348E+04  0.7818609E-02  0.8164845E-01
       -1   -1    0    0    0  501  0.00000000000E+00  0.00000000000E+00  0.13000427427E+04  0.13000427427E+04  0.50400001928E-02 0. -1.
        1   -1    0    0  501    0  0.00000000000E+00  0.00000000000E+00 -0.20844610747E+04  0.20844610747E+04  0.50400001928E-02 0.  1.
    10030    2    1    2    0    0  0.00000000000E+00  0.00000000000E+00 -0.78441833200E+03  0.33845038174E+04  0.32923477900E+04 0.  0.
        4    1    3    3  502    0  0.80863253878E+03 -0.10893108093E+04 -0.13507258663E+04  0.19144050253E+04  0.12699999809E+01 0.  1.
       -4    1    3    3    0  502 -0.80863253878E+03  0.10893108093E+04  0.56630753433E+03  0.14700987921E+04  0.12699999809E+01 0. -1.
</event>
<event>
 5   0  0.2614212E-06  0.3291528E+04  0.7818609E-02  0.8165054E-01
       -2   -1    0    0    0  501  0.00000000000E+00  0.00000000000E+00  0.15785598709E+04  0.15785598709E+04  0.25500000920E-02 0. -1.
        2   -1    0    0  501    0  0.00000000000E+00  0.00000000000E+00 -0.17158290654E+04  0.17158290654E+04  0.25500000920E-02 0.  1.
    10030    2    1    2    0    0  0.00000000000E+00  0.00000000000E+00 -0.13726919447E+03  0.32943889363E+04  0.32915278567E+04 0.  0.
        2    1    3    3  502    0  0.15606550430E+04 -0.45887817116E+03 -0.31850249354E+03  0.16576058572E+04  0.25500000920E-02 0. -1.
       -2    1    3    3    0  502 -0.15606550430E+04  0.45887817116E+03  0.18123329907E+03  0.16367830791E+04  0.25500000920E-02 0.  1.
</event>
<event>
 5   0  0.9295663E-07  0.3266066E+04  0.7818609E-02  0.8171584E-01
        1   -1    0    0  501    0  0.00000000000E+00  0.00000000000E+00  0.12110916023E+04  0.12110916023E+04  0.50400001928E-02 0. -1.
       -1   -1    0    0    0  501  0.00000000000E+00  0.00000000000E+00 -0.22019780703E+04  0.22019780703E+04  0.50400001928E-02 0.  1.
    10030    2    1    2    0    0  0.00000000000E+00  0.00000000000E+00 -0.99088646799E+03  0.34130696726E+04  0.32660662268E+04 0.  0.
        4    1    3    3  502    0 -0.57886138536E+03 -0.93159127576E+03  0.76891127078E+03  0.13394659248E+04  0.12699999809E+01 0. -1.
       -4    1    3    3    0  502  0.57886138536E+03  0.93159127576E+03 -0.17597977388E+04  0.20736037478E+04  0.12699999809E+01 0.  1.
</event>
<event>
 5   0  0.8845526E-07  0.2966543E+04  0.7818609E-02  0.8253350E-01
       -1   -1    0    0    0  501  0.00000000000E+00  0.00000000000E+00  0.12608547224E+04  0.12608547224E+04  0.50400001928E-02 0. -1.
        1   -1    0    0  501    0  0.00000000000E+00  0.00000000000E+00 -0.17449230886E+04  0.17449230886E+04  0.50400001928E-02 0.  1.
    10030    2    1    2    0    0  0.00000000000E+00  0.00000000000E+00 -0.48406836615E+03  0.30057778110E+04  0.29665431172E+04 0.  0.
        1    1    3    3  502    0 -0.41897596884E+03  0.76232833093E+03 -0.14593434808E+04  0.16989316471E+04  0.50400001928E-02 0.  1.
       -1    1    3    3    0  502  0.41897596884E+03 -0.76232833093E+03  0.97527511468E+03  0.13068461638E+04  0.50400001928E-02 0. -1.
</event>
<event>
 5   0  0.2658600E-06  0.3559506E+04  0.7818609E-02  0.8099831E-01
       -2   -1    0    0    0  501  0.00000000000E+00  0.00000000000E+00  0.16589185743E+04  0.16589185743E+04  0.25500000920E-02 0. -1.
        2   -1    0    0  501    0  0.00000000000E+00  0.00000000000E+00 -0.19093887540E+04  0.19093887540E+04  0.25500000920E-02 0.  1.
    10030    2    1    2    0    0  0.00000000000E+00  0.00000000000E+00 -0.25047017973E+03  0.35683073284E+04  0.35595058476E+04 0.  0.
        5    1    3    3  502    0  0.86103353239E+03 -0.20455832945E+03  0.14226929295E+04  0.16754999599E+04  0.46999998093E+01 0. -1.
       -5    1    3    3    0  502 -0.86103353239E+03  0.20455832945E+03 -0.16731631092E+04  0.18928073685E+04  0.46999998093E+01 0.  1.
</event>
<event>
 5   0  0.9268670E-07  0.3225935E+04  0.7818609E-02  0.8182001E-01
        1   -1    0    0  501    0  0.00000000000E+00  0.00000000000E+00  0.26338799436E+04  0.26338799436E+04  0.50400001928E-02 0. -1.
       -1   -1    0    0    0  501  0.00000000000E+00  0.00000000000E+00 -0.98776893594E+03  0.98776893596E+03  0.50400001928E-02 0.  1.
    10030    2    1    2    0    0  0.00000000000E+00  0.00000000000E+00  0.16461110076E+04  0.36216488795E+04  0.32259353926E+04 0.  0.
        3    1    3    3  502    0 -0.11650445626E+04  0.94119535239E+03  0.14952385240E+04  0.21163449100E+04  0.10100000352E+00 0. -1.
       -3    1    3    3    0  502  0.11650445626E+04 -0.94119535239E+03  0.15087248364E+03  0.15053039695E+04  0.10100000352E+00 0.  1.
</event>
<event>
 5   0  0.9530268E-07  0.3182423E+04  0.7818609E-02  0.8193475E-01
       -1   -1    0    0    0  501  0.00000000000E+00  0.00000000000E+00  0.14462938697E+04  0.14462938697E+04  0.50400001928E-02 0. -1.
        1   -1    0    0  501    0  0.00000000000E+00  0.00000000000E+00 -0.17506500728E+04  0.17506500728E+04  0.50400001928E-02 0.  1.
    10030    2    1    2    0    0  0.00000000000E+00  0.00000000000E+00 -0.30435620303E+03  0.31969439425E+04  0.31824232706E+04 0.  0.
        5    1    3    3  502    0  0.87334074311E+03  0.50531617217E+03 -0.13881838618E+04  0.17161424800E+04  0.46999998093E+01 0.  1.
       -5    1    3    3    0  502 -0.87334074311E+03 -0.50531617217E+03  0.10838276588E+04  0.14808014625E+04  0.46999998093E+01 0. -1.
</event>
<event>
 5   0  0.2614212E-06  0.3267745E+04  0.7818609E-02  0.8171152E-01
       -2   -1    0    0    0  501  0.00000000000E+00  0.00000000000E+00  0.92905559739E+03  0.92905559740E+03  0.25500000920E-02 0.  1.
        2   -1    0    0  501    0  0.00000000000E+00  0.00000000000E+00 -0.28733901422E+04  0.28733901422E+04  0.25500000920E-02 0. -1.
    10030    2    1    2    0    0  0.00000000000E+00  0.00000000000E+00 -0.19443345449E+04  0.38024457396E+04  0.32677449075E+04 0.  0.
        2    1    3    3  502    0 -0.27839812624E+03 -0.11272092259E+04  0.36546722149E+03  0.12172396830E+04  0.25500000920E-02 0.  1.
       -2    1    3    3    0  502  0.27839812624E+03  0.11272092259E+04 -0.23098017663E+04  0.25852060567E+04  0.25500000920E-02 0. -1.
</event>
<event>
 5   0  0.2574803E-06  0.3082796E+04  0.7818609E-02  0.8220475E-01
       -2   -1    0    0    0  501  0.00000000000E+00  0.00000000000E+00  0.95572280787E+03  0.95572280787E+03  0.25500000920E-02 0.  1.
        2   -1    0    0  501    0  0.00000000000E+00  0.00000000000E+00 -0.24859792220E+04  0.24859792220E+04  0.25500000920E-02 0. -1.
    10030    2    1    2    0    0  0.00000000000E+00  0.00000000000E+00 -0.15302564141E+04  0.34417020298E+04  0.30827955121E+04 0.  0.
        4    1    3    3  502    0  0.10249687470E+03  0.49204636453E+03  0.86166828430E+03  0.99754151755E+03  0.12699999809E+01 0.  1.
       -4    1    3    3    0  502 -0.10249687470E+03 -0.49204636453E+03 -0.23919246984E+04  0.24441605123E+04  0.12699999809E+01 0. -1.
</event>
<event>
 5   0  0.9268670E-07  0.3248345E+04  0.7818609E-02  0.8176165E-01
        1   -1    0    0  501    0  0.00000000000E+00  0.00000000000E+00  0.15680998483E+04  0.15680998483E+04  0.50400001928E-02 0. -1.
       -1   -1    0    0    0  501  0.00000000000E+00  0.00000000000E+00 -0.16822499493E+04  0.16822499493E+04  0.50400001928E-02 0.  1.
    10030    2    1    2    0    0  0.00000000000E+00  0.00000000000E+00 -0.11415010095E+03  0.32503497976E+04  0.32483447418E+04 0.  0.
        3    1    3    3  502    0 -0.10237757531E+04 -0.12382251720E+04 -0.29516626684E+03  0.16335365024E+04  0.10100000352E+00 0. -1.
       -3    1    3    3    0  502  0.10237757531E+04  0.12382251720E+04  0.18101616589E+03  0.16168132953E+04  0.10100000352E+00 0.  1.
</event>
<event>
 5   0  0.2614212E-06  0.2436542E+04  0.7818609E-02  0.8425948E-01
        2   -1    0    0  501    0  0.00000000000E+00  0.00000000000E+00  0.13385980821E+04  0.13385980821E+04  0.25500000920E-02 0.  1.
       -2   -1    0    0    0  501  0.00000000000E+00  0.00000000000E+00 -0.11087605256E+04  0.11087605256E+04  0.25500000920E-02 0. -1.
    10030    2    1    2    0    0  0.00000000000E+00  0.00000000000E+00  0.22983755647E+03  0.24473586077E+04  0.24365423970E+04 0.  0.
        2    1    3    3  502    0  0.11612198907E+04 -0.35574864010E+03  0.18597390509E+02  0.12146335219E+04  0.25500000920E-02 0. -1.
       -2    1    3    3    0  502 -0.11612198907E+04  0.35574864010E+03  0.21124016596E+03  0.12327250859E+04  0.25500000920E-02 0.  1.
</event>
<event>
 5   0  0.2574803E-06  0.3270140E+04  0.7818609E-02  0.8170535E-01
       -2   -1    0    0    0  501  0.00000000000E+00  0.00000000000E+00  0.17088758454E+04  0.17088758454E+04  0.25500000920E-02 0.  1.
        2   -1    0    0  501    0  0.00000000000E+00  0.00000000000E+00 -0.15644515337E+04  0.15644515337E+04  0.25500000920E-02 0. -1.
    10030    2    1    2    0    0  0.00000000000E+00  0.00000000000E+00  0.14442431168E+03  0.32733273791E+04  0.32701397140E+04 0.  0.
        4    1    3    3  502    0 -0.14689310053E+04  0.59954292335E+03 -0.32344749614E+03  0.16192065683E+04  0.12699999809E+01 0.  1.
       -4    1    3    3    0  502  0.14689310053E+04 -0.59954292335E+03  0.46787180782E+03  0.16541208108E+04  0.12699999809E+01 0. -1.
</event>
<event>
 5   0  0.2674551E-06  0.3231401E+04  0.7818609E-02  0.8180573E-01
       -2   -1    0    0    0  501  0.00000000000E+00  0.00000000000E+00  0.11152052309E+04  0.11152052309E+04  0.25500000920E-02 0.  1.
        2   -1    0    0  501    0  0.00000000000E+00  0.00000000000E+00 -0.23408145183E+04  0.23408145183E+04  0.25500000920E-02 0. -1.
    10030    2    1    2    0    0  0.00000000000E+00  0.00000000000E+00 -0.12256092874E+04  0.34560197491E+04  0.32314013030E+04 0.  0.
        3    1    3    3  502    0 -0.15090781644E+04  0.57587370888E+03 -0.65479096369E+03  0.17428994954E+04  0.10100000352E+00 0. -1.
       -3    1    3    3    0  502  0.15090781644E+04 -0.57587370888E+03 -0.57081832368E+03  0.17131202537E+04  0.10100000352E+00 0.  1.
</event>
<event>
 5   0  0.9530268E-07  0.3321440E+04  0.7818609E-02  0.8157461E-01
        1   -1    0    0  501    0  0.00000000000E+00  0.00000000000E+00  0.18952383468E+04  0.18952383468E+04  0.50400001928E-02 0. -1.
       -1   -1    0    0    0  501  0.00000000000E+00  0.00000000000E+00 -0.14552215274E+04  0.14552215274E+04  0.50400001928E-02 0.  1.
    10030    2    1    2    0    0  0.00000000000E+00  0.00000000000E+00  0.44001681940E+03  0.33504598742E+04  0.33214404356E+04 0.  0.
        5    1    3    3  502    0  0.52318684646E+03  0.23291140340E+03 -0.13524561024E+04  0.14687177390E+04  0.46999998093E+01 0.  1.
       -5    1    3    3    0  502 -0.52318684646E+03 -0.23291140340E+03  0.17924729218E+04  0.18817421352E+04  0.46999998093E+01 0. -1.
</event>
<event>
 5   0  0.2614212E-06  0.3309315E+04  0.7818609E-02  0.8160529E-01
        2   -1    0    0  501    0  0.00000000000E+00  0.00000000000E+00  0.18266889163E+04  0.18266889163E+04  0.25500000920E-02 0.  1.
       -2   -1    0    0    0  501  0.00000000000E+00  0.00000000000E+00 -0.14988277351E+04  0.14988277351E+04  0.25500000920E-02 0. -1.
    10030    2    1    2    0    0  0.00000000000E+00  0.00000000000E+00  0.32786118127E+03  0.33255166514E+04  0.33093153438E+04 0.  0.
        2    1    3    3  502    0 -0.95978885360E+03 -0.73154404983E+03 -0.97366308914E+03  0.15506034798E+04  0.25500000920E-02 0. -1.
       -2    1    3    3    0  502  0.95978885360E+03  0.73154404983E+03  0.13015242704E+04  0.17749131716E+04  0.25500000920E-02 0.  1.
</event>
<event>
 5   0  0.8520125E-07  0.3350207E+04  0.7818609E-02  0.8150236E-01
       -3   -1    0    0    0  501  0.00000000000E+00  0.00000000000E+00  0.14991872955E+04  0.14991872989E+04  0.10100000352E+00 0.  1.
        3   -1    0    0  501    0  0.00000000000E+00  0.00000000000E+00 -0.18716616111E+04  0.18716616138E+04  0.10100000352E+00 0. -1.
    10030    2    1    2    0    0  0.00000000000E+00  0.00000000000E+00 -0.37247431560E+03  0.33708489127E+04  0.33502067513E+04 0.  0.
        5    1    3    3  502    0  0.11756254254E+04  0.49807650652E+03 -0.12772492950E+04  0.18059798445E+04  0.46999998093E+01 0. -1.
       -5    1    3    3    0  502 -0.11756254254E+04 -0.49807650652E+03  0.90477497943E+03  0.15648690682E+04  0.46999998093E+01 0.  1.
</event>
<event>
 5   0  0.9295663E-07  0.3287042E+04  0.7818609E-02  0.8166200E-01
        1   -1    0    0  501    0  0.00000000000E+00  0.00000000000E+00  0.15120971390E+04  0.15120971390E+04  0.50400001928E-02 0.  1.
       -1   -1    0    0    0  501  0.00000000000E+00  0.00000000000E+00 -0.17863677547E+04  0.17863677548E+04  0.50400001928E-02 0. -1.
    10030    2    1    2    0    0  0.00000000000E+00  0.00000000000E+00 -0.27427061579E+03  0.32984648937E+04  0.32870421787E+04 0.  0.
        4    1    3    3  502    0  0.12967712141E+04  0.71810041675E+02  0.87353283196E+03  0.15651943922E+04  0.12699999809E+01 0.  1.
       -4    1    3    3    0  502 -0.12967712141E+04 -0.71810041675E+02 -0.11478034477E+04  0.17332705015E+04  0.12699999809E+01 0. -1.
</event>
<event>
 5   0  0.2614212E-06  0.2939499E+04  0.7818609E-02  0.8261221E-01
        2   -1    0    0  501    0  0.00000000000E+00  0.00000000000E+00  0.93885767021E+03  0.93885767022E+03  0.25500000920E-02 0. -1.
       -2   -1    0    0    0  501  0.00000000000E+00  0.00000000000E+00 -0.23008423101E+04  0.23008423101E+04  0.25500000920E-02 0.  1.
    10030    2    1    2    0    0  0.00000000000E+00  0.00000000000E+00 -0.13619846399E+04  0.32396999803E+04  0.29394989034E+04 0.  0.
        2    1    3    3  502    0 -0.81102749929E+03 -0.88414641414E+03  0.25463656056E+03  0.12265073437E+04  0.25500000920E-02 0. -1.
       -2    1    3    3    0  502  0.81102749929E+03  0.88414641414E+03 -0.16166212004E+04  0.20131926366E+04  0.25500000920E-02 0.  1.
</event>
<event>
 5   0  0.9530268E-07  0.3345028E+04  0.7818609E-02  0.8151532E-01
        1   -1    0    0  501    0  0.00000000000E+00  0.00000000000E+00  0.11813256395E+04  0.11813256395E+04  0.50400001928E-02 0.  1.
       -1   -1    0    0    0  501  0.00000000000E+00  0.00000000000E+00 -0.23679357877E+04  0.23679357877E+04  0.50400001928E-02 0. -1.
    10030    2    1    2    0    0  0.00000000000E+00  0.00000000000E+00 -0.11866101482E+04  0.35492614273E+04  0.33450281068E+04 0.  0.
        5    1    3    3  502    0 -0.12299317833E+04 -0.43527318973E+03  0.51705126544E+03  0.14034097913E+04  0.46999998093E+01 0.  1.
       -5    1    3    3    0  502  0.12299317833E+04  0.43527318973E+03 -0.17036614136E+04  0.21458516360E+04  0.46999998093E+01 0. -1.
</event>
<event>
 5   0  0.9530268E-07  0.3290450E+04  0.7818609E-02  0.8165330E-01
        1   -1    0    0  501    0  0.00000000000E+00  0.00000000000E+00  0.12513627145E+04  0.12513627146E+04  0.50400001928E-02 0.  1.
       -1   -1    0    0    0  501  0.00000000000E+00  0.00000000000E+00 -0.21630542411E+04  0.21630542411E+04  0.50400001928E-02 0. -1.
    10030    2    1    2    0    0  0.00000000000E+00  0.00000000000E+00 -0.91169152658E+03  0.34144169557E+04  0.32904500767E+04 0.  0.
        5    1    3    3  502    0 -0.14543639087E+04 -0.55406458923E+03 -0.10094055022E+04  0.18550157697E+04  0.46999998093E+01 0. -1.
       -5    1    3    3    0  502  0.14543639087E+04  0.55406458923E+03  0.97713975575E+02  0.15594011860E+04  0.46999998093E+01 0.  1.
</event>
<event>
 5   0  0.9268670E-07  0.3281997E+04  0.7818609E-02  0.8167492E-01
       -1   -1    0    0    0  501  0.00000000000E+00  0.00000000000E+00  0.14652752080E+04  0.14652752080E+04  0.50400001928E-02 0. -1.
        1   -1    0    0  501    0  0.00000000000E+00  0.00000000000E+00 -0.18377948986E+04  0.18377948986E+04  0.50400001928E-02 0.  1.
    10030    2    1    2    0    0  0.00000000000E+00  0.00000000000E+00 -0.37251969064E+03  0.33030701066E+04  0.32819965279E+04 0.  0.
        3    1    3    3  502    0 -0.11399054466E+04  0.86543826167E+03  0.62170721463E+03  0.15604126643E+04  0.10100000352E+00 0. -1.
       -3    1    3    3    0  502  0.11399054466E+04 -0.86543826167E+03 -0.99422690527E+03  0.17426574423E+04  0.10100000352E+00 0.  1.
</event>
<event>
 5   0  0.8705956E-07  0.3293607E+04  0.7818609E-02  0.8164524E-01
       -1   -1    0    0    0  501  0.00000000000E+00  0.00000000000E+00  0.12072086880E+04  0.12072086880E+04  0.50400001928E-02 0. -1.
        1   -1    0    0  501    0  0.00000000000E+00  0.00000000000E+00 -0.22464727277E+04  0.22464727277E+04  0.50400001928E-02 0.  1.
    10030    2    1    2    0    0  0.00000000000E+00  0.00000000000E+00 -0.10392640397E+04  0.34536814158E+04  0.32936067733E+04 0.  0.
        2    1    3    3  502    0  0.13999069937E+04  0.26828158954E+03  0.34522393035E+03  0.14665927057E+04  0.25500000920E-02 0. -1.
       -2    1    3    3    0  502 -0.13999069937E+04 -0.26828158954E+03 -0.13844879701E+04  0.19870887101E+04  0.25500000920E-02 0.  1.
</event>
<event>
 5   0  0.2658600E-06  0.3337093E+04  0.7818609E-02  0.8153521E-01
       -2   -1    0    0    0  501  0.00000000000E+00  0.00000000000E+00  0.10582894160E+04  0.10582894160E+04  0.25500000920E-02 0.  1.
        2   -1    0    0  501    0  0.00000000000E+00  0.00000000000E+00 -0.26307047650E+04  0.26307047650E+04  0.25500000920E-02 0. -1.
    10030    2    1    2    0    0  0.00000000000E+00  0.00000000000E+00 -0.15724153490E+04  0.36889941810E+04  0.33370927523E+04 0.  0.
        5    1    3    3  502    0  0.74270918165E+03 -0.12557862811E+04 -0.16811516089E+04  0.22259624737E+04  0.46999998093E+01 0. -1.
       -5    1    3    3    0  502 -0.74270918165E+03  0.12557862811E+04  0.10873625993E+03  0.14630317073E+04  0.46999998093E+01 0.  1.
</event>
<event>
 5   0  0.9295663E-07  0.3332723E+04  0.7818609E-02  0.8154619E-01
       -1   -1    0    0    0  501  0.00000000000E+00  0.00000000000E+00  0.13846619247E+04  0.13846619247E+04  0.50400001928E-02 0.  1.
        1   -1    0    0  501    0  0.00000000000E+00  0.00000000000E+00 -0.20053702912E+04  0.20053702912E+04  0.50400001928E-02 0. -1.
    10030    2    1    2    0    0  0.00000000000E+00  0.00000000000E+00 -0.62070836647E+03  0.33900322159E+04  0.33327225430E+04 0.  0.
        4    1    3    3  502    0  0.13492193643E+04 -0.24688798108E+03  0.65217975237E+03  0.15187779991E+04  0.12699999809E+01 0.  1.
       -4    1    3    3    0  502 -0.13492193643E+04  0.24688798108E+03 -0.12728881188E+04  0.18712542169E+04  0.12699999809E+01 0. -1.
</event>
<event>
 5   0  0.9530268E-07  0.3300762E+04  0.7818609E-02  0.8162702E-01
       -1   -1    0    0    0  501  0.00000000000E+00  0.00000000000E+00  0.14059588400E+04  0.14059588400E+04  0.50400001928E-02 0.  1.
        1   -1    0    0  501    0  0.00000000000E+00  0.00000000000E+00 -0.19372952562E+04  0.19372952562E+04  0.50400001928E-02 0. -1.
    10030    2    1    2    0    0  0.00000000000E+00  0.00000000000E+00 -0.53133641626E+03  0.33432540962E+04  0.33007619673E+04 0.  0.
        5    1    3    3  502    0  0.15236100105E+04  0.23569680208E+03  0.33080576931E+03  0.15768306801E+04  0.46999998093E+01 0.  1.
       -5    1    3    3    0  502 -0.15236100105E+04 -0.23569680208E+03 -0.86214218557E+03  0.17664234161E+04  0.46999998093E+01 0. -1.
</event>
<event>
 5   0  0.2614212E-06  0.3321706E+04  0.7818609E-02  0.8157394E-01
       -2   -1    0    0    0  501  0.00000000000E+00  0.00000000000E+00  0.13853451666E+04  0.13853451667E+04  0.25500000920E-02 0. -1.
        2   -1    0    0  501    0  0.00000000000E+00  0.00000000000E+00 -0.19911522009E+04  0.19911522009E+04  0.25500000920E-02 0.  1.
    10030    2    1    2    0    0  0.00000000000E+00  0.00000000000E+00 -0.60580703421E+03  0.33764973675E+04  0.33217062348E+04 0.  0.
        2    1    3    3  502    0 -0.12826088971E+04 -0.10233230216E+04 -0.41449874064E+02  0.16413389904E+04  0.25500000920E-02 0.  1.
       -2    1    3    3    0  502  0.12826088971E+04  0.10233230216E+04 -0.56435716015E+03  0.17351583771E+04  0.25500000920E-02 0. -1.
</event>
<event>
 5   0  0.8705956E-07  0.3253106E+04  0.7818609E-02  0.8174931E-01
        1   -1    0    0  501    0  0.00000000000E+00  0.00000000000E+00  0.23875780395E+04  0.23875780395E+04  0.50400001928E-02 0. -1.
       -1   -1    0    0    0  501  0.00000000000E+00  0.00000000000E+00 -0.11080995418E+04  0.11080995418E+04  0.50400001928E-02 0.  1.
    10030    2    1    2    0    0  0.00000000000E+00  0.00000000000E+00  0.12794784977E+04  0.34956775813E+04  0.32531056740E+04 0.  0.
        2    1    3    3  502    0 -0.68378981962E+03  0.12727753458E+03 -0.94024081080E+03  0.11695387426E+04  0.25500000920E-02 0.  1.
       -2    1    3    3    0  502  0.68378981962E+03 -0.12727753458E+03  0.22197193085E+04  0.23261388387E+04  0.25500000920E-02 0. -1.
</event>
<event>
 5   0  0.2658600E-06  0.3306456E+04  0.7818609E-02  0.8161255E-01
       -2   -1    0    0    0  501  0.00000000000E+00  0.00000000000E+00  0.14212306752E+04  0.14212306752E+04  0.25500000920E-02 0. -1.
        2   -1    0    0  501    0  0.00000000000E+00  0.00000000000E+00 -0.19230959084E+04  0.19230959084E+04  0.25500000920E-02 0.  1.
    10030    2    1    2    0    0  0.00000000000E+00  0.00000000000E+00 -0.50186523312E+03  0.33443265836E+04  0.33064560462E+04 0.  0.
        5    1    3    3  502    0 -0.83956436275E+03  0.28116576066E+03  0.11612022215E+04  0.14602517568E+04  0.46999998093E+01 0. -1.
       -5    1    3    3    0  502  0.83956436275E+03 -0.28116576066E+03 -0.16630674546E+04  0.18840748267E+04  0.46999998093E+01 0.  1.
</event>
<event>
 5   0  0.8845526E-07  0.3308923E+04  0.7818609E-02  0.8160629E-01
        1   -1    0    0  501    0  0.00000000000E+00  0.00000000000E+00  0.19005279452E+04  0.19005279452E+04  0.50400001928E-02 0.  1.
       -1   -1    0    0    0  501  0.00000000000E+00  0.00000000000E+00 -0.14402540863E+04  0.14402540863E+04  0.50400001928E-02 0. -1.
    10030    2    1    2    0    0  0.00000000000E+00  0.00000000000E+00  0.46027385888E+03  0.33407820314E+04  0.33089231717E+04 0.  0.
        1    1    3    3  502    0 -0.44604138490E+02  0.11695540918E+04 -0.95047928338E+03  0.15077324600E+04  0.50400001928E-02 0. -1.
       -1    1    3    3    0  502  0.44604138490E+02 -0.11695540918E+04  0.14107531423E+04  0.18330495714E+04  0.50400001928E-02 0.  1.
</event>
<event>
 5   0  0.2674551E-06  0.3323759E+04  0.7818609E-02  0.8156876E-01
       -2   -1    0    0    0  501  0.00000000000E+00  0.00000000000E+00  0.10937290222E+04  0.10937290222E+04  0.25500000920E-02 0. -1.
        2   -1    0    0  501    0  0.00000000000E+00  0.00000000000E+00 -0.25251631239E+04  0.25251631239E+04  0.25500000920E-02 0.  1.
    10030    2    1    2    0    0  0.00000000000E+00  0.00000000000E+00 -0.14314341017E+04  0.36188921461E+04  0.33237594344E+04 0.  0.
        3    1    3    3  502    0  0.73033843866E+03  0.20878456882E+02  0.90947623141E+03  0.11666092622E+04  0.10100000352E+00 0. -1.
       -3    1    3    3    0  502 -0.73033843866E+03 -0.20878456882E+02 -0.23409103331E+04  0.24522828839E+04  0.10100000352E+00 0.  1.
</event>
<event>
 5   0  0.2658600E-06  0.3271538E+04  0.7818609E-02  0.8170176E-01
       -2   -1    0    0    0  501  0.00000000000E+00  0.00000000000E+00  0.12725254773E+04  0.12725254773E+04  0.25500000920E-02 0. -1.
        2   -1    0    0  501    0  0.00000000000E+00  0.00000000000E+00 -0.21027003647E+04  0.21027003647E+04  0.25500000920E-02 0.  1.
    10030    2    1    2    0    0  0.00000000000E+00  0.00000000000E+00 -0.83017488742E+03  0.33752258420E+04  0.32715377334E+04 0.  0.
        5    1    3    3  502    0 -0.82279289291E+03 -0.81145476791E+03  0.77930533000E+03  0.13938385388E+04  0.46999998093E+01 0. -1.
       -5    1    3    3    0  502  0.82279289291E+03  0.81145476791E+03 -0.16094802174E+04  0.19813873032E+04  0.46999998093E+01 0.  1.
</event>
<event>
 5   0  0.8845526E-07  0.3337281E+04  0.7818609E-02  0.8153473E-01
        1   -1    0    0  501    0  0.00000000000E+00  0.00000000000E+00  0.18306117820E+04  0.18306117820E+04  0.50400001928E-02 0.  1.
       -1   -1    0    0    0  501  0.00000000000E+00  0.00000000000E+00 -0.15210006917E+04  0.15210006917E+04  0.50400001928E-02 0. -1.
    10030    2    1    2    0    0  0.00000000000E+00  0.00000000000E+00  0.30961109032E+03  0.33516124737E+04  0.33372814006E+04 0.  0.
        1    1    3    3  502    0  0.29851248947E+03  0.16413150845E+04  0.11808524963E+03  0.16724141351E+04  0.50400001928E-02 0. -1.
       -1    1    3    3    0  502 -0.29851248947E+03 -0.16413150845E+04  0.19152584069E+03  0.16791983387E+04  0.50400001928E-02 0.  1.
</event>
<event>
 5   0  0.2614212E-06  0.3302917E+04  0.7818609E-02  0.8162154E-01
        2   -1    0    0  501    0  0.00000000000E+00  0.00000000000E+00  0.18860599008E+04  0.18860599008E+04  0.25500000920E-02 0. -1.
       -2   -1    0    0    0  501  0.00000000000E+00  0.00000000000E+00 -0.14460383786E+04  0.14460383786E+04  0.25500000920E-02 0.  1.
    10030    2    1    2    0    0  0.00000000000E+00  0.00000000000E+00  0.44002152223E+03  0.33320982794E+04  0.33029168932E+04 0.  0.
        2    1    3    3  502    0 -0.83819770921E+03 -0.26009224475E+03 -0.11913100166E+04  0.14796766306E+04  0.25500000920E-02 0.  1.
       -2    1    3    3    0  502  0.83819770921E+03  0.26009224475E+03  0.16313315388E+04  0.18524216488E+04  0.25500000920E-02 0. -1.
</event>
<event>
 5   0  0.2658600E-06  0.3319941E+04  0.7818609E-02  0.8157840E-01
        2   -1    0    0  501    0  0.00000000000E+00  0.00000000000E+00  0.20863732833E+04  0.20863732833E+04  0.25500000920E-02 0. -1.
       -2   -1    0    0    0  501  0.00000000000E+00  0.00000000000E+00 -0.13207137648E+04  0.13207137648E+04  0.25500000920E-02 0.  1.
    10030    2    1    2    0    0  0.00000000000E+00  0.00000000000E+00  0.76565951852E+03  0.34070870481E+04  0.33199409114E+04 0.  0.
        5    1    3    3  502    0 -0.85820408008E+03  0.59873912411E+03 -0.93958994926E+03  0.14063620247E+04  0.46999998093E+01 0.  1.
       -5    1    3    3    0  502  0.85820408008E+03 -0.59873912411E+03  0.17052494678E+04  0.20007250234E+04  0.46999998093E+01 0. -1.
</event>
<event>
 5   0  0.8705956E-07  0.3250271E+04  0.7818609E-02  0.8175665E-01
        1   -1    0    0  501    0  0.00000000000E+00  0.00000000000E+00  0.10453821405E+04  0.10453821405E+04  0.50400001928E-02 0.  1.
       -1   -1    0    0    0  501  0.00000000000E+00  0.00000000000E+00 -0.25264120940E+04  0.25264120940E+04  0.50400001928E-02 0. -1.
    10030    2    1    2    0    0  0.00000000000E+00  0.00000000000E+00 -0.14810299535E+04  0.35717942345E+04  0.32502714242E+04 0.  0.
        2    1    3    3  502    0 -0.12547075083E+02  0.94520269415E+03 -0.21932133800E+04  0.23882526023E+04  0.25500000920E-02 0. -1.
       -2    1    3    3    0  502  0.12547075083E+02 -0.94520269415E+03  0.71218342656E+03  0.11835416322E+04  0.25500000920E-02 0.  1.
</event>
<event>
 5   0  0.2658600E-06  0.3183317E+04  0.7818609E-02  0.8193237E-01
        2   -1    0    0  501    0  0.00000000000E+00  0.00000000000E+00  0.14128155553E+04  0.14128155553E+04  0.25500000920E-02 0. -1.
       -2   -1    0    0    0  501  0.00000000000E+00  0.00000000000E+00 -0.17931402776E+04  0.17931402776E+04  0.25500000920E-02 0.  1.
    10030    2    1    2    0    0  0.00000000000E+00  0.00000000000E+00 -0.38032472231E+03  0.32059558328E+04  0.31833168092E+04 0.  0.
        5    1    3    3  502    0 -0.10485423166E+03  0.14526217256E+04  0.45647092540E+03  0.15262673696E+04  0.46999998093E+01 0. -1.
       -5    1    3    3    0  502  0.10485423166E+03 -0.14526217256E+04 -0.83679564771E+03  0.16796884633E+04  0.46999998093E+01 0.  1.
</event>
<event>
 5   0  0.9295663E-07  0.3289012E+04  0.7818609E-02  0.8165697E-01
        1   -1    0    0  501    0  0.00000000000E+00  0.00000000000E+00  0.19884106663E+04  0.19884106663E+04  0.50400001928E-02 0. -1.
       -1   -1    0    0    0  501  0.00000000000E+00  0.00000000000E+00 -0.13600814332E+04  0.13600814332E+04  0.50400001928E-02 0.  1.
    10030    2    1    2    0    0  0.00000000000E+00  0.00000000000E+00  0.62832923308E+03  0.33484920995E+04  0.32890122705E+04 0.  0.
        4    1    3    3  502    0  0.42756695199E+03  0.12021658336E+04 -0.74208636237E+03  0.14760453828E+04  0.12699999809E+01 0.  1.
       -4    1    3    3    0  502 -0.42756695199E+03 -0.12021658336E+04  0.13704155955E+04  0.18724467167E+04  0.12699999809E+01 0. -1.
</event>
<event>
 5   0  0.9530268E-07  0.3265200E+04  0.7818609E-02  0.8171807E-01
       -1   -1    0    0    0  501  0.00000000000E+00  0.00000000000E+00  0.15116117526E+04  0.15116117526E+04  0.50400001928E-02 0. -1.
        1   -1    0    0  501    0  0.00000000000E+00  0.00000000000E+00 -0.17632724587E+04  0.17632724587E+04  0.50400001928E-02 0.  1.
    10030    2    1    2    0    0  0.00000000000E+00  0.00000000000E+00 -0.25166070617E+03  0.32748842113E+04  0.32652003746E+04 0.  0.
        5    1    3    3  502    0 -0.99077421945E+03  0.64242574632E+03  0.10049070868E+04  0.15505498175E+04  0.46999998093E+01 0. -1.
       -5    1    3    3    0  502  0.99077421945E+03 -0.64242574632E+03 -0.12565677929E+04  0.17243343938E+04  0.46999998093E+01 0.  1.
</event>
<event>
 5   0  0.9530268E-07  0.3083644E+04  0.7818609E-02  0.8220241E-01
        1   -1    0    0  501    0  0.00000000000E+00  0.00000000000E+00  0.23810345319E+04  0.23810345319E+04  0.50400001928E-02 0.  1.
       -1   -1    0    0    0  501  0.00000000000E+00  0.00000000000E+00 -0.99839562233E+03  0.99839562234E+03  0.50400001928E-02 0. -1.
    10030    2    1    2    0    0  0.00000000000E+00  0.00000000000E+00  0.13826389096E+04  0.33794301543E+04  0.30836435937E+04 0.  0.
        5    1    3    3  502    0 -0.58209301351E+03 -0.67689034612E+03  0.20689492156E+04  0.22533498982E+04  0.46999998093E+01 0.  1.
       -5    1    3    3    0  502  0.58209301351E+03  0.67689034612E+03 -0.68631030598E+03  0.11260802561E+04  0.46999998093E+01 0. -1.
</event>
<event>
 5   0  0.2674551E-06  0.3125931E+04  0.7818609E-02  0.8208657E-01
        2   -1    0    0  501    0  0.00000000000E+00  0.00000000000E+00  0.17303957646E+04  0.17303957646E+04  0.25500000920E-02 0.  1.
       -2   -1    0    0    0  501  0.00000000000E+00  0.00000000000E+00 -0.14117350938E+04  0.14117350938E+04  0.25500000920E-02 0. -1.
    10030    2    1    2    0    0  0.00000000000E+00  0.00000000000E+00  0.31866067073E+03  0.31421308584E+04  0.31259305348E+04 0.  0.
        3    1    3    3  502    0  0.53501412160E+03  0.80417825788E+03  0.13944856573E+04  0.16963292839E+04  0.10100000352E+00 0.  1.
       -3    1    3    3    0  502 -0.53501412160E+03 -0.80417825788E+03 -0.10758249866E+04  0.14458015745E+04  0.10100000352E+00 0. -1.
</event>
<event>
 5   0  0.9530268E-07  0.3298634E+04  0.7818609E-02  0.8163243E-01
       -1   -1    0    0    0  501  0.00000000000E+00  0.00000000000E+00  0.16099713890E+04  0.16099713890E+04  0.50400001928E-02 0.  1.
        1   -1    0    0  501    0  0.00000000000E+00  0.00000000000E+00 -0.16896239592E+04  0.16896239593E+04  0.50400001928E-02 0. -1.
    10030    2    1    2    0    0  0.00000000000E+00  0.00000000000E+00 -0.79652570241E+02  0.32995953483E+04  0.32986337976E+04 0.  0.
        5    1    3    3  502    0 -0.14079994393E+04 -0.65743118798E+03  0.51309695890E+03  0.16364500503E+04  0.46999998093E+01 0. -1.
       -5    1    3    3    0  502  0.14079994393E+04  0.65743118798E+03 -0.59274952914E+03  0.16631452980E+04  0.46999998093E+01 0.  1.
</event>
<event>
 5   0  0.9530268E-07  0.3614180E+04  0.7818609E-02  0.8087251E-01
       -1   -1    0    0    0  501  0.00000000000E+00  0.00000000000E+00  0.12754030669E+04  0.12754030669E+04  0.50400001928E-02 0. -1.
        1   -1    0    0  501    0  0.00000000000E+00  0.00000000000E+00 -0.25604253926E+04  0.25604253926E+04  0.50400001928E-02 0.  1.
    10030    2    1    2    0    0  0.00000000000E+00  0.00000000000E+00 -0.12850223257E+04  0.38358284595E+04  0.36141800720E+04 0.  0.
        5    1    3    3  502    0 -0.80420877221E+03 -0.12581138908E+04  0.43772518603E+03  0.15560294792E+04  0.46999998093E+01 0. -1.
       -5    1    3    3    0  502  0.80420877221E+03  0.12581138908E+04 -0.17227475117E+04  0.22797989803E+04  0.46999998093E+01 0.  1.
</event>
<event>
 5   0  0.2674551E-06  0.3256224E+04  0.7818609E-02  0.8174124E-01
       -2   -1    0    0    0  501  0.00000000000E+00  0.00000000000E+00  0.13806636559E+04  0.13806636559E+04  0.25500000920E-02 0. -1.
        2   -1    0    0  501    0  0.00000000000E+00  0.00000000000E+00 -0.19199091417E+04  0.19199091417E+04  0.25500000920E-02 0.  1.
    10030    2    1    2    0    0  0.00000000000E+00  0.00000000000E+00 -0.53924548581E+03  0.33005727976E+04  0.32562240553E+04 0.  0.
        3    1    3    3  502    0 -0.64622609053E+03 -0.50527962654E+02  0.12442336201E+04  0.14029535084E+04  0.10100000352E+00 0. -1.
       -3    1    3    3    0  502  0.64622609053E+03  0.50527962654E+02 -0.17834791059E+04  0.18976192892E+04  0.10100000352E+00 0.  1.
</event>
<event>
 5   0  0.2705859E-06  0.3282024E+04  0.7818609E-02  0.8167485E-01
       -2   -1    0    0    0  501  0.00000000000E+00  0.00000000000E+00  0.10040398592E+04  0.10040398592E+04  0.25500000920E-02 0.  1.
        2   -1    0    0  501    0  0.00000000000E+00  0.00000000000E+00 -0.26820843430E+04  0.26820843430E+04  0.25500000920E-02 0. -1.
    10030    2    1    2    0    0  0.00000000000E+00  0.00000000000E+00 -0.16780444838E+04  0.36861242022E+04  0.32820235137E+04 0.  0.
        1    1    3    3  502    0  0.15265232539E+04  0.25166880982E+03 -0.22456980026E+03  0.15633432220E+04  0.50400001928E-02 0. -1.
       -1    1    3    3    0  502 -0.15265232539E+04 -0.25166880982E+03 -0.14534746835E+04  0.21227809802E+04  0.50400001928E-02 0.  1.
</event>
<event>
 5   0  0.2574803E-06  0.2453963E+04  0.7818609E-02  0.8419573E-01
        2   -1    0    0  501    0  0.00000000000E+00  0.00000000000E+00  0.21595757081E+04  0.21595757081E+04  0.25500000920E-02 0.  1.
       -2   -1    0    0    0  501  0.00000000000E+00  0.00000000000E+00 -0.69711998448E+03  0.69711998448E+03  0.25500000920E-02 0. -1.
    10030    2    1    2    0    0  0.00000000000E+00  0.00000000000E+00  0.14624557236E+04  0.28566956926E+04  0.24539628230E+04 0.  0.
        4    1    3    3  502    0  0.40828456254E+03  0.33411367888E+03  0.20207994396E+04  0.20885306371E+04  0.12699999809E+01 0.  1.
       -4    1    3    3    0  502 -0.40828456254E+03 -0.33411367888E+03 -0.55834371592E+03  0.76816505546E+03  0.12699999809E+01 0. -1.
</event>
<event>
 5   0  0.8705956E-07  0.3050905E+04  0.7818609E-02  0.8229342E-01
       -1   -1    0    0    0  501  0.00000000000E+00  0.00000000000E+00  0.15644793567E+04  0.15644793567E+04  0.50400001928E-02 0.  1.
        1   -1    0    0  501    0  0.00000000000E+00  0.00000000000E+00 -0.14873987225E+04  0.14873987225E+04  0.50400001928E-02 0. -1.
    10030    2    1    2    0    0  0.00000000000E+00  0.00000000000E+00  0.77080634191E+02  0.30518780792E+04  0.30509045194E+04 0.  0.
        2    1    3    3  502    0  0.33265425043E+03 -0.47085506920E+03 -0.13742280484E+04  0.14902570501E+04  0.25500000920E-02 0. -1.
       -2    1    3    3    0  502 -0.33265425043E+03  0.47085506920E+03  0.14513086825E+04  0.15616210291E+04  0.25500000920E-02 0.  1.
</event>
<event>
 5   0  0.2658600E-06  0.3265600E+04  0.7818609E-02  0.8171704E-01
       -2   -1    0    0    0  501  0.00000000000E+00  0.00000000000E+00  0.14967607784E+04  0.14967607784E+04  0.25500000920E-02 0.  1.
        2   -1    0    0  501    0  0.00000000000E+00  0.00000000000E+00 -0.17812037858E+04  0.17812037858E+04  0.25500000920E-02 0. -1.
    10030    2    1    2    0    0  0.00000000000E+00  0.00000000000E+00 -0.28444300742E+03  0.32779645642E+04  0.32656000765E+04 0.  0.
        5    1    3    3  502    0  0.15329191837E+04 -0.53125960480E+03  0.42692940491E+02  0.16229364648E+04  0.46999998093E+01 0. -1.
       -5    1    3    3    0  502 -0.15329191837E+04  0.53125960480E+03 -0.32713594792E+03  0.16550280994E+04  0.46999998093E+01 0.  1.
</event>
<event>
 5   0  0.9295663E-07  0.3032991E+04  0.7818609E-02  0.8234372E-01
        1   -1    0    0  501    0  0.00000000000E+00  0.00000000000E+00  0.16582676745E+04  0.16582676745E+04  0.50400001928E-02 0. -1.
       -1   -1    0    0    0  501  0.00000000000E+00  0.00000000000E+00 -0.13868442534E+04  0.13868442534E+04  0.50400001928E-02 0.  1.
    10030    2    1    2    0    0  0.00000000000E+00  0.00000000000E+00  0.27142342106E+03  0.30451119279E+04  0.30329912594E+04 0.  0.
        4    1    3    3  502    0  0.11727257407E+04  0.73072309352E+03  0.76312141010E+03  0.15784795855E+04  0.12699999809E+01 0. -1.
       -4    1    3    3    0  502 -0.11727257407E+04 -0.73072309352E+03 -0.49169798905E+03  0.14666323424E+04  0.12699999809E+01 0.  1.
</event>
<event>
 5   0  0.2705859E-06  0.3295278E+04  0.7818609E-02  0.8164098E-01
        2   -1    0    0  501    0  0.00000000000E+00  0.00000000000E+00  0.21432472697E+04  0.21432472697E+04  0.25500000920E-02 0.  1.
       -2   -1    0    0    0  501  0.00000000000E+00  0.00000000000E+00 -0.12666361627E+04  0.12666361628E+04  0.25500000920E-02 0. -1.
    10030    2    1    2    0    0  0.00000000000E+00  0.00000000000E+00  0.87661110692E+03  0.34098834324E+04  0.32952781354E+04 0.  0.
        1    1    3    3  502    0 -0.18111044919E+02 -0.45257896251E+03 -0.12009480287E+04  0.12835232350E+04  0.50400001928E-02 0. -1.
       -1    1    3    3    0  502  0.18111044919E+02  0.45257896251E+03  0.20775591356E+04  0.21263601974E+04  0.50400001928E-02 0.  1.
</event>
<event>
 5   0  0.2658600E-06  0.3257039E+04  0.7818609E-02  0.8173914E-01
        2   -1    0    0  501    0  0.00000000000E+00  0.00000000000E+00  0.28131167581E+04  0.28131167581E+04  0.25500000920E-02 0.  1.
       -2   -1    0    0    0  501  0.00000000000E+00  0.00000000000E+00 -0.94275379800E+03  0.94275379800E+03  0.25500000920E-02 0. -1.
    10030    2    1    2    0    0  0.00000000000E+00  0.00000000000E+00  0.18703629601E+04  0.37558705561E+04  0.32570394581E+04 0.  0.
        5    1    3    3  502    0 -0.12543736701E+04 -0.10199224482E+04  0.70932996526E+03  0.17654648663E+04  0.46999998093E+01 0. -1.
       -5    1    3    3    0  502  0.12543736701E+04  0.10199224482E+04  0.11610329948E+04  0.19904056897E+04  0.46999998093E+01 0.  1.
</event>
<event>
 5   0  0.2614212E-06  0.3362899E+04  0.7818609E-02  0.8147073E-01
        2   -1    0    0  501    0  0.00000000000E+00  0.00000000000E+00  0.17007571734E+04  0.17007571734E+04  0.25500000920E-02 0. -1.
       -2   -1    0    0    0  501  0.00000000000E+00  0.00000000000E+00 -0.16623611019E+04  0.16623611019E+04  0.25500000920E-02 0.  1.
    10030    2    1    2    0    0  0.00000000000E+00  0.00000000000E+00  0.38396071465E+02  0.33631182753E+04  0.33628990879E+04 0.  0.
        2    1    3    3  502    0  0.11223276060E+03  0.78116600263E+03 -0.14656398095E+04  0.16646070309E+04  0.25500000920E-02 0.  1.
       -2    1    3    3    0  502 -0.11223276060E+03 -0.78116600263E+03  0.15040358810E+04  0.16985112444E+04  0.25500000920E-02 0. -1.
</event>
<event>
 5   0  0.8845526E-07  0.3331994E+04  0.7818609E-02  0.8154802E-01
        1   -1    0    0  501    0  0.00000000000E+00  0.00000000000E+00  0.19881241469E+04  0.19881241469E+04  0.50400001928E-02 0. -1.
       -1   -1    0    0    0  501  0.00000000000E+00  0.00000000000E+00 -0.13960623304E+04  0.13960623304E+04  0.50400001928E-02 0.  1.
    10030    2    1    2    0    0  0.00000000000E+00  0.00000000000E+00  0.59206181651E+03  0.33841864773E+04  0.33319935352E+04 0.  0.
        1    1    3    3  502    0 -0.18016013208E+02 -0.17406182103E+03  0.19787639769E+04  0.19864865896E+04  0.50400001928E-02 0. -1.
       -1    1    3    3    0  502  0.18016013208E+02  0.17406182103E+03 -0.13867021604E+04  0.13976998877E+04  0.50400001928E-02 0.  1.
</event>
<event>
 5   0  0.9295663E-07  0.3290969E+04  0.7818609E-02  0.8165197E-01
       -1   -1    0    0    0  501  0.00000000000E+00  0.00000000000E+00  0.12876406283E+04  0.12876406283E+04  0.50400001928E-02 0. -1.
        1   -1    0    0  501    0  0.00000000000E+00  0.00000000000E+00 -0.21027752740E+04  0.21027752740E+04  0.50400001928E-02 0.  1.
    10030    2    1    2    0    0  0.00000000000E+00  0.00000000000E+00 -0.81513464574E+03  0.33904159023E+04  0.32909687783E+04 0.  0.
        4    1    3    3  502    0  0.16067391096E+04  0.65409139501E+02 -0.76700621298E+03  0.17816253999E+04  0.12699999809E+01 0.  1.
       -4    1    3    3    0  502 -0.16067391096E+04 -0.65409139501E+02 -0.48128432755E+02  0.16087905024E+04  0.12699999809E+01 0. -1.
</event>
<event>
 5   0  0.2614212E-06  0.3313653E+04  0.7818609E-02  0.8159430E-01
       -2   -1    0    0    0  501  0.00000000000E+00  0.00000000000E+00  0.16620215455E+04  0.16620215455E+04  0.25500000920E-02 0. -1.
        2   -1    0    0  501    0  0.00000000000E+00  0.00000000000E+00 -0.16516478668E+04  0.16516478668E+04  0.25500000920E-02 0.  1.
    10030    2    1    2    0    0  0.00000000000E+00  0.00000000000E+00  0.10373678748E+02  0.33136694123E+04  0.33136531745E+04 0.  0.
        2    1    3    3  502    0  0.42611568150E+03 -0.13954083126E+04  0.79026100638E+03  0.16592924369E+04  0.25500000920E-02 0. -1.
       -2    1    3    3    0  502 -0.42611568150E+03  0.13954083126E+04 -0.77988732763E+03  0.16543769754E+04  0.25500000920E-02 0.  1.
</event>
<event>
 5   0  0.2658600E-06  0.3197641E+04  0.7818609E-02  0.8189440E-01
       -2   -1    0    0    0  501  0.00000000000E+00  0.00000000000E+00  0.20268980821E+04  0.20268980821E+04  0.25500000920E-02 0. -1.
        2   -1    0    0  501    0  0.00000000000E+00  0.00000000000E+00 -0.12611524241E+04  0.12611524241E+04  0.25500000920E-02 0.  1.
    10030    2    1    2    0    0  0.00000000000E+00  0.00000000000E+00  0.76574565803E+03  0.32880505062E+04  0.31976412742E+04 0.  0.
        5    1    3    3  502    0  0.14468269663E+04  0.37670468120E+03 -0.19970631291E+03  0.15083498893E+04  0.46999998093E+01 0.  1.
       -5    1    3    3    0  502 -0.14468269663E+04 -0.37670468120E+03  0.96545197095E+03  0.17797006168E+04  0.46999998093E+01 0. -1.
</event>
<event>
 5   0  0.8845526E-07  0.3280751E+04  0.7818609E-02  0.8167811E-01
        1   -1    0    0  501    0  0.00000000000E+00  0.00000000000E+00  0.16582920357E+04  0.16582920357E+04  0.50400001928E-02 0.  1.
       -1   -1    0    0    0  501  0.00000000000E+00  0.00000000000E+00 -0.16226526126E+04  0.16226526126E+04  0.50400001928E-02 0. -1.
    10030    2    1    2    0    0  0.00000000000E+00  0.00000000000E+00  0.35639423127E+02  0.32809446483E+04  0.32807510751E+04 0.  0.
        1    1    3    3  502    0  0.23597377811E+03  0.14037702124E+04  0.83308402278E+03  0.16493281730E+04  0.50400001928E-02 0. -1.
       -1    1    3    3    0  502 -0.23597377811E+03 -0.14037702124E+04 -0.79744459965E+03  0.16316164753E+04  0.50400001928E-02 0.  1.
</event>
<event>
 5   0  0.8705956E-07  0.3273257E+04  0.7818609E-02  0.8169734E-01
       -1   -1    0    0    0  501  0.00000000000E+00  0.00000000000E+00  0.15224160509E+04  0.15224160509E+04  0.50400001928E-02 0.  1.
        1   -1    0    0  501    0  0.00000000000E+00  0.00000000000E+00 -0.17594087888E+04  0.17594087888E+04  0.50400001928E-02 0. -1.
    10030    2    1    2    0    0  0.00000000000E+00  0.00000000000E+00 -0.23699273792E+03  0.32818248397E+04  0.32732565926E+04 0.  0.
        2    1    3    3  502    0 -0.88941192871E+03  0.13440327531E+04 -0.40397765604E+03  0.16615280819E+04  0.25500000920E-02 0. -1.
       -2    1    3    3    0  502  0.88941192871E+03 -0.13440327531E+04  0.16698491812E+03  0.16202967578E+04  0.25500000920E-02 0.  1.
</event>
<event>
 5   0  0.2574803E-06  0.3296245E+04  0.7818609E-02  0.8163851E-01
       -2   -1    0    0    0  501  0.00000000000E+00  0.00000000000E+00  0.99461399837E+03  0.99461399837E+03  0.25500000920E-02 0.  1.
        2   -1    0    0  501    0  0.00000000000E+00  0.00000000000E+00 -0.27310173130E+04  0.27310173130E+04  0.25500000920E-02 0. -1.
    10030    2    1    2    0    0  0.00000000000E+00  0.00000000000E+00 -0.17364033146E+04  0.37256313113E+04  0.32962451664E+04 0.  0.
        4    1    3    3  502    0 -0.94739318040E+03 -0.61531210500E+03  0.48818425370E+03  0.12306454824E+04  0.12699999809E+01 0.  1.
       -4    1    3    3    0  502  0.94739318040E+03  0.61531210500E+03 -0.22245875683E+04  0.24949858290E+04  0.12699999809E+01 0. -1.
</event>
<event>
 5   0  0.8520125E-07  0.3323288E+04  0.7818609E-02  0.8156995E-01
       -3   -1    0    0    0  501  0.00000000000E+00  0.00000000000E+00  0.11978121253E+04  0.11978121296E+04  0.10100000352E+00 0.  1.
        3   -1    0    0  501    0  0.00000000000E+00  0.00000000000E+00 -0.23050864971E+04  0.23050864993E+04  0.10100000352E+00 0. -1.
    10030    2    1    2    0    0  0.00000000000E+00  0.00000000000E+00 -0.11072743717E+04  0.35028986288E+04  0.33232878704E+04 0.  0.
        3    1    3    3  502    0 -0.94347273176E+03 -0.11955713772E+04 -0.12540259121E+04  0.19728438134E+04  0.10100000352E+00 0.  1.
       -3    1    3    3    0  502  0.94347273176E+03  0.11955713772E+04  0.14675154039E+03  0.15300548155E+04  0.10100000352E+00 0. -1.
</event>
<event>
 5   0  0.2574803E-06  0.3281807E+04  0.7818609E-02  0.8167540E-01
        2   -1    0    0  501    0  0.00000000000E+00  0.00000000000E+00  0.18549609444E+04  0.18549609444E+04  0.25500000920E-02 0.  1.
       -2   -1    0    0    0  501  0.00000000000E+00  0.00000000000E+00 -0.14515475236E+04  0.14515475236E+04  0.25500000920E-02 0. -1.
    10030    2    1    2    0    0  0.00000000000E+00  0.00000000000E+00  0.40341342083E+03  0.33065084680E+04  0.32818067982E+04 0.  0.
        4    1    3    3  502    0  0.15611536424E+04 -0.50497128043E+03  0.18244046400E+03  0.16509036390E+04  0.12699999809E+01 0.  1.
       -4    1    3    3    0  502 -0.15611536424E+04  0.50497128043E+03  0.22097295683E+03  0.16556048290E+04  0.12699999809E+01 0. -1.
</event>
<event>
 5   0  0.2574803E-06  0.3275558E+04  0.7818609E-02  0.8169143E-01
       -2   -1    0    0    0  501  0.00000000000E+00  0.00000000000E+00  0.19186065079E+04  0.19186065079E+04  0.25500000920E-02 0.  1.
        2   -1    0    0  501    0  0.00000000000E+00  0.00000000000E+00 -0.13980561746E+04  0.13980561746E+04  0.25500000920E-02 0. -1.
    10030    2    1    2    0    0  0.00000000000E+00  0.00000000000E+00  0.52055033327E+03  0.33166626825E+04  0.32755577693E+04 0.  0.
        4    1    3    3  502    0  0.42194354213E+03  0.15659898109E+04  0.29472580023E+02  0.16221068666E+04  0.12699999809E+01 0. -1.
       -4    1    3    3    0  502 -0.42194354213E+03 -0.15659898109E+04  0.49107775325E+03  0.16945558159E+04  0.12699999809E+01 0.  1.
</event>
<event>
 5   0  0.2674551E-06  0.4030775E+04  0.7818609E-02  0.7998367E-01
        2   -1    0    0  501    0  0.00000000000E+00  0.00000000000E+00  0.14460855041E+04  0.14460855041E+04  0.25500000920E-02 0. -1.
       -2   -1    0    0    0  501  0.00000000000E+00  0.00000000000E+00 -0.28088151950E+04  0.28088151950E+04  0.25500000920E-02 0.  1.
    10030    2    1    2    0    0  0.00000000000E+00  0.00000000000E+00 -0.13627296909E+04  0.42549006991E+04  0.40307750804E+04 0.  0.
        3    1    3    3  502    0  0.17240216603E+04  0.19345345904E+03  0.40139427657E+03  0.17806718680E+04  0.10100000352E+00 0. -1.
       -3    1    3    3    0  502 -0.17240216603E+04 -0.19345345904E+03 -0.17641239675E+04  0.24742288311E+04  0.10100000352E+00 0.  1.
</event>
<event>
 5   0  0.8705956E-07  0.3304705E+04  0.7818609E-02  0.8161699E-01
        1   -1    0    0  501    0  0.00000000000E+00  0.00000000000E+00  0.12574048276E+04  0.12574048276E+04  0.50400001928E-02 0.  1.
       -1   -1    0    0    0  501  0.00000000000E+00  0.00000000000E+00 -0.21713522526E+04  0.21713522526E+04  0.50400001928E-02 0. -1.
    10030    2    1    2    0    0  0.00000000000E+00  0.00000000000E+00 -0.91394742504E+03  0.34287570803E+04  0.33047050125E+04 0.  0.
        2    1    3    3  502    0 -0.10415098090E+04  0.74763638451E+02 -0.17856449603E+04  0.20685405986E+04  0.25500000920E-02 0. -1.
       -2    1    3    3    0  502  0.10415098090E+04 -0.74763638451E+02  0.87169753527E+03  0.13602164816E+04  0.25500000920E-02 0.  1.
</event>
<event>
 5   0  0.8845526E-07  0.3206830E+04  0.7818609E-02  0.8187016E-01
       -1   -1    0    0    0  501  0.00000000000E+00  0.00000000000E+00  0.16529169400E+04  0.16529169400E+04  0.50400001928E-02 0. -1.
        1   -1    0    0  501    0  0.00000000000E+00  0.00000000000E+00 -0.15553951255E+04  0.15553951255E+04  0.50400001928E-02 0.  1.
    10030    2    1    2    0    0  0.00000000000E+00  0.00000000000E+00  0.97521814560E+02  0.32083120655E+04  0.32068295566E+04 0.  0.
        1    1    3    3  502    0  0.88779086729E+03 -0.31048907113E+03 -0.12504397803E+04  0.15646647345E+04  0.50400001928E-02 0.  1.
       -1    1    3    3    0  502 -0.88779086729E+03  0.31048907113E+03  0.13479615949E+04  0.16436473310E+04  0.50400001928E-02 0. -1.
</event>
<event>
 5   0  0.8520125E-07  0.3281894E+04  0.7818609E-02  0.8167518E-01
        3   -1    0    0  501    0  0.00000000000E+00  0.00000000000E+00  0.12554071416E+04  0.12554071457E+04  0.10100000352E+00 0. -1.
       -3   -1    0    0    0  501  0.00000000000E+00  0.00000000000E+00 -0.21448880314E+04  0.21448880337E+04  0.10100000352E+00 0.  1.
    10030    2    1    2    0    0  0.00000000000E+00  0.00000000000E+00 -0.88948088976E+03  0.34002951794E+04  0.32818944306E+04 0.  0.
        2    1    3    3  502    0 -0.12731699868E+04 -0.30524836656E+03  0.58017449706E+03  0.14320407912E+04  0.25500000920E-02 0. -1.
       -2    1    3    3    0  502  0.12731699868E+04  0.30524836656E+03 -0.14696553868E+04  0.19682543882E+04  0.25500000920E-02 0.  1.
</event>
<event>
 5   0  0.2705859E-06  0.3429285E+04  0.7818609E-02  0.8130756E-01
        2   -1    0    0  501    0  0.00000000000E+00  0.00000000000E+00  0.26236034407E+04  0.26236034407E+04  0.25500000920E-02 0.  1.
       -2   -1    0    0    0  501  0.00000000000E+00  0.00000000000E+00 -0.11205956459E+04  0.11205956459E+04  0.25500000920E-02 0. -1.
    10030    2    1    2    0    0  0.00000000000E+00  0.00000000000E+00  0.15030077948E+04  0.37441990866E+04  0.34292848189E+04 0.  0.
        1    1    3    3  502    0 -0.16492694637E+04  0.32961277813E+03  0.11156982341E+04  0.20182955425E+04  0.50400001928E-02 0.  1.
       -1    1    3    3    0  502  0.16492694637E+04 -0.32961277813E+03  0.38730956072E+03  0.17259035441E+04  0.50400001928E-02 0. -1.
</event>
<event>
 5   0  0.2658600E-06  0.3296476E+04  0.7818609E-02  0.8163793E-01
       -2   -1    0    0    0  501  0.00000000000E+00  0.00000000000E+00  0.11233041396E+04  0.11233041396E+04  0.25500000920E-02 0.  1.
        2   -1    0    0  501    0  0.00000000000E+00  0.00000000000E+00 -0.24184805220E+04  0.24184805220E+04  0.25500000920E-02 0. -1.
    10030    2    1    2    0    0  0.00000000000E+00  0.00000000000E+00 -0.12951763824E+04  0.35417846616E+04  0.32964764109E+04 0.  0.
        5    1    3    3  502    0 -0.61520397391E+03 -0.10505968252E+04 -0.18413198968E+04  0.22074217248E+04  0.46999998093E+01 0. -1.
       -5    1    3    3    0  502  0.61520397391E+03  0.10505968252E+04  0.54614351442E+03  0.13343629368E+04  0.46999998093E+01 0.  1.
</event>
<event>
 5   0  0.2574803E-06  0.3071140E+04  0.7818609E-02  0.8223703E-01
       -2   -1    0    0    0  501  0.00000000000E+00  0.00000000000E+00  0.22113372755E+04  0.22113372755E+04  0.25500000920E-02 0. -1.
        2   -1    0    0  501    0  0.00000000000E+00  0.00000000000E+00 -0.10663121135E+04  0.10663121135E+04  0.25500000920E-02 0.  1.
    10030    2    1    2    0    0  0.00000000000E+00  0.00000000000E+00  0.11450251620E+04  0.32776493891E+04  0.30711403250E+04 0.  0.
        4    1    3    3  502    0  0.38985513157E+02 -0.23853623702E+03  0.21909082496E+04  0.22042005303E+04  0.12699999809E+01 0. -1.
       -4    1    3    3    0  502 -0.38985513157E+02  0.23853623702E+03 -0.10458830876E+04  0.10734488588E+04  0.12699999809E+01 0.  1.
</event>
<event>
 5   0  0.9530268E-07  0.3303073E+04  0.7818609E-02  0.8162114E-01
       -1   -1    0    0    0  501  0.00000000000E+00  0.00000000000E+00  0.17940272901E+04  0.17940272901E+04  0.50400001928E-02 0.  1.
        1   -1    0    0  501    0  0.00000000000E+00  0.00000000000E+00 -0.15203633504E+04  0.15203633504E+04  0.50400001928E-02 0. -1.
    10030    2    1    2    0    0  0.00000000000E+00  0.00000000000E+00  0.27366393965E+03  0.33143906405E+04  0.33030733213E+04 0.  0.
        5    1    3    3  502    0  0.60362382896E+03 -0.12318274141E+04  0.10596518552E+04  0.17333910837E+04  0.46999998093E+01 0. -1.
       -5    1    3    3    0  502 -0.60362382896E+03  0.12318274141E+04 -0.78598791558E+03  0.15809995567E+04  0.46999998093E+01 0.  1.
</event>
<event>
 5   0  0.8845526E-07  0.3272521E+04  0.7818609E-02  0.8169923E-01
       -1   -1    0    0    0  501  0.00000000000E+00  0.00000000000E+00  0.20942769272E+04  0.20942769272E+04  0.50400001928E-02 0. -1.
        1   -1    0    0  501    0  0.00000000000E+00  0.00000000000E+00 -0.12784121468E+04  0.12784121468E+04  0.50400001928E-02 0.  1.
    10030    2    1    2    0    0  0.00000000000E+00  0.00000000000E+00  0.81586478045E+03  0.33726890740E+04  0.32725213903E+04 0.  0.
        1    1    3    3  502    0  0.15091167063E+04 -0.36688052676E+03  0.93878543337E+03  0.18147596657E+04  0.50400001928E-02 0. -1.
       -1    1    3    3    0  502 -0.15091167063E+04  0.36688052676E+03 -0.12292065292E+03  0.15579294083E+04  0.50400001928E-02 0.  1.
</event>
<event>
 5   0  0.8705956E-07  0.3322234E+04  0.7818609E-02  0.8157261E-01
       -1   -1    0    0    0  501  0.00000000000E+00  0.00000000000E+00  0.12430481966E+04  0.12430481966E+04  0.50400001928E-02 0.  1.
        1   -1    0    0  501    0  0.00000000000E+00  0.00000000000E+00 -0.22197925639E+04  0.22197925639E+04  0.50400001928E-02 0. -1.
    10030    2    1    2    0    0  0.00000000000E+00  0.00000000000E+00 -0.97674436734E+03  0.34628407605E+04  0.33222336723E+04 0.  0.
        2    1    3    3  502    0  0.20050834357E+03 -0.12120940526E+04 -0.16536938166E+04  0.20601162169E+04  0.25500000920E-02 0. -1.
       -2    1    3    3    0  502 -0.20050834357E+03  0.12120940526E+04  0.67694944927E+03  0.14027245435E+04  0.25500000920E-02 0.  1.
</event>
<event>
 5   0  0.8705956E-07  0.3286076E+04  0.7818609E-02  0.8166447E-01
       -1   -1    0    0    0  501  0.00000000000E+00  0.00000000000E+00  0.17934749530E+04  0.17934749531E+04  0.50400001928E-02 0.  1.
        1   -1    0    0  501    0  0.00000000000E+00  0.00000000000E+00 -0.15052198014E+04  0.15052198014E+04  0.50400001928E-02 0. -1.
    10030    2    1    2    0    0  0.00000000000E+00  0.00000000000E+00  0.28825515162E+03  0.32986947545E+04  0.32860760872E+04 0.  0.
        2    1    3    3  502    0 -0.27874843367E+03 -0.13448603697E+04  0.10493797660E+04  0.17284524860E+04  0.25500000920E-02 0.  1.
       -2    1    3    3    0  502  0.27874843367E+03  0.13448603697E+04 -0.76112461435E+03  0.15702422685E+04  0.25500000920E-02 0. -1.
</event>
<event>
 5   0  0.9530268E-07  0.3300925E+04  0.7818609E-02  0.8162660E-01
       -1   -1    0    0    0  501  0.00000000000E+00  0.00000000000E+00  0.15120679603E+04  0.15120679603E+04  0.50400001928E-02 0.  1.
        1   -1    0    0  501    0  0.00000000000E+00  0.00000000000E+00 -0.18015242146E+04  0.18015242146E+04  0.50400001928E-02 0. -1.
    10030    2    1    2    0    0  0.00000000000E+00  0.00000000000E+00 -0.28945625439E+03  0.33135921749E+04  0.33009253518E+04 0.  0.
        5    1    3    3  502    0 -0.94734563413E+03  0.72848101526E+03  0.99799713314E+03  0.15569742155E+04  0.46999998093E+01 0.  1.
       -5    1    3    3    0  502  0.94734563413E+03 -0.72848101526E+03 -0.12874533875E+04  0.17566179594E+04  0.46999998093E+01 0. -1.
</event>
<event>
 5   0  0.2705859E-06  0.3243728E+04  0.7818609E-02  0.8177363E-01
        2   -1    0    0  501    0  0.00000000000E+00  0.00000000000E+00  0.17393849628E+04  0.17393849628E+04  0.25500000920E-02 0.  1.
       -2   -1    0    0    0  501  0.00000000000E+00  0.00000000000E+00 -0.15122832560E+04  0.15122832560E+04  0.25500000920E-02 0. -1.
    10030    2    1    2    0    0  0.00000000000E+00  0.00000000000E+00  0.22710170680E+03  0.32516682188E+04  0.32437279510E+04 0.  0.
        1    1    3    3  502    0 -0.83923532754E+03  0.14174342170E+03 -0.12704211656E+04  0.15291752910E+04  0.50400001928E-02 0. -1.
       -1    1    3    3    0  502  0.83923532754E+03 -0.14174342170E+03  0.14975228724E+04  0.17224929277E+04  0.50400001928E-02 0.  1.
</event>
<event>
 5   0  0.9295663E-07  0.3282203E+04  0.7818609E-02  0.8167439E-01
        1   -1    0    0  501    0  0.00000000000E+00  0.00000000000E+00  0.20454355916E+04  0.20454355916E+04  0.50400001928E-02 0. -1.
       -1   -1    0    0    0  501  0.00000000000E+00  0.00000000000E+00 -0.13166946230E+04  0.13166946230E+04  0.50400001928E-02 0.  1.
    10030    2    1    2    0    0  0.00000000000E+00  0.00000000000E+00  0.72874096860E+03  0.33621302145E+04  0.32822029462E+04 0.  0.
        4    1    3    3  502    0 -0.14633060023E+04 -0.60743574554E+03  0.80253660484E+03  0.17760375154E+04  0.12699999809E+01 0. -1.
       -4    1    3    3    0  502  0.14633060023E+04  0.60743574554E+03 -0.73795636238E+02  0.15860926991E+04  0.12699999809E+01 0.  1.
</event>
<event>
 5   0  0.8845526E-07  0.3294083E+04  0.7818609E-02  0.8164403E-01
        1   -1    0    0  501    0  0.00000000000E+00  0.00000000000E+00  0.17349196802E+04  0.17349196802E+04  0.50400001928E-02 0. -1.
       -1   -1    0    0    0  501  0.00000000000E+00  0.00000000000E+00 -0.15636141876E+04  0.15636141876E+04  0.50400001928E-02 0.  1.
    10030    2    1    2    0    0  0.00000000000E+00  0.00000000000E+00  0.17130549259E+03  0.32985338678E+04  0.32940825893E+04 0.  0.
        1    1    3    3  502    0  0.10810410542E+04  0.91150940674E+03  0.93133281632E+03  0.16931863377E+04  0.50400001928E-02 0. -1.
       -1    1    3    3    0  502 -0.10810410542E+04 -0.91150940674E+03 -0.76002732373E+03  0.16053475301E+04  0.50400001928E-02 0.  1.
</event>
<event>
 5   0  0.2574803E-06  0.3298114E+04  0.7818609E-02  0.8163375E-01
       -2   -1    0    0    0  501  0.00000000000E+00  0.00000000000E+00  0.16967504348E+04  0.16967504348E+04  0.25500000920E-02 0. -1.
        2   -1    0    0  501    0  0.00000000000E+00  0.00000000000E+00 -0.16027044101E+04  0.16027044101E+04  0.25500000920E-02 0.  1.
    10030    2    1    2    0    0  0.00000000000E+00  0.00000000000E+00  0.94046024666E+02  0.32994548449E+04  0.32981142519E+04 0.  0.
        4    1    3    3  502    0 -0.33883362563E+03  0.86833858282E+03  0.14079316747E+04  0.16885180881E+04  0.12699999809E+01 0. -1.
       -4    1    3    3    0  502  0.33883362563E+03 -0.86833858282E+03 -0.13138856500E+04  0.16109367568E+04  0.12699999809E+01 0.  1.
</event>
<event>
 5   0  0.9530268E-07  0.3214245E+04  0.7818609E-02  0.8185065E-01
        1   -1    0    0  501    0  0.00000000000E+00  0.00000000000E+00  0.21752381332E+04  0.21752381332E+04  0.50400001928E-02 0. -1.
       -1   -1    0    0    0  501  0.00000000000E+00  0.00000000000E+00 -0.11873841688E+04  0.11873841688E+04  0.50400001928E-02 0.  1.
    10030    2    1    2    0    0  0.00000000000E+00  0.00000000000E+00  0.98785396441E+03  0.33626223021E+04  0.32142453689E+04 0.  0.
        5    1    3    3  502    0 -0.12826839824E+04  0.73704628782E+03  0.11508517662E+04  0.18742991508E+04  0.46999998093E+01 0.  1.
       -5    1    3    3    0  502  0.12826839824E+04 -0.73704628782E+03 -0.16299780174E+03  0.14883231512E+04  0.46999998093E+01 0. -1.
</event>
<event>
 5   0  0.8520125E-07  0.3330302E+04  0.7818609E-02  0.8155227E-01
        3   -1    0    0  501    0  0.00000000000E+00  0.00000000000E+00  0.15294047693E+04  0.15294047727E+04  0.10100000352E+00 0.  1.
       -3   -1    0    0    0  501  0.00000000000E+00  0.00000000000E+00 -0.18129460857E+04  0.18129460885E+04  0.10100000352E+00 0. -1.
    10030    2    1    2    0    0  0.00000000000E+00  0.00000000000E+00 -0.28354131638E+03  0.33423508612E+04  0.33303023288E+04 0.  0.
        2    1    3    3  502    0 -0.10919695100E+04 -0.11960240919E+04 -0.53028532366E+03  0.17041342564E+04  0.25500000920E-02 0. -1.
       -2    1    3    3    0  502  0.10919695100E+04  0.11960240919E+04  0.24674400729E+03  0.16382166048E+04  0.25500000920E-02 0.  1.
</event>
<event>
 5   0  0.8705956E-07  0.3028805E+04  0.7818609E-02  0.8235553E-01
       -1   -1    0    0    0  501  0.00000000000E+00  0.00000000000E+00  0.21242255448E+04  0.21242255448E+04  0.50400001928E-02 0.  1.
        1   -1    0    0  501    0  0.00000000000E+00  0.00000000000E+00 -0.10796472496E+04  0.10796472496E+04  0.50400001928E-02 0. -1.
    10030    2    1    2    0    0  0.00000000000E+00  0.00000000000E+00  0.10445782953E+04  0.32038727944E+04  0.30288045608E+04 0.  0.
        2    1    3    3  502    0 -0.95378450756E+03  0.11654402620E+04  0.35350977829E+03  0.15469082244E+04  0.25500000920E-02 0. -1.
       -2    1    3    3    0  502  0.95378450756E+03 -0.11654402620E+04  0.69106851696E+03  0.16569645700E+04  0.25500000920E-02 0.  1.
</event>
<event>
 5   0  0.2705859E-06  0.3295591E+04  0.7818609E-02  0.8164018E-01
       -2   -1    0    0    0  501  0.00000000000E+00  0.00000000000E+00  0.20294583676E+04  0.20294583676E+04  0.25500000920E-02 0.  1.
        2   -1    0    0  501    0  0.00000000000E+00  0.00000000000E+00 -0.13379085512E+04  0.13379085512E+04  0.25500000920E-02 0. -1.
    10030    2    1    2    0    0  0.00000000000E+00  0.00000000000E+00  0.69154981639E+03  0.33673669187E+04  0.32955908145E+04 0.  0.
        1    1    3    3  502    0  0.95992152536E+03  0.11729461483E+04  0.10063675236E+04  0.18193481235E+04  0.50400001928E-02 0. -1.
       -1    1    3    3    0  502 -0.95992152536E+03 -0.11729461483E+04 -0.31481770720E+03  0.15480187953E+04  0.50400001928E-02 0.  1.
</event>
<event>
 5   0  0.9295663E-07  0.3305465E+04  0.7818609E-02  0.8161506E-01
        1   -1    0    0  501    0  0.00000000000E+00  0.00000000000E+00  0.21160900637E+04  0.21160900637E+04  0.50400001928E-02 0.  1.
       -1   -1    0    0    0  501  0.00000000000E+00  0.00000000000E+00 -0.12908359971E+04  0.12908359971E+04  0.50400001928E-02 0. -1.
    10030    2    1    2    0    0  0.00000000000E+00  0.00000000000E+00  0.82525406662E+03  0.34069260608E+04  0.33054653091E+04 0.  0.
        4    1    3    3  502    0 -0.82464804641E+03 -0.12379988947E+04  0.11550407247E+04  0.18832966714E+04  0.12699999809E+01 0.  1.
       -4    1    3    3    0  502  0.82464804641E+03  0.12379988947E+04 -0.32978665806E+03  0.15236293895E+04  0.12699999809E+01 0. -1.
</event>
<event>
 5   0  0.2705859E-06  0.3226512E+04  0.7818609E-02  0.8181850E-01
       -2   -1    0    0    0  501  0.00000000000E+00  0.00000000000E+00  0.14725567422E+04  0.14725567422E+04  0.25500000920E-02 0. -1.
        2   -1    0    0  501    0  0.00000000000E+00  0.00000000000E+00 -0.17673982379E+04  0.17673982379E+04  0.25500000920E-02 0.  1.
    10030    2    1    2    0    0  0.00000000000E+00  0.00000000000E+00 -0.29484149568E+03  0.32399549802E+04  0.32265115475E+04 0.  0.
        1    1    3    3  502    0  0.10296044569E+04 -0.73554908120E+03  0.85748680943E+03  0.15285291678E+04  0.50400001928E-02 0. -1.
       -1    1    3    3    0  502 -0.10296044569E+04  0.73554908120E+03 -0.11523283051E+04  0.17114258124E+04  0.50400001928E-02 0.  1.
</event>
<event>
 5   0  0.2674551E-06  0.3334487E+04  0.7818609E-02  0.8154175E-01
       -2   -1    0    0    0  501  0.00000000000E+00  0.00000000000E+00  0.18505109303E+04  0.18505109303E+04  0.25500000920E-02 0.  1.
        2   -1    0    0  501    0  0.00000000000E+00  0.00000000000E+00 -0.15021262085E+04  0.15021262085E+04  0.25500000920E-02 0. -1.
    10030    2    1    2    0    0  0.00000000000E+00  0.00000000000E+00  0.34838472184E+03  0.33526371388E+04  0.33344870475E+04 0.  0.
        3    1    3    3  502    0  0.12940445643E+03  0.43751378474E+03  0.17865222937E+04  0.18438616383E+04  0.10100000352E+00 0.  1.
       -3    1    3    3    0  502 -0.12940445643E+03 -0.43751378474E+03 -0.14381375718E+04  0.15087755005E+04  0.10100000352E+00 0. -1.
</event>
<event>
 5   0  0.2674551E-06  0.3120897E+04  0.7818609E-02  0.8210026E-01
        2   -1    0    0  501    0  0.00000000000E+00  0.00000000000E+00  0.18201497378E+04  0.18201497378E+04  0.25500000920E-02 0. -1.
       -2   -1    0    0    0  501  0.00000000000E+00  0.00000000000E+00 -0.13378017548E+04  0.13378017548E+04  0.25500000920E-02 0.  1.
    10030    2    1    2    0    0  0.00000000000E+00  0.00000000000E+00  0.48234798304E+03  0.31579514926E+04  0.31208969950E+04 0.  0.
        3    1    3    3  502    0 -0.14923434912E+04 -0.41899180561E+02 -0.21825967349E+03  0.15088014887E+04  0.10100000352E+00 0.  1.
       -3    1    3    3    0  502  0.14923434912E+04  0.41899180561E+02  0.70060765654E+03  0.16491500040E+04  0.10100000352E+00 0. -1.
</event>
<event>
 5   0  0.8845526E-07  0.3076062E+04  0.7818609E-02  0.8222338E-01
       -1   -1    0    0    0  501  0.00000000000E+00  0.00000000000E+00  0.12747464741E+04  0.12747464741E+04  0.50400001928E-02 0. -1.
        1   -1    0    0  501    0  0.00000000000E+00  0.00000000000E+00 -0.18556941471E+04  0.18556941471E+04  0.50400001928E-02 0.  1.
    10030    2    1    2    0    0  0.00000000000E+00  0.00000000000E+00 -0.58094767298E+03  0.31304406212E+04  0.30760621392E+04 0.  0.
        1    1    3    3  502    0 -0.97867338799E+03  0.10717701609E+04 -0.80843761715E+03  0.16613441122E+04  0.50400001928E-02 0. -1.
       -1    1    3    3    0  502  0.97867338799E+03 -0.10717701609E+04  0.22748994417E+03  0.14690965090E+04  0.50400001928E-02 0.  1.
</event>
<event>
 5   0  0.9530268E-07  0.3275581E+04  0.7818609E-02  0.8169137E-01
        1   -1    0    0  501    0  0.00000000000E+00  0.00000000000E+00  0.21311135327E+04  0.21311135327E+04  0.50400001928E-02 0.  1.
       -1   -1    0    0    0  501  0.00000000000E+00  0.00000000000E+00 -0.12586649013E+04  0.12586649013E+04  0.50400001928E-02 0. -1.
    10030    2    1    2    0    0  0.00000000000E+00  0.00000000000E+00  0.87244863145E+03  0.33897784340E+04  0.32755810503E+04 0.  0.
        5    1    3    3  502    0  0.93693823892E+03 -0.11994870550E+04 -0.18960126824E+03  0.15338165437E+04  0.46999998093E+01 0. -1.
       -5    1    3    3    0  502 -0.93693823892E+03  0.11994870550E+04  0.10620498997E+04  0.18559618903E+04  0.46999998093E+01 0.  1.
</event>
<event>
 5   0  0.2674551E-06  0.3545327E+04  0.7818609E-02  0.8103131E-01
        2   -1    0    0  501    0  0.00000000000E+00  0.00000000000E+00  0.17494354849E+04  0.17494354849E+04  0.25500000920E-02 0. -1.
       -2   -1    0    0    0  501  0.00000000000E+00  0.00000000000E+00 -0.17962001610E+04  0.17962001610E+04  0.25500000920E-02 0.  1.
    10030    2    1    2    0    0  0.00000000000E+00  0.00000000000E+00 -0.46764676136E+02  0.35456356459E+04  0.35453272343E+04 0.  0.
        3    1    3    3  502    0  0.80580784728E+03 -0.75324794977E+03 -0.14111728727E+04  0.17911218963E+04  0.10100000352E+00 0.  1.
       -3    1    3    3    0  502 -0.80580784728E+03  0.75324794977E+03  0.13644081965E+04  0.17545137496E+04  0.10100000352E+00 0. -1.
</event>
<event>
 5   0  0.9530268E-07  0.3144877E+04  0.7818609E-02  0.8203529E-01
        1   -1    0    0  501    0  0.00000000000E+00  0.00000000000E+00  0.15333180846E+04  0.15333180846E+04  0.50400001928E-02 0. -1.
       -1   -1    0    0    0  501  0.00000000000E+00  0.00000000000E+00 -0.16125569017E+04  0.16125569017E+04  0.50400001928E-02 0.  1.
    10030    2    1    2    0    0  0.00000000000E+00  0.00000000000E+00 -0.79238817088E+02  0.31458749863E+04  0.31448768878E+04 0.  0.
        5    1    3    3  502    0  0.46643346329E+03 -0.14501196025E+04  0.35054736858E+03  0.15631099082E+04  0.46999998093E+01 0. -1.
       -5    1    3    3    0  502 -0.46643346329E+03  0.14501196025E+04 -0.42978618567E+03  0.15827650782E+04  0.46999998093E+01 0.  1.
</event>
<event>
 5   0  0.2614212E-06  0.3240606E+04  0.7818609E-02  0.8178175E-01
        2   -1    0    0  501    0  0.00000000000E+00  0.00000000000E+00  0.17177042149E+04  0.17177042149E+04  0.25500000920E-02 0.  1.
       -2   -1    0    0    0  501  0.00000000000E+00  0.00000000000E+00 -0.15284247013E+04  0.15284247013E+04  0.25500000920E-02 0. -1.
    10030    2    1    2    0    0  0.00000000000E+00  0.00000000000E+00  0.18927951361E+03  0.32461289163E+04  0.32406058395E+04 0.  0.
        2    1    3    3  502    0  0.13090899897E+04 -0.34972955969E+03 -0.79533053821E+03  0.15711709108E+04  0.25500000920E-02 0. -1.
       -2    1    3    3    0  502 -0.13090899897E+04  0.34972955969E+03  0.98461005182E+03  0.16749580055E+04  0.25500000920E-02 0.  1.
</event>
<event>
 5   0  0.9268670E-07  0.3406851E+04  0.7818609E-02  0.8136227E-01
        1   -1    0    0  501    0  0.00000000000E+00  0.00000000000E+00  0.21448607117E+04  0.21448607117E+04  0.50400001928E-02 0. -1.
       -1   -1    0    0    0  501  0.00000000000E+00  0.00000000000E+00 -0.13528426885E+04  0.13528426885E+04  0.50400001928E-02 0.  1.
    10030    2    1    2    0    0  0.00000000000E+00  0.00000000000E+00  0.79201802319E+03  0.34977034002E+04  0.34068514096E+04 0.  0.
        3    1    3    3  502    0 -0.28031311371E+03  0.41775256300E+02  0.21204859279E+04  0.21393412991E+04  0.10100000352E+00 0. -1.
       -3    1    3    3    0  502  0.28031311371E+03 -0.41775256300E+02 -0.13284679047E+04  0.13583621011E+04  0.10100000352E+00 0.  1.
</event>
<event>
 5   0  0.8845526E-07  0.3255057E+04  0.7818609E-02  0.8174426E-01
        1   -1    0    0  501    0  0.00000000000E+00  0.00000000000E+00  0.17819574258E+04  0.17819574258E+04  0.50400001928E-02 0.  1.
       -1   -1    0    0    0  501  0.00000000000E+00  0.00000000000E+00 -0.14864830563E+04  0.14864830563E+04  0.50400001928E-02 0. -1.
    10030    2    1    2    0    0  0.00000000000E+00  0.00000000000E+00  0.29547436952E+03  0.32684404820E+04  0.32550573085E+04 0.  0.
        1    1    3    3  502    0  0.89711885559E+03  0.13269091059E+04 -0.14213556958E+03  0.16080150922E+04  0.50400001928E-02 0. -1.
       -1    1    3    3    0  502 -0.89711885559E+03 -0.13269091059E+04  0.43760993910E+03  0.16604253899E+04  0.50400001928E-02 0.  1.
</event>
<event>
 5   0  0.9295663E-07  0.3285871E+04  0.7818609E-02  0.8166500E-01
        1   -1    0    0  501    0  0.00000000000E+00  0.00000000000E+00  0.24210865976E+04  0.24210865976E+04  0.50400001928E-02 0.  1.
       -1   -1    0    0    0  501  0.00000000000E+00  0.00000000000E+00 -0.11148869129E+04  0.11148869130E+04  0.50400001928E-02 0. -1.
    10030    2    1    2    0    0  0.00000000000E+00  0.00000000000E+00  0.13061996847E+04  0.35359735106E+04  0.32858714295E+04 0.  0.
        4    1    3    3  502    0  0.10924358400E+04  0.36004887841E+03  0.19154993872E+04  0.22343210993E+04  0.12699999809E+01 0.  1.
       -4    1    3    3    0  502 -0.10924358400E+04 -0.36004887841E+03 -0.60929970255E+03  0.13016524113E+04  0.12699999809E+01 0. -1.
</event>
<event>
 5   0  0.2574803E-06  0.3301250E+04  0.7818609E-02  0.8162577E-01
       -2   -1    0    0    0  501  0.00000000000E+00  0.00000000000E+00  0.12519306984E+04  0.12519306984E+04  0.25500000920E-02 0.  1.
        2   -1    0    0  501    0  0.00000000000E+00  0.00000000000E+00 -0.21762885795E+04  0.21762885795E+04  0.25500000920E-02 0. -1.
    10030    2    1    2    0    0  0.00000000000E+00  0.00000000000E+00 -0.92435788101E+03  0.34282192779E+04  0.33012497520E+04 0.  0.
        4    1    3    3  502    0  0.14389130842E+04  0.39938630352E+03 -0.11924914557E+04  0.19110253186E+04  0.12699999809E+01 0.  1.
       -4    1    3    3    0  502 -0.14389130842E+04 -0.39938630352E+03  0.26813357471E+03  0.15171939593E+04  0.12699999809E+01 0. -1.
</event>
<event>
 5   0  0.9268670E-07  0.2443951E+04  0.7818609E-02  0.8423230E-01
        1   -1    0    0  501    0  0.00000000000E+00  0.00000000000E+00  0.13174069088E+04  0.13174069088E+04  0.50400001928E-02 0.  1.
       -1   -1    0    0    0  501  0.00000000000E+00  0.00000000000E+00 -0.11334568844E+04  0.11334568844E+04  0.50400001928E-02 0. -1.
    10030    2    1    2    0    0  0.00000000000E+00  0.00000000000E+00  0.18395002443E+03  0.24508637932E+04  0.24439508427E+04 0.  0.
        3    1    3    3  502    0  0.30514874001E+02 -0.12212629942E+04  0.63443498054E+02  0.12232904587E+04  0.10100000352E+00 0.  1.
       -3    1    3    3    0  502 -0.30514874001E+02  0.12212629942E+04  0.12050652637E+03  0.12275733346E+04  0.10100000352E+00 0. -1.
</event>
<event>
 5   0  0.9530268E-07  0.3315061E+04  0.7818609E-02  0.8159074E-01
        1   -1    0    0  501    0  0.00000000000E+00  0.00000000000E+00  0.22738962832E+04  0.22738962832E+04  0.50400001928E-02 0. -1.
       -1   -1    0    0    0  501  0.00000000000E+00  0.00000000000E+00 -0.12082377989E+04  0.12082377989E+04  0.50400001928E-02 0.  1.
    10030    2    1    2    0    0  0.00000000000E+00  0.00000000000E+00  0.10656584842E+04  0.34821340821E+04  0.33150610493E+04 0.  0.
        5    1    3    3  502    0 -0.16141389688E+04 -0.37611950981E+03  0.55571861539E+03  0.17480720139E+04  0.46999998093E+01 0.  1.
       -5    1    3    3    0  502  0.16141389688E+04  0.37611950981E+03  0.50993986886E+03  0.17340620682E+04  0.46999998093E+01 0. -1.
</event>
<event>
 5   0  0.9295663E-07  0.3313250E+04  0.7818609E-02  0.8159532E-01
       -1   -1    0    0    0  501  0.00000000000E+00  0.00000000000E+00  0.18720669717E+04  0.18720669718E+04  0.50400001928E-02 0.  1.
        1   -1    0    0  501    0  0.00000000000E+00  0.00000000000E+00 -0.14659770451E+04  0.14659770451E+04  0.50400001928E-02 0. -1.
    10030    2    1    2    0    0  0.00000000000E+00  0.00000000000E+00  0.40608992663E+03  0.33380440169E+04  0.33132504931E+04 0.  0.
        4    1    3    3  502    0  0.15101282855E+04  0.20930828332E+03 -0.44996283308E+03  0.15895803094E+04  0.12699999809E+01 0. -1.
       -4    1    3    3    0  502 -0.15101282855E+04 -0.20930828332E+03  0.85605275972E+03  0.17484637075E+04  0.12699999809E+01 0.  1.
</event>
<event>
 5   0  0.2614212E-06  0.3172084E+04  0.7818609E-02  0.8196229E-01
       -2   -1    0    0    0  501  0.00000000000E+00  0.00000000000E+00  0.16772955156E+04  0.16772955156E+04  0.25500000920E-02 0.  1.
        2   -1    0    0  501    0  0.00000000000E+00  0.00000000000E+00 -0.14997531830E+04  0.14997531831E+04  0.25500000920E-02 0. -1.
    10030    2    1    2    0    0  0.00000000000E+00  0.00000000000E+00  0.17754233256E+03  0.31770486987E+04  0.31720840395E+04 0.  0.
        2    1    3    3  502    0  0.70656319486E+03 -0.11357458021E+04  0.94238391144E+03  0.16362266077E+04  0.25500000920E-02 0.  1.
       -2    1    3    3    0  502 -0.70656319486E+03  0.11357458021E+04 -0.76484157887E+03  0.15408220910E+04  0.25500000920E-02 0. -1.
</event>
<event>
 5   0  0.2574803E-06  0.3283044E+04  0.7818609E-02  0.8167223E-01
        2   -1    0    0  501    0  0.00000000000E+00  0.00000000000E+00  0.18675288459E+04  0.18675288459E+04  0.25500000920E-02 0.  1.
       -2   -1    0    0    0  501  0.00000000000E+00  0.00000000000E+00 -0.14428662653E+04  0.14428662653E+04  0.25500000920E-02 0. -1.
    10030    2    1    2    0    0  0.00000000000E+00  0.00000000000E+00  0.42466258068E+03  0.33103951112E+04  0.32830439359E+04 0.  0.
        4    1    3    3  502    0 -0.14171149194E+04 -0.78950576696E+03 -0.40875687241E+02  0.16227157747E+04  0.12699999809E+01 0. -1.
       -4    1    3    3    0  502  0.14171149194E+04  0.78950576696E+03  0.46553826792E+03  0.16876793365E+04  0.12699999809E+01 0.  1.
</event>
<event>
 5   0  0.2574803E-06  0.3331325E+04  0.7818609E-02  0.8154970E-01
       -2   -1    0    0    0  501  0.00000000000E+00  0.00000000000E+00  0.15847733873E+04  0.15847733873E+04  0.25500000920E-02 0. -1.
        2   -1    0    0  501    0  0.00000000000E+00  0.00000000000E+00 -0.17506799311E+04  0.17506799311E+04  0.25500000920E-02 0.  1.
    10030    2    1    2    0    0  0.00000000000E+00  0.00000000000E+00 -0.16590654375E+03  0.33354533184E+04  0.33313246401E+04 0.  0.
        4    1    3    3  502    0  0.56691473880E+03  0.10172798386E+04  0.11093957456E+04  0.16084188274E+04  0.12699999809E+01 0. -1.
       -4    1    3    3    0  502 -0.56691473880E+03 -0.10172798386E+04 -0.12753022893E+04  0.17270344910E+04  0.12699999809E+01 0.  1.
</event>
<event>
 5   0  0.9295663E-07  0.3260108E+04  0.7818609E-02  0.8173121E-01
       -1   -1    0    0    0  501  0.00000000000E+00  0.00000000000E+00  0.13344118661E+04  0.13344118661E+04  0.50400001928E-02 0.  1.
        1   -1    0    0  501    0  0.00000000000E+00  0.00000000000E+00 -0.19911957798E+04  0.19911957798E+04  0.50400001928E-02 0. -1.
    10030    2    1    2    0    0  0.00000000000E+00  0.00000000000E+00 -0.65678391371E+03  0.33256076459E+04  0.32601075297E+04 0.  0.
        4    1    3    3  502    0 -0.53583784377E+03 -0.11924103913E+04 -0.13216639798E+04  0.18589679999E+04  0.12699999809E+01 0. -1.
       -4    1    3    3    0  502  0.53583784377E+03  0.11924103913E+04  0.66488006613E+03  0.14666396460E+04  0.12699999809E+01 0.  1.
</event>
<event>
 5   0  0.2614212E-06  0.3262639E+04  0.7818609E-02  0.8172467E-01
        2   -1    0    0  501    0  0.00000000000E+00  0.00000000000E+00  0.24584026091E+04  0.24584026091E+04  0.25500000920E-02 0. -1.
       -2   -1    0    0    0  501  0.00000000000E+00  0.00000000000E+00 -0.10824928392E+04  0.10824928392E+04  0.25500000920E-02 0.  1.
    10030    2    1    2    0    0  0.00000000000E+00  0.00000000000E+00  0.13759097700E+04  0.35408954483E+04  0.32626389443E+04 0.  0.
        2    1    3    3  502    0 -0.14657179585E+04 -0.13945736095E+03  0.14503059024E+04  0.20666796317E+04  0.25500000920E-02 0. -1.
       -2    1    3    3    0  502  0.14657179585E+04  0.13945736095E+03 -0.74396132444E+02  0.14742158166E+04  0.25500000920E-02 0.  1.
</event>
<event>
 5   0  0.2574803E-06  0.3203064E+04  0.7818609E-02  0.8188008E-01
       -2   -1    0    0    0  501  0.00000000000E+00  0.00000000000E+00  0.12169290228E+04  0.12169290228E+04  0.25500000920E-02 0. -1.
        2   -1    0    0  501    0  0.00000000000E+00  0.00000000000E+00 -0.21076863112E+04  0.21076863112E+04  0.25500000920E-02 0.  1.
    10030    2    1    2    0    0  0.00000000000E+00  0.00000000000E+00 -0.89075728837E+03  0.33246153341E+04  0.32030639352E+04 0.  0.
        4    1    3    3  502    0 -0.12727786408E+04 -0.65363015370E+03  0.30144326975E+03  0.14622132212E+04  0.12699999809E+01 0. -1.
       -4    1    3    3    0  502  0.12727786408E+04  0.65363015370E+03 -0.11922005581E+04  0.18624021129E+04  0.12699999809E+01 0.  1.
</event>
<event>
 5   0  0.2658600E-06  0.3357378E+04  0.7818609E-02  0.8148447E-01
       -2   -1    0    0    0  501  0.00000000000E+00  0.00000000000E+00  0.18391572597E+04  0.18391572598E+04  0.25500000920E-02 0.  1.
        2   -1    0    0  501    0  0.00000000000E+00  0.00000000000E+00 -0.15322216865E+04  0.15322216865E+04  0.25500000920E-02 0. -1.
    10030    2    1    2    0    0  0.00000000000E+00  0.00000000000E+00  0.30693557327E+03  0.33713789462E+04  0.33573779282E+04 0.  0.
        5    1    3    3  502    0 -0.13174139019E+04  0.67930162114E+03  0.94475422051E+03  0.17577294185E+04  0.46999998093E+01 0.  1.
       -5    1    3    3    0  502  0.13174139019E+04 -0.67930162114E+03 -0.63781864724E+03  0.16136495277E+04  0.46999998093E+01 0. -1.
</event>
<event>
 5   0  0.8705956E-07  0.3241643E+04  0.7818609E-02  0.8177905E-01
       -1   -1    0    0    0  501  0.00000000000E+00  0.00000000000E+00  0.15477935844E+04  0.15477935844E+04  0.50400001928E-02 0. -1.
        1   -1    0    0  501    0  0.00000000000E+00  0.00000000000E+00 -0.16972952631E+04  0.16972952631E+04  0.50400001928E-02 0.  1.
    10030    2    1    2    0    0  0.00000000000E+00  0.00000000000E+00 -0.14950167868E+03  0.32450888475E+04  0.32416432370E+04 0.  0.
        2    1    3    3  502    0 -0.15828145602E+04 -0.34061472316E+03  0.11083154620E+01  0.16190495823E+04  0.25500000920E-02 0.  1.
       -2    1    3    3    0  502  0.15828145602E+04  0.34061472316E+03 -0.15060999414E+03  0.16260392652E+04  0.25500000920E-02 0. -1.
</event>
<event>
 5   0  0.2658600E-06  0.3370816E+04  0.7818609E-02  0.8145106E-01
       -2   -1    0    0    0  501  0.00000000000E+00  0.00000000000E+00  0.12989753271E+04  0.12989753271E+04  0.25500000920E-02 0.  1.
        2   -1    0    0  501    0  0.00000000000E+00  0.00000000000E+00 -0.21868005761E+04  0.21868005761E+04  0.25500000920E-02 0. -1.
    10030    2    1    2    0    0  0.00000000000E+00  0.00000000000E+00 -0.88782524899E+03  0.34857759032E+04  0.33708159212E+04 0.  0.
        5    1    3    3  502    0  0.85794806170E+03  0.10176344176E+04 -0.15130602661E+04  0.20151992813E+04  0.46999998093E+01 0. -1.
       -5    1    3    3    0  502 -0.85794806170E+03 -0.10176344176E+04  0.62523501709E+03  0.14705766219E+04  0.46999998093E+01 0.  1.
</event>
<event>
 5   0  0.8520125E-07  0.3282365E+04  0.7818609E-02  0.8167397E-01
        3   -1    0    0  501    0  0.00000000000E+00  0.00000000000E+00  0.20468115820E+04  0.20468115845E+04  0.10100000352E+00 0. -1.
       -3   -1    0    0    0  501  0.00000000000E+00  0.00000000000E+00 -0.13159394069E+04  0.13159394108E+04  0.10100000352E+00 0.  1.
    10030    2    1    2    0    0  0.00000000000E+00  0.00000000000E+00  0.73087217507E+03  0.33627509953E+04  0.32823650194E+04 0.  0.
        4    1    3    3  502    0 -0.19144765988E+03 -0.85854821074E+03 -0.10540361815E+04  0.13728623826E+04  0.12699999809E+01 0.  1.
       -4    1    3    3    0  502  0.19144765988E+03  0.85854821074E+03  0.17849083566E+04  0.19898886127E+04  0.12699999809E+01 0. -1.
</event>
<event>
 5   0  0.8705956E-07  0.3243818E+04  0.7818609E-02  0.8177340E-01
       -1   -1    0    0    0  501  0.00000000000E+00  0.00000000000E+00  0.11316487009E+04  0.11316487009E+04  0.50400001928E-02 0. -1.
        1   -1    0    0  501    0  0.00000000000E+00  0.00000000000E+00 -0.23245634987E+04  0.23245634987E+04  0.50400001928E-02 0.  1.
    10030    2    1    2    0    0  0.00000000000E+00  0.00000000000E+00 -0.11929147978E+04  0.34562121996E+04  0.32438182831E+04 0.  0.
        2    1    3    3  502    0 -0.12744991686E+04 -0.71438681694E+03 -0.13467621543E+04  0.19870744715E+04  0.25500000920E-02 0. -1.
       -2    1    3    3    0  502  0.12744991686E+04  0.71438681694E+03  0.15384735654E+03  0.14691377281E+04  0.25500000920E-02 0.  1.
</event>
<event>
 5   0  0.2705859E-06  0.3316223E+04  0.7818609E-02  0.8158780E-01
       -2   -1    0    0    0  501  0.00000000000E+00  0.00000000000E+00  0.11665999458E+04  0.11665999458E+04  0.25500000920E-02 0.  1.
        2   -1    0    0  501    0  0.00000000000E+00  0.00000000000E+00 -0.23567068350E+04  0.23567068350E+04  0.25500000920E-02 0. -1.
    10030    2    1    2    0    0  0.00000000000E+00  0.00000000000E+00 -0.11901068892E+04  0.35233067808E+04  0.33162231927E+04 0.  0.
        1    1    3    3  502    0  0.16320115377E+04  0.28448596694E+03 -0.52037824462E+03  0.17364295097E+04  0.50400001928E-02 0. -1.
       -1    1    3    3    0  502 -0.16320115377E+04 -0.28448596694E+03 -0.66972864460E+03  0.17868772711E+04  0.50400001928E-02 0.  1.
</event>
<event>
 5   0  0.9295663E-07  0.2805746E+04  0.7818609E-02  0.8301487E-01
        1   -1    0    0  501    0  0.00000000000E+00  0.00000000000E+00  0.85058078178E+03  0.85058078180E+03  0.50400001928E-02 0. -1.
       -1   -1    0    0    0  501  0.00000000000E+00  0.00000000000E+00 -0.23137745268E+04  0.23137745268E+04  0.50400001928E-02 0.  1.
    10030    2    1    2    0    0  0.00000000000E+00  0.00000000000E+00 -0.14631937450E+04  0.31643553086E+04  0.28057456377E+04 0.  0.
        4    1    3    3  502    0  0.55782171039E+03  0.81056735797E+03  0.39614018804E+03  0.10607135164E+04  0.12699999809E+01 0. -1.
       -4    1    3    3    0  502 -0.55782171039E+03 -0.81056735797E+03 -0.18593339330E+04  0.21036417922E+04  0.12699999809E+01 0.  1.
</event>
<event>
 5   0  0.2674551E-06  0.3232415E+04  0.7818609E-02  0.8180309E-01
       -2   -1    0    0    0  501  0.00000000000E+00  0.00000000000E+00  0.18775288044E+04  0.18775288044E+04  0.25500000920E-02 0.  1.
        2   -1    0    0  501    0  0.00000000000E+00  0.00000000000E+00 -0.13912579456E+04  0.13912579456E+04  0.25500000920E-02 0. -1.
    10030    2    1    2    0    0  0.00000000000E+00  0.00000000000E+00  0.48627085880E+03  0.32687867500E+04  0.32324151140E+04 0.  0.
        3    1    3    3  502    0  0.83054340028E+01 -0.12344895367E+04  0.12979899302E+04  0.17913155126E+04  0.10100000352E+00 0.  1.
       -3    1    3    3    0  502 -0.83054340028E+01  0.12344895367E+04 -0.81171907141E+03  0.14774712375E+04  0.10100000352E+00 0. -1.
</event>
<event>
 5   0  0.9530268E-07  0.3305984E+04  0.7818609E-02  0.8161374E-01
        1   -1    0    0  501    0  0.00000000000E+00  0.00000000000E+00  0.14684456582E+04  0.14684456582E+04  0.50400001928E-02 0.  1.
       -1   -1    0    0    0  501  0.00000000000E+00  0.00000000000E+00 -0.18607314389E+04  0.18607314389E+04  0.50400001928E-02 0. -1.
    10030    2    1    2    0    0  0.00000000000E+00  0.00000000000E+00 -0.39228578064E+03  0.33291770971E+04  0.33059842725E+04 0.  0.
        5    1    3    3  502    0  0.88541204938E+03 -0.10617533682E+04  0.71635210613E+03  0.15570668393E+04  0.46999998093E+01 0. -1.
       -5    1    3    3    0  502 -0.88541204938E+03  0.10617533682E+04 -0.11086378868E+04  0.17721102578E+04  0.46999998093E+01 0.  1.
</event>
<event>
 5   0  0.9268670E-07  0.3304368E+04  0.7818609E-02  0.8161785E-01
       -1   -1    0    0    0  501  0.00000000000E+00  0.00000000000E+00  0.19486358877E+04  0.19486358877E+04  0.50400001928E-02 0. -1.
        1   -1    0    0  501    0  0.00000000000E+00  0.00000000000E+00 -0.14008318523E+04  0.14008318523E+04  0.50400001928E-02 0.  1.
    10030    2    1    2    0    0  0.00000000000E+00  0.00000000000E+00  0.54780403538E+03  0.33494677400E+04  0.33043675462E+04 0.  0.
        3    1    3    3  502    0 -0.63431858894E+03 -0.12920270833E+04  0.10961561388E+04  0.18092131845E+04  0.10100000352E+00 0. -1.
       -3    1    3    3    0  502  0.63431858894E+03  0.12920270833E+04 -0.54835210338E+03  0.15402545555E+04  0.10100000352E+00 0.  1.
</event>
<event>
 5   0  0.2614212E-06  0.3280141E+04  0.7818609E-02  0.8167967E-01
        2   -1    0    0  501    0  0.00000000000E+00  0.00000000000E+00  0.25406173122E+04  0.25406173122E+04  0.25500000920E-02 0.  1.
       -2   -1    0    0    0  501  0.00000000000E+00  0.00000000000E+00 -0.10587313687E+04  0.10587313687E+04  0.25500000920E-02 0. -1.
    10030    2    1    2    0    0  0.00000000000E+00  0.00000000000E+00  0.14818859436E+04  0.35993486809E+04  0.32801409995E+04 0.  0.
        2    1    3    3  502    0 -0.23633295465E+03  0.81287379419E+03  0.22823542091E+04  0.24342879465E+04  0.25500000920E-02 0.  1.
       -2    1    3    3    0  502  0.23633295465E+03 -0.81287379419E+03 -0.80046826551E+03  0.11650607344E+04  0.25500000920E-02 0. -1.
</event>
<event>
 5   0  0.2658600E-06  0.3338313E+04  0.7818609E-02  0.8153215E-01
       -2   -1    0    0    0  501  0.00000000000E+00  0.00000000000E+00  0.23688893442E+04  0.23688893442E+04  0.25500000920E-02 0. -1.
        2   -1    0    0  501    0  0.00000000000E+00  0.00000000000E+00 -0.11761135374E+04  0.11761135374E+04  0.25500000920E-02 0.  1.
    10030    2    1    2    0    0  0.00000000000E+00  0.00000000000E+00  0.11927758068E+04  0.35450028816E+04  0.33383126434E+04 0.  0.
        5    1    3    3  502    0 -0.91440967989E+03  0.13905487962E+04  0.73192131898E+03  0.18181039366E+04  0.46999998093E+01 0. -1.
       -5    1    3    3    0  502  0.91440967989E+03 -0.13905487962E+04  0.46085448786E+03  0.17268989450E+04  0.46999998093E+01 0.  1.
</event>
<event>
 5   0  0.9295663E-07  0.3296680E+04  0.7818609E-02  0.8163741E-01
       -1   -1    0    0    0  501  0.00000000000E+00  0.00000000000E+00  0.23909235473E+04  0.23909235473E+04  0.50400001928E-02 0.  1.
        1   -1    0    0  501    0  0.00000000000E+00  0.00000000000E+00 -0.11363913468E+04  0.11363913468E+04  0.50400001928E-02 0. -1.
    10030    2    1    2    0    0  0.00000000000E+00  0.00000000000E+00  0.12545322005E+04  0.35273148941E+04  0.32966800452E+04 0.  0.
        4    1    3    3  502    0 -0.23661230809E+03 -0.14037682585E+04 -0.26181346585E+03  0.14474455471E+04  0.12699999809E+01 0. -1.
       -4    1    3    3    0  502  0.23661230809E+03  0.14037682585E+04  0.15163456663E+04  0.20798693470E+04  0.12699999809E+01 0.  1.
</event>
<event>
 5   0  0.2574803E-06  0.3247299E+04  0.7818609E-02  0.8176436E-01
        2   -1    0    0  501    0  0.00000000000E+00  0.00000000000E+00  0.14063499823E+04  0.14063499823E+04  0.25500000920E-02 0.  1.
       -2   -1    0    0    0  501  0.00000000000E+00  0.00000000000E+00 -0.18745240737E+04  0.18745240737E+04  0.25500000920E-02 0. -1.
    10030    2    1    2    0    0  0.00000000000E+00  0.00000000000E+00 -0.46817409142E+03  0.32808740560E+04  0.32472985066E+04 0.  0.
        4    1    3    3  502    0  0.51607803770E+03  0.14271185496E+04  0.34914354977E+03  0.15572112017E+04  0.12699999809E+01 0. -1.
       -4    1    3    3    0  502 -0.51607803770E+03 -0.14271185496E+04 -0.81731764119E+03  0.17236628542E+04  0.12699999809E+01 0.  1.
</event>
<event>
 5   0  0.9530268E-07  0.3066932E+04  0.7818609E-02  0.8224872E-01
        1   -1    0    0  501    0  0.00000000000E+00  0.00000000000E+00  0.17762729437E+04  0.17762729437E+04  0.50400001928E-02 0.  1.
       -1   -1    0    0    0  501  0.00000000000E+00  0.00000000000E+00 -0.13238494367E+04  0.13238494367E+04  0.50400001928E-02 0. -1.
    10030    2    1    2    0    0  0.00000000000E+00  0.00000000000E+00  0.45242350699E+03  0.31001223805E+04  0.30669319758E+04 0.  0.
        5    1    3    3  502    0  0.10094582196E+04  0.84198992962E+03  0.10244046651E+04  0.16665473130E+04  0.46999998093E+01 0.  1.
       -5    1    3    3    0  502 -0.10094582196E+04 -0.84198992962E+03 -0.57198115814E+03  0.14335750674E+04  0.46999998093E+01 0. -1.
</event>
<event>
 5   0  0.2614212E-06  0.3280573E+04  0.7818609E-02  0.8167856E-01
        2   -1    0    0  501    0  0.00000000000E+00  0.00000000000E+00  0.20505339216E+04  0.20505339216E+04  0.25500000920E-02 0. -1.
       -2   -1    0    0    0  501  0.00000000000E+00  0.00000000000E+00 -0.13121167264E+04  0.13121167264E+04  0.25500000920E-02 0.  1.
    10030    2    1    2    0    0  0.00000000000E+00  0.00000000000E+00  0.73841719522E+03  0.33626506480E+04  0.32805730332E+04 0.  0.
        2    1    3    3  502    0 -0.22567258760E+02  0.15595635907E+04 -0.15122669758E+03  0.15670409659E+04  0.25500000920E-02 0.  1.
       -2    1    3    3    0  502  0.22567258760E+02 -0.15595635907E+04  0.88964389279E+03  0.17956096821E+04  0.25500000920E-02 0. -1.
</event>
<event>
 5   0  0.2674551E-06  0.3278385E+04  0.7818609E-02  0.8168417E-01
        2   -1    0    0  501    0  0.00000000000E+00  0.00000000000E+00  0.23362075498E+04  0.23362075498E+04  0.25500000920E-02 0.  1.
       -2   -1    0    0    0  501  0.00000000000E+00  0.00000000000E+00 -0.11501338822E+04  0.11501338822E+04  0.25500000920E-02 0. -1.
    10030    2    1    2    0    0  0.00000000000E+00  0.00000000000E+00  0.11860736675E+04  0.34863414320E+04  0.32783846381E+04 0.  0.
        3    1    3    3  502    0 -0.11483921996E+04  0.49680393809E+03 -0.53306390991E+03  0.13600646820E+04  0.10100000352E+00 0. -1.
       -3    1    3    3    0  502  0.11483921996E+04 -0.49680393809E+03  0.17191375774E+04  0.21262767500E+04  0.10100000352E+00 0.  1.
</event>
<event>
 5   0  0.8705956E-07  0.3131894E+04  0.7818609E-02  0.8207039E-01
       -1   -1    0    0    0  501  0.00000000000E+00  0.00000000000E+00  0.13947140056E+04  0.13947140056E+04  0.50400001928E-02 0.  1.
        1   -1    0    0  501    0  0.00000000000E+00  0.00000000000E+00 -0.17582024531E+04  0.17582024531E+04  0.50400001928E-02 0. -1.
    10030    2    1    2    0    0  0.00000000000E+00  0.00000000000E+00 -0.36348844746E+03  0.31529164587E+04  0.31318937313E+04 0.  0.
        2    1    3    3  502    0 -0.10863938655E+03  0.89506020534E+03 -0.14706720857E+04  0.17250541067E+04  0.25500000920E-02 0. -1.
       -2    1    3    3    0  502  0.10863938655E+03 -0.89506020534E+03  0.11071836382E+04  0.14278623520E+04  0.25500000920E-02 0.  1.
</event>
<event>
 5   0  0.9530268E-07  0.3373573E+04  0.7818609E-02  0.8144423E-01
        1   -1    0    0  501    0  0.00000000000E+00  0.00000000000E+00  0.10047457434E+04  0.10047457435E+04  0.50400001928E-02 0. -1.
       -1   -1    0    0    0  501  0.00000000000E+00  0.00000000000E+00 -0.28318099505E+04  0.28318099505E+04  0.50400001928E-02 0.  1.
    10030    2    1    2    0    0  0.00000000000E+00  0.00000000000E+00 -0.18270642070E+04  0.38365556940E+04  0.33735731763E+04 0.  0.
        5    1    3    3  502    0 -0.41801868129E+03  0.60588105664E+03 -0.26395115621E+04  0.27402326269E+04  0.46999998093E+01 0.  1.
       -5    1    3    3    0  502  0.41801868129E+03 -0.60588105664E+03  0.81244735507E+03  0.10963230671E+04  0.46999998093E+01 0. -1.
</event>
<event>
 5   0  0.2674551E-06  0.3419890E+04  0.7818609E-02  0.8133042E-01
        2   -1    0    0  501    0  0.00000000000E+00  0.00000000000E+00  0.21630609115E+04  0.21630609115E+04  0.25500000920E-02 0.  1.
       -2   -1    0    0    0  501  0.00000000000E+00  0.00000000000E+00 -0.13517472214E+04  0.13517472214E+04  0.25500000920E-02 0. -1.
    10030    2    1    2    0    0  0.00000000000E+00  0.00000000000E+00  0.81131369008E+03  0.35148081329E+04  0.34198898092E+04 0.  0.
        3    1    3    3  502    0 -0.71563706815E+03  0.89870904152E+03 -0.89602501173E+03  0.14569403510E+04  0.10100000352E+00 0. -1.
       -3    1    3    3    0  502  0.71563706815E+03 -0.89870904152E+03  0.17073387018E+04  0.20578677818E+04  0.10100000352E+00 0.  1.
</event>
<event>
 5   0  0.2674551E-06  0.3306934E+04  0.7818609E-02  0.8161133E-01
       -2   -1    0    0    0  501  0.00000000000E+00  0.00000000000E+00  0.13154228951E+04  0.13154228951E+04  0.25500000920E-02 0.  1.
        2   -1    0    0  501    0  0.00000000000E+00  0.00000000000E+00 -0.20783837756E+04  0.20783837756E+04  0.25500000920E-02 0. -1.
    10030    2    1    2    0    0  0.00000000000E+00  0.00000000000E+00 -0.76296088054E+03  0.33938066707E+04  0.33069342922E+04 0.  0.
        3    1    3    3  502    0 -0.11120179093E+04 -0.11853857253E+04 -0.69807796901E+02  0.16268362816E+04  0.10100000352E+00 0. -1.
       -3    1    3    3    0  502  0.11120179093E+04  0.11853857253E+04 -0.69315308364E+03  0.17669703891E+04  0.10100000352E+00 0.  1.
</event>
<event>
 5   0  0.2614212E-06  0.3331021E+04  0.7818609E-02  0.8155047E-01
        2   -1    0    0  501    0  0.00000000000E+00  0.00000000000E+00  0.24384582554E+04  0.24384582554E+04  0.25500000920E-02 0. -1.
       -2   -1    0    0    0  501  0.00000000000E+00  0.00000000000E+00 -0.11375730744E+04  0.11375730744E+04  0.25500000920E-02 0.  1.
    10030    2    1    2    0    0  0.00000000000E+00  0.00000000000E+00  0.13008851810E+04  0.35760313298E+04  0.33310205369E+04 0.  0.
        2    1    3    3  502    0  0.14024248312E+04 -0.33671427578E+03  0.15446253641E+04  0.21133006001E+04  0.25500000920E-02 0. -1.
       -2    1    3    3    0  502 -0.14024248312E+04  0.33671427578E+03 -0.24374018311E+03  0.14627307297E+04  0.25500000920E-02 0.  1.
</event>
<event>
 5   0  0.8845526E-07  0.3345921E+04  0.7818609E-02  0.8151308E-01
        1   -1    0    0  501    0  0.00000000000E+00  0.00000000000E+00  0.12841839739E+04  0.12841839739E+04  0.50400001928E-02 0. -1.
       -1   -1    0    0    0  501  0.00000000000E+00  0.00000000000E+00 -0.21794359409E+04  0.21794359409E+04  0.50400001928E-02 0.  1.
    10030    2    1    2    0    0  0.00000000000E+00  0.00000000000E+00 -0.89525196701E+03  0.34636199148E+04  0.33459209240E+04 0.  0.
        1    1    3    3  502    0  0.14448736960E+04  0.11261010288E+02  0.42524966763E+03  0.15061952356E+04  0.50400001928E-02 0. -1.
       -1    1    3    3    0  502 -0.14448736960E+04 -0.11261010288E+02 -0.13205016346E+04  0.19574246792E+04  0.50400001928E-02 0.  1.
</event>
<event>
 5   0  0.2574803E-06  0.3288833E+04  0.7818609E-02  0.8165743E-01
       -2   -1    0    0    0  501  0.00000000000E+00  0.00000000000E+00  0.11600779108E+04  0.11600779108E+04  0.25500000920E-02 0. -1.
        2   -1    0    0  501    0  0.00000000000E+00  0.00000000000E+00 -0.23309684203E+04  0.23309684203E+04  0.25500000920E-02 0.  1.
    10030    2    1    2    0    0  0.00000000000E+00  0.00000000000E+00 -0.11708905095E+04  0.34910463311E+04  0.32888326046E+04 0.  0.
        4    1    3    3  502    0 -0.15999066495E+04 -0.75062348140E+01 -0.98873373465E+03  0.18807853789E+04  0.12699999809E+01 0. -1.
       -4    1    3    3    0  502  0.15999066495E+04  0.75062348140E+01 -0.18215677482E+03  0.16102609522E+04  0.12699999809E+01 0.  1.
</event>
<event>
 5   0  0.2674551E-06  0.3324513E+04  0.7818609E-02  0.8156686E-01
       -2   -1    0    0    0  501  0.00000000000E+00  0.00000000000E+00  0.90386267639E+03  0.90386267639E+03  0.25500000920E-02 0.  1.
        2   -1    0    0  501    0  0.00000000000E+00  0.00000000000E+00 -0.30569863640E+04  0.30569863640E+04  0.25500000920E-02 0. -1.
    10030    2    1    2    0    0  0.00000000000E+00  0.00000000000E+00 -0.21531236876E+04  0.39608490403E+04  0.33245125216E+04 0.  0.
        3    1    3    3  502    0  0.11988551961E+04 -0.93574550506E+03 -0.27714391588E+03  0.15458596935E+04  0.10100000352E+00 0.  1.
       -3    1    3    3    0  502 -0.11988551961E+04  0.93574550506E+03 -0.18759797717E+04  0.24149893469E+04  0.10100000352E+00 0. -1.
</event>
<event>
 5   0  0.8705956E-07  0.3226938E+04  0.7818609E-02  0.8181739E-01
       -1   -1    0    0    0  501  0.00000000000E+00  0.00000000000E+00  0.16443012525E+04  0.16443012525E+04  0.50400001928E-02 0.  1.
        1   -1    0    0  501    0  0.00000000000E+00  0.00000000000E+00 -0.15832146143E+04  0.15832146143E+04  0.50400001928E-02 0. -1.
    10030    2    1    2    0    0  0.00000000000E+00  0.00000000000E+00  0.61086638206E+02  0.32275158667E+04  0.32269377268E+04 0.  0.
        2    1    3    3  502    0 -0.46287103847E+03 -0.14947712843E+04 -0.36283489136E+03  0.16063125316E+04  0.25500000920E-02 0. -1.
       -2    1    3    3    0  502  0.46287103847E+03  0.14947712843E+04  0.42392152956E+03  0.16212033352E+04  0.25500000920E-02 0.  1.
</event>
<event>
 5   0  0.8845526E-07  0.3304542E+04  0.7818609E-02  0.8161741E-01
        1   -1    0    0  501    0  0.00000000000E+00  0.00000000000E+00  0.20807432741E+04  0.20807432741E+04  0.50400001928E-02 0.  1.
       -1   -1    0    0    0  501  0.00000000000E+00  0.00000000000E+00 -0.13120311790E+04  0.13120311790E+04  0.50400001928E-02 0. -1.
    10030    2    1    2    0    0  0.00000000000E+00  0.00000000000E+00  0.76871209511E+03  0.33927744532E+04  0.33045423594E+04 0.  0.
        1    1    3    3  502    0 -0.88836257682E+03  0.11794110706E+04 -0.37692782592E+03  0.15239006291E+04  0.50400001928E-02 0. -1.
       -1    1    3    3    0  502  0.88836257682E+03 -0.11794110706E+04  0.11456399210E+04  0.18688738240E+04  0.50400001928E-02 0.  1.
</event>
<event>
 5   0  0.2705859E-06  0.3239629E+04  0.7818609E-02  0.8178429E-01
        2   -1    0    0  501    0  0.00000000000E+00  0.00000000000E+00  0.19561439011E+04  0.19561439011E+04  0.25500000920E-02 0.  1.
       -2   -1    0    0    0  501  0.00000000000E+00  0.00000000000E+00 -0.13413119793E+04  0.13413119793E+04  0.25500000920E-02 0. -1.
    10030    2    1    2    0    0  0.00000000000E+00  0.00000000000E+00  0.61483192182E+03  0.32974558804E+04  0.32396291441E+04 0.  0.
        1    1    3    3  502    0 -0.15312635572E+03 -0.11432088442E+04 -0.85017290076E+03  0.14328880290E+04  0.50400001928E-02 0. -1.
       -1    1    3    3    0  502  0.15312635572E+03  0.11432088442E+04  0.14650048226E+04  0.18645678514E+04  0.50400001928E-02 0.  1.
</event>
<event>
 5   0  0.9530268E-07  0.3332961E+04  0.7818609E-02  0.8154559E-01
        1   -1    0    0  501    0  0.00000000000E+00  0.00000000000E+00  0.24993050464E+04  0.24993050464E+04  0.50400001928E-02 0. -1.
       -1   -1    0    0    0  501  0.00000000000E+00  0.00000000000E+00 -0.11111720250E+04  0.11111720250E+04  0.50400001928E-02 0.  1.
    10030    2    1    2    0    0  0.00000000000E+00  0.00000000000E+00  0.13881330214E+04  0.36104770714E+04  0.33329613556E+04 0.  0.
        5    1    3    3  502    0  0.11999475479E+04 -0.77892580652E+03  0.16199475545E+04  0.21612153292E+04  0.46999998093E+01 0. -1.
       -5    1    3    3    0  502 -0.11999475479E+04  0.77892580652E+03 -0.23181453309E+03  0.14492617422E+04  0.46999998093E+01 0.  1.
</event>
<event>
 5   0  0.8845526E-07  0.3293088E+04  0.7818609E-02  0.8164656E-01
       -1   -1    0    0    0  501  0.00000000000E+00  0.00000000000E+00  0.14062743929E+04  0.14062743929E+04  0.50400001928E-02 0.  1.
        1   -1    0    0  501    0  0.00000000000E+00  0.00000000000E+00 -0.19278655188E+04  0.19278655189E+04  0.50400001928E-02 0. -1.
    10030    2    1    2    0    0  0.00000000000E+00  0.00000000000E+00 -0.52159112591E+03  0.33341399118E+04  0.32930884666E+04 0.  0.
        1    1    3    3  502    0 -0.11482441883E+04 -0.68392389676E+03  0.71290578107E+03  0.15147446205E+04  0.50400001928E-02 0.  1.
       -1    1    3    3    0  502  0.11482441883E+04  0.68392389676E+03 -0.12344969070E+04  0.18193952913E+04  0.50400001928E-02 0. -1.
</event>
<event>
 5   0  0.2674551E-06  0.3325922E+04  0.7818609E-02  0.8156331E-01
       -2   -1    0    0    0  501  0.00000000000E+00  0.00000000000E+00  0.18959214931E+04  0.18959214931E+04  0.25500000920E-02 0.  1.
        2   -1    0    0  501    0  0.00000000000E+00  0.00000000000E+00 -0.14586258399E+04  0.14586258399E+04  0.25500000920E-02 0. -1.
    10030    2    1    2    0    0  0.00000000000E+00  0.00000000000E+00  0.43729565318E+03  0.33545473329E+04  0.33259224766E+04 0.  0.
        3    1    3    3  502    0  0.41285544602E+03  0.11501693249E+04 -0.91893386744E+03  0.15289795807E+04  0.10100000352E+00 0. -1.
       -3    1    3    3    0  502 -0.41285544602E+03 -0.11501693249E+04  0.13562295206E+04  0.18255677522E+04  0.10100000352E+00 0.  1.
</event>
<event>
 5   0  0.8845526E-07  0.3245849E+04  0.7818609E-02  0.8176812E-01
        1   -1    0    0  501    0  0.00000000000E+00  0.00000000000E+00  0.19554311582E+04  0.19554311582E+04  0.50400001928E-02 0. -1.
       -1   -1    0    0    0  501  0.00000000000E+00  0.00000000000E+00 -0.13469581874E+04  0.13469581874E+04  0.50400001928E-02 0.  1.
    10030    2    1    2    0    0  0.00000000000E+00  0.00000000000E+00  0.60847297074E+03  0.33023893456E+04  0.32458490467E+04 0.  0.
        1    1    3    3  502    0 -0.41266925281E+03 -0.81565664564E+03  0.16686000164E+04  0.19025818486E+04  0.50400001928E-02 0. -1.
       -1    1    3    3    0  502  0.41266925281E+03  0.81565664564E+03 -0.10601270457E+04  0.13998074970E+04  0.50400001928E-02 0.  1.
</event>
<event>
 5   0  0.8845526E-07  0.3288452E+04  0.7818609E-02  0.8165840E-01
       -1   -1    0    0    0  501  0.00000000000E+00  0.00000000000E+00  0.25196056789E+04  0.25196056789E+04  0.50400001928E-02 0.  1.
        1   -1    0    0  501    0  0.00000000000E+00  0.00000000000E+00 -0.10729771595E+04  0.10729771595E+04  0.50400001928E-02 0. -1.
    10030    2    1    2    0    0  0.00000000000E+00  0.00000000000E+00  0.14466285193E+04  0.35925828384E+04  0.32884521249E+04 0.  0.
        1    1    3    3  502    0 -0.11193358727E+04 -0.11884483790E+04  0.50991034909E+03  0.17103598772E+04  0.50400001928E-02 0.  1.
       -1    1    3    3    0  502  0.11193358727E+04  0.11884483790E+04  0.93671817023E+03  0.18822229612E+04  0.50400001928E-02 0. -1.
</event>
<event>
 5   0  0.8705956E-07  0.3291401E+04  0.7818609E-02  0.8165087E-01
        1   -1    0    0  501    0  0.00000000000E+00  0.00000000000E+00  0.10894632388E+04  0.10894632388E+04  0.50400001928E-02 0.  1.
       -1   -1    0    0    0  501  0.00000000000E+00  0.00000000000E+00 -0.24859309530E+04  0.24859309530E+04  0.50400001928E-02 0. -1.
    10030    2    1    2    0    0  0.00000000000E+00  0.00000000000E+00 -0.13964677142E+04  0.35753941918E+04  0.32914011530E+04 0.  0.
        2    1    3    3  502    0 -0.12729618204E+04  0.56100761362E+03  0.25693541664E+03  0.14146296855E+04  0.25500000920E-02 0.  1.
       -2    1    3    3    0  502  0.12729618204E+04 -0.56100761362E+03 -0.16534031309E+04  0.21607645063E+04  0.25500000920E-02 0. -1.
</event>
<event>
 5   0  0.2705859E-06  0.3296644E+04  0.7818609E-02  0.8163750E-01
       -2   -1    0    0    0  501  0.00000000000E+00  0.00000000000E+00  0.14688640148E+04  0.14688640148E+04  0.25500000920E-02 0. -1.
        2   -1    0    0  501    0  0.00000000000E+00  0.00000000000E+00 -0.18497054590E+04  0.18497054590E+04  0.25500000920E-02 0.  1.
    10030    2    1    2    0    0  0.00000000000E+00  0.00000000000E+00 -0.38084144416E+03  0.33185694738E+04  0.32966442251E+04 0.  0.
        1    1    3    3  502    0 -0.10736820659E+03  0.46010778456E+03  0.13992394904E+04  0.14768541758E+04  0.50400001928E-02 0. -1.
       -1    1    3    3    0  502  0.10736820659E+03 -0.46010778456E+03 -0.17800809346E+04  0.18417152980E+04  0.50400001928E-02 0.  1.
</event>
<event>
 5   0  0.2674551E-06  0.2667556E+04  0.7818609E-02  0.8345609E-01
        2   -1    0    0  501    0  0.00000000000E+00  0.00000000000E+00  0.13076974026E+04  0.13076974026E+04  0.25500000920E-02 0.  1.
       -2   -1    0    0    0  501  0.00000000000E+00  0.00000000000E+00 -0.13603788189E+04  0.13603788189E+04  0.25500000920E-02 0. -1.
    10030    2    1    2    0    0  0.00000000000E+00  0.00000000000E+00 -0.52681416332E+02  0.26680762215E+04  0.26675560710E+04 0.  0.
        3    1    3    3  502    0 -0.28805180353E+03  0.21991524455E+03  0.12575089288E+04  0.13086883787E+04  0.10100000352E+00 0.  1.
       -3    1    3    3    0  502  0.28805180353E+03 -0.21991524455E+03 -0.13101903452E+04  0.13593878428E+04  0.10100000352E+00 0. -1.
</event>
<event>
 5   0  0.2614212E-06  0.3520398E+04  0.7818609E-02  0.8108973E-01
        2   -1    0    0  501    0  0.00000000000E+00  0.00000000000E+00  0.31673012021E+04  0.31673012021E+04  0.25500000920E-02 0.  1.
       -2   -1    0    0    0  501  0.00000000000E+00  0.00000000000E+00 -0.97821464863E+03  0.97821464864E+03  0.25500000920E-02 0. -1.
    10030    2    1    2    0    0  0.00000000000E+00  0.00000000000E+00  0.21890865534E+04  0.41455158507E+04  0.35203979505E+04 0.  0.
        2    1    3    3  502    0  0.13290329535E+04 -0.11202317030E+04  0.14214177119E+04  0.22453676696E+04  0.25500000920E-02 0. -1.
       -2    1    3    3    0  502 -0.13290329535E+04  0.11202317030E+04  0.76766884154E+03  0.19001481811E+04  0.25500000920E-02 0.  1.
</event>
<event>
 5   0  0.2574803E-06  0.3341253E+04  0.7818609E-02  0.8152477E-01
       -2   -1    0    0    0  501  0.00000000000E+00  0.00000000000E+00  0.13458701564E+04  0.13458701564E+04  0.25500000920E-02 0.  1.
        2   -1    0    0  501    0  0.00000000000E+00  0.00000000000E+00 -0.20737465985E+04  0.20737465985E+04  0.25500000920E-02 0. -1.
    10030    2    1    2    0    0  0.00000000000E+00  0.00000000000E+00 -0.72787644209E+03  0.34196167550E+04  0.33412534528E+04 0.  0.
        4    1    3    3  502    0 -0.39409963204E+03 -0.29782496522E+03  0.12694168188E+04  0.13621434956E+04  0.12699999809E+01 0.  1.
       -4    1    3    3    0  502  0.39409963204E+03  0.29782496522E+03 -0.19972932609E+04  0.20574732593E+04  0.12699999809E+01 0. -1.
</event>
<event>
 5   0  0.2674551E-06  0.3275771E+04  0.7818609E-02  0.8169088E-01
       -2   -1    0    0    0  501  0.00000000000E+00  0.00000000000E+00  0.15296808008E+04  0.15296808008E+04  0.25500000920E-02 0. -1.
        2   -1    0    0  501    0  0.00000000000E+00  0.00000000000E+00 -0.17537439902E+04  0.17537439902E+04  0.25500000920E-02 0.  1.
    10030    2    1    2    0    0  0.00000000000E+00  0.00000000000E+00 -0.22406318942E+03  0.32834247910E+04  0.32757707559E+04 0.  0.
        3    1    3    3  502    0  0.12380925743E+04  0.44427810122E+03 -0.10902279880E+04  0.17084651971E+04  0.10100000352E+00 0.  1.
       -3    1    3    3    0  502 -0.12380925743E+04 -0.44427810122E+03  0.86616479861E+03  0.15749595938E+04  0.10100000352E+00 0. -1.
</event>
<event>
 5   0  0.8845526E-07  0.3368474E+04  0.7818609E-02  0.8145688E-01
       -1   -1    0    0    0  501  0.00000000000E+00  0.00000000000E+00  0.21260830652E+04  0.21260830652E+04  0.50400001928E-02 0.  1.
        1   -1    0    0  501    0  0.00000000000E+00  0.00000000000E+00 -0.13342159379E+04  0.13342159379E+04  0.50400001928E-02 0. -1.
    10030    2    1    2    0    0  0.00000000000E+00  0.00000000000E+00  0.79186712729E+03  0.34602990031E+04  0.33684737855E+04 0.  0.
        1    1    3    3  502    0  0.90326314030E+03 -0.13327887068E+04  0.90382399865E+03  0.18463769545E+04  0.50400001928E-02 0.  1.
       -1    1    3    3    0  502 -0.90326314030E+03  0.13327887068E+04 -0.11195687137E+03  0.16139220485E+04  0.50400001928E-02 0. -1.
</event>
<event>
 5   0  0.2574803E-06  0.3259760E+04  0.7818609E-02  0.8173211E-01
       -2   -1    0    0    0  501  0.00000000000E+00  0.00000000000E+00  0.23853359524E+04  0.23853359524E+04  0.25500000920E-02 0.  1.
        2   -1    0    0  501    0  0.00000000000E+00  0.00000000000E+00 -0.11136832654E+04  0.11136832654E+04  0.25500000920E-02 0. -1.
    10030    2    1    2    0    0  0.00000000000E+00  0.00000000000E+00  0.12716526870E+04  0.34990192178E+04  0.32597599498E+04 0.  0.
        4    1    3    3  502    0  0.10924885516E+04 -0.77024105201E+03  0.16368551914E+04  0.21133147054E+04  0.12699999809E+01 0.  1.
       -4    1    3    3    0  502 -0.10924885516E+04  0.77024105201E+03 -0.36520250441E+03  0.13857045124E+04  0.12699999809E+01 0. -1.
</event>
<event>
 5   0  0.2614212E-06  0.3308494E+04  0.7818609E-02  0.8160737E-01
        2   -1    0    0  501    0  0.00000000000E+00  0.00000000000E+00  0.20260490187E+04  0.20260490187E+04  0.25500000920E-02 0. -1.
       -2   -1    0    0    0  501  0.00000000000E+00  0.00000000000E+00 -0.13506746469E+04  0.13506746469E+04  0.25500000920E-02 0.  1.
    10030    2    1    2    0    0  0.00000000000E+00  0.00000000000E+00  0.67537437180E+03  0.33767236656E+04  0.33084939431E+04 0.  0.
        2    1    3    3  502    0 -0.10646983307E+04 -0.12042690722E+04  0.73649670044E+03  0.17681272362E+04  0.25500000920E-02 0. -1.
       -2    1    3    3    0  502  0.10646983307E+04  0.12042690722E+04 -0.61122328643E+02  0.16085964294E+04  0.25500000920E-02 0.  1.
</event>
<event>
 5   0  0.8705956E-07  0.3291753E+04  0.7818609E-02  0.8164997E-01
       -1   -1    0    0    0  501  0.00000000000E+00  0.00000000000E+00  0.12313273080E+04  0.12313273080E+04  0.50400001928E-02 0. -1.
        1   -1    0    0  501    0  0.00000000000E+00  0.00000000000E+00 -0.21999914709E+04  0.21999914709E+04  0.50400001928E-02 0.  1.
    10030    2    1    2    0    0  0.00000000000E+00  0.00000000000E+00 -0.96866416288E+03  0.34313187789E+04  0.32917530743E+04 0.  0.
        2    1    3    3  502    0 -0.87229672631E+03  0.12225922684E+04 -0.11861351254E+04  0.19137789761E+04  0.25500000920E-02 0.  1.
       -2    1    3    3    0  502  0.87229672631E+03 -0.12225922684E+04  0.21747096252E+03  0.15175398028E+04  0.25500000920E-02 0. -1.
</event>
<event>
 5   0  0.8705956E-07  0.3298306E+04  0.7818609E-02  0.8163327E-01
        1   -1    0    0  501    0  0.00000000000E+00  0.00000000000E+00  0.19323728915E+04  0.19323728915E+04  0.50400001928E-02 0.  1.
       -1   -1    0    0    0  501  0.00000000000E+00  0.00000000000E+00 -0.14074434903E+04  0.14074434903E+04  0.50400001928E-02 0. -1.
    10030    2    1    2    0    0  0.00000000000E+00  0.00000000000E+00  0.52492940115E+03  0.33398163818E+04  0.32983060179E+04 0.  0.
        2    1    3    3  502    0 -0.33589137960E+03 -0.12840822801E+04  0.12535656036E+04  0.18256826240E+04  0.25500000920E-02 0.  1.
       -2    1    3    3    0  502  0.33589137960E+03  0.12840822801E+04 -0.72863620247E+03  0.15141337578E+04  0.25500000920E-02 0. -1.
</event>
<event>
 5   0  0.2705859E-06  0.3322469E+04  0.7818609E-02  0.8157202E-01
        2   -1    0    0  501    0  0.00000000000E+00  0.00000000000E+00  0.28804821743E+04  0.28804821743E+04  0.25500000920E-02 0.  1.
       -2   -1    0    0    0  501  0.00000000000E+00  0.00000000000E+00 -0.95806871415E+03  0.95806871415E+03  0.25500000920E-02 0. -1.
    10030    2    1    2    0    0  0.00000000000E+00  0.00000000000E+00  0.19224134601E+04  0.38385508884E+04  0.33224688729E+04 0.  0.
        1    1    3    3  502    0 -0.15095285068E+04  0.66724952983E+03  0.11798104906E+04  0.20287560331E+04  0.50400001928E-02 0. -1.
       -1    1    3    3    0  502  0.15095285068E+04 -0.66724952983E+03  0.74260296952E+03  0.18097948553E+04  0.50400001928E-02 0.  1.
</event>
<event>
 5   0  0.8845526E-07  0.3315861E+04  0.7818609E-02  0.8158871E-01
       -1   -1    0    0    0  501  0.00000000000E+00  0.00000000000E+00  0.11195323834E+04  0.11195323834E+04  0.50400001928E-02 0. -1.
        1   -1    0    0  501    0  0.00000000000E+00  0.00000000000E+00 -0.24552510693E+04  0.24552510693E+04  0.50400001928E-02 0.  1.
    10030    2    1    2    0    0  0.00000000000E+00  0.00000000000E+00 -0.13357186859E+04  0.35747834526E+04  0.33158607216E+04 0.  0.
        1    1    3    3  502    0  0.34484931189E+03 -0.16198815935E+04 -0.58578549961E+03  0.17567248153E+04  0.50400001928E-02 0. -1.
       -1    1    3    3    0  502 -0.34484931189E+03  0.16198815935E+04 -0.74993318630E+03  0.18180586374E+04  0.50400001928E-02 0.  1.
</event>
<event>
 5   0  0.9530268E-07  0.3319329E+04  0.7818609E-02  0.8157995E-01
       -1   -1    0    0    0  501  0.00000000000E+00  0.00000000000E+00  0.93438031133E+03  0.93438031134E+03  0.50400001928E-02 0. -1.
        1   -1    0    0  501    0  0.00000000000E+00  0.00000000000E+00 -0.29479281027E+04  0.29479281027E+04  0.50400001928E-02 0.  1.
    10030    2    1    2    0    0  0.00000000000E+00  0.00000000000E+00 -0.20135477913E+04  0.38823084140E+04  0.33193288348E+04 0.  0.
        5    1    3    3  502    0  0.11204349767E+04 -0.49237551034E+02  0.42410229767E+03  0.11990344959E+04  0.46999998093E+01 0. -1.
       -5    1    3    3    0  502 -0.11204349767E+04  0.49237551034E+02 -0.24376500890E+04  0.26832739181E+04  0.46999998093E+01 0.  1.
</event>
<event>
 5   0  0.8845526E-07  0.3340158E+04  0.7818609E-02  0.8152752E-01
       -1   -1    0    0    0  501  0.00000000000E+00  0.00000000000E+00  0.13213882312E+04  0.13213882312E+04  0.50400001928E-02 0. -1.
        1   -1    0    0  501    0  0.00000000000E+00  0.00000000000E+00 -0.21107833700E+04  0.21107833700E+04  0.50400001928E-02 0.  1.
    10030    2    1    2    0    0  0.00000000000E+00  0.00000000000E+00 -0.78939513879E+03  0.34321716012E+04  0.33401582619E+04 0.  0.
        1    1    3    3  502    0  0.12562364635E+04 -0.90149556289E+03  0.25383069586E+03  0.15669251177E+04  0.50400001928E-02 0. -1.
       -1    1    3    3    0  502 -0.12562364635E+04  0.90149556289E+03 -0.10432258346E+04  0.18652464835E+04  0.50400001928E-02 0.  1.
</event>
<event>
 5   0  0.9268670E-07  0.3471454E+04  0.7818609E-02  0.8120589E-01
        1   -1    0    0  501    0  0.00000000000E+00  0.00000000000E+00  0.12331111362E+04  0.12331111362E+04  0.50400001928E-02 0. -1.
       -1   -1    0    0    0  501  0.00000000000E+00  0.00000000000E+00 -0.24432086014E+04  0.24432086014E+04  0.50400001928E-02 0.  1.
    10030    2    1    2    0    0  0.00000000000E+00  0.00000000000E+00 -0.12100974652E+04  0.36763197376E+04  0.34714537210E+04 0.  0.
        3    1    3    3  502    0 -0.47383701124E+03 -0.21054306888E+03 -0.23592760264E+04  0.24155813536E+04  0.10100000352E+00 0.  1.
       -3    1    3    3    0  502  0.47383701124E+03  0.21054306888E+03  0.11491785612E+04  0.12607383839E+04  0.10100000352E+00 0. -1.
</event>
<event>
 5   0  0.2674551E-06  0.3334697E+04  0.7818609E-02  0.8154122E-01
       -2   -1    0    0    0  501  0.00000000000E+00  0.00000000000E+00  0.15653862469E+04  0.15653862469E+04  0.25500000920E-02 0. -1.
        2   -1    0    0  501    0  0.00000000000E+00  0.00000000000E+00 -0.17759525483E+04  0.17759525483E+04  0.25500000920E-02 0.  1.
    10030    2    1    2    0    0  0.00000000000E+00  0.00000000000E+00 -0.21056630131E+03  0.33413387952E+04  0.33346974041E+04 0.  0.
        3    1    3    3  502    0  0.70311683095E+03  0.82183027063E+03 -0.13767759143E+04  0.17507970185E+04  0.10100000352E+00 0.  1.
       -3    1    3    3    0  502 -0.70311683095E+03 -0.82183027063E+03  0.11662096130E+04  0.15905417767E+04  0.10100000352E+00 0. -1.
</event>
<event>
 5   0  0.2705859E-06  0.3335955E+04  0.7818609E-02  0.8153806E-01
       -2   -1    0    0    0  501  0.00000000000E+00  0.00000000000E+00  0.15785871147E+04  0.15785871147E+04  0.25500000920E-02 0. -1.
        2   -1    0    0  501    0  0.00000000000E+00  0.00000000000E+00 -0.17624296870E+04  0.17624296870E+04  0.25500000920E-02 0.  1.
    10030    2    1    2    0    0  0.00000000000E+00  0.00000000000E+00 -0.18384257228E+03  0.33410168017E+04  0.33359549125E+04 0.  0.
        1    1    3    3  502    0  0.93670626408E+03  0.11433680552E+04 -0.86603633783E+03  0.17131048051E+04  0.50400001928E-02 0. -1.
       -1    1    3    3    0  502 -0.93670626408E+03 -0.11433680552E+04  0.68219376554E+03  0.16279119966E+04  0.50400001928E-02 0.  1.
</event>
<event>
 5   0  0.2574803E-06  0.3302668E+04  0.7818609E-02  0.8162217E-01
        2   -1    0    0  501    0  0.00000000000E+00  0.00000000000E+00  0.16389443340E+04  0.16389443340E+04  0.25500000920E-02 0.  1.
       -2   -1    0    0    0  501  0.00000000000E+00  0.00000000000E+00 -0.16638172838E+04  0.16638172838E+04  0.25500000920E-02 0. -1.
    10030    2    1    2    0    0  0.00000000000E+00  0.00000000000E+00 -0.24872949791E+02  0.33027616178E+04  0.33026679579E+04 0.  0.
        4    1    3    3  502    0 -0.14399360366E+04  0.74558529200E+03  0.29996489383E+03  0.16490281282E+04  0.12699999809E+01 0.  1.
       -4    1    3    3    0  502  0.14399360366E+04 -0.74558529200E+03 -0.32483784362E+03  0.16537334896E+04  0.12699999809E+01 0. -1.
</event>
<event>
 5   0  0.8705956E-07  0.3325202E+04  0.7818609E-02  0.8156512E-01
        1   -1    0    0  501    0  0.00000000000E+00  0.00000000000E+00  0.15653130133E+04  0.15653130133E+04  0.50400001928E-02 0.  1.
       -1   -1    0    0    0  501  0.00000000000E+00  0.00000000000E+00 -0.17659360465E+04  0.17659360465E+04  0.50400001928E-02 0. -1.
    10030    2    1    2    0    0  0.00000000000E+00  0.00000000000E+00 -0.20062303314E+03  0.33312490598E+04  0.33252023543E+04 0.  0.
        2    1    3    3  502    0 -0.10603954796E+04 -0.12803042783E+04 -0.12535810343E+03  0.16671329498E+04  0.25500000920E-02 0. -1.
       -2    1    3    3    0  502  0.10603954796E+04  0.12803042783E+04 -0.75264929712E+02  0.16641161101E+04  0.25500000920E-02 0.  1.
</event>
<event>
 5   0  0.2658600E-06  0.3256111E+04  0.7818609E-02  0.8174154E-01
       -2   -1    0    0    0  501  0.00000000000E+00  0.00000000000E+00  0.16634943356E+04  0.16634943356E+04  0.25500000920E-02 0.  1.
        2   -1    0    0  501    0  0.00000000000E+00  0.00000000000E+00 -0.15933719527E+04  0.15933719527E+04  0.25500000920E-02 0. -1.
    10030    2    1    2    0    0  0.00000000000E+00  0.00000000000E+00  0.70122382859E+02  0.32568662883E+04  0.32561113113E+04 0.  0.
        5    1    3    3  502    0  0.22563380290E+02  0.43116105087E+03  0.16051812485E+04  0.16622388181E+04  0.46999998093E+01 0.  1.
       -5    1    3    3    0  502 -0.22563380290E+02 -0.43116105087E+03 -0.15350588656E+04  0.15946274702E+04  0.46999998093E+01 0. -1.
</event>
<event>
 5   0  0.2658600E-06  0.3314048E+04  0.7818609E-02  0.8159330E-01
        2   -1    0    0  501    0  0.00000000000E+00  0.00000000000E+00  0.18043819257E+04  0.18043819257E+04  0.25500000920E-02 0. -1.
       -2   -1    0    0    0  501  0.00000000000E+00  0.00000000000E+00 -0.15217001718E+04  0.15217001718E+04  0.25500000920E-02 0.  1.
    10030    2    1    2    0    0  0.00000000000E+00  0.00000000000E+00  0.28268175392E+03  0.33260820975E+04  0.33140478490E+04 0.  0.
        5    1    3    3  502    0  0.68169674094E+03 -0.70766867451E+02 -0.13727751449E+04  0.15343572219E+04  0.46999998093E+01 0.  1.
       -5    1    3    3    0  502 -0.68169674094E+03  0.70766867451E+02  0.16554568988E+04  0.17917248756E+04  0.46999998093E+01 0. -1.
</event>
<event>
 5   0  0.2674551E-06  0.3285106E+04  0.7818609E-02  0.8166696E-01
        2   -1    0    0  501    0  0.00000000000E+00  0.00000000000E+00  0.21049406415E+04  0.21049406415E+04  0.25500000920E-02 0.  1.
       -2   -1    0    0    0  501  0.00000000000E+00  0.00000000000E+00 -0.12817368617E+04  0.12817368617E+04  0.25500000920E-02 0. -1.
    10030    2    1    2    0    0  0.00000000000E+00  0.00000000000E+00  0.82320377981E+03  0.33866775031E+04  0.32851057893E+04 0.  0.
        3    1    3    3  502    0 -0.12101825998E+04 -0.88315858311E+03  0.11058237453E+04  0.18620840941E+04  0.10100000352E+00 0.  1.
       -3    1    3    3    0  502  0.12101825998E+04  0.88315858311E+03 -0.28261996551E+03  0.15245934090E+04  0.10100000352E+00 0. -1.
</event>
<event>
 5   0  0.2658600E-06  0.3311458E+04  0.7818609E-02  0.8159986E-01
       -2   -1    0    0    0  501  0.00000000000E+00  0.00000000000E+00  0.16083047731E+04  0.16083047731E+04  0.25500000920E-02 0.  1.
        2   -1    0    0  501    0  0.00000000000E+00  0.00000000000E+00 -0.17045517281E+04  0.17045517281E+04  0.25500000920E-02 0. -1.
    10030    2    1    2    0    0  0.00000000000E+00  0.00000000000E+00 -0.96246955057E+02  0.33128565012E+04  0.33114580960E+04 0.  0.
        5    1    3    3  502    0 -0.93580120608E+02  0.14688636135E+04 -0.80679656881E+03  0.16784696445E+04  0.46999998093E+01 0. -1.
       -5    1    3    3    0  502  0.93580120608E+02 -0.14688636135E+04  0.71054961375E+03  0.16343868568E+04  0.46999998093E+01 0.  1.
</event>
<event>
 5   0  0.2614212E-06  0.3265002E+04  0.7818609E-02  0.8171858E-01
        2   -1    0    0  501    0  0.00000000000E+00  0.00000000000E+00  0.16300081935E+04  0.16300081935E+04  0.25500000920E-02 0.  1.
       -2   -1    0    0    0  501  0.00000000000E+00  0.00000000000E+00 -0.16349971201E+04  0.16349971201E+04  0.25500000920E-02 0. -1.
    10030    2    1    2    0    0  0.00000000000E+00  0.00000000000E+00 -0.49889265875E+01  0.32650053137E+04  0.32650015021E+04 0.  0.
        2    1    3    3  502    0 -0.79815730106E+03 -0.75625542793E+03 -0.12091778320E+04  0.16343464685E+04  0.25500000920E-02 0. -1.
       -2    1    3    3    0  502  0.79815730106E+03  0.75625542793E+03  0.12041889054E+04  0.16306588452E+04  0.25500000920E-02 0.  1.
</event>
<event>
 5   0  0.2658600E-06  0.3308669E+04  0.7818609E-02  0.8160693E-01
       -2   -1    0    0    0  501  0.00000000000E+00  0.00000000000E+00  0.12942561743E+04  0.12942561743E+04  0.25500000920E-02 0.  1.
        2   -1    0    0  501    0  0.00000000000E+00  0.00000000000E+00 -0.21145915761E+04  0.21145915761E+04  0.25500000920E-02 0. -1.
    10030    2    1    2    0    0  0.00000000000E+00  0.00000000000E+00 -0.82033540183E+03  0.34088477504E+04  0.33086693419E+04 0.  0.
        5    1    3    3  502    0  0.52613215933E+03 -0.79900145049E+03  0.98035694092E+03  0.13697956740E+04  0.46999998093E+01 0.  1.
       -5    1    3    3    0  502 -0.52613215933E+03  0.79900145049E+03 -0.18006923427E+04  0.20390520764E+04  0.46999998093E+01 0. -1.
</event>
<event>
 5   0  0.2614212E-06  0.3180421E+04  0.7818609E-02  0.8194007E-01
        2   -1    0    0  501    0  0.00000000000E+00  0.00000000000E+00  0.16535017631E+04  0.16535017631E+04  0.25500000920E-02 0. -1.
       -2   -1    0    0    0  501  0.00000000000E+00  0.00000000000E+00 -0.15293419736E+04  0.15293419736E+04  0.25500000920E-02 0.  1.
    10030    2    1    2    0    0  0.00000000000E+00  0.00000000000E+00  0.12415978953E+03  0.31828437367E+04  0.31804211355E+04 0.  0.
        2    1    3    3  502    0  0.17446963123E+03 -0.14640576475E+04  0.65823929163E+03  0.16146774949E+04  0.25500000920E-02 0. -1.
       -2    1    3    3    0  502 -0.17446963123E+03  0.14640576475E+04 -0.53407950211E+03  0.15681662418E+04  0.25500000920E-02 0.  1.
</event>
<event>
 5   0  0.2574803E-06  0.3288003E+04  0.7818609E-02  0.8165955E-01
        2   -1    0    0  501    0  0.00000000000E+00  0.00000000000E+00  0.11887609984E+04  0.11887609984E+04  0.25500000920E-02 0.  1.
       -2   -1    0    0    0  501  0.00000000000E+00  0.00000000000E+00 -0.22735785684E+04  0.22735785684E+04  0.25500000920E-02 0. -1.
    10030    2    1    2    0    0  0.00000000000E+00  0.00000000000E+00 -0.10848175701E+04  0.34623395668E+04  0.32880033631E+04 0.  0.
        4    1    3    3  502    0  0.51086058777E+03  0.72207648891E+03  0.91684058283E+03  0.12739588938E+04  0.12699999809E+01 0.  1.
       -4    1    3    3    0  502 -0.51086058777E+03 -0.72207648891E+03 -0.20016581529E+04  0.21883806730E+04  0.12699999809E+01 0. -1.
</event>
<event>
 5   0  0.2705859E-06  0.3300030E+04  0.7818609E-02  0.8162888E-01
       -2   -1    0    0    0  501  0.00000000000E+00  0.00000000000E+00  0.29820919130E+04  0.29820919130E+04  0.25500000920E-02 0.  1.
        2   -1    0    0  501    0  0.00000000000E+00  0.00000000000E+00 -0.91296649370E+03  0.91296649371E+03  0.25500000920E-02 0. -1.
    10030    2    1    2    0    0  0.00000000000E+00  0.00000000000E+00  0.20691254193E+04  0.38950584067E+04  0.33000303015E+04 0.  0.
        1    1    3    3  502    0  0.34942070161E+03 -0.23370340277E+03  0.29178276420E+04  0.29479535708E+04  0.50400001928E-02 0.  1.
       -1    1    3    3    0  502 -0.34942070161E+03  0.23370340277E+03 -0.84870222275E+03  0.94710483586E+03  0.50400001928E-02 0. -1.
</event>
<event>
 5   0  0.8845526E-07  0.3328019E+04  0.7818609E-02  0.8155802E-01
       -1   -1    0    0    0  501  0.00000000000E+00  0.00000000000E+00  0.17263158345E+04  0.17263158345E+04  0.50400001928E-02 0.  1.
        1   -1    0    0  501    0  0.00000000000E+00  0.00000000000E+00 -0.16039519604E+04  0.16039519604E+04  0.50400001928E-02 0. -1.
    10030    2    1    2    0    0  0.00000000000E+00  0.00000000000E+00  0.12236387410E+03  0.33302677949E+04  0.33280190306E+04 0.  0.
        1    1    3    3  502    0  0.79546751627E+03  0.13717545447E+04  0.56595173386E+03  0.16836806305E+04  0.50400001928E-02 0.  1.
       -1    1    3    3    0  502 -0.79546751627E+03 -0.13717545447E+04 -0.44358785975E+03  0.16465871644E+04  0.50400001928E-02 0. -1.
</event>
<event>
 5   0  0.9530268E-07  0.3213550E+04  0.7818609E-02  0.8185248E-01
       -1   -1    0    0    0  501  0.00000000000E+00  0.00000000000E+00  0.13950082662E+04  0.13950082662E+04  0.50400001928E-02 0. -1.
        1   -1    0    0  501    0  0.00000000000E+00  0.00000000000E+00 -0.18506881694E+04  0.18506881694E+04  0.50400001928E-02 0.  1.
    10030    2    1    2    0    0  0.00000000000E+00  0.00000000000E+00 -0.45567990316E+03  0.32456964356E+04  0.32135496227E+04 0.  0.
        5    1    3    3  502    0  0.51924535370E+03  0.13408921473E+04 -0.95201720708E+03  0.17245191621E+04  0.46999998093E+01 0.  1.
       -5    1    3    3    0  502 -0.51924535370E+03 -0.13408921473E+04  0.49633730392E+03  0.15211772735E+04  0.46999998093E+01 0. -1.
</event>
<event>
 5   0  0.8705956E-07  0.3165862E+04  0.7818609E-02  0.8197892E-01
        1   -1    0    0  501    0  0.00000000000E+00  0.00000000000E+00  0.17882957250E+04  0.17882957250E+04  0.50400001928E-02 0. -1.
       -1   -1    0    0    0  501  0.00000000000E+00  0.00000000000E+00 -0.14011499195E+04  0.14011499195E+04  0.50400001928E-02 0.  1.
    10030    2    1    2    0    0  0.00000000000E+00  0.00000000000E+00  0.38714580552E+03  0.31894456445E+04  0.31658619118E+04 0.  0.
        2    1    3    3  502    0 -0.10734391828E+04  0.40633170219E+02  0.13648807510E+04  0.17369001693E+04  0.25500000920E-02 0. -1.
       -2    1    3    3    0  502  0.10734391828E+04 -0.40633170219E+02 -0.97773494551E+03  0.14525454752E+04  0.25500000920E-02 0.  1.
</event>
<event>
 5   0  0.8520125E-07  0.3292246E+04  0.7818609E-02  0.8164871E-01
       -3   -1    0    0    0  501  0.00000000000E+00  0.00000000000E+00  0.15124193970E+04  0.15124194003E+04  0.10100000352E+00 0. -1.
        3   -1    0    0  501    0  0.00000000000E+00  0.00000000000E+00 -0.17916466592E+04  0.17916466621E+04  0.10100000352E+00 0.  1.
    10030    2    1    2    0    0  0.00000000000E+00  0.00000000000E+00 -0.27922726224E+03  0.33040660624E+04  0.32922461452E+04 0.  0.
        2    1    3    3  502    0 -0.12005542351E+03  0.74425484637E+03 -0.16082171754E+04  0.17761450009E+04  0.25500000920E-02 0.  1.
       -2    1    3    3    0  502  0.12005542351E+03 -0.74425484637E+03  0.13289899131E+04  0.15279210615E+04  0.25500000920E-02 0. -1.
</event>
<event>
 5   0  0.2705859E-06  0.3298442E+04  0.7818609E-02  0.8163292E-01
        2   -1    0    0  501    0  0.00000000000E+00  0.00000000000E+00  0.10198118743E+04  0.10198118743E+04  0.25500000920E-02 0. -1.
       -2   -1    0    0    0  501  0.00000000000E+00  0.00000000000E+00 -0.26670891889E+04  0.26670891889E+04  0.25500000920E-02 0.  1.
    10030    2    1    2    0    0  0.00000000000E+00  0.00000000000E+00 -0.16472773146E+04  0.36869010632E+04  0.32984415864E+04 0.  0.
        1    1    3    3  502    0  0.15746748542E+04 -0.79421329495E+02 -0.28290959449E+03  0.16018571980E+04  0.50400001928E-02 0. -1.
       -1    1    3    3    0  502 -0.15746748542E+04  0.79421329495E+02 -0.13643677201E+04  0.20850438652E+04  0.50400001928E-02 0.  1.
</event>
<event>
 5   0  0.2574803E-06  0.3285396E+04  0.7818609E-02  0.8166621E-01
        2   -1    0    0  501    0  0.00000000000E+00  0.00000000000E+00  0.25087744887E+04  0.25087744887E+04  0.25500000920E-02 0. -1.
       -2   -1    0    0    0  501  0.00000000000E+00  0.00000000000E+00 -0.10756073350E+04  0.10756073350E+04  0.25500000920E-02 0.  1.
    10030    2    1    2    0    0  0.00000000000E+00  0.00000000000E+00  0.14331671537E+04  0.35843818236E+04  0.32853957094E+04 0.  0.
        4    1    3    3  502    0 -0.17413850431E+03 -0.79466363300E+03 -0.84039891200E+03  0.11696522784E+04  0.12699999809E+01 0.  1.
       -4    1    3    3    0  502  0.17413850431E+03  0.79466363300E+03  0.22735660657E+04  0.24147295452E+04  0.12699999809E+01 0. -1.
</event>
<event>
 5   0  0.9295663E-07  0.3303113E+04  0.7818609E-02  0.8162104E-01
        1   -1    0    0  501    0  0.00000000000E+00  0.00000000000E+00  0.18503761752E+04  0.18503761752E+04  0.50400001928E-02 0. -1.
       -1   -1    0    0    0  501  0.00000000000E+00  0.00000000000E+00 -0.14740994773E+04  0.14740994773E+04  0.50400001928E-02 0.  1.
    10030    2    1    2    0    0  0.00000000000E+00  0.00000000000E+00  0.37627669797E+03  0.33244756525E+04  0.33031128062E+04 0.  0.
        4    1    3    3  502    0 -0.13950859254E+04 -0.77214045058E+03  0.62123678757E+03  0.17112575417E+04  0.12699999809E+01 0. -1.
       -4    1    3    3    0  502  0.13950859254E+04  0.77214045058E+03 -0.24496008960E+03  0.16132181108E+04  0.12699999809E+01 0.  1.
</event>
<event>
 5   0  0.8705956E-07  0.3301635E+04  0.7818609E-02  0.8162479E-01
       -1   -1    0    0    0  501  0.00000000000E+00  0.00000000000E+00  0.12041711273E+04  0.12041711273E+04  0.50400001928E-02 0. -1.
        1   -1    0    0  501    0  0.00000000000E+00  0.00000000000E+00 -0.22631321642E+04  0.22631321642E+04  0.50400001928E-02 0.  1.
    10030    2    1    2    0    0  0.00000000000E+00  0.00000000000E+00 -0.10589610370E+04  0.34673032915E+04  0.33016349946E+04 0.  0.
        2    1    3    3  502    0 -0.12955298610E+04 -0.69404966566E+03 -0.13189290694E+04  0.19747598459E+04  0.25500000920E-02 0. -1.
       -2    1    3    3    0  502  0.12955298610E+04  0.69404966566E+03  0.25996803243E+03  0.14925434456E+04  0.25500000920E-02 0.  1.
</event>
<event>
 5   0  0.8705956E-07  0.3250340E+04  0.7818609E-02  0.8175647E-01
        1   -1    0    0  501    0  0.00000000000E+00  0.00000000000E+00  0.11659306533E+04  0.11659306534E+04  0.50400001928E-02 0. -1.
       -1   -1    0    0    0  501  0.00000000000E+00  0.00000000000E+00 -0.22652960834E+04  0.22652960834E+04  0.50400001928E-02 0.  1.
    10030    2    1    2    0    0  0.00000000000E+00  0.00000000000E+00 -0.10993654301E+04  0.34312267368E+04  0.32503403776E+04 0.  0.
        2    1    3    3  502    0 -0.24664778161E+03  0.15857600745E+04 -0.27908152583E+03  0.16289127171E+04  0.25500000920E-02 0. -1.
       -2    1    3    3    0  502  0.24664778161E+03 -0.15857600745E+04 -0.82028390423E+03  0.18023140197E+04  0.25500000920E-02 0.  1.
</event>
<event>
 5   0  0.2614212E-06  0.3294186E+04  0.7818609E-02  0.8164376E-01
        2   -1    0    0  501    0  0.00000000000E+00  0.00000000000E+00  0.15960576248E+04  0.15960576248E+04  0.25500000920E-02 0. -1.
       -2   -1    0    0    0  501  0.00000000000E+00  0.00000000000E+00 -0.16997604306E+04  0.16997604306E+04  0.25500000920E-02 0.  1.
    10030    2    1    2    0    0  0.00000000000E+00  0.00000000000E+00 -0.10370280586E+03  0.32958180554E+04  0.32941861487E+04 0.  0.
        2    1    3    3  502    0  0.76534731016E+03 -0.14549313062E+04  0.49855165421E+02  0.16447088339E+04  0.25500000920E-02 0. -1.
       -2    1    3    3    0  502 -0.76534731016E+03  0.14549313062E+04 -0.15355797128E+03  0.16511092215E+04  0.25500000920E-02 0.  1.
</event>
<event>
 5   0  0.8845526E-07  0.3197419E+04  0.7818609E-02  0.8189499E-01
       -1   -1    0    0    0  501  0.00000000000E+00  0.00000000000E+00  0.14941396666E+04  0.14941396666E+04  0.50400001928E-02 0. -1.
        1   -1    0    0  501    0  0.00000000000E+00  0.00000000000E+00 -0.17105973169E+04  0.17105973169E+04  0.50400001928E-02 0.  1.
    10030    2    1    2    0    0  0.00000000000E+00  0.00000000000E+00 -0.21645765029E+03  0.32047369834E+04  0.31974185242E+04 0.  0.
        1    1    3    3  502    0  0.11378192762E+04 -0.63378085999E+03  0.82101805244E+03  0.15396043408E+04  0.50400001928E-02 0. -1.
       -1    1    3    3    0  502 -0.11378192762E+04  0.63378085999E+03 -0.10374757027E+04  0.16651326426E+04  0.50400001928E-02 0.  1.
</event>
<event>
 5   0  0.9295663E-07  0.3251347E+04  0.7818609E-02  0.8175387E-01
       -1   -1    0    0    0  501  0.00000000000E+00  0.00000000000E+00  0.12077034283E+04  0.12077034284E+04  0.50400001928E-02 0. -1.
        1   -1    0    0  501    0  0.00000000000E+00  0.00000000000E+00 -0.21882978911E+04  0.21882978911E+04  0.50400001928E-02 0.  1.
    10030    2    1    2    0    0  0.00000000000E+00  0.00000000000E+00 -0.98059446279E+03  0.33960013195E+04  0.32513473302E+04 0.  0.
        4    1    3    3  502    0 -0.92336620579E+03 -0.17378844916E+03  0.89537820553E+03  0.12978872520E+04  0.12699999809E+01 0. -1.
       -4    1    3    3    0  502  0.92336620579E+03  0.17378844916E+03 -0.18759726683E+04  0.20981140675E+04  0.12699999809E+01 0.  1.
</event>
<event>
 5   0  0.9268670E-07  0.3329010E+04  0.7818609E-02  0.8155553E-01
       -1   -1    0    0    0  501  0.00000000000E+00  0.00000000000E+00  0.16182933721E+04  0.16182933721E+04  0.50400001928E-02 0.  1.
        1   -1    0    0  501    0  0.00000000000E+00  0.00000000000E+00 -0.17120366987E+04  0.17120366987E+04  0.50400001928E-02 0. -1.
    10030    2    1    2    0    0  0.00000000000E+00  0.00000000000E+00 -0.93743326562E+02  0.33303300708E+04  0.33290104490E+04 0.  0.
        3    1    3    3  502    0 -0.93269574786E+03 -0.10331007381E+04 -0.96011859491E+03  0.16908714379E+04  0.10100000352E+00 0. -1.
       -3    1    3    3    0  502  0.93269574786E+03  0.10331007381E+04  0.86637526834E+03  0.16394586329E+04  0.10100000352E+00 0.  1.
</event>
<event>
 5   0  0.9295663E-07  0.3239985E+04  0.7818609E-02  0.8178336E-01
        1   -1    0    0  501    0  0.00000000000E+00  0.00000000000E+00  0.17297129398E+04  0.17297129398E+04  0.50400001928E-02 0.  1.
       -1   -1    0    0    0  501  0.00000000000E+00  0.00000000000E+00 -0.15172321903E+04  0.15172321903E+04  0.50400001928E-02 0. -1.
    10030    2    1    2    0    0  0.00000000000E+00  0.00000000000E+00  0.21248074956E+03  0.32469451301E+04  0.32399852792E+04 0.  0.
        4    1    3    3  502    0  0.15972704881E+04 -0.17128756518E+03  0.31588366920E+03  0.16371916649E+04  0.12699999809E+01 0.  1.
       -4    1    3    3    0  502 -0.15972704881E+04  0.17128756518E+03 -0.10340291964E+03  0.16097534652E+04  0.12699999809E+01 0. -1.
</event>
<event>
 5   0  0.2574803E-06  0.3305736E+04  0.7818609E-02  0.8161437E-01
        2   -1    0    0  501    0  0.00000000000E+00  0.00000000000E+00  0.18234588352E+04  0.18234588352E+04  0.25500000920E-02 0. -1.
       -2   -1    0    0    0  501  0.00000000000E+00  0.00000000000E+00 -0.14982365711E+04  0.14982365711E+04  0.25500000920E-02 0.  1.
    10030    2    1    2    0    0  0.00000000000E+00  0.00000000000E+00  0.32522226410E+03  0.33216954062E+04  0.33057360528E+04 0.  0.
        4    1    3    3  502    0  0.12376163170E+04  0.16526629587E+02  0.12633465637E+04  0.17686190745E+04  0.12699999809E+01 0. -1.
       -4    1    3    3    0  502 -0.12376163170E+04 -0.16526629587E+02 -0.93812429965E+03  0.15530763317E+04  0.12699999809E+01 0.  1.
</event>
<event>
 5   0  0.2614212E-06  0.3292297E+04  0.7818609E-02  0.8164858E-01
       -2   -1    0    0    0  501  0.00000000000E+00  0.00000000000E+00  0.21159739934E+04  0.21159739934E+04  0.25500000920E-02 0.  1.
        2   -1    0    0  501    0  0.00000000000E+00  0.00000000000E+00 -0.12806417102E+04  0.12806417102E+04  0.25500000920E-02 0. -1.
    10030    2    1    2    0    0  0.00000000000E+00  0.00000000000E+00  0.83533228320E+03  0.33966157036E+04  0.32922967993E+04 0.  0.
        2    1    3    3  502    0  0.64312914209E+00 -0.15563228175E+04  0.97100320230E+03  0.18343904560E+04  0.25500000920E-02 0.  1.
       -2    1    3    3    0  502 -0.64312914209E+00  0.15563228175E+04 -0.13567091910E+03  0.15622252476E+04  0.25500000920E-02 0. -1.
</event>
<event>
 5   0  0.2658600E-06  0.3271383E+04  0.7818609E-02  0.8170215E-01
        2   -1    0    0  501    0  0.00000000000E+00  0.00000000000E+00  0.12747406841E+04  0.12747406841E+04  0.25500000920E-02 0.  1.
       -2   -1    0    0    0  501  0.00000000000E+00  0.00000000000E+00 -0.20988475082E+04  0.20988475082E+04  0.25500000920E-02 0. -1.
    10030    2    1    2    0    0  0.00000000000E+00  0.00000000000E+00 -0.82410682409E+03  0.33735881923E+04  0.32713827709E+04 0.  0.
        5    1    3    3  502    0 -0.35332979943E+03 -0.37450642859E+03  0.11889870617E+04  0.12956887493E+04  0.46999998093E+01 0.  1.
       -5    1    3    3    0  502  0.35332979943E+03  0.37450642859E+03 -0.20130938858E+04  0.20778994430E+04  0.46999998093E+01 0. -1.
</event>
<event>
 5   0  0.2674551E-06  0.3303008E+04  0.7818609E-02  0.8162130E-01
        2   -1    0    0  501    0  0.00000000000E+00  0.00000000000E+00  0.19301541209E+04  0.19301541209E+04  0.25500000920E-02 0. -1.
       -2   -1    0    0    0  501  0.00000000000E+00  0.00000000000E+00 -0.14130817423E+04  0.14130817423E+04  0.25500000920E-02 0.  1.
    10030    2    1    2    0    0  0.00000000000E+00  0.00000000000E+00  0.51707237861E+03  0.33432358633E+04  0.33030080522E+04 0.  0.
        3    1    3    3  502    0 -0.38342391510E+03 -0.11330512511E+04 -0.89403611839E+03  0.14933585060E+04  0.10100000352E+00 0.  1.
       -3    1    3    3    0  502  0.38342391510E+03  0.11330512511E+04  0.14111084970E+04  0.18498773572E+04  0.10100000352E+00 0. -1.
</event>
<event>
 5   0  0.2705859E-06  0.3312355E+04  0.7818609E-02  0.8159759E-01
       -2   -1    0    0    0  501  0.00000000000E+00  0.00000000000E+00  0.10911033875E+04  0.10911033875E+04  0.25500000920E-02 0. -1.
        2   -1    0    0  501    0  0.00000000000E+00  0.00000000000E+00 -0.25138990986E+04  0.25138990986E+04  0.25500000920E-02 0.  1.
    10030    2    1    2    0    0  0.00000000000E+00  0.00000000000E+00 -0.14227957111E+04  0.36050024861E+04  0.33123549462E+04 0.  0.
        1    1    3    3  502    0 -0.88649513699E+03  0.12129538812E+04 -0.14699655797E+04  0.21018871405E+04  0.50400001928E-02 0. -1.
       -1    1    3    3    0  502  0.88649513699E+03 -0.12129538812E+04  0.47169868622E+02  0.15031153456E+04  0.50400001928E-02 0.  1.
</event>
<event>
 5   0  0.9268670E-07  0.3295571E+04  0.7818609E-02  0.8164023E-01
       -1   -1    0    0    0  501  0.00000000000E+00  0.00000000000E+00  0.25988565425E+04  0.25988565426E+04  0.50400001928E-02 0. -1.
        1   -1    0    0  501    0  0.00000000000E+00  0.00000000000E+00 -0.10447660316E+04  0.10447660316E+04  0.50400001928E-02 0.  1.
    10030    2    1    2    0    0  0.00000000000E+00  0.00000000000E+00  0.15540905110E+04  0.36436225741E+04  0.32955709894E+04 0.  0.
        3    1    3    3  502    0  0.16321513959E+04 -0.77877927725E+02  0.10121376506E+04  0.19220837091E+04  0.10100000352E+00 0. -1.
       -3    1    3    3    0  502 -0.16321513959E+04  0.77877927725E+02  0.54195286038E+03  0.17215388650E+04  0.10100000352E+00 0.  1.
</event>
<event>
 5   0  0.9268670E-07  0.3285587E+04  0.7818609E-02  0.8166572E-01
       -1   -1    0    0    0  501  0.00000000000E+00  0.00000000000E+00  0.12306849243E+04  0.12306849243E+04  0.50400001928E-02 0. -1.
        1   -1    0    0  501    0  0.00000000000E+00  0.00000000000E+00 -0.21929013850E+04  0.21929013850E+04  0.50400001928E-02 0.  1.
    10030    2    1    2    0    0  0.00000000000E+00  0.00000000000E+00 -0.96221646070E+03  0.34235863093E+04  0.32855871164E+04 0.  0.
        3    1    3    3  502    0 -0.31323253719E+03  0.10253664301E+04  0.81587157219E+03  0.13472703407E+04  0.10100000352E+00 0. -1.
       -3    1    3    3    0  502  0.31323253719E+03 -0.10253664301E+04 -0.17780880329E+04  0.20763159686E+04  0.10100000352E+00 0.  1.
</event>
<event>
 5   0  0.2658600E-06  0.3271979E+04  0.7818609E-02  0.8170062E-01
       -2   -1    0    0    0  501  0.00000000000E+00  0.00000000000E+00  0.95645170122E+03  0.95645170123E+03  0.25500000920E-02 0.  1.
        2   -1    0    0  501    0  0.00000000000E+00  0.00000000000E+00 -0.27983230657E+04  0.27983230657E+04  0.25500000920E-02 0. -1.
    10030    2    1    2    0    0  0.00000000000E+00  0.00000000000E+00 -0.18418713645E+04  0.37547747669E+04  0.32719785187E+04 0.  0.
        5    1    3    3  502    0 -0.20262884235E+02 -0.99360633830E+02  0.95283395168E+03  0.95822635609E+03  0.46999998093E+01 0.  1.
       -5    1    3    3    0  502  0.20262884235E+02  0.99360633830E+02 -0.27947053161E+04  0.27965484108E+04  0.46999998093E+01 0. -1.
</event>
<event>
 5   0  0.9295663E-07  0.3246088E+04  0.7818609E-02  0.8176750E-01
        1   -1    0    0  501    0  0.00000000000E+00  0.00000000000E+00  0.20068353040E+04  0.20068353040E+04  0.50400001928E-02 0. -1.
       -1   -1    0    0    0  501  0.00000000000E+00  0.00000000000E+00 -0.13126499438E+04  0.13126499438E+04  0.50400001928E-02 0.  1.
    10030    2    1    2    0    0  0.00000000000E+00  0.00000000000E+00  0.69418536024E+03  0.33194852478E+04  0.32460882606E+04 0.  0.
        4    1    3    3  502    0  0.11065854433E+04  0.55823543258E+03  0.14186954695E+04  0.18838409141E+04  0.12699999809E+01 0. -1.
       -4    1    3    3    0  502 -0.11065854433E+04 -0.55823543258E+03 -0.72451010928E+03  0.14356443337E+04  0.12699999809E+01 0.  1.
</event>
<event>
 5   0  0.2705859E-06  0.3306962E+04  0.7818609E-02  0.8161126E-01
       -2   -1    0    0    0  501  0.00000000000E+00  0.00000000000E+00  0.16474322456E+04  0.16474322456E+04  0.25500000920E-02 0. -1.
        2   -1    0    0  501    0  0.00000000000E+00  0.00000000000E+00 -0.16595522190E+04  0.16595522190E+04  0.25500000920E-02 0.  1.
    10030    2    1    2    0    0  0.00000000000E+00  0.00000000000E+00 -0.12119973454E+02  0.33069844646E+04  0.33069622549E+04 0.  0.
        1    1    3    3  502    0  0.13471007863E+04 -0.95672363751E+03  0.57179600425E+02  0.16532604616E+04  0.50400001928E-02 0.  1.
       -1    1    3    3    0  502 -0.13471007863E+04  0.95672363751E+03 -0.69299573880E+02  0.16537240030E+04  0.50400001928E-02 0. -1.
</event>
<event>
 5   0  0.2674551E-06  0.3331684E+04  0.7818609E-02  0.8154880E-01
        2   -1    0    0  501    0  0.00000000000E+00  0.00000000000E+00  0.17428587584E+04  0.17428587584E+04  0.25500000920E-02 0.  1.
       -2   -1    0    0    0  501  0.00000000000E+00  0.00000000000E+00 -0.15922287140E+04  0.15922287140E+04  0.25500000920E-02 0. -1.
    10030    2    1    2    0    0  0.00000000000E+00  0.00000000000E+00  0.15063004442E+03  0.33350874724E+04  0.33316841144E+04 0.  0.
        3    1    3    3  502    0  0.11832486145E+04 -0.84565109154E+02 -0.10954100044E+04  0.16146676530E+04  0.10100000352E+00 0. -1.
       -3    1    3    3    0  502 -0.11832486145E+04  0.84565109154E+02  0.12460400489E+04  0.17204198194E+04  0.10100000352E+00 0.  1.
</event>
<event>
 5   0  0.9268670E-07  0.3295613E+04  0.7818609E-02  0.8164012E-01
       -1   -1    0    0    0  501  0.00000000000E+00  0.00000000000E+00  0.26090827386E+04  0.26090827386E+04  0.50400001928E-02 0.  1.
        1   -1    0    0  501    0  0.00000000000E+00  0.00000000000E+00 -0.10406979496E+04  0.10406979496E+04  0.50400001928E-02 0. -1.
    10030    2    1    2    0    0  0.00000000000E+00  0.00000000000E+00  0.15683847890E+04  0.36497806883E+04  0.32956134825E+04 0.  0.
        3    1    3    3  502    0  0.11549512154E+04 -0.46540110701E+03  0.19794130170E+04  0.23385008879E+04  0.10100000352E+00 0.  1.
       -3    1    3    3    0  502 -0.11549512154E+04  0.46540110701E+03 -0.41102822804E+03  0.13112798004E+04  0.10100000352E+00 0. -1.
</event>
<event>
 5   0  0.2674551E-06  0.3332523E+04  0.7818609E-02  0.8154669E-01
        2   -1    0    0  501    0  0.00000000000E+00  0.00000000000E+00  0.23441373321E+04  0.23441373321E+04  0.25500000920E-02 0. -1.
       -2   -1    0    0    0  501  0.00000000000E+00  0.00000000000E+00 -0.11844129250E+04  0.11844129250E+04  0.25500000920E-02 0.  1.
    10030    2    1    2    0    0  0.00000000000E+00  0.00000000000E+00  0.11597244071E+04  0.35285502572E+04  0.33325225006E+04 0.  0.
        3    1    3    3  502    0  0.10984937191E+04  0.72412966941E+03  0.16624400353E+04  0.21200846942E+04  0.10100000352E+00 0. -1.
       -3    1    3    3    0  502 -0.10984937191E+04 -0.72412966941E+03 -0.50271562827E+03  0.14084655630E+04  0.10100000352E+00 0.  1.
</event>
<event>
 5   0  0.2705859E-06  0.3287198E+04  0.7818609E-02  0.8166161E-01
       -2   -1    0    0    0  501  0.00000000000E+00  0.00000000000E+00  0.12312556572E+04  0.12312556572E+04  0.25500000920E-02 0. -1.
        2   -1    0    0  501    0  0.00000000000E+00  0.00000000000E+00 -0.21940343746E+04  0.21940343746E+04  0.25500000920E-02 0.  1.
    10030    2    1    2    0    0  0.00000000000E+00  0.00000000000E+00 -0.96277871749E+03  0.34252900318E+04  0.32871977341E+04 0.  0.
        1    1    3    3  502    0 -0.57062937131E+03 -0.27946293318E+02  0.11244607576E+04  0.12612735113E+04  0.50400001928E-02 0. -1.
       -1    1    3    3    0  502  0.57062937131E+03  0.27946293318E+02 -0.20872394751E+04  0.21640165206E+04  0.50400001928E-02 0.  1.
</event>
<event>
 5   0  0.8705956E-07  0.3258986E+04  0.7818609E-02  0.8173410E-01
        1   -1    0    0  501    0  0.00000000000E+00  0.00000000000E+00  0.12770116603E+04  0.12770116603E+04  0.50400001928E-02 0. -1.
       -1   -1    0    0    0  501  0.00000000000E+00  0.00000000000E+00 -0.20792664771E+04  0.20792664771E+04  0.50400001928E-02 0.  1.
    10030    2    1    2    0    0  0.00000000000E+00  0.00000000000E+00 -0.80225481684E+03  0.33562781374E+04  0.32589860608E+04 0.  0.
        2    1    3    3  502    0 -0.32271899371E+03 -0.63237592806E+03  0.11093558065E+04  0.13170866216E+04  0.25500000920E-02 0. -1.
       -2    1    3    3    0  502  0.32271899371E+03  0.63237592806E+03 -0.19116106233E+04  0.20391915159E+04  0.25500000920E-02 0.  1.
</event>
<event>
 5   0  0.2574803E-06  0.3356814E+04  0.7818609E-02  0.8148588E-01
        2   -1    0    0  501    0  0.00000000000E+00  0.00000000000E+00  0.16915089522E+04  0.16915089522E+04  0.25500000920E-02 0. -1.
       -2   -1    0    0    0  501  0.00000000000E+00  0.00000000000E+00 -0.16654062210E+04  0.16654062210E+04  0.25500000920E-02 0.  1.
    10030    2    1    2    0    0  0.00000000000E+00  0.00000000000E+00  0.26102731215E+02  0.33569151733E+04  0.33568136868E+04 0.  0.
        4    1    3    3  502    0  0.79278908263E+03 -0.14647847972E+04 -0.19417190453E+03  0.16768462581E+04  0.12699999809E+01 0. -1.
       -4    1    3    3    0  502 -0.79278908263E+03  0.14647847972E+04  0.22027463574E+03  0.16800689152E+04  0.12699999809E+01 0.  1.
</event>
<event>
 5   0  0.2614212E-06  0.3297762E+04  0.7818609E-02  0.8163465E-01
        2   -1    0    0  501    0  0.00000000000E+00  0.00000000000E+00  0.15015846426E+04  0.15015846426E+04  0.25500000920E-02 0.  1.
       -2   -1    0    0    0  501  0.00000000000E+00  0.00000000000E+00 -0.18106258551E+04  0.18106258551E+04  0.25500000920E-02 0. -1.
    10030    2    1    2    0    0  0.00000000000E+00  0.00000000000E+00 -0.30904121255E+03  0.33122104977E+04  0.32977616515E+04 0.  0.
        2    1    3    3  502    0 -0.35369039067E+03  0.12706189941E+04 -0.11484210770E+04  0.17488397555E+04  0.25500000920E-02 0. -1.
       -2    1    3    3    0  502  0.35369039067E+03 -0.12706189941E+04  0.83937986443E+03  0.15633707421E+04  0.25500000920E-02 0.  1.
</event>
<event>
 5   0  0.9268670E-07  0.2549897E+04  0.7818609E-02  0.8385422E-01
       -1   -1    0    0    0  501  0.00000000000E+00  0.00000000000E+00  0.10211688042E+04  0.10211688042E+04  0.50400001928E-02 0.  1.
        1   -1    0    0  501    0  0.00000000000E+00  0.00000000000E+00 -0.15917968283E+04  0.15917968283E+04  0.50400001928E-02 0. -1.
    10030    2    1    2    0    0  0.00000000000E+00  0.00000000000E+00 -0.57062802409E+03  0.26129656325E+04  0.25498966753E+04 0.  0.
        3    1    3    3  502    0  0.88021040205E+03 -0.17992996183E+00  0.65984562926E+03  0.11000757469E+04  0.10100000352E+00 0.  1.
       -3    1    3    3    0  502 -0.88021040205E+03  0.17992996183E+00 -0.12304736534E+04  0.15128898856E+04  0.10100000352E+00 0. -1.
</event>
<event>
 5   0  0.9295663E-07  0.3376297E+04  0.7818609E-02  0.8143749E-01
        1   -1    0    0  501    0  0.00000000000E+00  0.00000000000E+00  0.17762944167E+04  0.17762944167E+04  0.50400001928E-02 0.  1.
       -1   -1    0    0    0  501  0.00000000000E+00  0.00000000000E+00 -0.16043763509E+04  0.16043763509E+04  0.50400001928E-02 0. -1.
    10030    2    1    2    0    0  0.00000000000E+00  0.00000000000E+00  0.17191806573E+03  0.33806707676E+04  0.33762966424E+04 0.  0.
        4    1    3    3  502    0  0.14561283613E+04 -0.83072485805E+02 -0.76522009583E+03  0.16470501663E+04  0.12699999809E+01 0.  1.
       -4    1    3    3    0  502 -0.14561283613E+04  0.83072485805E+02  0.93713816157E+03  0.17336206013E+04  0.12699999809E+01 0. -1.
</event>
<event>
 5   0  0.9530268E-07  0.2394816E+04  0.7818609E-02  0.8441447E-01
        1   -1    0    0  501    0  0.00000000000E+00  0.00000000000E+00  0.12729968863E+04  0.12729968863E+04  0.50400001928E-02 0.  1.
       -1   -1    0    0    0  501  0.00000000000E+00  0.00000000000E+00 -0.11263075183E+04  0.11263075183E+04  0.50400001928E-02 0. -1.
    10030    2    1    2    0    0  0.00000000000E+00  0.00000000000E+00  0.14668936805E+03  0.23993044046E+04  0.23948160379E+04 0.  0.
        5    1    3    3  502    0 -0.10684796266E+02 -0.11143487296E+03 -0.11210439961E+04  0.11266293210E+04  0.46999998093E+01 0. -1.
       -5    1    3    3    0  502  0.10684796266E+02  0.11143487296E+03  0.12677333642E+04  0.12726750836E+04  0.46999998093E+01 0.  1.
</event>
<event>
 5   0  0.9295663E-07  0.3240642E+04  0.7818609E-02  0.8178165E-01
       -1   -1    0    0    0  501  0.00000000000E+00  0.00000000000E+00  0.10735513485E+04  0.10735513485E+04  0.50400001928E-02 0.  1.
        1   -1    0    0  501    0  0.00000000000E+00  0.00000000000E+00 -0.24455655300E+04  0.24455655300E+04  0.50400001928E-02 0. -1.
    10030    2    1    2    0    0  0.00000000000E+00  0.00000000000E+00 -0.13720141815E+04  0.35191168785E+04  0.32406420182E+04 0.  0.
        4    1    3    3  502    0  0.82115618667E+03  0.78016301748E+03 -0.19442301355E+04  0.22501076084E+04  0.12699999809E+01 0. -1.
       -4    1    3    3    0  502 -0.82115618667E+03 -0.78016301748E+03  0.57221595399E+03  0.12690092701E+04  0.12699999809E+01 0.  1.
</event>
<event>
 5   0  0.8845526E-07  0.3291534E+04  0.7818609E-02  0.8165053E-01
       -1   -1    0    0    0  501  0.00000000000E+00  0.00000000000E+00  0.13175368051E+04  0.13175368051E+04  0.50400001928E-02 0.  1.
        1   -1    0    0  501    0  0.00000000000E+00  0.00000000000E+00 -0.20557675239E+04  0.20557675239E+04  0.50400001928E-02 0. -1.
    10030    2    1    2    0    0  0.00000000000E+00  0.00000000000E+00 -0.73823071875E+03  0.33733043290E+04  0.32915342171E+04 0.  0.
        1    1    3    3  502    0  0.81979638835E+03  0.11464070539E+04  0.50184051255E+03  0.14960478441E+04  0.50400001928E-02 0.  1.
       -1    1    3    3    0  502 -0.81979638835E+03 -0.11464070539E+04 -0.12400712313E+04  0.18772564850E+04  0.50400001928E-02 0. -1.
</event>
<event>
 5   0  0.2658600E-06  0.3311247E+04  0.7818609E-02  0.8160040E-01
       -2   -1    0    0    0  501  0.00000000000E+00  0.00000000000E+00  0.21184355179E+04  0.21184355179E+04  0.25500000920E-02 0.  1.
        2   -1    0    0  501    0  0.00000000000E+00  0.00000000000E+00 -0.12939210793E+04  0.12939210793E+04  0.25500000920E-02 0. -1.
    10030    2    1    2    0    0  0.00000000000E+00  0.00000000000E+00  0.82451443861E+03  0.34123565971E+04  0.33112465155E+04 0.  0.
        5    1    3    3  502    0 -0.63036142499E+03 -0.10239398316E+04  0.15851033323E+04  0.19895685384E+04  0.46999998093E+01 0.  1.
       -5    1    3    3    0  502  0.63036142499E+03  0.10239398316E+04 -0.76058889374E+03  0.14227880587E+04  0.46999998093E+01 0. -1.
</event>
<event>
 5   0  0.9295663E-07  0.3312557E+04  0.7818609E-02  0.8159707E-01
        1   -1    0    0  501    0  0.00000000000E+00  0.00000000000E+00  0.23892037585E+04  0.23892037585E+04  0.50400001928E-02 0.  1.
       -1   -1    0    0    0  501  0.00000000000E+00  0.00000000000E+00 -0.11481896727E+04  0.11481896727E+04  0.50400001928E-02 0. -1.
    10030    2    1    2    0    0  0.00000000000E+00  0.00000000000E+00  0.12410140858E+04  0.35373934312E+04  0.33125573694E+04 0.  0.
        4    1    3    3  502    0  0.11718496046E+03 -0.11085128707E+04 -0.68768174898E+03  0.13097484111E+04  0.12699999809E+01 0. -1.
       -4    1    3    3    0  502 -0.11718496046E+03  0.11085128707E+04  0.19286958348E+04  0.22276450201E+04  0.12699999809E+01 0.  1.
</event>
<event>
 5   0  0.8520125E-07  0.2609332E+04  0.7818609E-02  0.8365038E-01
        4   -1    0    0  501    0  0.00000000000E+00  0.00000000000E+00  0.12569084697E+04  0.12569091113E+04  0.12699999809E+01 0. -1.
       -4   -1    0    0    0  501  0.00000000000E+00  0.00000000000E+00 -0.13542369089E+04  0.13542375044E+04  0.12699999809E+01 0.  1.
    10030    2    1    2    0    0  0.00000000000E+00  0.00000000000E+00 -0.97328439198E+02  0.26111466157E+04  0.26093320647E+04 0.  0.
        5    1    3    3  502    0  0.51128645624E+03 -0.91728706431E+03 -0.82334852699E+03  0.13344490569E+04  0.46999998093E+01 0.  1.
       -5    1    3    3    0  502 -0.51128645624E+03  0.91728706431E+03  0.72602008779E+03  0.12766975588E+04  0.46999998093E+01 0. -1.
</event>
<event>
 5   0  0.2674551E-06  0.3283118E+04  0.7818609E-02  0.8167204E-01
       -2   -1    0    0    0  501  0.00000000000E+00  0.00000000000E+00  0.12107603381E+04  0.12107603381E+04  0.25500000920E-02 0.  1.
        2   -1    0    0  501    0  0.00000000000E+00  0.00000000000E+00 -0.22256397733E+04  0.22256397733E+04  0.25500000920E-02 0. -1.
    10030    2    1    2    0    0  0.00000000000E+00  0.00000000000E+00 -0.10148794353E+04  0.34364001114E+04  0.32831182521E+04 0.  0.
        3    1    3    3  502    0  0.17774950707E+02 -0.13108119557E+04 -0.15415824067E+04  0.20236156401E+04  0.10100000352E+00 0. -1.
       -3    1    3    3    0  502 -0.17774950707E+02  0.13108119557E+04  0.52670297140E+03  0.14127844713E+04  0.10100000352E+00 0.  1.
</event>
<event>
 5   0  0.2674551E-06  0.3274287E+04  0.7818609E-02  0.8169469E-01
        2   -1    0    0  501    0  0.00000000000E+00  0.00000000000E+00  0.23013020105E+04  0.23013020105E+04  0.25500000920E-02 0. -1.
       -2   -1    0    0    0  501  0.00000000000E+00  0.00000000000E+00 -0.11646616525E+04  0.11646616525E+04  0.25500000920E-02 0.  1.
    10030    2    1    2    0    0  0.00000000000E+00  0.00000000000E+00  0.11366403580E+04  0.34659636631E+04  0.32742866109E+04 0.  0.
        3    1    3    3  502    0 -0.38445158922E+03 -0.62058481792E+03  0.21194732291E+04  0.22416724381E+04  0.10100000352E+00 0. -1.
       -3    1    3    3    0  502  0.38445158922E+03  0.62058481792E+03 -0.98283287110E+03  0.12242912249E+04  0.10100000352E+00 0.  1.
</event>
<event>
 5   0  0.9530268E-07  0.3128621E+04  0.7818609E-02  0.8207927E-01
       -1   -1    0    0    0  501  0.00000000000E+00  0.00000000000E+00  0.15010526060E+04  0.15010526060E+04  0.50400001928E-02 0. -1.
        1   -1    0    0  501    0  0.00000000000E+00  0.00000000000E+00 -0.16302343064E+04  0.16302343064E+04  0.50400001928E-02 0.  1.
    10030    2    1    2    0    0  0.00000000000E+00  0.00000000000E+00 -0.12918170046E+03  0.31312869124E+04  0.31286210726E+04 0.  0.
        5    1    3    3  502    0  0.54112038700E+03  0.56585391553E+03  0.12908316954E+04  0.15097253005E+04  0.46999998093E+01 0. -1.
       -5    1    3    3    0  502 -0.54112038700E+03 -0.56585391553E+03 -0.14200133959E+04  0.16215616120E+04  0.46999998093E+01 0.  1.
</event>
<event>
 5   0  0.2658600E-06  0.3375062E+04  0.7818609E-02  0.8144054E-01
       -2   -1    0    0    0  501  0.00000000000E+00  0.00000000000E+00  0.13332146455E+04  0.13332146455E+04  0.25500000920E-02 0. -1.
        2   -1    0    0  501    0  0.00000000000E+00  0.00000000000E+00 -0.21360107197E+04  0.21360107197E+04  0.25500000920E-02 0.  1.
    10030    2    1    2    0    0  0.00000000000E+00  0.00000000000E+00 -0.80279607422E+03  0.34692253652E+04  0.33750619398E+04 0.  0.
        5    1    3    3  502    0  0.79943164887E+03  0.10123188574E+04  0.71701087425E+03  0.14758072754E+04  0.46999998093E+01 0. -1.
       -5    1    3    3    0  502 -0.79943164887E+03 -0.10123188574E+04 -0.15198069485E+04  0.19934180898E+04  0.46999998093E+01 0.  1.
</event>
<event>
 5   0  0.2674551E-06  0.3363242E+04  0.7818609E-02  0.8146987E-01
        2   -1    0    0  501    0  0.00000000000E+00  0.00000000000E+00  0.22830000769E+04  0.22830000769E+04  0.25500000920E-02 0.  1.
       -2   -1    0    0    0  501  0.00000000000E+00  0.00000000000E+00 -0.12386547706E+04  0.12386547706E+04  0.25500000920E-02 0. -1.
    10030    2    1    2    0    0  0.00000000000E+00  0.00000000000E+00  0.10443453063E+04  0.35216548475E+04  0.33632418507E+04 0.  0.
        3    1    3    3  502    0  0.11184881390E+04 -0.72803957176E+02 -0.79048179477E+03  0.13715602835E+04  0.10100000352E+00 0. -1.
       -3    1    3    3    0  502 -0.11184881390E+04  0.72803957176E+02  0.18348271011E+04  0.21500945640E+04  0.10100000352E+00 0.  1.
</event>
<event>
 5   0  0.9268670E-07  0.3322163E+04  0.7818609E-02  0.8157279E-01
       -1   -1    0    0    0  501  0.00000000000E+00  0.00000000000E+00  0.15191353675E+04  0.15191353675E+04  0.50400001928E-02 0. -1.
        1   -1    0    0  501    0  0.00000000000E+00  0.00000000000E+00 -0.18162905918E+04  0.18162905918E+04  0.50400001928E-02 0.  1.
    10030    2    1    2    0    0  0.00000000000E+00  0.00000000000E+00 -0.29715522428E+03  0.33354259594E+04  0.33221627147E+04 0.  0.
        3    1    3    3  502    0 -0.11048755872E+04 -0.89721348989E+02 -0.13906063548E+04  0.17783661119E+04  0.10100000352E+00 0.  1.
       -3    1    3    3    0  502  0.11048755872E+04  0.89721348989E+02  0.10934511306E+04  0.15570598475E+04  0.10100000352E+00 0. -1.
</event>
<event>
 5   0  0.9268670E-07  0.2945208E+04  0.7818609E-02  0.8259553E-01
       -1   -1    0    0    0  501  0.00000000000E+00  0.00000000000E+00  0.17555134473E+04  0.17555134473E+04  0.50400001928E-02 0.  1.
        1   -1    0    0  501    0  0.00000000000E+00  0.00000000000E+00 -0.12352865057E+04  0.12352865058E+04  0.50400001928E-02 0. -1.
    10030    2    1    2    0    0  0.00000000000E+00  0.00000000000E+00  0.52022694155E+03  0.29907999530E+04  0.29452076817E+04 0.  0.
        3    1    3    3  502    0  0.84022111313E+03  0.12071513408E+04  0.18565596575E+03  0.14824486589E+04  0.10100000352E+00 0.  1.
       -3    1    3    3    0  502 -0.84022111313E+03 -0.12071513408E+04  0.33457097579E+03  0.15083512941E+04  0.10100000352E+00 0. -1.
</event>
<event>
 5   0  0.9295663E-07  0.3298834E+04  0.7818609E-02  0.8163192E-01
        1   -1    0    0  501    0  0.00000000000E+00  0.00000000000E+00  0.20808587920E+04  0.20808587920E+04  0.50400001928E-02 0. -1.
       -1   -1    0    0    0  501  0.00000000000E+00  0.00000000000E+00 -0.13074297838E+04  0.13074297838E+04  0.50400001928E-02 0.  1.
    10030    2    1    2    0    0  0.00000000000E+00  0.00000000000E+00  0.77342900818E+03  0.33882885759E+04  0.32988341945E+04 0.  0.
        4    1    3    3  502    0 -0.44417210252E+03  0.15648829988E+04  0.66692641609E+03  0.17581069689E+04  0.12699999809E+01 0. -1.
       -4    1    3    3    0  502  0.44417210252E+03 -0.15648829988E+04  0.10650259208E+03  0.16301816070E+04  0.12699999809E+01 0.  1.
</event>
<event>
 5   0  0.2705859E-06  0.3287632E+04  0.7818609E-02  0.8166050E-01
       -2   -1    0    0    0  501  0.00000000000E+00  0.00000000000E+00  0.19658428731E+04  0.19658428731E+04  0.25500000920E-02 0.  1.
        2   -1    0    0  501    0  0.00000000000E+00  0.00000000000E+00 -0.13745408672E+04  0.13745408672E+04  0.25500000920E-02 0. -1.
    10030    2    1    2    0    0  0.00000000000E+00  0.00000000000E+00  0.59130200599E+03  0.33403837403E+04  0.32876321981E+04 0.  0.
        1    1    3    3  502    0 -0.91171089193E+03 -0.13382162688E+04  0.81050513172E+01  0.16192915811E+04  0.50400001928E-02 0. -1.
       -1    1    3    3    0  502  0.91171089193E+03  0.13382162688E+04  0.58319695467E+03  0.17210921592E+04  0.50400001928E-02 0.  1.
</event>
<event>
 5   0  0.8520125E-07  0.3108671E+04  0.7818609E-02  0.8213362E-01
        4   -1    0    0  501    0  0.00000000000E+00  0.00000000000E+00  0.11648729466E+04  0.11648736389E+04  0.12699999809E+01 0. -1.
       -4   -1    0    0    0  501  0.00000000000E+00  0.00000000000E+00 -0.20740091052E+04  0.20740094941E+04  0.12699999809E+01 0.  1.
    10030    2    1    2    0    0  0.00000000000E+00  0.00000000000E+00 -0.90913615864E+03  0.32388831329E+04  0.31086710012E+04 0.  0.
        2    1    3    3  502    0  0.11132720400E+04 -0.98220225611E+03  0.24997511581E+02  0.14848302201E+04  0.25500000920E-02 0. -1.
       -2    1    3    3    0  502 -0.11132720400E+04  0.98220225611E+03 -0.93413367022E+03  0.17540529128E+04  0.25500000920E-02 0.  1.
</event>
<event>
 5   0  0.2614212E-06  0.3320823E+04  0.7818609E-02  0.8157617E-01
        2   -1    0    0  501    0  0.00000000000E+00  0.00000000000E+00  0.23534585331E+04  0.23534585331E+04  0.25500000920E-02 0. -1.
       -2   -1    0    0    0  501  0.00000000000E+00  0.00000000000E+00 -0.11714530799E+04  0.11714530799E+04  0.25500000920E-02 0.  1.
    10030    2    1    2    0    0  0.00000000000E+00  0.00000000000E+00  0.11820054532E+04  0.35249116130E+04  0.33208229384E+04 0.  0.
        2    1    3    3  502    0 -0.15249826039E+04 -0.46735075126E+03  0.10808598811E+04  0.19267191672E+04  0.25500000920E-02 0. -1.
       -2    1    3    3    0  502  0.15249826039E+04  0.46735075126E+03  0.10114557204E+03  0.15981924457E+04  0.25500000920E-02 0.  1.
</event>
<event>
 5   0  0.2674551E-06  0.2865433E+04  0.7818609E-02  0.8283237E-01
        2   -1    0    0  501    0  0.00000000000E+00  0.00000000000E+00  0.13306961029E+04  0.13306961029E+04  0.25500000920E-02 0. -1.
       -2   -1    0    0    0  501  0.00000000000E+00  0.00000000000E+00 -0.15425583136E+04  0.15425583136E+04  0.25500000920E-02 0.  1.
    10030    2    1    2    0    0  0.00000000000E+00  0.00000000000E+00 -0.21186221068E+03  0.28732544165E+04  0.28654328374E+04 0.  0.
        3    1    3    3  502    0  0.87029210916E+03 -0.75134493578E+03  0.75124072954E+03  0.13734228088E+04  0.10100000352E+00 0. -1.
       -3    1    3    3    0  502 -0.87029210916E+03  0.75134493578E+03 -0.96310294022E+03  0.14998316077E+04  0.10100000352E+00 0.  1.
</event>
<event>
 5   0  0.8705956E-07  0.3288363E+04  0.7818609E-02  0.8165863E-01
       -1   -1    0    0    0  501  0.00000000000E+00  0.00000000000E+00  0.11271301090E+04  0.11271301090E+04  0.50400001928E-02 0.  1.
        1   -1    0    0  501    0  0.00000000000E+00  0.00000000000E+00 -0.23984210756E+04  0.23984210756E+04  0.50400001928E-02 0. -1.
    10030    2    1    2    0    0  0.00000000000E+00  0.00000000000E+00 -0.12712909666E+04  0.35255511846E+04  0.32883628805E+04 0.  0.
        2    1    3    3  502    0 -0.15327358621E+04 -0.18290609249E+03 -0.28590264347E+02  0.15438754046E+04  0.25500000920E-02 0.  1.
       -2    1    3    3    0  502  0.15327358621E+04  0.18290609249E+03 -0.12427007022E+04  0.19816757800E+04  0.25500000920E-02 0. -1.
</event>
<event>
 5   0  0.8845526E-07  0.3289137E+04  0.7818609E-02  0.8165665E-01
        1   -1    0    0  501    0  0.00000000000E+00  0.00000000000E+00  0.16963346125E+04  0.16963346125E+04  0.50400001928E-02 0.  1.
       -1   -1    0    0    0  501  0.00000000000E+00  0.00000000000E+00 -0.15943818588E+04  0.15943818588E+04  0.50400001928E-02 0. -1.
    10030    2    1    2    0    0  0.00000000000E+00  0.00000000000E+00  0.10195275369E+03  0.32907164714E+04  0.32891367456E+04 0.  0.
        1    1    3    3  502    0  0.13277606472E+04 -0.95233056517E+03 -0.13545498645E+03  0.16395822319E+04  0.50400001928E-02 0. -1.
       -1    1    3    3    0  502 -0.13277606472E+04  0.95233056517E+03  0.23740774014E+03  0.16511342395E+04  0.50400001928E-02 0.  1.
</event>
<event>
 5   0  0.2674551E-06  0.3306558E+04  0.7818609E-02  0.8161229E-01
       -2   -1    0    0    0  501  0.00000000000E+00  0.00000000000E+00  0.12832568466E+04  0.12832568466E+04  0.25500000920E-02 0.  1.
        2   -1    0    0  501    0  0.00000000000E+00  0.00000000000E+00 -0.21299956743E+04  0.21299956743E+04  0.25500000920E-02 0. -1.
    10030    2    1    2    0    0  0.00000000000E+00  0.00000000000E+00 -0.84673882765E+03  0.34132525209E+04  0.33065580487E+04 0.  0.
        3    1    3    3  502    0  0.10041455552E+04  0.12222396055E+03 -0.17732677352E+04  0.20415007871E+04  0.10100000352E+00 0. -1.
       -3    1    3    3    0  502 -0.10041455552E+04 -0.12222396055E+03  0.92652890758E+03  0.13717517339E+04  0.10100000352E+00 0.  1.
</event>
<event>
 5   0  0.2658600E-06  0.3305877E+04  0.7818609E-02  0.8161402E-01
        2   -1    0    0  501    0  0.00000000000E+00  0.00000000000E+00  0.24472330995E+04  0.24472330995E+04  0.25500000920E-02 0. -1.
       -2   -1    0    0    0  501  0.00000000000E+00  0.00000000000E+00 -0.11164468536E+04  0.11164468536E+04  0.25500000920E-02 0.  1.
    10030    2    1    2    0    0  0.00000000000E+00  0.00000000000E+00  0.13307862459E+04  0.35636799531E+04  0.33058770055E+04 0.  0.
        5    1    3    3  502    0 -0.27849721190E+03  0.81099805930E+03  0.21887116020E+04  0.23506933267E+04  0.46999998093E+01 0. -1.
       -5    1    3    3    0  502  0.27849721190E+03 -0.81099805930E+03 -0.85792535611E+03  0.12129866264E+04  0.46999998093E+01 0.  1.
</event>
<event>
 5   0  0.9268670E-07  0.3355235E+04  0.7818609E-02  0.8148981E-01
        1   -1    0    0  501    0  0.00000000000E+00  0.00000000000E+00  0.20414129578E+04  0.20414129578E+04  0.50400001928E-02 0. -1.
       -1   -1    0    0    0  501  0.00000000000E+00  0.00000000000E+00 -0.13786527751E+04  0.13786527751E+04  0.50400001928E-02 0.  1.
    10030    2    1    2    0    0  0.00000000000E+00  0.00000000000E+00  0.66276018266E+03  0.34200657329E+04  0.33552345012E+04 0.  0.
        3    1    3    3  502    0  0.10995072323E+04  0.12021763811E+04 -0.76674193923E+02  0.16309577393E+04  0.10100000352E+00 0.  1.
       -3    1    3    3    0  502 -0.10995072323E+04 -0.12021763811E+04  0.73943437658E+03  0.17891079936E+04  0.10100000352E+00 0. -1.
</event>
<event>
 5   0  0.9295663E-07  0.3300455E+04  0.7818609E-02  0.8162780E-01
        1   -1    0    0  501    0  0.00000000000E+00  0.00000000000E+00  0.14016184610E+04  0.14016184610E+04  0.50400001928E-02 0. -1.
       -1   -1    0    0    0  501  0.00000000000E+00  0.00000000000E+00 -0.19429324711E+04  0.19429324711E+04  0.50400001928E-02 0.  1.
    10030    2    1    2    0    0  0.00000000000E+00  0.00000000000E+00 -0.54131401010E+03  0.33445509321E+04  0.33004545262E+04 0.  0.
        4    1    3    3  502    0  0.42332430772E+03 -0.13284963193E+04  0.62382683448E+03  0.15275036734E+04  0.12699999809E+01 0. -1.
       -4    1    3    3    0  502 -0.42332430772E+03  0.13284963193E+04 -0.11651408446E+04  0.18170472587E+04  0.12699999809E+01 0.  1.
</event>
<event>
 5   0  0.8705956E-07  0.3343396E+04  0.7818609E-02  0.8151940E-01
       -1   -1    0    0    0  501  0.00000000000E+00  0.00000000000E+00  0.11603691769E+04  0.11603691770E+04  0.50400001928E-02 0. -1.
        1   -1    0    0  501    0  0.00000000000E+00  0.00000000000E+00 -0.24083496204E+04  0.24083496204E+04  0.50400001928E-02 0.  1.
    10030    2    1    2    0    0  0.00000000000E+00  0.00000000000E+00 -0.12479804435E+04  0.35687187974E+04  0.33433962774E+04 0.  0.
        2    1    3    3  502    0  0.13565446554E+04  0.76588628913E+03 -0.12713090025E+04  0.20107266820E+04  0.25500000920E-02 0.  1.
       -2    1    3    3    0  502 -0.13565446554E+04 -0.76588628913E+03  0.23328559024E+02  0.15579921154E+04  0.25500000920E-02 0. -1.
</event>
<event>
 5   0  0.2574803E-06  0.2931805E+04  0.7818609E-02  0.8263477E-01
       -2   -1    0    0    0  501  0.00000000000E+00  0.00000000000E+00  0.26831456039E+04  0.26831456039E+04  0.25500000920E-02 0. -1.
        2   -1    0    0  501    0  0.00000000000E+00  0.00000000000E+00 -0.80087740050E+03  0.80087740051E+03  0.25500000920E-02 0.  1.
    10030    2    1    2    0    0  0.00000000000E+00  0.00000000000E+00  0.18822682034E+04  0.34840230044E+04  0.29318053663E+04 0.  0.
        4    1    3    3  502    0  0.97207683820E+03  0.15268697388E+03 -0.35008928318E+03  0.10444188865E+04  0.12699999809E+01 0.  1.
       -4    1    3    3    0  502 -0.97207683820E+03 -0.15268697388E+03  0.22323574865E+04  0.24396041179E+04  0.12699999809E+01 0. -1.
</event>
<event>
 5   0  0.9530268E-07  0.3264906E+04  0.7818609E-02  0.8171883E-01
        1   -1    0    0  501    0  0.00000000000E+00  0.00000000000E+00  0.18120406308E+04  0.18120406308E+04  0.50400001928E-02 0.  1.
       -1   -1    0    0    0  501  0.00000000000E+00  0.00000000000E+00 -0.14706641256E+04  0.14706641257E+04  0.50400001928E-02 0. -1.
    10030    2    1    2    0    0  0.00000000000E+00  0.00000000000E+00  0.34137650517E+03  0.32827047565E+04  0.32649062161E+04 0.  0.
        5    1    3    3  502    0  0.11888423715E+04  0.86176463319E+03 -0.54657054724E+03  0.15667628795E+04  0.46999998093E+01 0. -1.
       -5    1    3    3    0  502 -0.11888423715E+04 -0.86176463319E+03  0.88794705241E+03  0.17159418770E+04  0.46999998093E+01 0.  1.
</event>
<event>
 5   0  0.2658600E-06  0.3263046E+04  0.7818609E-02  0.8172363E-01
        2   -1    0    0  501    0  0.00000000000E+00  0.00000000000E+00  0.20734732012E+04  0.20734732012E+04  0.25500000920E-02 0. -1.
       -2   -1    0    0    0  501  0.00000000000E+00  0.00000000000E+00 -0.12837719065E+04  0.12837719065E+04  0.25500000920E-02 0.  1.
    10030    2    1    2    0    0  0.00000000000E+00  0.00000000000E+00  0.78970129467E+03  0.33572451077E+04  0.32630455985E+04 0.  0.
        5    1    3    3  502    0 -0.36175864903E+03 -0.13805742768E+04 -0.41853481618E+03  0.14872955780E+04  0.46999998093E+01 0.  1.
       -5    1    3    3    0  502  0.36175864903E+03  0.13805742768E+04  0.12082361108E+04  0.18699495297E+04  0.46999998093E+01 0. -1.
</event>
<event>
 5   0  0.8705956E-07  0.3209119E+04  0.7818609E-02  0.8186413E-01
       -1   -1    0    0    0  501  0.00000000000E+00  0.00000000000E+00  0.13496195165E+04  0.13496195165E+04  0.50400001928E-02 0. -1.
        1   -1    0    0  501    0  0.00000000000E+00  0.00000000000E+00 -0.19076572095E+04  0.19076572095E+04  0.50400001928E-02 0.  1.
    10030    2    1    2    0    0  0.00000000000E+00  0.00000000000E+00 -0.55803769301E+03  0.32572767261E+04  0.32091191320E+04 0.  0.
        2    1    3    3  502    0  0.51754596568E+03  0.12240487983E+04 -0.11916570673E+04  0.17849918356E+04  0.25500000920E-02 0.  1.
       -2    1    3    3    0  502 -0.51754596568E+03 -0.12240487983E+04  0.63361937426E+03  0.14722848905E+04  0.25500000920E-02 0. -1.
</event>
<event>
 5   0  0.2705859E-06  0.3286600E+04  0.7818609E-02  0.8166313E-01
       -2   -1    0    0    0  501  0.00000000000E+00  0.00000000000E+00  0.24174689688E+04  0.24174689688E+04  0.25500000920E-02 0.  1.
        2   -1    0    0  501    0  0.00000000000E+00  0.00000000000E+00 -0.11170506988E+04  0.11170506988E+04  0.25500000920E-02 0. -1.
    10030    2    1    2    0    0  0.00000000000E+00  0.00000000000E+00  0.13004182700E+04  0.35345196676E+04  0.32866003109E+04 0.  0.
        1    1    3    3  502    0 -0.15775811950E+04  0.29151054363E+03  0.10330008447E+04  0.19080963207E+04  0.50400001928E-02 0.  1.
       -1    1    3    3    0  502  0.15775811950E+04 -0.29151054363E+03  0.26741742531E+03  0.16264233469E+04  0.50400001928E-02 0. -1.
</event>
<event>
 5   0  0.9530268E-07  0.3296971E+04  0.7818609E-02  0.8163667E-01
       -1   -1    0    0    0  501  0.00000000000E+00  0.00000000000E+00  0.13698862835E+04  0.13698862835E+04  0.50400001928E-02 0. -1.
        1   -1    0    0  501    0  0.00000000000E+00  0.00000000000E+00 -0.19837446197E+04  0.19837446197E+04  0.50400001928E-02 0.  1.
    10030    2    1    2    0    0  0.00000000000E+00  0.00000000000E+00 -0.61385833619E+03  0.33536309032E+04  0.32969710612E+04 0.  0.
        5    1    3    3  502    0 -0.89953507086E+03 -0.38159410907E+02  0.10976941387E+04  0.14197091239E+04  0.46999998093E+01 0. -1.
       -5    1    3    3    0  502  0.89953507086E+03  0.38159410907E+02 -0.17115524749E+04  0.19339217793E+04  0.46999998093E+01 0.  1.
</event>
<event>
 5   0  0.8705956E-07  0.3428202E+04  0.7818609E-02  0.8131019E-01
       -1   -1    0    0    0  501  0.00000000000E+00  0.00000000000E+00  0.10233511849E+04  0.10233511849E+04  0.50400001928E-02 0.  1.
        1   -1    0    0  501    0  0.00000000000E+00  0.00000000000E+00 -0.28710985548E+04  0.28710985548E+04  0.50400001928E-02 0. -1.
    10030    2    1    2    0    0  0.00000000000E+00  0.00000000000E+00 -0.18477473699E+04  0.38944497397E+04  0.34282019241E+04 0.  0.
        2    1    3    3  502    0  0.13995765728E+04  0.98741866578E+03 -0.84910511192E+03  0.19117504271E+04  0.25500000920E-02 0. -1.
       -2    1    3    3    0  502 -0.13995765728E+04 -0.98741866578E+03 -0.99864225799E+03  0.19826993126E+04  0.25500000920E-02 0.  1.
</event>
<event>
 5   0  0.2614212E-06  0.3312194E+04  0.7818609E-02  0.8159800E-01
        2   -1    0    0  501    0  0.00000000000E+00  0.00000000000E+00  0.18963023489E+04  0.18963023489E+04  0.25500000920E-02 0.  1.
       -2   -1    0    0    0  501  0.00000000000E+00  0.00000000000E+00 -0.14463183232E+04  0.14463183232E+04  0.25500000920E-02 0. -1.
    10030    2    1    2    0    0  0.00000000000E+00  0.00000000000E+00  0.44998402572E+03  0.33426206721E+04  0.33121937344E+04 0.  0.
        2    1    3    3  502    0  0.10390838821E+04  0.18741467646E+03 -0.10625957950E+04  0.14979750994E+04  0.25500000920E-02 0. -1.
       -2    1    3    3    0  502 -0.10390838821E+04 -0.18741467646E+03  0.15125798207E+04  0.18446455727E+04  0.25500000920E-02 0.  1.
</event>
<event>
 5   0  0.2614212E-06  0.3081127E+04  0.7818609E-02  0.8220937E-01
       -2   -1    0    0    0  501  0.00000000000E+00  0.00000000000E+00  0.16372863878E+04  0.16372863878E+04  0.25500000920E-02 0. -1.
        2   -1    0    0  501    0  0.00000000000E+00  0.00000000000E+00 -0.14495542321E+04  0.14495542321E+04  0.25500000920E-02 0.  1.
    10030    2    1    2    0    0  0.00000000000E+00  0.00000000000E+00  0.18773215568E+03  0.30868406199E+04  0.30811266852E+04 0.  0.
        2    1    3    3  502    0 -0.11586770146E+04 -0.19231488615E+03  0.10926190264E+04  0.16041613935E+04  0.25500000920E-02 0.  1.
       -2    1    3    3    0  502  0.11586770146E+04  0.19231488615E+03 -0.90488687072E+03  0.14826792264E+04  0.25500000920E-02 0. -1.
</event>
<event>
 5   0  0.2574803E-06  0.3300286E+04  0.7818609E-02  0.8162823E-01
       -2   -1    0    0    0  501  0.00000000000E+00  0.00000000000E+00  0.23454481646E+04  0.23454481646E+04  0.25500000920E-02 0. -1.
        2   -1    0    0  501    0  0.00000000000E+00  0.00000000000E+00 -0.11609601043E+04  0.11609601044E+04  0.25500000920E-02 0.  1.
    10030    2    1    2    0    0  0.00000000000E+00  0.00000000000E+00  0.11844880603E+04  0.35064082690E+04  0.33002858942E+04 0.  0.
        4    1    3    3  502    0 -0.71495019136E+03 -0.14676329561E+04  0.84783008035E+03  0.18395428040E+04  0.12699999809E+01 0.  1.
       -4    1    3    3    0  502  0.71495019136E+03  0.14676329561E+04  0.33665797991E+03  0.16668654649E+04  0.12699999809E+01 0. -1.
</event>
<event>
 5   0  0.2614212E-06  0.3216585E+04  0.7818609E-02  0.8184451E-01
        2   -1    0    0  501    0  0.00000000000E+00  0.00000000000E+00  0.17844727971E+04  0.17844727971E+04  0.25500000920E-02 0.  1.
       -2   -1    0    0    0  501  0.00000000000E+00  0.00000000000E+00 -0.14495067051E+04  0.14495067051E+04  0.25500000920E-02 0. -1.
    10030    2    1    2    0    0  0.00000000000E+00  0.00000000000E+00  0.33496609203E+03  0.32339795022E+04  0.32165853226E+04 0.  0.
        2    1    3    3  502    0  0.68063865217E+02  0.73943774390E+03  0.16018035450E+04  0.17655524528E+04  0.25500000920E-02 0.  1.
       -2    1    3    3    0  502 -0.68063865217E+02 -0.73943774390E+03 -0.12668374530E+04  0.14684270493E+04  0.25500000920E-02 0. -1.
</event>
<event>
 5   0  0.2614212E-06  0.3381112E+04  0.7818609E-02  0.8142558E-01
       -2   -1    0    0    0  501  0.00000000000E+00  0.00000000000E+00  0.10877052679E+04  0.10877052679E+04  0.25500000920E-02 0.  1.
        2   -1    0    0  501    0  0.00000000000E+00  0.00000000000E+00 -0.26275316747E+04  0.26275316747E+04  0.25500000920E-02 0. -1.
    10030    2    1    2    0    0  0.00000000000E+00  0.00000000000E+00 -0.15398264068E+04  0.37152369426E+04  0.33811122691E+04 0.  0.
        2    1    3    3  502    0  0.16712974912E+04  0.24499291959E+03 -0.84543034077E+03  0.18889174931E+04  0.25500000920E-02 0. -1.
       -2    1    3    3    0  502 -0.16712974912E+04 -0.24499291959E+03 -0.69439606607E+03  0.18263194494E+04  0.25500000920E-02 0.  1.
</event>
<event>
 5   0  0.2674551E-06  0.3368673E+04  0.7818609E-02  0.8145638E-01
        2   -1    0    0  501    0  0.00000000000E+00  0.00000000000E+00  0.22814501894E+04  0.22814501894E+04  0.25500000920E-02 0. -1.
       -2   -1    0    0    0  501  0.00000000000E+00  0.00000000000E+00 -0.12435027722E+04  0.12435027722E+04  0.25500000920E-02 0.  1.
    10030    2    1    2    0    0  0.00000000000E+00  0.00000000000E+00  0.10379474172E+04  0.35249529616E+04  0.33686731128E+04 0.  0.
        3    1    3    3  502    0 -0.41384270435E+03  0.11472785383E+04 -0.69658798510E+03  0.14045457129E+04  0.10100000352E+00 0.  1.
       -3    1    3    3    0  502  0.41384270435E+03 -0.11472785383E+04  0.17345354023E+04  0.21204072487E+04  0.10100000352E+00 0. -1.
</event>
<event>
 5   0  0.9295663E-07  0.2402958E+04  0.7818609E-02  0.8438397E-01
       -1   -1    0    0    0  501  0.00000000000E+00  0.00000000000E+00  0.93868495852E+03  0.93868495853E+03  0.50400001928E-02 0. -1.
        1   -1    0    0  501    0  0.00000000000E+00  0.00000000000E+00 -0.15378450718E+04  0.15378450718E+04  0.50400001928E-02 0.  1.
    10030    2    1    2    0    0  0.00000000000E+00  0.00000000000E+00 -0.59916011327E+03  0.24765300303E+04  0.24029582081E+04 0.  0.
        4    1    3    3  502    0 -0.53677087770E+03 -0.61541819795E+03 -0.12078619322E+04  0.14580104916E+04  0.12699999809E+01 0.  1.
       -4    1    3    3    0  502  0.53677087770E+03  0.61541819795E+03  0.60870181891E+03  0.10185195387E+04  0.12699999809E+01 0. -1.
</event>
<event>
 5   0  0.8845526E-07  0.2746497E+04  0.7818609E-02  0.8320074E-01
       -1   -1    0    0    0  501  0.00000000000E+00  0.00000000000E+00  0.65944299057E+03  0.65944299059E+03  0.50400001928E-02 0. -1.
        1   -1    0    0  501    0  0.00000000000E+00  0.00000000000E+00 -0.28597026846E+04  0.28597026846E+04  0.50400001928E-02 0.  1.
    10030    2    1    2    0    0  0.00000000000E+00  0.00000000000E+00 -0.22002596940E+04  0.35191456751E+04  0.27464965978E+04 0.  0.
        1    1    3    3  502    0 -0.28727508762E+03 -0.13270859380E+04 -0.13631188313E+04  0.19240002627E+04  0.50400001928E-02 0. -1.
       -1    1    3    3    0  502  0.28727508762E+03  0.13270859380E+04 -0.83714086273E+03  0.15951454124E+04  0.50400001928E-02 0.  1.
</event>
<event>
 5   0  0.9268670E-07  0.3300600E+04  0.7818609E-02  0.8162743E-01
       -1   -1    0    0    0  501  0.00000000000E+00  0.00000000000E+00  0.14922454611E+04  0.14922454611E+04  0.50400001928E-02 0. -1.
        1   -1    0    0  501    0  0.00000000000E+00  0.00000000000E+00 -0.18250956884E+04  0.18250956884E+04  0.50400001928E-02 0.  1.
    10030    2    1    2    0    0  0.00000000000E+00  0.00000000000E+00 -0.33285022734E+03  0.33173411495E+04  0.33006004042E+04 0.  0.
        3    1    3    3  502    0 -0.11023837987E+04 -0.10502656223E+03 -0.13962366583E+04  0.17820654967E+04  0.10100000352E+00 0.  1.
       -3    1    3    3    0  502  0.11023837987E+04  0.10502656223E+03  0.10633864309E+04  0.15352756528E+04  0.10100000352E+00 0. -1.
</event>
<event>
 5   0  0.8705956E-07  0.3345045E+04  0.7818609E-02  0.8151527E-01
       -1   -1    0    0    0  501  0.00000000000E+00  0.00000000000E+00  0.18420883960E+04  0.18420883960E+04  0.50400001928E-02 0. -1.
        1   -1    0    0  501    0  0.00000000000E+00  0.00000000000E+00 -0.15185653294E+04  0.15185653294E+04  0.50400001928E-02 0.  1.
    10030    2    1    2    0    0  0.00000000000E+00  0.00000000000E+00  0.32352306664E+03  0.33606537255E+04  0.33450450352E+04 0.  0.
        2    1    3    3  502    0  0.98977535332E+03 -0.98741743098E+03 -0.76049968992E+03  0.15915427143E+04  0.25500000920E-02 0.  1.
       -2    1    3    3    0  502 -0.98977535332E+03  0.98741743098E+03  0.10840227566E+04  0.17691110112E+04  0.25500000920E-02 0. -1.
</event>
<event>
 5   0  0.9268670E-07  0.3297771E+04  0.7818609E-02  0.8163463E-01
        1   -1    0    0  501    0  0.00000000000E+00  0.00000000000E+00  0.26135984199E+04  0.26135984199E+04  0.50400001928E-02 0.  1.
       -1   -1    0    0    0  501  0.00000000000E+00  0.00000000000E+00 -0.10402606778E+04  0.10402606778E+04  0.50400001928E-02 0. -1.
    10030    2    1    2    0    0  0.00000000000E+00  0.00000000000E+00  0.15733377422E+04  0.36538590977E+04  0.32977711647E+04 0.  0.
        3    1    3    3  502    0  0.65433242883E+03  0.10760583761E+04  0.19659092978E+04  0.23347059630E+04  0.10100000352E+00 0.  1.
       -3    1    3    3    0  502 -0.65433242883E+03 -0.10760583761E+04 -0.39257155567E+03  0.13191531347E+04  0.10100000352E+00 0. -1.
</event>
<event>
 5   0  0.2574803E-06  0.3328883E+04  0.7818609E-02  0.8155585E-01
       -2   -1    0    0    0  501  0.00000000000E+00  0.00000000000E+00  0.13292400123E+04  0.13292400123E+04  0.25500000920E-02 0. -1.
        2   -1    0    0  501    0  0.00000000000E+00  0.00000000000E+00 -0.20841729889E+04  0.20841729889E+04  0.25500000920E-02 0.  1.
    10030    2    1    2    0    0  0.00000000000E+00  0.00000000000E+00 -0.75493297658E+03  0.34134130013E+04  0.33288833741E+04 0.  0.
        4    1    3    3  502    0 -0.11553839468E+03 -0.96726496684E+01 -0.20800267194E+04  0.20832559726E+04  0.12699999809E+01 0.  1.
       -4    1    3    3    0  502  0.11553839468E+03  0.96726496684E+01  0.13250937428E+04  0.13301570287E+04  0.12699999809E+01 0. -1.
</event>
<event>
 5   0  0.2574803E-06  0.3116005E+04  0.7818609E-02  0.8211359E-01
        2   -1    0    0  501    0  0.00000000000E+00  0.00000000000E+00  0.11206906820E+04  0.11206906820E+04  0.25500000920E-02 0. -1.
       -2   -1    0    0    0  501  0.00000000000E+00  0.00000000000E+00 -0.21659600758E+04  0.21659600758E+04  0.25500000920E-02 0.  1.
    10030    2    1    2    0    0  0.00000000000E+00  0.00000000000E+00 -0.10452693938E+04  0.32866507579E+04  0.31160046692E+04 0.  0.
        4    1    3    3  502    0 -0.88785445052E+02 -0.11471351900E+04 -0.16306734280E+04  0.19957202812E+04  0.12699999809E+01 0.  1.
       -4    1    3    3    0  502  0.88785445052E+02  0.11471351900E+04  0.58540403414E+03  0.12909304766E+04  0.12699999809E+01 0. -1.
</event>
<event>
 5   0  0.2614212E-06  0.3236634E+04  0.7818609E-02  0.8179209E-01
        2   -1    0    0  501    0  0.00000000000E+00  0.00000000000E+00  0.22491900904E+04  0.22491900904E+04  0.25500000920E-02 0. -1.
       -2   -1    0    0    0  501  0.00000000000E+00  0.00000000000E+00 -0.11643967455E+04  0.11643967455E+04  0.25500000920E-02 0.  1.
    10030    2    1    2    0    0  0.00000000000E+00  0.00000000000E+00  0.10847933449E+04  0.34135868360E+04  0.32366338201E+04 0.  0.
        2    1    3    3  502    0 -0.15909094460E+04 -0.20328279714E+03  0.31464403500E+03  0.16344166023E+04  0.25500000920E-02 0. -1.
       -2    1    3    3    0  502  0.15909094460E+04  0.20328279714E+03  0.77014930989E+03  0.17791702337E+04  0.25500000920E-02 0.  1.
</event>
<event>
 5   0  0.8520125E-07  0.3293277E+04  0.7818609E-02  0.8164608E-01
        3   -1    0    0  501    0  0.00000000000E+00  0.00000000000E+00  0.28363954761E+04  0.28363954779E+04  0.10100000352E+00 0.  1.
       -3   -1    0    0    0  501  0.00000000000E+00  0.00000000000E+00 -0.95593783447E+03  0.95593783981E+03  0.10100000352E+00 0. -1.
    10030    2    1    2    0    0  0.00000000000E+00  0.00000000000E+00  0.18804576416E+04  0.37923333177E+04  0.32932766435E+04 0.  0.
        5    1    3    3  502    0 -0.17496585072E+03  0.10998613294E+04  0.23369109191E+04  0.25887222189E+04  0.46999998093E+01 0.  1.
       -5    1    3    3    0  502  0.17496585072E+03 -0.10998613294E+04 -0.45645327746E+03  0.12036110988E+04  0.46999998093E+01 0. -1.
</event>
<event>
 5   0  0.9295663E-07  0.3238167E+04  0.7818609E-02  0.8178809E-01
       -1   -1    0    0    0  501  0.00000000000E+00  0.00000000000E+00  0.13545502147E+04  0.13545502147E+04  0.50400001928E-02 0. -1.
        1   -1    0    0  501    0  0.00000000000E+00  0.00000000000E+00 -0.19352781286E+04  0.19352781286E+04  0.50400001928E-02 0.  1.
    10030    2    1    2    0    0  0.00000000000E+00  0.00000000000E+00 -0.58072791394E+03  0.32898283433E+04  0.32381670152E+04 0.  0.
        4    1    3    3  502    0  0.10577017905E+04 -0.11305250341E+04 -0.77185521140E+03  0.17299080931E+04  0.12699999809E+01 0.  1.
       -4    1    3    3    0  502 -0.10577017905E+04  0.11305250341E+04  0.19112729746E+03  0.15599202502E+04  0.12699999809E+01 0. -1.
</event>
<event>
 5   0  0.9268670E-07  0.2956511E+04  0.7818609E-02  0.8256259E-01
        1   -1    0    0  501    0  0.00000000000E+00  0.00000000000E+00  0.21945619819E+04  0.21945619819E+04  0.50400001928E-02 0.  1.
       -1   -1    0    0    0  501  0.00000000000E+00  0.00000000000E+00 -0.99575222810E+03  0.99575222812E+03  0.50400001928E-02 0. -1.
    10030    2    1    2    0    0  0.00000000000E+00  0.00000000000E+00  0.11988097538E+04  0.31903142100E+04  0.29565114464E+04 0.  0.
        3    1    3    3  502    0  0.80286480299E+03  0.69421180868E+03 -0.51090461194E+03  0.11779411954E+04  0.10100000352E+00 0. -1.
       -3    1    3    3    0  502 -0.80286480299E+03 -0.69421180868E+03  0.17097143657E+04  0.20123730146E+04  0.10100000352E+00 0.  1.
</event>
<event>
 5   0  0.9295663E-07  0.3212567E+04  0.7818609E-02  0.8185506E-01
        1   -1    0    0  501    0  0.00000000000E+00  0.00000000000E+00  0.16378304283E+04  0.16378304283E+04  0.50400001928E-02 0. -1.
       -1   -1    0    0    0  501  0.00000000000E+00  0.00000000000E+00 -0.15753445238E+04  0.15753445239E+04  0.50400001928E-02 0.  1.
    10030    2    1    2    0    0  0.00000000000E+00  0.00000000000E+00  0.62485904425E+02  0.32131749521E+04  0.32125673199E+04 0.  0.
        4    1    3    3  502    0  0.71315826283E+03  0.10240024063E+04 -0.98036811814E+03  0.15869148988E+04  0.12699999809E+01 0.  1.
       -4    1    3    3    0  502 -0.71315826283E+03 -0.10240024063E+04  0.10428540226E+04  0.16262600534E+04  0.12699999809E+01 0. -1.
</event>
<event>
 5   0  0.9295663E-07  0.3309397E+04  0.7818609E-02  0.8160508E-01
       -1   -1    0    0    0  501  0.00000000000E+00  0.00000000000E+00  0.99161275209E+03  0.99161275210E+03  0.50400001928E-02 0. -1.
        1   -1    0    0  501    0  0.00000000000E+00  0.00000000000E+00 -0.27611861370E+04  0.27611861370E+04  0.50400001928E-02 0.  1.
    10030    2    1    2    0    0  0.00000000000E+00  0.00000000000E+00 -0.17695733849E+04  0.37527988891E+04  0.33093971562E+04 0.  0.
        4    1    3    3  502    0 -0.79669048758E+03  0.39240354819E+03 -0.24680349871E+04  0.26229553157E+04  0.12699999809E+01 0.  1.
       -4    1    3    3    0  502  0.79669048758E+03 -0.39240354819E+03  0.69846160223E+03  0.11298435734E+04  0.12699999809E+01 0. -1.
</event>
<event>
 5   0  0.2705859E-06  0.3301888E+04  0.7818609E-02  0.8162415E-01
       -2   -1    0    0    0  501  0.00000000000E+00  0.00000000000E+00  0.99778716093E+03  0.99778716093E+03  0.25500000920E-02 0.  1.
        2   -1    0    0  501    0  0.00000000000E+00  0.00000000000E+00 -0.27316616278E+04  0.27316616278E+04  0.25500000920E-02 0. -1.
    10030    2    1    2    0    0  0.00000000000E+00  0.00000000000E+00 -0.17338744669E+04  0.37294487888E+04  0.33018884901E+04 0.  0.
        1    1    3    3  502    0  0.26239166541E+03  0.25337180567E+03  0.95170600187E+03  0.10192109556E+04  0.50400001928E-02 0.  1.
       -1    1    3    3    0  502 -0.26239166541E+03 -0.25337180567E+03 -0.26855804688E+04  0.27102378332E+04  0.50400001928E-02 0. -1.
</event>
<event>
 5   0  0.2614212E-06  0.3320509E+04  0.7818609E-02  0.8157696E-01
        2   -1    0    0  501    0  0.00000000000E+00  0.00000000000E+00  0.23026114541E+04  0.23026114541E+04  0.25500000920E-02 0. -1.
       -2   -1    0    0    0  501  0.00000000000E+00  0.00000000000E+00 -0.11970950713E+04  0.11970950713E+04  0.25500000920E-02 0.  1.
    10030    2    1    2    0    0  0.00000000000E+00  0.00000000000E+00  0.11055163828E+04  0.34997065254E+04  0.33205088904E+04 0.  0.
        2    1    3    3  502    0 -0.12263355422E+04 -0.43820640859E+03 -0.53263386192E+03  0.14069906004E+04  0.25500000920E-02 0.  1.
       -2    1    3    3    0  502  0.12263355422E+04  0.43820640859E+03  0.16381502447E+04  0.20927159250E+04  0.25500000920E-02 0. -1.
</event>
<event>
 5   0  0.2674551E-06  0.3244192E+04  0.7818609E-02  0.8177243E-01
       -2   -1    0    0    0  501  0.00000000000E+00  0.00000000000E+00  0.10038009419E+04  0.10038009419E+04  0.25500000920E-02 0. -1.
        2   -1    0    0  501    0  0.00000000000E+00  0.00000000000E+00 -0.26212322630E+04  0.26212322630E+04  0.25500000920E-02 0.  1.
    10030    2    1    2    0    0  0.00000000000E+00  0.00000000000E+00 -0.16174313211E+04  0.36250332050E+04  0.32441919886E+04 0.  0.
        3    1    3    3  502    0 -0.15968025249E+03  0.14823126883E+04 -0.94592455351E+02  0.14938863517E+04  0.10100000352E+00 0. -1.
       -3    1    3    3    0  502  0.15968025249E+03 -0.14823126883E+04 -0.15228388658E+04  0.21311468533E+04  0.10100000352E+00 0.  1.
</event>
<event>
 5   0  0.2658600E-06  0.3317059E+04  0.7818609E-02  0.8158568E-01
        2   -1    0    0  501    0  0.00000000000E+00  0.00000000000E+00  0.19525097128E+04  0.19525097128E+04  0.25500000920E-02 0. -1.
       -2   -1    0    0    0  501  0.00000000000E+00  0.00000000000E+00 -0.14088125820E+04  0.14088125820E+04  0.25500000920E-02 0.  1.
    10030    2    1    2    0    0  0.00000000000E+00  0.00000000000E+00  0.54369713080E+03  0.33613222947E+04  0.33170590889E+04 0.  0.
        5    1    3    3  502    0 -0.10793979621E+04 -0.93676880534E+03 -0.58084447023E+03  0.15427372245E+04  0.46999998093E+01 0. -1.
       -5    1    3    3    0  502  0.10793979621E+04  0.93676880534E+03  0.11245416010E+04  0.18185850702E+04  0.46999998093E+01 0.  1.
</event>
<event>
 5   0  0.9530268E-07  0.3241577E+04  0.7818609E-02  0.8177922E-01
        1   -1    0    0  501    0  0.00000000000E+00  0.00000000000E+00  0.10828277469E+04  0.10828277469E+04  0.50400001928E-02 0. -1.
       -1   -1    0    0    0  501  0.00000000000E+00  0.00000000000E+00 -0.24260144882E+04  0.24260144882E+04  0.50400001928E-02 0.  1.
    10030    2    1    2    0    0  0.00000000000E+00  0.00000000000E+00 -0.13431867413E+04  0.35088422352E+04  0.32415772719E+04 0.  0.
        5    1    3    3  502    0 -0.33441787197E+03 -0.15565862049E+04 -0.34302454997E+03  0.16286447920E+04  0.46999998093E+01 0.  1.
       -5    1    3    3    0  502  0.33441787197E+03  0.15565862049E+04 -0.10001621913E+04  0.18801974432E+04  0.46999998093E+01 0. -1.
</event>
<event>
 5   0  0.8705956E-07  0.3337510E+04  0.7818609E-02  0.8153416E-01
        1   -1    0    0  501    0  0.00000000000E+00  0.00000000000E+00  0.12418056113E+04  0.12418056113E+04  0.50400001928E-02 0.  1.
       -1   -1    0    0    0  501  0.00000000000E+00  0.00000000000E+00 -0.22424954892E+04  0.22424954892E+04  0.50400001928E-02 0. -1.
    10030    2    1    2    0    0  0.00000000000E+00  0.00000000000E+00 -0.10006898779E+04  0.34843011005E+04  0.33375101388E+04 0.  0.
        2    1    3    3  502    0 -0.37780808281E+03  0.14023146638E+04 -0.13583929427E+04  0.19885815926E+04  0.25500000920E-02 0. -1.
       -2    1    3    3    0  502  0.37780808281E+03 -0.14023146638E+04  0.35770306479E+03  0.14957195079E+04  0.25500000920E-02 0.  1.
</event>
<event>
 5   0  0.9530268E-07  0.3278477E+04  0.7818609E-02  0.8168394E-01
       -1   -1    0    0    0  501  0.00000000000E+00  0.00000000000E+00  0.13573586017E+04  0.13573586018E+04  0.50400001928E-02 0. -1.
        1   -1    0    0  501    0  0.00000000000E+00  0.00000000000E+00 -0.19796553425E+04  0.19796553425E+04  0.50400001928E-02 0.  1.
    10030    2    1    2    0    0  0.00000000000E+00  0.00000000000E+00 -0.62229674072E+03  0.33370139442E+04  0.32784766021E+04 0.  0.
        5    1    3    3  502    0  0.99742267990E+03 -0.10403503247E+04 -0.11060529635E+04  0.18167432533E+04  0.46999998093E+01 0.  1.
       -5    1    3    3    0  502 -0.99742267990E+03  0.10403503247E+04  0.48375622277E+03  0.15202706909E+04  0.46999998093E+01 0. -1.
</event>
<event>
 5   0  0.2614212E-06  0.3260514E+04  0.7818609E-02  0.8173016E-01
        2   -1    0    0  501    0  0.00000000000E+00  0.00000000000E+00  0.17191798918E+04  0.17191798918E+04  0.25500000920E-02 0.  1.
       -2   -1    0    0    0  501  0.00000000000E+00  0.00000000000E+00 -0.15459332102E+04  0.15459332102E+04  0.25500000920E-02 0. -1.
    10030    2    1    2    0    0  0.00000000000E+00  0.00000000000E+00  0.17324668166E+03  0.32651131020E+04  0.32605136338E+04 0.  0.
        2    1    3    3  502    0  0.15803153926E+04 -0.39891991583E+03  0.51883633753E+02  0.16307132645E+04  0.25500000920E-02 0.  1.
       -2    1    3    3    0  502 -0.15803153926E+04  0.39891991583E+03  0.12136304790E+03  0.16343998375E+04  0.25500000920E-02 0. -1.
</event>
<event>
 5   0  0.2705859E-06  0.3265712E+04  0.7818609E-02  0.8171675E-01
       -2   -1    0    0    0  501  0.00000000000E+00  0.00000000000E+00  0.19027728187E+04  0.19027728187E+04  0.25500000920E-02 0.  1.
        2   -1    0    0  501    0  0.00000000000E+00  0.00000000000E+00 -0.14012279885E+04  0.14012279885E+04  0.25500000920E-02 0. -1.
    10030    2    1    2    0    0  0.00000000000E+00  0.00000000000E+00  0.50154483018E+03  0.33040008071E+04  0.32657118852E+04 0.  0.
        1    1    3    3  502    0  0.41223611065E+03 -0.15791194384E+04  0.30296914133E+03  0.16599238272E+04  0.50400001928E-02 0.  1.
       -1    1    3    3    0  502 -0.41223611065E+03  0.15791194384E+04  0.19857568885E+03  0.16440769799E+04  0.50400001928E-02 0. -1.
</event>
<event>
 5   0  0.2705859E-06  0.3311167E+04  0.7818609E-02  0.8160060E-01
        2   -1    0    0  501    0  0.00000000000E+00  0.00000000000E+00  0.17589219787E+04  0.17589219787E+04  0.25500000920E-02 0.  1.
       -2   -1    0    0    0  501  0.00000000000E+00  0.00000000000E+00 -0.15583166076E+04  0.15583166076E+04  0.25500000920E-02 0. -1.
    10030    2    1    2    0    0  0.00000000000E+00  0.00000000000E+00  0.20060537112E+03  0.33172385863E+04  0.33111673657E+04 0.  0.
        1    1    3    3  502    0  0.99733897271E+03  0.90249806725E+03 -0.86674932149E+03  0.16001381735E+04  0.50400001928E-02 0. -1.
       -1    1    3    3    0  502 -0.99733897271E+03 -0.90249806725E+03  0.10673546926E+04  0.17171004128E+04  0.50400001928E-02 0.  1.
</event>
<event>
 5   0  0.2674551E-06  0.2790943E+04  0.7818609E-02  0.8306086E-01
       -2   -1    0    0    0  501  0.00000000000E+00  0.00000000000E+00  0.11326557731E+04  0.11326557731E+04  0.25500000920E-02 0.  1.
        2   -1    0    0  501    0  0.00000000000E+00  0.00000000000E+00 -0.17192702336E+04  0.17192702336E+04  0.25500000920E-02 0. -1.
    10030    2    1    2    0    0  0.00000000000E+00  0.00000000000E+00 -0.58661446043E+03  0.28519260067E+04  0.27909434646E+04 0.  0.
        3    1    3    3  502    0 -0.95698669354E+03  0.51213213794E+03  0.60291913710E+03  0.12416176362E+04  0.10100000352E+00 0.  1.
       -3    1    3    3    0  502  0.95698669354E+03 -0.51213213794E+03 -0.11895335975E+04  0.16103083705E+04  0.10100000352E+00 0. -1.
</event>
<event>
 5   0  0.9295663E-07  0.3285225E+04  0.7818609E-02  0.8166665E-01
       -1   -1    0    0    0  501  0.00000000000E+00  0.00000000000E+00  0.17691494949E+04  0.17691494950E+04  0.50400001928E-02 0.  1.
        1   -1    0    0  501    0  0.00000000000E+00  0.00000000000E+00 -0.15251260135E+04  0.15251260135E+04  0.50400001928E-02 0. -1.
    10030    2    1    2    0    0  0.00000000000E+00  0.00000000000E+00  0.24402348148E+03  0.32942755084E+04  0.32852250556E+04 0.  0.
        4    1    3    3  502    0  0.20189492379E+03 -0.15324275736E+04 -0.43546810533E+03  0.16058424307E+04  0.12699999809E+01 0. -1.
       -4    1    3    3    0  502 -0.20189492379E+03  0.15324275736E+04  0.67949158680E+03  0.16884330777E+04  0.12699999809E+01 0.  1.
</event>
<event>
 5   0  0.2674551E-06  0.3215704E+04  0.7818609E-02  0.8184682E-01
       -2   -1    0    0    0  501  0.00000000000E+00  0.00000000000E+00  0.10935334450E+04  0.10935334450E+04  0.25500000920E-02 0.  1.
        2   -1    0    0  501    0  0.00000000000E+00  0.00000000000E+00 -0.23640686552E+04  0.23640686552E+04  0.25500000920E-02 0. -1.
    10030    2    1    2    0    0  0.00000000000E+00  0.00000000000E+00 -0.12705352103E+04  0.34576021002E+04  0.32157040540E+04 0.  0.
        3    1    3    3  502    0 -0.47568494407E+03 -0.13944618813E+04 -0.13274212959E+04  0.19831407947E+04  0.10100000352E+00 0. -1.
       -3    1    3    3    0  502  0.47568494407E+03  0.13944618813E+04  0.56886085676E+02  0.14744613055E+04  0.10100000352E+00 0.  1.
</event>
<event>
 5   0  0.8705956E-07  0.3293086E+04  0.7818609E-02  0.8164657E-01
        1   -1    0    0  501    0  0.00000000000E+00  0.00000000000E+00  0.20420152373E+04  0.20420152373E+04  0.50400001928E-02 0.  1.
       -1   -1    0    0    0  501  0.00000000000E+00  0.00000000000E+00 -0.13276610215E+04  0.13276610215E+04  0.50400001928E-02 0. -1.
    10030    2    1    2    0    0  0.00000000000E+00  0.00000000000E+00  0.71435421579E+03  0.33696762588E+04  0.32930861123E+04 0.  0.
        2    1    3    3  502    0 -0.31899264418E+03 -0.44410244979E+03  0.19463992685E+04  0.20217451386E+04  0.25500000920E-02 0.  1.
       -2    1    3    3    0  502  0.31899264418E+03  0.44410244979E+03 -0.12320450527E+04  0.13479311202E+04  0.25500000920E-02 0. -1.
</event>
<event>
 5   0  0.2658600E-06  0.3297098E+04  0.7818609E-02  0.8163634E-01
       -2   -1    0    0    0  501  0.00000000000E+00  0.00000000000E+00  0.11723356890E+04  0.11723356890E+04  0.25500000920E-02 0.  1.
        2   -1    0    0  501    0  0.00000000000E+00  0.00000000000E+00 -0.23182050092E+04  0.23182050092E+04  0.25500000920E-02 0. -1.
    10030    2    1    2    0    0  0.00000000000E+00  0.00000000000E+00 -0.11458693202E+04  0.34905406981E+04  0.32970984011E+04 0.  0.
        5    1    3    3  502    0 -0.10342048490E+04 -0.11167669733E+04 -0.12432864657E+04  0.19653324066E+04  0.46999998093E+01 0.  1.
       -5    1    3    3    0  502  0.10342048490E+04  0.11167669733E+04  0.97417145500E+02  0.15252082916E+04  0.46999998093E+01 0. -1.
</event>
<event>
 5   0  0.2674551E-06  0.3299193E+04  0.7818609E-02  0.8163101E-01
        2   -1    0    0  501    0  0.00000000000E+00  0.00000000000E+00  0.19811213872E+04  0.19811213872E+04  0.25500000920E-02 0. -1.
       -2   -1    0    0    0  501  0.00000000000E+00  0.00000000000E+00 -0.13735493031E+04  0.13735493031E+04  0.25500000920E-02 0.  1.
    10030    2    1    2    0    0  0.00000000000E+00  0.00000000000E+00  0.60757208407E+03  0.33546706902E+04  0.32991925683E+04 0.  0.
        3    1    3    3  502    0 -0.10778065554E+04  0.11883033854E+04  0.69421675615E+03  0.17480471450E+04  0.10100000352E+00 0. -1.
       -3    1    3    3    0  502  0.10778065554E+04 -0.11883033854E+04 -0.86644672080E+02  0.16066235452E+04  0.10100000352E+00 0.  1.
</event>
<event>
 5   0  0.8705956E-07  0.2776206E+04  0.7818609E-02  0.8310694E-01
       -1   -1    0    0    0  501  0.00000000000E+00  0.00000000000E+00  0.95918091364E+03  0.95918091365E+03  0.50400001928E-02 0. -1.
        1   -1    0    0  501    0  0.00000000000E+00  0.00000000000E+00 -0.20088291758E+04  0.20088291758E+04  0.50400001928E-02 0.  1.
    10030    2    1    2    0    0  0.00000000000E+00  0.00000000000E+00 -0.10496482621E+04  0.29680100894E+04  0.27762064795E+04 0.  0.
        2    1    3    3  502    0  0.83767740214E+02 -0.53718027667E+03  0.84062018605E+03  0.10011103741E+04  0.25500000920E-02 0. -1.
       -2    1    3    3    0  502 -0.83767740214E+02  0.53718027667E+03 -0.18902684482E+04  0.19668997153E+04  0.25500000920E-02 0.  1.
</event>
<event>
 5   0  0.8705956E-07  0.3292824E+04  0.7818609E-02  0.8164724E-01
       -1   -1    0    0    0  501  0.00000000000E+00  0.00000000000E+00  0.13488399823E+04  0.13488399823E+04  0.50400001928E-02 0. -1.
        1   -1    0    0  501    0  0.00000000000E+00  0.00000000000E+00 -0.20096323140E+04  0.20096323140E+04  0.50400001928E-02 0.  1.
    10030    2    1    2    0    0  0.00000000000E+00  0.00000000000E+00 -0.66079233166E+03  0.33584722963E+04  0.32928239643E+04 0.  0.
        2    1    3    3  502    0 -0.13236603187E+03 -0.13565572319E+04 -0.12723364349E+04  0.18645665162E+04  0.25500000920E-02 0.  1.
       -2    1    3    3    0  502  0.13236603187E+03  0.13565572319E+04  0.61154410321E+03  0.14939057801E+04  0.25500000920E-02 0. -1.
</event>
<event>
 5   0  0.8520125E-07  0.3274781E+04  0.7818609E-02  0.8169342E-01
       -3   -1    0    0    0  501  0.00000000000E+00  0.00000000000E+00  0.17986598579E+04  0.17986598607E+04  0.10100000352E+00 0. -1.
        3   -1    0    0  501    0  0.00000000000E+00  0.00000000000E+00 -0.14905803598E+04  0.14905803632E+04  0.10100000352E+00 0.  1.
    10030    2    1    2    0    0  0.00000000000E+00  0.00000000000E+00  0.30807949813E+03  0.32892402239E+04  0.32747806451E+04 0.  0.
        4    1    3    3  502    0 -0.35101637165E+02 -0.84218883054E+03  0.15639940834E+04  0.17766804037E+04  0.12699999809E+01 0. -1.
       -4    1    3    3    0  502  0.35101637165E+02  0.84218883054E+03 -0.12559145853E+04  0.15125598202E+04  0.12699999809E+01 0.  1.
</event>
<event>
 5   0  0.2614212E-06  0.3263779E+04  0.7818609E-02  0.8172173E-01
       -2   -1    0    0    0  501  0.00000000000E+00  0.00000000000E+00  0.14467495700E+04  0.14467495700E+04  0.25500000920E-02 0. -1.
        2   -1    0    0  501    0  0.00000000000E+00  0.00000000000E+00 -0.18407219592E+04  0.18407219592E+04  0.25500000920E-02 0.  1.
    10030    2    1    2    0    0  0.00000000000E+00  0.00000000000E+00 -0.39397238923E+03  0.32874715292E+04  0.32637792223E+04 0.  0.
        2    1    3    3  502    0  0.14703192122E+04 -0.45678650314E+03 -0.74181118429E+03  0.17090278899E+04  0.25500000920E-02 0. -1.
       -2    1    3    3    0  502 -0.14703192122E+04  0.45678650314E+03  0.34783879506E+03  0.15784436393E+04  0.25500000920E-02 0.  1.
</event>
<event>
 5   0  0.2614212E-06  0.3285324E+04  0.7818609E-02  0.8166640E-01
       -2   -1    0    0    0  501  0.00000000000E+00  0.00000000000E+00  0.80954419899E+03  0.80954419899E+03  0.25500000920E-02 0.  1.
        2   -1    0    0  501    0  0.00000000000E+00  0.00000000000E+00 -0.33331579663E+04  0.33331579663E+04  0.25500000920E-02 0. -1.
    10030    2    1    2    0    0  0.00000000000E+00  0.00000000000E+00 -0.25236137673E+04  0.41427021653E+04  0.32853241520E+04 0.  0.
        2    1    3    3  502    0  0.52048640974E+03 -0.69642553188E+02 -0.32244655372E+04  0.32669456972E+04  0.25500000920E-02 0. -1.
       -2    1    3    3    0  502 -0.52048640974E+03  0.69642553188E+02  0.70085176991E+03  0.87575646805E+03  0.25500000920E-02 0.  1.
</event>
<event>
 5   0  0.9268670E-07  0.3309173E+04  0.7818609E-02  0.8160565E-01
        1   -1    0    0  501    0  0.00000000000E+00  0.00000000000E+00  0.22742780542E+04  0.22742780542E+04  0.50400001928E-02 0. -1.
       -1   -1    0    0    0  501  0.00000000000E+00  0.00000000000E+00 -0.12037476501E+04  0.12037476501E+04  0.50400001928E-02 0.  1.
    10030    2    1    2    0    0  0.00000000000E+00  0.00000000000E+00  0.10705304041E+04  0.34780257043E+04  0.33091732282E+04 0.  0.
        3    1    3    3  502    0 -0.10864608707E+04  0.11927868220E+04  0.14978199240E+03  0.16203617750E+04  0.10100000352E+00 0. -1.
       -3    1    3    3    0  502  0.10864608707E+04 -0.11927868220E+04  0.92074841173E+03  0.18576639293E+04  0.10100000352E+00 0.  1.
</event>
<event>
 5   0  0.2574803E-06  0.3320138E+04  0.7818609E-02  0.8157790E-01
       -2   -1    0    0    0  501  0.00000000000E+00  0.00000000000E+00  0.14448644937E+04  0.14448644937E+04  0.25500000920E-02 0.  1.
        2   -1    0    0  501    0  0.00000000000E+00  0.00000000000E+00 -0.19073274548E+04  0.19073274548E+04  0.25500000920E-02 0. -1.
    10030    2    1    2    0    0  0.00000000000E+00  0.00000000000E+00 -0.46246296107E+03  0.33521919486E+04  0.33201383811E+04 0.  0.
        4    1    3    3  502    0  0.10991676112E+04 -0.17974786688E+03  0.10116481774E+04  0.15046303137E+04  0.12699999809E+01 0.  1.
       -4    1    3    3    0  502 -0.10991676112E+04  0.17974786688E+03 -0.14741111384E+04  0.18475616349E+04  0.12699999809E+01 0. -1.
</event>
<event>
 5   0  0.8845526E-07  0.3333190E+04  0.7818609E-02  0.8154501E-01
       -1   -1    0    0    0  501  0.00000000000E+00  0.00000000000E+00  0.21403341556E+04  0.21403341556E+04  0.50400001928E-02 0. -1.
        1   -1    0    0  501    0  0.00000000000E+00  0.00000000000E+00 -0.12977125504E+04  0.12977125504E+04  0.50400001928E-02 0.  1.
    10030    2    1    2    0    0  0.00000000000E+00  0.00000000000E+00  0.84262160525E+03  0.34380467060E+04  0.33331897610E+04 0.  0.
        1    1    3    3  502    0  0.14513515199E+04 -0.80834588331E+03  0.55851491504E+03  0.17526503393E+04  0.50400001928E-02 0. -1.
       -1    1    3    3    0  502 -0.14513515199E+04  0.80834588331E+03  0.28410669020E+03  0.16853963667E+04  0.50400001928E-02 0.  1.
</event>
<event>
 5   0  0.2614212E-06  0.3245981E+04  0.7818609E-02  0.8176778E-01
        2   -1    0    0  501    0  0.00000000000E+00  0.00000000000E+00  0.86085536078E+03  0.86085536079E+03  0.25500000920E-02 0. -1.
       -2   -1    0    0    0  501  0.00000000000E+00  0.00000000000E+00 -0.30598609304E+04  0.30598609304E+04  0.25500000920E-02 0.  1.
    10030    2    1    2    0    0  0.00000000000E+00  0.00000000000E+00 -0.21990055696E+04  0.39207162912E+04  0.32459807055E+04 0.  0.
        2    1    3    3  502    0 -0.52992219249E+03  0.11465177975E+04 -0.23305668819E+04  0.26508230007E+04  0.25500000920E-02 0.  1.
       -2    1    3    3    0  502  0.52992219249E+03 -0.11465177975E+04  0.13156131231E+03  0.12698932904E+04  0.25500000920E-02 0. -1.
</event>
<event>
 5   0  0.9530268E-07  0.3236647E+04  0.7818609E-02  0.8179205E-01
        1   -1    0    0  501    0  0.00000000000E+00  0.00000000000E+00  0.23322931230E+04  0.23322931230E+04  0.50400001928E-02 0.  1.
       -1   -1    0    0    0  501  0.00000000000E+00  0.00000000000E+00 -0.11229164995E+04  0.11229164995E+04  0.50400001928E-02 0. -1.
    10030    2    1    2    0    0  0.00000000000E+00  0.00000000000E+00  0.12093766235E+04  0.34552096226E+04  0.32366466781E+04 0.  0.
        5    1    3    3  502    0 -0.15052255565E+04  0.56612254623E+02 -0.26905087914E+02  0.15065373866E+04  0.46999998093E+01 0. -1.
       -5    1    3    3    0  502  0.15052255565E+04 -0.56612254623E+02  0.12362817114E+04  0.19486722360E+04  0.46999998093E+01 0.  1.
</event>
<event>
 5   0  0.2705859E-06  0.3270500E+04  0.7818609E-02  0.8170442E-01
       -2   -1    0    0    0  501  0.00000000000E+00  0.00000000000E+00  0.23419266903E+04  0.23419266903E+04  0.25500000920E-02 0. -1.
        2   -1    0    0  501    0  0.00000000000E+00  0.00000000000E+00 -0.11418133770E+04  0.11418133770E+04  0.25500000920E-02 0.  1.
    10030    2    1    2    0    0  0.00000000000E+00  0.00000000000E+00  0.12001133133E+04  0.34837400673E+04  0.32705004039E+04 0.  0.
        1    1    3    3  502    0 -0.68557830628E+03  0.77759101411E+03 -0.74706578585E+03  0.12777999404E+04  0.50400001928E-02 0.  1.
       -1    1    3    3    0  502  0.68557830628E+03 -0.77759101411E+03  0.19471790992E+04  0.22059401269E+04  0.50400001928E-02 0. -1.
</event>
<event>
 5   0  0.2658600E-06  0.2758340E+04  0.7818609E-02  0.8316320E-01
       -2   -1    0    0    0  501  0.00000000000E+00  0.00000000000E+00  0.67930466362E+03  0.67930466362E+03  0.25500000920E-02 0. -1.
        2   -1    0    0  501    0  0.00000000000E+00  0.00000000000E+00 -0.28000833571E+04  0.28000833571E+04  0.25500000920E-02 0.  1.
    10030    2    1    2    0    0  0.00000000000E+00  0.00000000000E+00 -0.21207786935E+04  0.34793880208E+04  0.27583398507E+04 0.  0.
        5    1    3    3  502    0 -0.46228984850E+03  0.36221275012E+03 -0.26344597956E+04  0.26991314316E+04  0.46999998093E+01 0.  1.
       -5    1    3    3    0  502  0.46228984850E+03 -0.36221275012E+03  0.51368110206E+03  0.78025658919E+03  0.46999998093E+01 0. -1.
</event>
<event>
 5   0  0.8845526E-07  0.3642169E+04  0.7818609E-02  0.8080900E-01
       -1   -1    0    0    0  501  0.00000000000E+00  0.00000000000E+00  0.13533658396E+04  0.13533658396E+04  0.50400001928E-02 0.  1.
        1   -1    0    0  501    0  0.00000000000E+00  0.00000000000E+00 -0.24504444829E+04  0.24504444829E+04  0.50400001928E-02 0. -1.
    10030    2    1    2    0    0  0.00000000000E+00  0.00000000000E+00 -0.10970786433E+04  0.38038103225E+04  0.36421685052E+04 0.  0.
        1    1    3    3  502    0  0.95265913602E+03 -0.35718948345E+03  0.10288572394E+04  0.14469592170E+04  0.50400001928E-02 0.  1.
       -1    1    3    3    0  502 -0.95265913602E+03  0.35718948345E+03 -0.21259358826E+04  0.23568511055E+04  0.50400001928E-02 0. -1.
</event>
<event>
 5   0  0.9295663E-07  0.3240292E+04  0.7818609E-02  0.8178257E-01
        1   -1    0    0  501    0  0.00000000000E+00  0.00000000000E+00  0.21180654819E+04  0.21180654819E+04  0.50400001928E-02 0.  1.
       -1   -1    0    0    0  501  0.00000000000E+00  0.00000000000E+00 -0.12392781432E+04  0.12392781432E+04  0.50400001928E-02 0. -1.
    10030    2    1    2    0    0  0.00000000000E+00  0.00000000000E+00  0.87878733867E+03  0.33573436251E+04  0.32402915039E+04 0.  0.
        4    1    3    3  502    0  0.12542639071E+04  0.98757673174E+03  0.72575571359E+03  0.17536273032E+04  0.12699999809E+01 0.  1.
       -4    1    3    3    0  502 -0.12542639071E+04 -0.98757673174E+03  0.15303162508E+03  0.16037163219E+04  0.12699999809E+01 0. -1.
</event>
<event>
 5   0  0.9295663E-07  0.3256690E+04  0.7818609E-02  0.8174004E-01
       -1   -1    0    0    0  501  0.00000000000E+00  0.00000000000E+00  0.16996540524E+04  0.16996540524E+04  0.50400001928E-02 0. -1.
        1   -1    0    0  501    0  0.00000000000E+00  0.00000000000E+00 -0.15600280303E+04  0.15600280303E+04  0.50400001928E-02 0.  1.
    10030    2    1    2    0    0  0.00000000000E+00  0.00000000000E+00  0.13962602209E+03  0.32596820827E+04  0.32566903221E+04 0.  0.
        4    1    3    3  502    0  0.50473672133E+02 -0.14597460956E+03 -0.15526789535E+04  0.15603428225E+04  0.12699999809E+01 0.  1.
       -4    1    3    3    0  502 -0.50473672133E+02  0.14597460956E+03  0.16923049755E+04  0.16993392602E+04  0.12699999809E+01 0. -1.
</event>
<event>
 5   0  0.2614212E-06  0.3280997E+04  0.7818609E-02  0.8167748E-01
       -2   -1    0    0    0  501  0.00000000000E+00  0.00000000000E+00  0.15207589978E+04  0.15207589978E+04  0.25500000920E-02 0.  1.
        2   -1    0    0  501    0  0.00000000000E+00  0.00000000000E+00 -0.17696653790E+04  0.17696653790E+04  0.25500000920E-02 0. -1.
    10030    2    1    2    0    0  0.00000000000E+00  0.00000000000E+00 -0.24890638126E+03  0.32904243768E+04  0.32809965244E+04 0.  0.
        2    1    3    3  502    0  0.15656329023E+04  0.20176871506E+02  0.36646444489E+03  0.16080763913E+04  0.25500000920E-02 0.  1.
       -2    1    3    3    0  502 -0.15656329023E+04 -0.20176871506E+02 -0.61537082616E+03  0.16823479855E+04  0.25500000920E-02 0. -1.
</event>
<event>
 5   0  0.2614212E-06  0.3332541E+04  0.7818609E-02  0.8154664E-01
        2   -1    0    0  501    0  0.00000000000E+00  0.00000000000E+00  0.15344949441E+04  0.15344949441E+04  0.25500000920E-02 0. -1.
       -2   -1    0    0    0  501  0.00000000000E+00  0.00000000000E+00 -0.18093624700E+04  0.18093624700E+04  0.25500000920E-02 0.  1.
    10030    2    1    2    0    0  0.00000000000E+00  0.00000000000E+00 -0.27486752589E+03  0.33438574141E+04  0.33325411098E+04 0.  0.
        2    1    3    3  502    0 -0.14365761964E+04 -0.84173768564E+03 -0.20233774294E+03  0.16772638617E+04  0.25500000920E-02 0.  1.
       -2    1    3    3    0  502  0.14365761964E+04  0.84173768564E+03 -0.72529782952E+02  0.16665935524E+04  0.25500000920E-02 0. -1.
</event>
<event>
 5   0  0.2574803E-06  0.3284050E+04  0.7818609E-02  0.8166966E-01
       -2   -1    0    0    0  501  0.00000000000E+00  0.00000000000E+00  0.15195286064E+04  0.15195286064E+04  0.25500000920E-02 0. -1.
        2   -1    0    0  501    0  0.00000000000E+00  0.00000000000E+00 -0.17743963969E+04  0.17743963969E+04  0.25500000920E-02 0.  1.
    10030    2    1    2    0    0  0.00000000000E+00  0.00000000000E+00 -0.25486779046E+03  0.32939250033E+04  0.32840499900E+04 0.  0.
        4    1    3    3  502    0  0.14249631554E+04  0.27674921971E+03  0.64242497649E+03  0.15873945912E+04  0.12699999809E+01 0. -1.
       -4    1    3    3    0  502 -0.14249631554E+04 -0.27674921971E+03 -0.89729276695E+03  0.17065304121E+04  0.12699999809E+01 0.  1.
</event>
<event>
 5   0  0.2658600E-06  0.3288383E+04  0.7818609E-02  0.8165858E-01
        2   -1    0    0  501    0  0.00000000000E+00  0.00000000000E+00  0.11624704547E+04  0.11624704547E+04  0.25500000920E-02 0.  1.
       -2   -1    0    0    0  501  0.00000000000E+00  0.00000000000E+00 -0.23255356544E+04  0.23255356544E+04  0.25500000920E-02 0. -1.
    10030    2    1    2    0    0  0.00000000000E+00  0.00000000000E+00 -0.11630651997E+04  0.34880061090E+04  0.32883834871E+04 0.  0.
        5    1    3    3  502    0 -0.50564198725E+03 -0.66468247815E+02  0.10764461456E+04  0.11911550031E+04  0.46999998093E+01 0.  1.
       -5    1    3    3    0  502  0.50564198725E+03  0.66468247815E+02 -0.22395113452E+04  0.22968511059E+04  0.46999998093E+01 0. -1.
</event>
<event>
 5   0  0.2614212E-06  0.3306086E+04  0.7818609E-02  0.8161349E-01
        2   -1    0    0  501    0  0.00000000000E+00  0.00000000000E+00  0.19935641769E+04  0.19935641769E+04  0.25500000920E-02 0. -1.
       -2   -1    0    0    0  501  0.00000000000E+00  0.00000000000E+00 -0.13706863410E+04  0.13706863410E+04  0.25500000920E-02 0.  1.
    10030    2    1    2    0    0  0.00000000000E+00  0.00000000000E+00  0.62287783586E+03  0.33642505179E+04  0.33060860166E+04 0.  0.
        2    1    3    3  502    0 -0.16254599759E+04  0.19087830019E+03  0.54789859846E+03  0.17259048447E+04  0.25500000920E-02 0. -1.
       -2    1    3    3    0  502  0.16254599759E+04 -0.19087830019E+03  0.74979237403E+02  0.16383456732E+04  0.25500000920E-02 0.  1.
</event>
<event>
 5   0  0.2705859E-06  0.3362939E+04  0.7818609E-02  0.8147063E-01
       -2   -1    0    0    0  501  0.00000000000E+00  0.00000000000E+00  0.12177809341E+04  0.12177809341E+04  0.25500000920E-02 0. -1.
        2   -1    0    0  501    0  0.00000000000E+00  0.00000000000E+00 -0.23217138969E+04  0.23217138969E+04  0.25500000920E-02 0.  1.
    10030    2    1    2    0    0  0.00000000000E+00  0.00000000000E+00 -0.11039329628E+04  0.35394948310E+04  0.33629385472E+04 0.  0.
        1    1    3    3  502    0  0.38526806317E+03 -0.16031365171E+04 -0.20470388923E+03  0.16614396935E+04  0.50400001928E-02 0.  1.
       -1    1    3    3    0  502 -0.38526806317E+03  0.16031365171E+04 -0.89922907354E+03  0.18780551375E+04  0.50400001928E-02 0. -1.
</event>
<event>
 5   0  0.2574803E-06  0.3388730E+04  0.7818609E-02  0.8140678E-01
        2   -1    0    0  501    0  0.00000000000E+00  0.00000000000E+00  0.21554544288E+04  0.21554544288E+04  0.25500000920E-02 0.  1.
       -2   -1    0    0    0  501  0.00000000000E+00  0.00000000000E+00 -0.13319106744E+04  0.13319106744E+04  0.25500000920E-02 0. -1.
    10030    2    1    2    0    0  0.00000000000E+00  0.00000000000E+00  0.82354375437E+03  0.34873651033E+04  0.33887300052E+04 0.  0.
        4    1    3    3  502    0  0.17241692883E+03  0.46341469331E+03 -0.12560132181E+04  0.13498339129E+04  0.12699999809E+01 0. -1.
       -4    1    3    3    0  502 -0.17241692883E+03 -0.46341469331E+03  0.20795569725E+04  0.21375311904E+04  0.12699999809E+01 0.  1.
</event>
<event>
 5   0  0.2574803E-06  0.3350328E+04  0.7818609E-02  0.8150206E-01
        2   -1    0    0  501    0  0.00000000000E+00  0.00000000000E+00  0.20238479509E+04  0.20238479509E+04  0.25500000920E-02 0.  1.
       -2   -1    0    0    0  501  0.00000000000E+00  0.00000000000E+00 -0.13865540661E+04  0.13865540661E+04  0.25500000920E-02 0. -1.
    10030    2    1    2    0    0  0.00000000000E+00  0.00000000000E+00  0.63729388476E+03  0.34104020170E+04  0.33503281066E+04 0.  0.
        4    1    3    3  502    0 -0.40217581322E+03 -0.15932060632E+04  0.65025192472E+03  0.17671672595E+04  0.12699999809E+01 0. -1.
       -4    1    3    3    0  502  0.40217581322E+03  0.15932060632E+04 -0.12958039953E+02  0.16432347575E+04  0.12699999809E+01 0.  1.
</event>
<event>
 5   0  0.2658600E-06  0.3290322E+04  0.7818609E-02  0.8165362E-01
       -2   -1    0    0    0  501  0.00000000000E+00  0.00000000000E+00  0.94214263984E+03  0.94214263984E+03  0.25500000920E-02 0.  1.
        2   -1    0    0  501    0  0.00000000000E+00  0.00000000000E+00 -0.28727649975E+04  0.28727649975E+04  0.25500000920E-02 0. -1.
    10030    2    1    2    0    0  0.00000000000E+00  0.00000000000E+00 -0.19306223576E+04  0.38149076373E+04  0.32903218070E+04 0.  0.
        5    1    3    3  502    0 -0.64143808616E+03  0.37878577718E+03 -0.26660103976E+04  0.27681320441E+04  0.46999998093E+01 0. -1.
       -5    1    3    3    0  502  0.64143808616E+03 -0.37878577718E+03  0.73538803993E+03  0.10467755933E+04  0.46999998093E+01 0.  1.
</event>
<event>
 5   0  0.9295663E-07  0.3281074E+04  0.7818609E-02  0.8167728E-01
       -1   -1    0    0    0  501  0.00000000000E+00  0.00000000000E+00  0.17528529727E+04  0.17528529727E+04  0.50400001928E-02 0.  1.
        1   -1    0    0  501    0  0.00000000000E+00  0.00000000000E+00 -0.15354176870E+04  0.15354176870E+04  0.50400001928E-02 0. -1.
    10030    2    1    2    0    0  0.00000000000E+00  0.00000000000E+00  0.21743528568E+03  0.32882706597E+04  0.32810738834E+04 0.  0.
        4    1    3    3  502    0  0.99683892513E+03 -0.34122420872E+03 -0.11515134034E+04  0.15608031696E+04  0.12699999809E+01 0. -1.
       -4    1    3    3    0  502 -0.99683892513E+03  0.34122420872E+03  0.13689486890E+04  0.17274674901E+04  0.12699999809E+01 0.  1.
</event>
<event>
 5   0  0.2658600E-06  0.2497467E+04  0.7818609E-02  0.8403888E-01
       -2   -1    0    0    0  501  0.00000000000E+00  0.00000000000E+00  0.66146912783E+03  0.66146912783E+03  0.25500000920E-02 0. -1.
        2   -1    0    0  501    0  0.00000000000E+00  0.00000000000E+00 -0.23573819657E+04  0.23573819657E+04  0.25500000920E-02 0.  1.
    10030    2    1    2    0    0  0.00000000000E+00  0.00000000000E+00 -0.16959128379E+04  0.30188510936E+04  0.24974670311E+04 0.  0.
        5    1    3    3  502    0  0.65813834720E+03 -0.58663205422E+03 -0.19168972074E+04  0.21099289667E+04  0.46999998093E+01 0.  1.
       -5    1    3    3    0  502 -0.65813834720E+03  0.58663205422E+03  0.22098436946E+03  0.90892212682E+03  0.46999998093E+01 0. -1.
</event>
<event>
 5   0  0.2674551E-06  0.3103061E+04  0.7818609E-02  0.8214898E-01
       -2   -1    0    0    0  501  0.00000000000E+00  0.00000000000E+00  0.18407389872E+04  0.18407389873E+04  0.25500000920E-02 0. -1.
        2   -1    0    0  501    0  0.00000000000E+00  0.00000000000E+00 -0.13077612856E+04  0.13077612856E+04  0.25500000920E-02 0.  1.
    10030    2    1    2    0    0  0.00000000000E+00  0.00000000000E+00  0.53297770162E+03  0.31485002729E+04  0.31030611882E+04 0.  0.
        3    1    3    3  502    0 -0.89690655545E+03 -0.87950234927E+03 -0.65749496468E+03  0.14178382807E+04  0.10100000352E+00 0. -1.
       -3    1    3    3    0  502  0.89690655545E+03  0.87950234927E+03  0.11904726663E+04  0.17306619921E+04  0.10100000352E+00 0.  1.
</event>
<event>
 5   0  0.8705956E-07  0.3300576E+04  0.7818609E-02  0.8162749E-01
        1   -1    0    0  501    0  0.00000000000E+00  0.00000000000E+00  0.23765385337E+04  0.23765385337E+04  0.50400001928E-02 0.  1.
       -1   -1    0    0    0  501  0.00000000000E+00  0.00000000000E+00 -0.11459735928E+04  0.11459735929E+04  0.50400001928E-02 0. -1.
    10030    2    1    2    0    0  0.00000000000E+00  0.00000000000E+00  0.12305649408E+04  0.35225121265E+04  0.33005759510E+04 0.  0.
        2    1    3    3  502    0  0.11840955892E+04 -0.99904190204E+03  0.84701194104E+01  0.15492704184E+04  0.25500000920E-02 0. -1.
       -2    1    3    3    0  502 -0.11840955892E+04  0.99904190204E+03  0.12220948214E+04  0.19732417082E+04  0.25500000920E-02 0.  1.
</event>
<event>
 5   0  0.8845526E-07  0.3309290E+04  0.7818609E-02  0.8160536E-01
       -1   -1    0    0    0  501  0.00000000000E+00  0.00000000000E+00  0.10453924578E+04  0.10453924578E+04  0.50400001928E-02 0. -1.
        1   -1    0    0  501    0  0.00000000000E+00  0.00000000000E+00 -0.26189689845E+04  0.26189689845E+04  0.50400001928E-02 0.  1.
    10030    2    1    2    0    0  0.00000000000E+00  0.00000000000E+00 -0.15735765267E+04  0.36643614423E+04  0.33092902101E+04 0.  0.
        1    1    3    3  502    0 -0.16018295387E+04  0.19500979182E+03 -0.38150649094E+03  0.16581416986E+04  0.50400001928E-02 0. -1.
       -1    1    3    3    0  502  0.16018295387E+04 -0.19500979182E+03 -0.11920700358E+04  0.20062197437E+04  0.50400001928E-02 0.  1.
</event>
<event>
 5   0  0.9530268E-07  0.3308489E+04  0.7818609E-02  0.8160739E-01
       -1   -1    0    0    0  501  0.00000000000E+00  0.00000000000E+00  0.16103114245E+04  0.16103114246E+04  0.50400001928E-02 0.  1.
        1   -1    0    0  501    0  0.00000000000E+00  0.00000000000E+00 -0.16993760562E+04  0.16993760562E+04  0.50400001928E-02 0. -1.
    10030    2    1    2    0    0  0.00000000000E+00  0.00000000000E+00 -0.89064631656E+02  0.33096874808E+04  0.33084888864E+04 0.  0.
        5    1    3    3  502    0  0.30277670272E+03  0.79830936920E+03 -0.14619192924E+04  0.16929860271E+04  0.46999998093E+01 0. -1.
       -5    1    3    3    0  502 -0.30277670272E+03 -0.79830936920E+03  0.13728546607E+04  0.16167014536E+04  0.46999998093E+01 0.  1.
</event>
<event>
 5   0  0.9530268E-07  0.3276268E+04  0.7818609E-02  0.8168960E-01
        1   -1    0    0  501    0  0.00000000000E+00  0.00000000000E+00  0.17051065845E+04  0.17051065845E+04  0.50400001928E-02 0. -1.
       -1   -1    0    0    0  501  0.00000000000E+00  0.00000000000E+00 -0.15737920038E+04  0.15737920038E+04  0.50400001928E-02 0.  1.
    10030    2    1    2    0    0  0.00000000000E+00  0.00000000000E+00  0.13131458068E+03  0.32788985883E+04  0.32762680650E+04 0.  0.
        5    1    3    3  502    0 -0.10981255845E+04  0.81838707504E+03  0.96516912599E+03  0.16754732871E+04  0.46999998093E+01 0. -1.
       -5    1    3    3    0  502  0.10981255845E+04 -0.81838707504E+03 -0.83385454531E+03  0.16034253013E+04  0.46999998093E+01 0.  1.
</event>
<event>
 5   0  0.2705859E-06  0.3305768E+04  0.7818609E-02  0.8161429E-01
       -2   -1    0    0    0  501  0.00000000000E+00  0.00000000000E+00  0.15503986434E+04  0.15503986434E+04  0.25500000920E-02 0. -1.
        2   -1    0    0  501    0  0.00000000000E+00  0.00000000000E+00 -0.17621443437E+04  0.17621443437E+04  0.25500000920E-02 0.  1.
    10030    2    1    2    0    0  0.00000000000E+00  0.00000000000E+00 -0.21174570030E+03  0.33125429870E+04  0.33057684128E+04 0.  0.
        1    1    3    3  502    0  0.56194149956E+03  0.15171538193E+04  0.23318759086E+03  0.16345979361E+04  0.50400001928E-02 0. -1.
       -1    1    3    3    0  502 -0.56194149956E+03 -0.15171538193E+04 -0.44493329116E+03  0.16779450509E+04  0.50400001928E-02 0.  1.
</event>
<event>
 5   0  0.2705859E-06  0.3306534E+04  0.7818609E-02  0.8161235E-01
       -2   -1    0    0    0  501  0.00000000000E+00  0.00000000000E+00  0.14216163761E+04  0.14216163761E+04  0.25500000920E-02 0. -1.
        2   -1    0    0  501    0  0.00000000000E+00  0.00000000000E+00 -0.19226652280E+04  0.19226652280E+04  0.25500000920E-02 0.  1.
    10030    2    1    2    0    0  0.00000000000E+00  0.00000000000E+00 -0.50104885193E+03  0.33442816041E+04  0.33065343633E+04 0.  0.
        1    1    3    3  502    0 -0.15205997198E+04  0.19199495704E+03  0.37639586208E+03  0.15782139957E+04  0.50400001928E-02 0. -1.
       -1    1    3    3    0  502  0.15205997198E+04 -0.19199495704E+03 -0.87744471401E+03  0.17660676084E+04  0.50400001928E-02 0.  1.
</event>
<event>
 5   0  0.9295663E-07  0.3310533E+04  0.7818609E-02  0.8160220E-01
       -1   -1    0    0    0  501  0.00000000000E+00  0.00000000000E+00  0.11801738128E+04  0.11801738128E+04  0.50400001928E-02 0.  1.
        1   -1    0    0  501    0  0.00000000000E+00  0.00000000000E+00 -0.23216134908E+04  0.23216134908E+04  0.50400001928E-02 0. -1.
    10030    2    1    2    0    0  0.00000000000E+00  0.00000000000E+00 -0.11414396780E+04  0.35017873037E+04  0.33105331567E+04 0.  0.
        4    1    3    3  502    0 -0.52226843036E+02 -0.14682955716E+04 -0.13771873329E+04  0.20137691256E+04  0.12699999809E+01 0. -1.
       -4    1    3    3    0  502  0.52226843036E+02  0.14682955716E+04  0.23574765486E+03  0.14880181781E+04  0.12699999809E+01 0.  1.
</event>
<event>
 5   0  0.2614212E-06  0.3276113E+04  0.7818609E-02  0.8169000E-01
       -2   -1    0    0    0  501  0.00000000000E+00  0.00000000000E+00  0.17950800532E+04  0.17950800532E+04  0.25500000920E-02 0. -1.
        2   -1    0    0  501    0  0.00000000000E+00  0.00000000000E+00 -0.14947683063E+04  0.14947683063E+04  0.25500000920E-02 0.  1.
    10030    2    1    2    0    0  0.00000000000E+00  0.00000000000E+00  0.30031174692E+03  0.32898483595E+04  0.32761128007E+04 0.  0.
        2    1    3    3  502    0 -0.47608623680E+03  0.89071678048E+03  0.14452118050E+04  0.17631425493E+04  0.25500000920E-02 0. -1.
       -2    1    3    3    0  502  0.47608623680E+03 -0.89071678048E+03 -0.11449000581E+04  0.15267058102E+04  0.25500000920E-02 0.  1.
</event>
<event>
 5   0  0.2658600E-06  0.3347077E+04  0.7818609E-02  0.8151019E-01
        2   -1    0    0  501    0  0.00000000000E+00  0.00000000000E+00  0.22540091132E+04  0.22540091132E+04  0.25500000920E-02 0.  1.
       -2   -1    0    0    0  501  0.00000000000E+00  0.00000000000E+00 -0.12425553154E+04  0.12425553154E+04  0.25500000920E-02 0. -1.
    10030    2    1    2    0    0  0.00000000000E+00  0.00000000000E+00  0.10114537978E+04  0.34965644287E+04  0.33470769365E+04 0.  0.
        5    1    3    3  502    0  0.71887766271E+03  0.62945858545E+03 -0.92957409169E+03  0.13330916273E+04  0.46999998093E+01 0. -1.
       -5    1    3    3    0  502 -0.71887766271E+03 -0.62945858545E+03  0.19410278895E+04  0.21634728014E+04  0.46999998093E+01 0.  1.
</event>
<event>
 5   0  0.2658600E-06  0.3305711E+04  0.7818609E-02  0.8161444E-01
        2   -1    0    0  501    0  0.00000000000E+00  0.00000000000E+00  0.13556027810E+04  0.13556027810E+04  0.25500000920E-02 0. -1.
       -2   -1    0    0    0  501  0.00000000000E+00  0.00000000000E+00 -0.20152884112E+04  0.20152884112E+04  0.25500000920E-02 0.  1.
    10030    2    1    2    0    0  0.00000000000E+00  0.00000000000E+00 -0.65968563021E+03  0.33708911922E+04  0.33057105588E+04 0.  0.
        5    1    3    3  502    0 -0.22486825698E+03  0.15744477425E+04  0.12898144187E+03  0.15956533863E+04  0.46999998093E+01 0. -1.
       -5    1    3    3    0  502  0.22486825698E+03 -0.15744477425E+04 -0.78866707208E+03  0.17752378059E+04  0.46999998093E+01 0.  1.
</event>
<event>
 5   0  0.8845526E-07  0.3331940E+04  0.7818609E-02  0.8154816E-01
        1   -1    0    0  501    0  0.00000000000E+00  0.00000000000E+00  0.19841740246E+04  0.19841740246E+04  0.50400001928E-02 0. -1.
       -1   -1    0    0    0  501  0.00000000000E+00  0.00000000000E+00 -0.13987963113E+04  0.13987963113E+04  0.50400001928E-02 0.  1.
    10030    2    1    2    0    0  0.00000000000E+00  0.00000000000E+00  0.58537771330E+03  0.33829703359E+04  0.33319395592E+04 0.  0.
        1    1    3    3  502    0 -0.57936750498E+03 -0.84765154799E+03  0.16247564492E+04  0.19219816263E+04  0.50400001928E-02 0. -1.
       -1    1    3    3    0  502  0.57936750498E+03  0.84765154799E+03 -0.10393787359E+04  0.14609887095E+04  0.50400001928E-02 0.  1.
</event>
<event>
 5   0  0.9295663E-07  0.3269811E+04  0.7818609E-02  0.8170620E-01
       -1   -1    0    0    0  501  0.00000000000E+00  0.00000000000E+00  0.27726731613E+04  0.27726731613E+04  0.50400001928E-02 0.  1.
        1   -1    0    0  501    0  0.00000000000E+00  0.00000000000E+00 -0.96402101428E+03  0.96402101429E+03  0.50400001928E-02 0. -1.
    10030    2    1    2    0    0  0.00000000000E+00  0.00000000000E+00  0.18086521470E+04  0.37366941756E+04  0.32698105103E+04 0.  0.
        4    1    3    3  502    0 -0.82483635149E+02  0.45057898658E+03  0.26978409666E+04  0.27364525333E+04  0.12699999809E+01 0.  1.
       -4    1    3    3    0  502  0.82483635149E+02 -0.45057898658E+03 -0.88918881956E+03  0.10002416423E+04  0.12699999809E+01 0. -1.
</event>
<event>
 5   0  0.2674551E-06  0.3328001E+04  0.7818609E-02  0.8155807E-01
        2   -1    0    0  501    0  0.00000000000E+00  0.00000000000E+00  0.13125194208E+04  0.13125194208E+04  0.25500000920E-02 0.  1.
       -2   -1    0    0    0  501  0.00000000000E+00  0.00000000000E+00 -0.21096057181E+04  0.21096057181E+04  0.25500000920E-02 0. -1.
    10030    2    1    2    0    0  0.00000000000E+00  0.00000000000E+00 -0.79708629737E+03  0.34221251389E+04  0.33280014875E+04 0.  0.
        3    1    3    3  502    0  0.78264691835E+03 -0.81903537207E+03  0.85475684094E+03  0.14191421376E+04  0.10100000352E+00 0.  1.
       -3    1    3    3    0  502 -0.78264691835E+03  0.81903537207E+03 -0.16518431383E+04  0.20029830012E+04  0.10100000352E+00 0. -1.
</event>
<event>
 5   0  0.2705859E-06  0.3083205E+04  0.7818609E-02  0.8220362E-01
       -2   -1    0    0    0  501  0.00000000000E+00  0.00000000000E+00  0.10613931084E+04  0.10613931084E+04  0.25500000920E-02 0.  1.
        2   -1    0    0  501    0  0.00000000000E+00  0.00000000000E+00 -0.22390744656E+04  0.22390744656E+04  0.25500000920E-02 0. -1.
    10030    2    1    2    0    0  0.00000000000E+00  0.00000000000E+00 -0.11776813572E+04  0.33004675739E+04  0.30832049603E+04 0.  0.
        1    1    3    3  502    0  0.86813618243E+02  0.11656975825E+04  0.48704510589E+03  0.12663334448E+04  0.50400001928E-02 0. -1.
       -1    1    3    3    0  502 -0.86813618243E+02 -0.11656975825E+04 -0.16647264631E+04  0.20341341291E+04  0.50400001928E-02 0.  1.
</event>
<event>
 5   0  0.2658600E-06  0.3303628E+04  0.7818609E-02  0.8161973E-01
       -2   -1    0    0    0  501  0.00000000000E+00  0.00000000000E+00  0.95120895834E+03  0.95120895834E+03  0.25500000920E-02 0. -1.
        2   -1    0    0  501    0  0.00000000000E+00  0.00000000000E+00 -0.28684446174E+04  0.28684446174E+04  0.25500000920E-02 0.  1.
    10030    2    1    2    0    0  0.00000000000E+00  0.00000000000E+00 -0.19172356591E+04  0.38196535758E+04  0.33036284395E+04 0.  0.
        5    1    3    3  502    0  0.70581536811E+03  0.61809276528E+03 -0.25304769610E+04  0.26988052432E+04  0.46999998093E+01 0.  1.
       -5    1    3    3    0  502 -0.70581536811E+03 -0.61809276528E+03  0.61324130191E+03  0.11208483326E+04  0.46999998093E+01 0. -1.
</event>
<event>
 5   0  0.8705956E-07  0.3453074E+04  0.7818609E-02  0.8125002E-01
        1   -1    0    0  501    0  0.00000000000E+00  0.00000000000E+00  0.13950259069E+04  0.13950259069E+04  0.50400001928E-02 0. -1.
       -1   -1    0    0    0  501  0.00000000000E+00  0.00000000000E+00 -0.21368281876E+04  0.21368281876E+04  0.50400001928E-02 0.  1.
    10030    2    1    2    0    0  0.00000000000E+00  0.00000000000E+00 -0.74180228072E+03  0.35318540946E+04  0.34530743869E+04 0.  0.
        2    1    3    3  502    0 -0.51647250327E+03 -0.10770277719E+04  0.90421573821E+03  0.14981117346E+04  0.25500000920E-02 0. -1.
       -2    1    3    3    0  502  0.51647250327E+03  0.10770277719E+04 -0.16460180189E+04  0.20337423600E+04  0.25500000920E-02 0.  1.
</event>
<event>
 5   0  0.2674551E-06  0.3292568E+04  0.7818609E-02  0.8164789E-01
       -2   -1    0    0    0  501  0.00000000000E+00  0.00000000000E+00  0.20807516744E+04  0.20807516744E+04  0.25500000920E-02 0. -1.
        2   -1    0    0  501    0  0.00000000000E+00  0.00000000000E+00 -0.13025345536E+04  0.13025345536E+04  0.25500000920E-02 0.  1.
    10030    2    1    2    0    0  0.00000000000E+00  0.00000000000E+00  0.77821712079E+03  0.33832862280E+04  0.32925679665E+04 0.  0.
        3    1    3    3  502    0  0.25441563885E+03  0.18052838689E+03  0.20501028517E+04  0.20737018900E+04  0.10100000352E+00 0. -1.
       -3    1    3    3    0  502 -0.25441563885E+03 -0.18052838689E+03 -0.12718857309E+04  0.13095843381E+04  0.10100000352E+00 0.  1.
</event>
<event>
 5   0  0.2574803E-06  0.3285406E+04  0.7818609E-02  0.8166619E-01
        2   -1    0    0  501    0  0.00000000000E+00  0.00000000000E+00  0.10846880761E+04  0.10846880762E+04  0.25500000920E-02 0.  1.
       -2   -1    0    0    0  501  0.00000000000E+00  0.00000000000E+00 -0.24877867924E+04  0.24877867924E+04  0.25500000920E-02 0. -1.
    10030    2    1    2    0    0  0.00000000000E+00  0.00000000000E+00 -0.14030987162E+04  0.35724748685E+04  0.32854057099E+04 0.  0.
        4    1    3    3  502    0  0.28158251409E+03 -0.91697891309E+03 -0.21516114480E+04  0.23557530590E+04  0.12699999809E+01 0. -1.
       -4    1    3    3    0  502 -0.28158251409E+03  0.91697891309E+03  0.74851273171E+03  0.12167218095E+04  0.12699999809E+01 0.  1.
</event>
<event>
 5   0  0.8520125E-07  0.3335665E+04  0.7818609E-02  0.8153879E-01
       -3   -1    0    0    0  501  0.00000000000E+00  0.00000000000E+00  0.17804040233E+04  0.17804040262E+04  0.10100000352E+00 0. -1.
        3   -1    0    0  501    0  0.00000000000E+00  0.00000000000E+00 -0.15623790316E+04  0.15623790349E+04  0.10100000352E+00 0.  1.
    10030    2    1    2    0    0  0.00000000000E+00  0.00000000000E+00  0.21802499175E+03  0.33427830611E+04  0.33356654053E+04 0.  0.
        5    1    3    3  502    0  0.11290985045E+04  0.48793719591E+02 -0.11201443741E+04  0.15912227276E+04  0.46999998093E+01 0.  1.
       -5    1    3    3    0  502 -0.11290985045E+04 -0.48793719591E+02  0.13381693658E+04  0.17515603335E+04  0.46999998093E+01 0. -1.
</event>
<event>
 5   0  0.2674551E-06  0.3210801E+04  0.7818609E-02  0.8185970E-01
       -2   -1    0    0    0  501  0.00000000000E+00  0.00000000000E+00  0.12383074273E+04  0.12383074273E+04  0.25500000920E-02 0.  1.
        2   -1    0    0  501    0  0.00000000000E+00  0.00000000000E+00 -0.20813174797E+04  0.20813174797E+04  0.25500000920E-02 0. -1.
    10030    2    1    2    0    0  0.00000000000E+00  0.00000000000E+00 -0.84301005244E+03  0.33196249070E+04  0.32108010799E+04 0.  0.
        3    1    3    3  502    0  0.20852957370E+02 -0.86072921236E+03  0.97941862381E+03  0.13040515610E+04  0.10100000352E+00 0.  1.
       -3    1    3    3    0  502 -0.20852957370E+02  0.86072921236E+03 -0.18224286762E+04  0.20155733460E+04  0.10100000352E+00 0. -1.
</event>
<event>
 5   0  0.2574803E-06  0.3330726E+04  0.7818609E-02  0.8155121E-01
       -2   -1    0    0    0  501  0.00000000000E+00  0.00000000000E+00  0.98211956276E+03  0.98211956276E+03  0.25500000920E-02 0.  1.
        2   -1    0    0  501    0  0.00000000000E+00  0.00000000000E+00 -0.28239274098E+04  0.28239274098E+04  0.25500000920E-02 0. -1.
    10030    2    1    2    0    0  0.00000000000E+00  0.00000000000E+00 -0.18418078470E+04  0.38060469725E+04  0.33307262589E+04 0.  0.
        4    1    3    3  502    0 -0.68377394045E+03  0.10163483570E+03 -0.26522312231E+04  0.27408408409E+04  0.12699999809E+01 0. -1.
       -4    1    3    3    0  502  0.68377394045E+03 -0.10163483570E+03  0.81042337609E+03  0.10652061316E+04  0.12699999809E+01 0.  1.
</event>
<event>
 5   0  0.2705859E-06  0.3301312E+04  0.7818609E-02  0.8162562E-01
        2   -1    0    0  501    0  0.00000000000E+00  0.00000000000E+00  0.16315871736E+04  0.16315871736E+04  0.25500000920E-02 0. -1.
       -2   -1    0    0    0  501  0.00000000000E+00  0.00000000000E+00 -0.16699476204E+04  0.16699476204E+04  0.25500000920E-02 0.  1.
    10030    2    1    2    0    0  0.00000000000E+00  0.00000000000E+00 -0.38360446774E+02  0.33015347940E+04  0.33013119320E+04 0.  0.
        1    1    3    3  502    0  0.10910158623E+04 -0.12050248533E+04  0.26765721553E+03  0.16474346403E+04  0.50400001928E-02 0. -1.
       -1    1    3    3    0  502 -0.10910158623E+04  0.12050248533E+04 -0.30601766231E+03  0.16541001537E+04  0.50400001928E-02 0.  1.
</event>
<event>
 5   0  0.9295663E-07  0.3201536E+04  0.7818609E-02  0.8188412E-01
       -1   -1    0    0    0  501  0.00000000000E+00  0.00000000000E+00  0.21560040224E+04  0.21560040224E+04  0.50400001928E-02 0.  1.
        1   -1    0    0  501    0  0.00000000000E+00  0.00000000000E+00 -0.11885222521E+04  0.11885222521E+04  0.50400001928E-02 0. -1.
    10030    2    1    2    0    0  0.00000000000E+00  0.00000000000E+00  0.96748177024E+03  0.33445262745E+04  0.32015363539E+04 0.  0.
        4    1    3    3  502    0  0.14741339760E+04 -0.56807699438E+03  0.21399384624E+03  0.15942325520E+04  0.12699999809E+01 0. -1.
       -4    1    3    3    0  502 -0.14741339760E+04  0.56807699438E+03  0.75348792400E+03  0.17502937225E+04  0.12699999809E+01 0.  1.
</event>
<event>
 5   0  0.2674551E-06  0.3231044E+04  0.7818609E-02  0.8180666E-01
       -2   -1    0    0    0  501  0.00000000000E+00  0.00000000000E+00  0.14848869125E+04  0.14848869125E+04  0.25500000920E-02 0.  1.
        2   -1    0    0  501    0  0.00000000000E+00  0.00000000000E+00 -0.17576498026E+04  0.17576498026E+04  0.25500000920E-02 0. -1.
    10030    2    1    2    0    0  0.00000000000E+00  0.00000000000E+00 -0.27276289010E+03  0.32425367151E+04  0.32310439110E+04 0.  0.
        3    1    3    3  502    0 -0.10375048531E+04  0.12372927113E+04 -0.18756880137E+03  0.16255742490E+04  0.10100000352E+00 0. -1.
       -3    1    3    3    0  502  0.10375048531E+04 -0.12372927113E+04 -0.85194088733E+02  0.16169624661E+04  0.10100000352E+00 0.  1.
</event>
<event>
 5   0  0.2658600E-06  0.3231726E+04  0.7818609E-02  0.8180488E-01
        2   -1    0    0  501    0  0.00000000000E+00  0.00000000000E+00  0.15179190419E+04  0.15179190419E+04  0.25500000920E-02 0. -1.
       -2   -1    0    0    0  501  0.00000000000E+00  0.00000000000E+00 -0.17201268240E+04  0.17201268240E+04  0.25500000920E-02 0.  1.
    10030    2    1    2    0    0  0.00000000000E+00  0.00000000000E+00 -0.20220778212E+03  0.32380458658E+04  0.32317260159E+04 0.  0.
        5    1    3    3  502    0  0.17108231782E+03  0.12039828626E+04 -0.11672087556E+04  0.16855984878E+04  0.46999998093E+01 0.  1.
       -5    1    3    3    0  502 -0.17108231782E+03 -0.12039828626E+04  0.96500097350E+03  0.15524473781E+04  0.46999998093E+01 0. -1.
</event>
<event>
 5   0  0.9268670E-07  0.3310748E+04  0.7818609E-02  0.8160166E-01
       -1   -1    0    0    0  501  0.00000000000E+00  0.00000000000E+00  0.15885515661E+04  0.15885515661E+04  0.50400001928E-02 0.  1.
        1   -1    0    0  501    0  0.00000000000E+00  0.00000000000E+00 -0.17250077405E+04  0.17250077406E+04  0.50400001928E-02 0. -1.
    10030    2    1    2    0    0  0.00000000000E+00  0.00000000000E+00 -0.13645617441E+03  0.33135593067E+04  0.33107484035E+04 0.  0.
        3    1    3    3  502    0 -0.73018850174E+03 -0.10352840019E+04 -0.11346258059E+04  0.17006951350E+04  0.10100000352E+00 0. -1.
       -3    1    3    3    0  502  0.73018850174E+03  0.10352840019E+04  0.99816963148E+03  0.16128641716E+04  0.10100000352E+00 0.  1.
</event>
<event>
 5   0  0.9295663E-07  0.3360358E+04  0.7818609E-02  0.8147705E-01
       -1   -1    0    0    0  501  0.00000000000E+00  0.00000000000E+00  0.11473706396E+04  0.11473706396E+04  0.50400001928E-02 0.  1.
        1   -1    0    0  501    0  0.00000000000E+00  0.00000000000E+00 -0.24604098218E+04  0.24604098218E+04  0.50400001928E-02 0. -1.
    10030    2    1    2    0    0  0.00000000000E+00  0.00000000000E+00 -0.13130391822E+04  0.36077804615E+04  0.33603583089E+04 0.  0.
        4    1    3    3  502    0  0.68643780814E+03  0.10347508215E+04 -0.18717120213E+04  0.22461552997E+04  0.12699999809E+01 0. -1.
       -4    1    3    3    0  502 -0.68643780814E+03 -0.10347508215E+04  0.55867283904E+03  0.13616251617E+04  0.12699999809E+01 0.  1.
</event>
<event>
 5   0  0.2574803E-06  0.3287593E+04  0.7818609E-02  0.8166060E-01
       -2   -1    0    0    0  501  0.00000000000E+00  0.00000000000E+00  0.12468616243E+04  0.12468616243E+04  0.25500000920E-02 0. -1.
        2   -1    0    0  501    0  0.00000000000E+00  0.00000000000E+00 -0.21670939875E+04  0.21670939875E+04  0.25500000920E-02 0.  1.
    10030    2    1    2    0    0  0.00000000000E+00  0.00000000000E+00 -0.92023236318E+03  0.34139556118E+04  0.32875926325E+04 0.  0.
        4    1    3    3  502    0 -0.77844961690E+03 -0.62959318440E+03 -0.18139493720E+04  0.20719037914E+04  0.12699999809E+01 0.  1.
       -4    1    3    3    0  502  0.77844961690E+03  0.62959318440E+03  0.89371700880E+03  0.13420518204E+04  0.12699999809E+01 0. -1.
</event>
<event>
 5   0  0.9268670E-07  0.2820611E+04  0.7818609E-02  0.8296898E-01
       -1   -1    0    0    0  501  0.00000000000E+00  0.00000000000E+00  0.22722914710E+04  0.22722914710E+04  0.50400001928E-02 0. -1.
        1   -1    0    0  501    0  0.00000000000E+00  0.00000000000E+00 -0.87531085865E+03  0.87531085866E+03  0.50400001928E-02 0.  1.
    10030    2    1    2    0    0  0.00000000000E+00  0.00000000000E+00  0.13969806124E+04  0.31476023297E+04  0.28206108549E+04 0.  0.
        3    1    3    3  502    0 -0.27479511735E+03 -0.13169508075E+04  0.11707402029E+04  0.17833968764E+04  0.10100000352E+00 0. -1.
       -3    1    3    3    0  502  0.27479511735E+03  0.13169508075E+04  0.22624040947E+03  0.13642054533E+04  0.10100000352E+00 0.  1.
</event>
<event>
 5   0  0.2658600E-06  0.3264940E+04  0.7818609E-02  0.8171874E-01
        2   -1    0    0  501    0  0.00000000000E+00  0.00000000000E+00  0.16391763730E+04  0.16391763730E+04  0.25500000920E-02 0.  1.
       -2   -1    0    0    0  501  0.00000000000E+00  0.00000000000E+00 -0.16257913638E+04  0.16257913638E+04  0.25500000920E-02 0. -1.
    10030    2    1    2    0    0  0.00000000000E+00  0.00000000000E+00  0.13385009147E+02  0.32649677368E+04  0.32649403002E+04 0.  0.
        5    1    3    3  502    0  0.77471205155E+03  0.23315036228E+03 -0.14112047538E+04  0.16266710796E+04  0.46999998093E+01 0. -1.
       -5    1    3    3    0  502 -0.77471205155E+03 -0.23315036228E+03  0.14245897629E+04  0.16382966572E+04  0.46999998093E+01 0.  1.
</event>
<event>
 5   0  0.2614212E-06  0.3496701E+04  0.7818609E-02  0.8114572E-01
        2   -1    0    0  501    0  0.00000000000E+00  0.00000000000E+00  0.10339976886E+04  0.10339976886E+04  0.25500000920E-02 0. -1.
       -2   -1    0    0    0  501  0.00000000000E+00  0.00000000000E+00 -0.29562240649E+04  0.29562240649E+04  0.25500000920E-02 0.  1.
    10030    2    1    2    0    0  0.00000000000E+00  0.00000000000E+00 -0.19222263763E+04  0.39902217535E+04  0.34967006450E+04 0.  0.
        2    1    3    3  502    0  0.93301328438E+03 -0.78413552326E+03  0.46934301518E+03  0.13060111690E+04  0.25500000920E-02 0. -1.
       -2    1    3    3    0  502 -0.93301328438E+03  0.78413552326E+03 -0.23915693915E+04  0.26842105845E+04  0.25500000920E-02 0.  1.
</event>
<event>
 5   0  0.2658600E-06  0.3282993E+04  0.7818609E-02  0.8167236E-01
       -2   -1    0    0    0  501  0.00000000000E+00  0.00000000000E+00  0.14076322981E+04  0.14076322981E+04  0.25500000920E-02 0.  1.
        2   -1    0    0  501    0  0.00000000000E+00  0.00000000000E+00 -0.19142155101E+04  0.19142155101E+04  0.25500000920E-02 0. -1.
    10030    2    1    2    0    0  0.00000000000E+00  0.00000000000E+00 -0.50658321207E+03  0.33218478082E+04  0.32829934983E+04 0.  0.
        5    1    3    3  502    0 -0.72283688254E+02  0.62091836108E+03 -0.17890575084E+04  0.18951288613E+04  0.46999998093E+01 0. -1.
       -5    1    3    3    0  502  0.72283688254E+02 -0.62091836108E+03  0.12824742963E+04  0.14267189469E+04  0.46999998093E+01 0.  1.
</event>
<event>
 5   0  0.9530268E-07  0.2996304E+04  0.7818609E-02  0.8244787E-01
       -1   -1    0    0    0  501  0.00000000000E+00  0.00000000000E+00  0.20750064183E+04  0.20750064183E+04  0.50400001928E-02 0. -1.
        1   -1    0    0  501    0  0.00000000000E+00  0.00000000000E+00 -0.10816635981E+04  0.10816635981E+04  0.50400001928E-02 0.  1.
    10030    2    1    2    0    0  0.00000000000E+00  0.00000000000E+00  0.99334282014E+03  0.31566700164E+04  0.29963036619E+04 0.  0.
        5    1    3    3  502    0 -0.94935135490E+03  0.11492398514E+04  0.65440642476E+03  0.16279711575E+04  0.46999998093E+01 0. -1.
       -5    1    3    3    0  502  0.94935135490E+03 -0.11492398514E+04  0.33893639538E+03  0.15286988589E+04  0.46999998093E+01 0.  1.
</event>
<event>
 5   0  0.9295663E-07  0.3303865E+04  0.7818609E-02  0.8161913E-01
        1   -1    0    0  501    0  0.00000000000E+00  0.00000000000E+00  0.18011200352E+04  0.18011200352E+04  0.50400001928E-02 0.  1.
       -1   -1    0    0    0  501  0.00000000000E+00  0.00000000000E+00 -0.15151021574E+04  0.15151021574E+04  0.50400001928E-02 0. -1.
    10030    2    1    2    0    0  0.00000000000E+00  0.00000000000E+00  0.28601787782E+03  0.33162221926E+04  0.33038649192E+04 0.  0.
        4    1    3    3  502    0 -0.70939757519E+03 -0.10233489920E+04 -0.94658850691E+03  0.15641353821E+04  0.12699999809E+01 0. -1.
       -4    1    3    3    0  502  0.70939757519E+03  0.10233489920E+04  0.12326063847E+04  0.17520868106E+04  0.12699999809E+01 0.  1.
</event>
<event>
 5   0  0.2674551E-06  0.3339526E+04  0.7818609E-02  0.8152910E-01
       -2   -1    0    0    0  501  0.00000000000E+00  0.00000000000E+00  0.15166182500E+04  0.15166182500E+04  0.25500000920E-02 0. -1.
        2   -1    0    0  501    0  0.00000000000E+00  0.00000000000E+00 -0.18383716373E+04  0.18383716373E+04  0.25500000920E-02 0.  1.
    10030    2    1    2    0    0  0.00000000000E+00  0.00000000000E+00 -0.32175338734E+03  0.33549898873E+04  0.33395257001E+04 0.  0.
        3    1    3    3  502    0 -0.83241885622E+03 -0.13947918177E+04 -0.54963448626E+03  0.17147779581E+04  0.10100000352E+00 0.  1.
       -3    1    3    3    0  502  0.83241885622E+03  0.13947918177E+04  0.22788109892E+03  0.16402119291E+04  0.10100000352E+00 0. -1.
</event>
<event>
 5   0  0.8705956E-07  0.3151460E+04  0.7818609E-02  0.8201755E-01
        1   -1    0    0  501    0  0.00000000000E+00  0.00000000000E+00  0.15504339454E+04  0.15504339454E+04  0.50400001928E-02 0.  1.
       -1   -1    0    0    0  501  0.00000000000E+00  0.00000000000E+00 -0.16014386082E+04  0.16014386082E+04  0.50400001928E-02 0. -1.
    10030    2    1    2    0    0  0.00000000000E+00  0.00000000000E+00 -0.51004662773E+02  0.31518725536E+04  0.31514598393E+04 0.  0.
        2    1    3    3  502    0  0.15177665768E+04 -0.32909897254E+03 -0.29200160442E+03  0.15802488578E+04  0.25500000920E-02 0.  1.
       -2    1    3    3    0  502 -0.15177665768E+04  0.32909897254E+03  0.24099694165E+03  0.15716236959E+04  0.25500000920E-02 0. -1.
</event>
<event>
 5   0  0.2574803E-06  0.3292733E+04  0.7818609E-02  0.8164747E-01
        2   -1    0    0  501    0  0.00000000000E+00  0.00000000000E+00  0.14510827724E+04  0.14510827724E+04  0.25500000920E-02 0. -1.
       -2   -1    0    0    0  501  0.00000000000E+00  0.00000000000E+00 -0.18679308518E+04  0.18679308518E+04  0.25500000920E-02 0.  1.
    10030    2    1    2    0    0  0.00000000000E+00  0.00000000000E+00 -0.41684807945E+03  0.33190136242E+04  0.32927327733E+04 0.  0.
        4    1    3    3  502    0 -0.15991791560E+03 -0.45840700733E+03  0.13772849009E+04  0.14603513397E+04  0.12699999809E+01 0. -1.
       -4    1    3    3    0  502  0.15991791560E+03  0.45840700733E+03 -0.17941329803E+04  0.18586622846E+04  0.12699999809E+01 0.  1.
</event>
<event>
 5   0  0.9295663E-07  0.3396936E+04  0.7818609E-02  0.8138659E-01
       -1   -1    0    0    0  501  0.00000000000E+00  0.00000000000E+00  0.10775180451E+04  0.10775180451E+04  0.50400001928E-02 0.  1.
        1   -1    0    0  501    0  0.00000000000E+00  0.00000000000E+00 -0.26772579946E+04  0.26772579946E+04  0.50400001928E-02 0. -1.
    10030    2    1    2    0    0  0.00000000000E+00  0.00000000000E+00 -0.15997399495E+04  0.37547760397E+04  0.33969361493E+04 0.  0.
        4    1    3    3  502    0 -0.93053730008E+03  0.56667036569E+03 -0.22401170597E+04  0.24910120482E+04  0.12699999809E+01 0. -1.
       -4    1    3    3    0  502  0.93053730008E+03 -0.56667036569E+03  0.64037711015E+03  0.12637639915E+04  0.12699999809E+01 0.  1.
</event>
<event>
 5   0  0.8845526E-07  0.3315891E+04  0.7818609E-02  0.8158864E-01
        1   -1    0    0  501    0  0.00000000000E+00  0.00000000000E+00  0.26330353414E+04  0.26330353414E+04  0.50400001928E-02 0.  1.
       -1   -1    0    0    0  501  0.00000000000E+00  0.00000000000E+00 -0.10439599474E+04  0.10439599474E+04  0.50400001928E-02 0. -1.
    10030    2    1    2    0    0  0.00000000000E+00  0.00000000000E+00  0.15890753940E+04  0.36769952888E+04  0.33158910938E+04 0.  0.
        1    1    3    3  502    0 -0.74300674153E+03  0.13051958470E+04  0.15732896743E+04  0.21750484170E+04  0.50400001928E-02 0. -1.
       -1    1    3    3    0  502  0.74300674153E+03 -0.13051958470E+04  0.15785719707E+02  0.15019468718E+04  0.50400001928E-02 0.  1.
</event>
<event>
 5   0  0.9530268E-07  0.3287225E+04  0.7818609E-02  0.8166154E-01
        1   -1    0    0  501    0  0.00000000000E+00  0.00000000000E+00  0.26037409290E+04  0.26037409290E+04  0.50400001928E-02 0. -1.
       -1   -1    0    0    0  501  0.00000000000E+00  0.00000000000E+00 -0.10375309513E+04  0.10375309513E+04  0.50400001928E-02 0.  1.
    10030    2    1    2    0    0  0.00000000000E+00  0.00000000000E+00  0.15662099776E+04  0.36412718803E+04  0.32872248497E+04 0.  0.
        5    1    3    3  502    0  0.14924287477E+04 -0.42207557122E+03  0.18050146953E+03  0.15614397924E+04  0.46999998093E+01 0.  1.
       -5    1    3    3    0  502 -0.14924287477E+04  0.42207557122E+03  0.13857085081E+04  0.20798320880E+04  0.46999998093E+01 0. -1.
</event>
<event>
 5   0  0.9268670E-07  0.3276480E+04  0.7818609E-02  0.8168906E-01
       -1   -1    0    0    0  501  0.00000000000E+00  0.00000000000E+00  0.14696668599E+04  0.14696668599E+04  0.50400001928E-02 0. -1.
        1   -1    0    0  501    0  0.00000000000E+00  0.00000000000E+00 -0.18261490233E+04  0.18261490234E+04  0.50400001928E-02 0.  1.
    10030    2    1    2    0    0  0.00000000000E+00  0.00000000000E+00 -0.35648216346E+03  0.32958158833E+04  0.32764802462E+04 0.  0.
        3    1    3    3  502    0 -0.10974565348E+04 -0.88048643883E+03  0.66585548907E+03  0.15566087361E+04  0.10100000352E+00 0. -1.
       -3    1    3    3    0  502  0.10974565348E+04  0.88048643883E+03 -0.10223376525E+04  0.17392071472E+04  0.10100000352E+00 0.  1.
</event>
<event>
 5   0  0.2614212E-06  0.3264564E+04  0.7818609E-02  0.8171971E-01
        2   -1    0    0  501    0  0.00000000000E+00  0.00000000000E+00  0.23742175720E+04  0.23742175720E+04  0.25500000920E-02 0. -1.
       -2   -1    0    0    0  501  0.00000000000E+00  0.00000000000E+00 -0.11221989888E+04  0.11221989888E+04  0.25500000920E-02 0.  1.
    10030    2    1    2    0    0  0.00000000000E+00  0.00000000000E+00  0.12520185831E+04  0.34964165608E+04  0.32645640190E+04 0.  0.
        2    1    3    3  502    0  0.26027891288E+03  0.60695609501E+03  0.22247404118E+04  0.23206918610E+04  0.25500000920E-02 0. -1.
       -2    1    3    3    0  502 -0.26027891288E+03 -0.60695609501E+03 -0.97272182865E+03  0.11757246998E+04  0.25500000920E-02 0.  1.
</event>
<event>
 5   0  0.9295663E-07  0.3003565E+04  0.7818609E-02  0.8242714E-01
       -1   -1    0    0    0  501  0.00000000000E+00  0.00000000000E+00  0.15491369949E+04  0.15491369949E+04  0.50400001928E-02 0.  1.
        1   -1    0    0  501    0  0.00000000000E+00  0.00000000000E+00 -0.14558756341E+04  0.14558756341E+04  0.50400001928E-02 0. -1.
    10030    2    1    2    0    0  0.00000000000E+00  0.00000000000E+00  0.93261360878E+02  0.30050126290E+04  0.30035650849E+04 0.  0.
        4    1    3    3  502    0  0.13442523948E+04 -0.43112017015E+03 -0.46593457547E+03  0.14865987164E+04  0.12699999809E+01 0. -1.
       -4    1    3    3    0  502 -0.13442523948E+04  0.43112017015E+03  0.55919593635E+03  0.15184139126E+04  0.12699999809E+01 0.  1.
</event>
<event>
 5   0  0.2674551E-06  0.3330359E+04  0.7818609E-02  0.8155213E-01
        2   -1    0    0  501    0  0.00000000000E+00  0.00000000000E+00  0.26827719353E+04  0.26827719353E+04  0.25500000920E-02 0. -1.
       -2   -1    0    0    0  501  0.00000000000E+00  0.00000000000E+00 -0.10335665647E+04  0.10335665647E+04  0.25500000920E-02 0.  1.
    10030    2    1    2    0    0  0.00000000000E+00  0.00000000000E+00  0.16492053705E+04  0.37163385000E+04  0.33303593639E+04 0.  0.
        3    1    3    3  502    0  0.84497796189E+03 -0.70657169911E+03  0.22181755165E+04  0.24765972531E+04  0.10100000352E+00 0. -1.
       -3    1    3    3    0  502 -0.84497796189E+03  0.70657169911E+03 -0.56897014593E+03  0.12397412469E+04  0.10100000352E+00 0.  1.
</event>
<event>
 5   0  0.2574803E-06  0.3053285E+04  0.7818609E-02  0.8228677E-01
       -2   -1    0    0    0  501  0.00000000000E+00  0.00000000000E+00  0.11441098527E+04  0.11441098527E+04  0.25500000920E-02 0. -1.
        2   -1    0    0  501    0  0.00000000000E+00  0.00000000000E+00 -0.20370751822E+04  0.20370751822E+04  0.25500000920E-02 0.  1.
    10030    2    1    2    0    0  0.00000000000E+00  0.00000000000E+00 -0.89296532951E+03  0.31811850349E+04  0.30532853038E+04 0.  0.
        4    1    3    3  502    0 -0.68484058726E+03  0.32916774360E+03 -0.18260628641E+04  0.19778435807E+04  0.12699999809E+01 0.  1.
       -4    1    3    3    0  502  0.68484058726E+03 -0.32916774360E+03  0.93309753456E+03  0.12033414542E+04  0.12699999809E+01 0. -1.
</event>
<event>
 5   0  0.8845526E-07  0.3241998E+04  0.7818609E-02  0.8177813E-01
       -1   -1    0    0    0  501  0.00000000000E+00  0.00000000000E+00  0.13373552731E+04  0.13373552731E+04  0.50400001928E-02 0.  1.
        1   -1    0    0  501    0  0.00000000000E+00  0.00000000000E+00 -0.19648014112E+04  0.19648014112E+04  0.50400001928E-02 0. -1.
    10030    2    1    2    0    0  0.00000000000E+00  0.00000000000E+00 -0.62744613814E+03  0.33021566843E+04  0.32419978580E+04 0.  0.
        1    1    3    3  502    0  0.30432825930E+03  0.66247013082E+03 -0.17883992529E+04  0.19312830583E+04  0.50400001928E-02 0. -1.
       -1    1    3    3    0  502 -0.30432825930E+03 -0.66247013082E+03  0.11609531148E+04  0.13708736260E+04  0.50400001928E-02 0.  1.
</event>
<event>
 5   0  0.2658600E-06  0.3338683E+04  0.7818609E-02  0.8153122E-01
       -2   -1    0    0    0  501  0.00000000000E+00  0.00000000000E+00  0.10644802796E+04  0.10644802796E+04  0.25500000920E-02 0.  1.
        2   -1    0    0  501    0  0.00000000000E+00  0.00000000000E+00 -0.26178988889E+04  0.26178988889E+04  0.25500000920E-02 0. -1.
    10030    2    1    2    0    0  0.00000000000E+00  0.00000000000E+00 -0.15534186093E+04  0.36823791685E+04  0.33386834179E+04 0.  0.
        5    1    3    3  502    0  0.11969832796E+04 -0.11416954361E+04 -0.52899543638E+03  0.17366910209E+04  0.46999998093E+01 0.  1.
       -5    1    3    3    0  502 -0.11969832796E+04  0.11416954361E+04 -0.10244231729E+04  0.19456881476E+04  0.46999998093E+01 0. -1.
</event>
<event>
 5   0  0.2705859E-06  0.3289371E+04  0.7818609E-02  0.8165605E-01
       -2   -1    0    0    0  501  0.00000000000E+00  0.00000000000E+00  0.10639117784E+04  0.10639117784E+04  0.25500000920E-02 0.  1.
        2   -1    0    0  501    0  0.00000000000E+00  0.00000000000E+00 -0.25424950534E+04  0.25424950534E+04  0.25500000920E-02 0. -1.
    10030    2    1    2    0    0  0.00000000000E+00  0.00000000000E+00 -0.14785832750E+04  0.36064068317E+04  0.32893710242E+04 0.  0.
        1    1    3    3  502    0  0.99465876175E+03  0.12217287994E+04 -0.22152173674E+03  0.15909240055E+04  0.50400001928E-02 0.  1.
       -1    1    3    3    0  502 -0.99465876175E+03 -0.12217287994E+04 -0.12570615383E+04  0.20154828262E+04  0.50400001928E-02 0. -1.
</event>
<event>
 5   0  0.2674551E-06  0.3339069E+04  0.7818609E-02  0.8153025E-01
        2   -1    0    0  501    0  0.00000000000E+00  0.00000000000E+00  0.12436124282E+04  0.12436124282E+04  0.25500000920E-02 0.  1.
       -2   -1    0    0    0  501  0.00000000000E+00  0.00000000000E+00 -0.22413298724E+04  0.22413298724E+04  0.25500000920E-02 0. -1.
    10030    2    1    2    0    0  0.00000000000E+00  0.00000000000E+00 -0.99771744420E+03  0.34849423006E+04  0.33390691428E+04 0.  0.
        3    1    3    3  502    0  0.78693973349E+03  0.81206081218E+03 -0.17807800476E+04  0.21094773037E+04  0.10100000352E+00 0. -1.
       -3    1    3    3    0  502 -0.78693973349E+03 -0.81206081218E+03  0.78306260336E+03  0.13754649969E+04  0.10100000352E+00 0.  1.
</event>
<event>
 5   0  0.8845526E-07  0.3258703E+04  0.7818609E-02  0.8173484E-01
       -1   -1    0    0    0  501  0.00000000000E+00  0.00000000000E+00  0.91895901363E+03  0.91895901364E+03  0.50400001928E-02 0. -1.
        1   -1    0    0  501    0  0.00000000000E+00  0.00000000000E+00 -0.28889057177E+04  0.28889057177E+04  0.50400001928E-02 0.  1.
    10030    2    1    2    0    0  0.00000000000E+00  0.00000000000E+00 -0.19699467041E+04  0.38078647314E+04  0.32587027780E+04 0.  0.
        1    1    3    3  502    0 -0.11990184241E+03 -0.60074134495E+03  0.77926964194E+03  0.99122539829E+03  0.50400001928E-02 0. -1.
       -1    1    3    3    0  502  0.11990184241E+03  0.60074134495E+03 -0.27492163460E+04  0.28166393331E+04  0.50400001928E-02 0.  1.
</event>
<event>
 5   0  0.8705956E-07  0.3304627E+04  0.7818609E-02  0.8161719E-01
       -1   -1    0    0    0  501  0.00000000000E+00  0.00000000000E+00  0.14669362655E+04  0.14669362655E+04  0.50400001928E-02 0.  1.
        1   -1    0    0  501    0  0.00000000000E+00  0.00000000000E+00 -0.18611164080E+04  0.18611164080E+04  0.50400001928E-02 0. -1.
    10030    2    1    2    0    0  0.00000000000E+00  0.00000000000E+00 -0.39418014251E+03  0.33280526735E+04  0.33046265467E+04 0.  0.
        2    1    3    3  502    0  0.44719585011E+03 -0.11438096820E+04 -0.13103011991E+04  0.17958769305E+04  0.25500000920E-02 0. -1.
       -2    1    3    3    0  502 -0.44719585011E+03  0.11438096820E+04  0.91612105664E+03  0.15321757430E+04  0.25500000920E-02 0.  1.
</event>
<event>
 5   0  0.2705859E-06  0.3332545E+04  0.7818609E-02  0.8154663E-01
       -2   -1    0    0    0  501  0.00000000000E+00  0.00000000000E+00  0.88519197609E+03  0.88519197610E+03  0.25500000920E-02 0.  1.
        2   -1    0    0  501    0  0.00000000000E+00  0.00000000000E+00 -0.31365668601E+04  0.31365668601E+04  0.25500000920E-02 0. -1.
    10030    2    1    2    0    0  0.00000000000E+00  0.00000000000E+00 -0.22513748840E+04  0.40217588362E+04  0.33325448636E+04 0.  0.
        1    1    3    3  502    0  0.24641541545E+03 -0.10681374732E+04  0.38876713722E+03  0.11630898958E+04  0.50400001928E-02 0.  1.
       -1    1    3    3    0  502 -0.24641541545E+03  0.10681374732E+04 -0.26401420212E+04  0.28586689404E+04  0.50400001928E-02 0. -1.
</event>
<event>
 5   0  0.2674551E-06  0.2650151E+04  0.7818609E-02  0.8351363E-01
       -2   -1    0    0    0  501  0.00000000000E+00  0.00000000000E+00  0.14157263695E+04  0.14157263695E+04  0.25500000920E-02 0. -1.
        2   -1    0    0  501    0  0.00000000000E+00  0.00000000000E+00 -0.12402286962E+04  0.12402286962E+04  0.25500000920E-02 0.  1.
    10030    2    1    2    0    0  0.00000000000E+00  0.00000000000E+00  0.17549767325E+03  0.26559550657E+04  0.26501505387E+04 0.  0.
        3    1    3    3  502    0  0.55793281566E+03 -0.37159776503E+03 -0.10577553064E+04  0.12522859993E+04  0.10100000352E+00 0.  1.
       -3    1    3    3    0  502 -0.55793281566E+03  0.37159776503E+03  0.12332529796E+04  0.14036690663E+04  0.10100000352E+00 0. -1.
</event>
<event>
 5   0  0.9530268E-07  0.3215075E+04  0.7818609E-02  0.8184847E-01
        1   -1    0    0  501    0  0.00000000000E+00  0.00000000000E+00  0.11911434227E+04  0.11911434227E+04  0.50400001928E-02 0.  1.
       -1   -1    0    0    0  501  0.00000000000E+00  0.00000000000E+00 -0.21694919839E+04  0.21694919840E+04  0.50400001928E-02 0. -1.
    10030    2    1    2    0    0  0.00000000000E+00  0.00000000000E+00 -0.97834856124E+03  0.33606354067E+04  0.32150745605E+04 0.  0.
        5    1    3    3  502    0  0.78686391350E+03  0.92744406191E+03 -0.15878799442E+04  0.20001730209E+04  0.46999998093E+01 0. -1.
       -5    1    3    3    0  502 -0.78686391350E+03 -0.92744406191E+03  0.60953138295E+03  0.13604623858E+04  0.46999998093E+01 0.  1.
</event>
<event>
 5   0  0.2674551E-06  0.3188933E+04  0.7818609E-02  0.8191746E-01
        2   -1    0    0  501    0  0.00000000000E+00  0.00000000000E+00  0.16823935967E+04  0.16823935967E+04  0.25500000920E-02 0.  1.
       -2   -1    0    0    0  501  0.00000000000E+00  0.00000000000E+00 -0.15111349356E+04  0.15111349356E+04  0.25500000920E-02 0. -1.
    10030    2    1    2    0    0  0.00000000000E+00  0.00000000000E+00  0.17125866110E+03  0.31935285323E+04  0.31889332005E+04 0.  0.
        3    1    3    3  502    0  0.14603300405E+04  0.60281875356E+03 -0.13001664681E+03  0.15851998661E+04  0.10100000352E+00 0. -1.
       -3    1    3    3    0  502 -0.14603300405E+04 -0.60281875356E+03  0.30127530791E+03  0.16083286661E+04  0.10100000352E+00 0.  1.
</event>
<event>
 5   0  0.9295663E-07  0.3355290E+04  0.7818609E-02  0.8148968E-01
       -1   -1    0    0    0  501  0.00000000000E+00  0.00000000000E+00  0.19440636723E+04  0.19440636723E+04  0.50400001928E-02 0.  1.
        1   -1    0    0  501    0  0.00000000000E+00  0.00000000000E+00 -0.14477371382E+04  0.14477371382E+04  0.50400001928E-02 0. -1.
    10030    2    1    2    0    0  0.00000000000E+00  0.00000000000E+00  0.49632653408E+03  0.33918008104E+04  0.33552902571E+04 0.  0.
        4    1    3    3  502    0 -0.14538358437E+04 -0.63278466836E+03  0.80224848906E+03  0.17769804017E+04  0.12699999809E+01 0.  1.
       -4    1    3    3    0  502  0.14538358437E+04  0.63278466836E+03 -0.30592195498E+03  0.16148204087E+04  0.12699999809E+01 0. -1.
</event>
<event>
 5   0  0.9295663E-07  0.3318245E+04  0.7818609E-02  0.8158268E-01
       -1   -1    0    0    0  501  0.00000000000E+00  0.00000000000E+00  0.15456513975E+04  0.15456513976E+04  0.50400001928E-02 0. -1.
        1   -1    0    0  501    0  0.00000000000E+00  0.00000000000E+00 -0.17809243039E+04  0.17809243039E+04  0.50400001928E-02 0.  1.
    10030    2    1    2    0    0  0.00000000000E+00  0.00000000000E+00 -0.23527290636E+03  0.33265757015E+04  0.33182454034E+04 0.  0.
        4    1    3    3  502    0  0.61609632040E+03 -0.91682750592E+00  0.14267213848E+04  0.15540627527E+04  0.12699999809E+01 0. -1.
       -4    1    3    3    0  502 -0.61609632040E+03  0.91682750592E+00 -0.16619942912E+04  0.17725129487E+04  0.12699999809E+01 0.  1.
</event>
<event>
 5   0  0.2674551E-06  0.3320496E+04  0.7818609E-02  0.8157700E-01
       -2   -1    0    0    0  501  0.00000000000E+00  0.00000000000E+00  0.14560015592E+04  0.14560015592E+04  0.25500000920E-02 0. -1.
        2   -1    0    0  501    0  0.00000000000E+00  0.00000000000E+00 -0.18931455906E+04  0.18931455906E+04  0.25500000920E-02 0.  1.
    10030    2    1    2    0    0  0.00000000000E+00  0.00000000000E+00 -0.43714403143E+03  0.33491471498E+04  0.33204957050E+04 0.  0.
        3    1    3    3  502    0 -0.46660630239E+02 -0.58352887577E+03  0.13484551614E+04  0.14700389436E+04  0.10100000352E+00 0. -1.
       -3    1    3    3    0  502  0.46660630239E+02  0.58352887577E+03 -0.17855991928E+04  0.18791082062E+04  0.10100000352E+00 0.  1.
</event>
<event>
 5   0  0.9530268E-07  0.3327356E+04  0.7818609E-02  0.8155969E-01
       -1   -1    0    0    0  501  0.00000000000E+00  0.00000000000E+00  0.12573299477E+04  0.12573299477E+04  0.50400001928E-02 0. -1.
        1   -1    0    0  501    0  0.00000000000E+00  0.00000000000E+00 -0.22013508929E+04  0.22013508929E+04  0.50400001928E-02 0.  1.
    10030    2    1    2    0    0  0.00000000000E+00  0.00000000000E+00 -0.94402094527E+03  0.34586808406E+04  0.33273559491E+04 0.  0.
        5    1    3    3  502    0  0.15592747331E+04  0.10355687322E+03  0.12125239569E+03  0.15674137785E+04  0.46999998093E+01 0.  1.
       -5    1    3    3    0  502 -0.15592747331E+04 -0.10355687322E+03 -0.10652733410E+04  0.18912670622E+04  0.46999998093E+01 0. -1.
</event>
<event>
 5   0  0.8845526E-07  0.3287269E+04  0.7818609E-02  0.8166142E-01
       -1   -1    0    0    0  501  0.00000000000E+00  0.00000000000E+00  0.10428030695E+04  0.10428030695E+04  0.50400001928E-02 0.  1.
        1   -1    0    0  501    0  0.00000000000E+00  0.00000000000E+00 -0.25906461905E+04  0.25906461905E+04  0.50400001928E-02 0. -1.
    10030    2    1    2    0    0  0.00000000000E+00  0.00000000000E+00 -0.15478431209E+04  0.36334492600E+04  0.32872686532E+04 0.  0.
        1    1    3    3  502    0  0.34530574422E+03 -0.29313352236E+03 -0.25203002396E+04  0.25606789367E+04  0.50400001928E-02 0. -1.
       -1    1    3    3    0  502 -0.34530574422E+03  0.29313352236E+03  0.97245711868E+03  0.10727703233E+04  0.50400001928E-02 0.  1.
</event>
<event>
 5   0  0.9295663E-07  0.3256475E+04  0.7818609E-02  0.8174059E-01
       -1   -1    0    0    0  501  0.00000000000E+00  0.00000000000E+00  0.10534913798E+04  0.10534913798E+04  0.50400001928E-02 0.  1.
        1   -1    0    0  501    0  0.00000000000E+00  0.00000000000E+00 -0.25165443511E+04  0.25165443511E+04  0.50400001928E-02 0. -1.
    10030    2    1    2    0    0  0.00000000000E+00  0.00000000000E+00 -0.14630529713E+04  0.35700357309E+04  0.32564752606E+04 0.  0.
        4    1    3    3  502    0  0.72854715781E+02  0.14870555257E+04 -0.88785317921E+01  0.14888661415E+04  0.12699999809E+01 0.  1.
       -4    1    3    3    0  502 -0.72854715781E+02 -0.14870555257E+04 -0.14541744396E+04  0.20811695894E+04  0.12699999809E+01 0. -1.
</event>
<event>
 5   0  0.2614212E-06  0.3306943E+04  0.7818609E-02  0.8161131E-01
        2   -1    0    0  501    0  0.00000000000E+00  0.00000000000E+00  0.16583159666E+04  0.16583159666E+04  0.25500000920E-02 0.  1.
       -2   -1    0    0    0  501  0.00000000000E+00  0.00000000000E+00 -0.16486412971E+04  0.16486412971E+04  0.25500000920E-02 0. -1.
    10030    2    1    2    0    0  0.00000000000E+00  0.00000000000E+00  0.96746695333E+01  0.33069572638E+04  0.33069431119E+04 0.  0.
        2    1    3    3  502    0  0.67456472735E+03 -0.95574427954E+02 -0.15017533763E+04  0.16490710251E+04  0.25500000920E-02 0. -1.
       -2    1    3    3    0  502 -0.67456472735E+03  0.95574427954E+02  0.15114280458E+04  0.16578862387E+04  0.25500000920E-02 0.  1.
</event>
<event>
 5   0  0.2614212E-06  0.3269709E+04  0.7818609E-02  0.8170646E-01
        2   -1    0    0  501    0  0.00000000000E+00  0.00000000000E+00  0.16345862311E+04  0.16345862311E+04  0.25500000920E-02 0. -1.
       -2   -1    0    0    0  501  0.00000000000E+00  0.00000000000E+00 -0.16351223970E+04  0.16351223970E+04  0.25500000920E-02 0.  1.
    10030    2    1    2    0    0  0.00000000000E+00  0.00000000000E+00 -0.53616583531E+00  0.32697086281E+04  0.32697085842E+04 0.  0.
        2    1    3    3  502    0 -0.15228965560E+04 -0.41626961660E+03  0.42429551338E+03  0.16347846943E+04  0.25500000920E-02 0. -1.
       -2    1    3    3    0  502  0.15228965560E+04  0.41626961660E+03 -0.42483167922E+03  0.16349239339E+04  0.25500000920E-02 0.  1.
</event>
<event>
 5   0  0.2614212E-06  0.2446689E+04  0.7818609E-02  0.8422228E-01
        2   -1    0    0  501    0  0.00000000000E+00  0.00000000000E+00  0.16719474478E+04  0.16719474478E+04  0.25500000920E-02 0.  1.
       -2   -1    0    0    0  501  0.00000000000E+00  0.00000000000E+00 -0.89510662303E+03  0.89510662303E+03  0.25500000920E-02 0. -1.
    10030    2    1    2    0    0  0.00000000000E+00  0.00000000000E+00  0.77684082475E+03  0.25670540708E+04  0.24466885653E+04 0.  0.
        2    1    3    3  502    0  0.72198726842E+03 -0.31803612198E+03 -0.59253993414E+03  0.98666922735E+03  0.25500000920E-02 0. -1.
       -2    1    3    3    0  502 -0.72198726842E+03  0.31803612198E+03  0.13693807589E+04  0.15803848435E+04  0.25500000920E-02 0.  1.
</event>
<event>
 5   0  0.8705956E-07  0.3121825E+04  0.7818609E-02  0.8209774E-01
       -1   -1    0    0    0  501  0.00000000000E+00  0.00000000000E+00  0.17858928402E+04  0.17858928402E+04  0.50400001928E-02 0.  1.
        1   -1    0    0  501    0  0.00000000000E+00  0.00000000000E+00 -0.13642745328E+04  0.13642745328E+04  0.50400001928E-02 0. -1.
    10030    2    1    2    0    0  0.00000000000E+00  0.00000000000E+00  0.42161830743E+03  0.31501673730E+04  0.31218251842E+04 0.  0.
        2    1    3    3  502    0 -0.99794881250E+03 -0.72446426023E+03  0.11764177875E+04  0.17043207173E+04  0.25500000920E-02 0.  1.
       -2    1    3    3    0  502  0.99794881250E+03  0.72446426023E+03 -0.75479948007E+03  0.14458466557E+04  0.25500000920E-02 0. -1.
</event>
<event>
 5   0  0.9295663E-07  0.3298189E+04  0.7818609E-02  0.8163356E-01
        1   -1    0    0  501    0  0.00000000000E+00  0.00000000000E+00  0.15586223777E+04  0.15586223777E+04  0.50400001928E-02 0.  1.
       -1   -1    0    0    0  501  0.00000000000E+00  0.00000000000E+00 -0.17448184584E+04  0.17448184584E+04  0.50400001928E-02 0. -1.
    10030    2    1    2    0    0  0.00000000000E+00  0.00000000000E+00 -0.18619608068E+03  0.33034408361E+04  0.32981892573E+04 0.  0.
        4    1    3    3  502    0  0.58830066429E+03  0.31493877644E+03 -0.16035534256E+04  0.17368561558E+04  0.12699999809E+01 0. -1.
       -4    1    3    3    0  502 -0.58830066429E+03 -0.31493877644E+03  0.14173573449E+04  0.15665846803E+04  0.12699999809E+01 0.  1.
</event>
<event>
 5   0  0.9268670E-07  0.2994998E+04  0.7818609E-02  0.8245161E-01
        1   -1    0    0  501    0  0.00000000000E+00  0.00000000000E+00  0.18387838216E+04  0.18387838216E+04  0.50400001928E-02 0. -1.
       -1   -1    0    0    0  501  0.00000000000E+00  0.00000000000E+00 -0.12195579704E+04  0.12195579704E+04  0.50400001928E-02 0.  1.
    10030    2    1    2    0    0  0.00000000000E+00  0.00000000000E+00  0.61922585123E+03  0.30583417920E+04  0.29949981405E+04 0.  0.
        3    1    3    3  502    0 -0.20750181477E+03  0.58179108073E+02 -0.12036407086E+04  0.12227807560E+04  0.10100000352E+00 0.  1.
       -3    1    3    3    0  502  0.20750181477E+03 -0.58179108073E+02  0.18228665598E+04  0.18355610360E+04  0.10100000352E+00 0. -1.
</event>
<event>
 5   0  0.2658600E-06  0.3349529E+04  0.7818609E-02  0.8150406E-01
       -2   -1    0    0    0  501  0.00000000000E+00  0.00000000000E+00  0.14270889326E+04  0.14270889327E+04  0.25500000920E-02 0. -1.
        2   -1    0    0  501    0  0.00000000000E+00  0.00000000000E+00 -0.19654250408E+04  0.19654250408E+04  0.25500000920E-02 0.  1.
    10030    2    1    2    0    0  0.00000000000E+00  0.00000000000E+00 -0.53833610815E+03  0.33925139735E+04  0.33495291154E+04 0.  0.
        5    1    3    3  502    0 -0.32368807739E+03 -0.62970227620E+03 -0.18063788967E+04  0.19401870365E+04  0.46999998093E+01 0.  1.
       -5    1    3    3    0  502  0.32368807739E+03  0.62970227620E+03  0.12680427886E+04  0.14523269369E+04  0.46999998093E+01 0. -1.
</event>
<event>
 5   0  0.9295663E-07  0.2436414E+04  0.7818609E-02  0.8425995E-01
        1   -1    0    0  501    0  0.00000000000E+00  0.00000000000E+00  0.10937077508E+04  0.10937077508E+04  0.50400001928E-02 0.  1.
       -1   -1    0    0    0  501  0.00000000000E+00  0.00000000000E+00 -0.13568782366E+04  0.13568782366E+04  0.50400001928E-02 0. -1.
    10030    2    1    2    0    0  0.00000000000E+00  0.00000000000E+00 -0.26317048585E+03  0.24505859874E+04  0.24364139585E+04 0.  0.
        4    1    3    3  502    0  0.31030397207E+03 -0.26552708867E+03  0.10227986033E+04  0.11013227436E+04  0.12699999809E+01 0.  1.
       -4    1    3    3    0  502 -0.31030397207E+03  0.26552708867E+03 -0.12859690891E+04  0.13492632438E+04  0.12699999809E+01 0. -1.
</event>
<event>
 5   0  0.2658600E-06  0.3347510E+04  0.7818609E-02  0.8150911E-01
       -2   -1    0    0    0  501  0.00000000000E+00  0.00000000000E+00  0.15675487919E+04  0.15675487919E+04  0.25500000920E-02 0. -1.
        2   -1    0    0  501    0  0.00000000000E+00  0.00000000000E+00 -0.17871570330E+04  0.17871570330E+04  0.25500000920E-02 0.  1.
    10030    2    1    2    0    0  0.00000000000E+00  0.00000000000E+00 -0.21960824114E+03  0.33547058250E+04  0.33475100287E+04 0.  0.
        5    1    3    3  502    0 -0.64361731175E+03  0.35311507476E+03 -0.16171984414E+04  0.17760310776E+04  0.46999998093E+01 0.  1.
       -5    1    3    3    0  502  0.64361731175E+03 -0.35311507476E+03  0.13975902002E+04  0.15786747473E+04  0.46999998093E+01 0. -1.
</event>
<event>
 5   0  0.9295663E-07  0.3312306E+04  0.7818609E-02  0.8159771E-01
       -1   -1    0    0    0  501  0.00000000000E+00  0.00000000000E+00  0.10621597653E+04  0.10621597653E+04  0.50400001928E-02 0. -1.
        1   -1    0    0  501    0  0.00000000000E+00  0.00000000000E+00 -0.25823259765E+04  0.25823259765E+04  0.50400001928E-02 0.  1.
    10030    2    1    2    0    0  0.00000000000E+00  0.00000000000E+00 -0.15201662112E+04  0.36444857418E+04  0.33123059962E+04 0.  0.
        4    1    3    3  502    0 -0.10918415377E+04 -0.96716857460E+03 -0.16231652595E+04  0.21822465644E+04  0.12699999809E+01 0.  1.
       -4    1    3    3    0  502  0.10918415377E+04  0.96716857460E+03  0.10299904831E+03  0.14622391774E+04  0.12699999809E+01 0. -1.
</event>
<event>
 5   0  0.8520125E-07  0.3328015E+04  0.7818609E-02  0.8155803E-01
       -3   -1    0    0    0  501  0.00000000000E+00  0.00000000000E+00  0.16085787685E+04  0.16085787717E+04  0.10100000352E+00 0.  1.
        3   -1    0    0  501    0  0.00000000000E+00  0.00000000000E+00 -0.17213459174E+04  0.17213459203E+04  0.10100000352E+00 0. -1.
    10030    2    1    2    0    0  0.00000000000E+00  0.00000000000E+00 -0.11276714887E+03  0.33299246920E+04  0.33280147272E+04 0.  0.
        4    1    3    3  502    0  0.14139692391E+04  0.65581842324E+03  0.52662747799E+03  0.16452188082E+04  0.12699999809E+01 0.  1.
       -4    1    3    3    0  502 -0.14139692391E+04 -0.65581842324E+03 -0.63939462686E+03  0.16847058838E+04  0.12699999809E+01 0. -1.
</event>
<event>
 5   0  0.9268670E-07  0.3320819E+04  0.7818609E-02  0.8157618E-01
        1   -1    0    0  501    0  0.00000000000E+00  0.00000000000E+00  0.17199191884E+04  0.17199191884E+04  0.50400001928E-02 0.  1.
       -1   -1    0    0    0  501  0.00000000000E+00  0.00000000000E+00 -0.16029584415E+04  0.16029584415E+04  0.50400001928E-02 0. -1.
    10030    2    1    2    0    0  0.00000000000E+00  0.00000000000E+00  0.11696074690E+03  0.33228776299E+04  0.33208185628E+04 0.  0.
        3    1    3    3  502    0  0.30227234280E+03 -0.71784430098E+02 -0.15736157079E+04  0.16039912656E+04  0.10100000352E+00 0. -1.
       -3    1    3    3    0  502 -0.30227234280E+03  0.71784430098E+02  0.16905764548E+04  0.17188863643E+04  0.10100000352E+00 0.  1.
</event>
<event>
 5   0  0.9268670E-07  0.2448327E+04  0.7818609E-02  0.8421629E-01
       -1   -1    0    0    0  501  0.00000000000E+00  0.00000000000E+00  0.13350418280E+04  0.13350418280E+04  0.50400001928E-02 0. -1.
        1   -1    0    0  501    0  0.00000000000E+00  0.00000000000E+00 -0.11224937759E+04  0.11224937760E+04  0.50400001928E-02 0.  1.
    10030    2    1    2    0    0  0.00000000000E+00  0.00000000000E+00  0.21254805206E+03  0.24575356040E+04  0.24483268921E+04 0.  0.
        3    1    3    3  502    0  0.27072502534E+03  0.58311515222E+03  0.11519508349E+04  0.13192066011E+04  0.10100000352E+00 0. -1.
       -3    1    3    3    0  502 -0.27072502534E+03 -0.58311515222E+03 -0.93940278288E+03  0.11383290029E+04  0.10100000352E+00 0.  1.
</event>
<event>
 5   0  0.2574803E-06  0.3219597E+04  0.7818609E-02  0.8183661E-01
       -2   -1    0    0    0  501  0.00000000000E+00  0.00000000000E+00  0.25215352429E+04  0.25215352429E+04  0.25500000920E-02 0. -1.
        2   -1    0    0  501    0  0.00000000000E+00  0.00000000000E+00 -0.10277274049E+04  0.10277274049E+04  0.25500000920E-02 0.  1.
    10030    2    1    2    0    0  0.00000000000E+00  0.00000000000E+00  0.14938078379E+04  0.35492626478E+04  0.32195967894E+04 0.  0.
        4    1    3    3  502    0 -0.89397594668E+03  0.11754890353E+04  0.14531948056E+04  0.20718938730E+04  0.12699999809E+01 0. -1.
       -4    1    3    3    0  502  0.89397594668E+03 -0.11754890353E+04  0.40613032362E+02  0.14773687748E+04  0.12699999809E+01 0.  1.
</event>
<event>
 5   0  0.2614212E-06  0.3041722E+04  0.7818609E-02  0.8231916E-01
       -2   -1    0    0    0  501  0.00000000000E+00  0.00000000000E+00  0.10714194010E+04  0.10714194010E+04  0.25500000920E-02 0.  1.
        2   -1    0    0  501    0  0.00000000000E+00  0.00000000000E+00 -0.21588350541E+04  0.21588350541E+04  0.25500000920E-02 0. -1.
    10030    2    1    2    0    0  0.00000000000E+00  0.00000000000E+00 -0.10874156531E+04  0.32302544550E+04  0.30417217232E+04 0.  0.
        2    1    3    3  502    0  0.38104167781E+03  0.13214061121E+04  0.14593569571E+03  0.13829693057E+04  0.25500000920E-02 0.  1.
       -2    1    3    3    0  502 -0.38104167781E+03 -0.13214061121E+04 -0.12333513488E+04  0.18472851493E+04  0.25500000920E-02 0. -1.
</event>
<event>
 5   0  0.9268670E-07  0.3219999E+04  0.7818609E-02  0.8183555E-01
       -1   -1    0    0    0  501  0.00000000000E+00  0.00000000000E+00  0.14172282927E+04  0.14172282927E+04  0.50400001928E-02 0. -1.
        1   -1    0    0  501    0  0.00000000000E+00  0.00000000000E+00 -0.18289909305E+04  0.18289909305E+04  0.50400001928E-02 0.  1.
    10030    2    1    2    0    0  0.00000000000E+00  0.00000000000E+00 -0.41176263782E+03  0.32462192232E+04  0.32199985676E+04 0.  0.
        3    1    3    3  502    0 -0.59335929793E+03 -0.11616261578E+04 -0.11573072742E+04  0.17437920530E+04  0.10100000352E+00 0.  1.
       -3    1    3    3    0  502  0.59335929793E+03  0.11616261578E+04  0.74554463637E+03  0.15024271702E+04  0.10100000352E+00 0. -1.
</event>
<event>
 5   0  0.2674551E-06  0.3325509E+04  0.7818609E-02  0.8156435E-01
        2   -1    0    0  501    0  0.00000000000E+00  0.00000000000E+00  0.12600488929E+04  0.12600488929E+04  0.25500000920E-02 0. -1.
       -2   -1    0    0    0  501  0.00000000000E+00  0.00000000000E+00 -0.21941626951E+04  0.21941626951E+04  0.25500000920E-02 0.  1.
    10030    2    1    2    0    0  0.00000000000E+00  0.00000000000E+00 -0.93411380215E+03  0.34542115880E+04  0.33255088482E+04 0.  0.
        3    1    3    3  502    0  0.11491260722E+04 -0.23983904705E+03  0.75611686303E+03  0.13963259717E+04  0.10100000352E+00 0. -1.
       -3    1    3    3    0  502 -0.11491260722E+04  0.23983904705E+03 -0.16902306652E+04  0.20578856164E+04  0.10100000352E+00 0.  1.
</event>
<event>
 5   0  0.8845526E-07  0.3529933E+04  0.7818609E-02  0.8106733E-01
        1   -1    0    0  501    0  0.00000000000E+00  0.00000000000E+00  0.23584387198E+04  0.23584387198E+04  0.50400001928E-02 0. -1.
       -1   -1    0    0    0  501  0.00000000000E+00  0.00000000000E+00 -0.13208342009E+04  0.13208342010E+04  0.50400001928E-02 0.  1.
    10030    2    1    2    0    0  0.00000000000E+00  0.00000000000E+00  0.10376045189E+04  0.36792729208E+04  0.35299328730E+04 0.  0.
        1    1    3    3  502    0  0.91106200102E+03 -0.14020771735E+04  0.11077306271E+04  0.20057221922E+04  0.50400001928E-02 0. -1.
       -1    1    3    3    0  502 -0.91106200102E+03  0.14020771735E+04 -0.70126108157E+02  0.16735507286E+04  0.50400001928E-02 0.  1.
</event>
<event>
 5   0  0.9295663E-07  0.3186219E+04  0.7818609E-02  0.8192466E-01
        1   -1    0    0  501    0  0.00000000000E+00  0.00000000000E+00  0.29980883461E+04  0.29980883461E+04  0.50400001928E-02 0.  1.
       -1   -1    0    0    0  501  0.00000000000E+00  0.00000000000E+00 -0.84653882712E+03  0.84653882713E+03  0.50400001928E-02 0. -1.
    10030    2    1    2    0    0  0.00000000000E+00  0.00000000000E+00  0.21515495189E+04  0.38446271732E+04  0.31862191966E+04 0.  0.
        4    1    3    3  502    0  0.65141441124E+03  0.14344952883E+04  0.13610100967E+04  0.20819384150E+04  0.12699999809E+01 0. -1.
       -4    1    3    3    0  502 -0.65141441124E+03 -0.14344952883E+04  0.79053942225E+03  0.17626887583E+04  0.12699999809E+01 0.  1.
</event>
<event>
 5   0  0.9530268E-07  0.2397390E+04  0.7818609E-02  0.8440481E-01
        1   -1    0    0  501    0  0.00000000000E+00  0.00000000000E+00  0.18786046088E+04  0.18786046088E+04  0.50400001928E-02 0. -1.
       -1   -1    0    0    0  501  0.00000000000E+00  0.00000000000E+00 -0.76486013392E+03  0.76486013393E+03  0.50400001928E-02 0.  1.
    10030    2    1    2    0    0  0.00000000000E+00  0.00000000000E+00  0.11137444749E+04  0.26434647428E+04  0.23973900581E+04 0.  0.
        5    1    3    3  502    0 -0.10746758501E+04  0.48112920959E+03  0.80449885182E+03  0.14260624081E+04  0.46999998093E+01 0.  1.
       -5    1    3    3    0  502  0.10746758501E+04 -0.48112920959E+03  0.30924562308E+03  0.12174023347E+04  0.46999998093E+01 0. -1.
</event>
<event>
 5   0  0.2674551E-06  0.3297367E+04  0.7818609E-02  0.8163566E-01
        2   -1    0    0  501    0  0.00000000000E+00  0.00000000000E+00  0.20860537888E+04  0.20860537888E+04  0.25500000920E-02 0.  1.
       -2   -1    0    0    0  501  0.00000000000E+00  0.00000000000E+00 -0.13030139307E+04  0.13030139307E+04  0.25500000920E-02 0. -1.
    10030    2    1    2    0    0  0.00000000000E+00  0.00000000000E+00  0.78303985808E+03  0.33890677196E+04  0.32973669175E+04 0.  0.
        3    1    3    3  502    0 -0.34909295893E+03 -0.34112683647E+03 -0.12270524774E+04  0.13205647295E+04  0.10100000352E+00 0. -1.
       -3    1    3    3    0  502  0.34909295893E+03  0.34112683647E+03  0.20100923354E+04  0.20685029900E+04  0.10100000352E+00 0.  1.
</event>
<event>
 5   0  0.8845526E-07  0.3304276E+04  0.7818609E-02  0.8161808E-01
       -1   -1    0    0    0  501  0.00000000000E+00  0.00000000000E+00  0.13136632308E+04  0.13136632308E+04  0.50400001928E-02 0. -1.
        1   -1    0    0  501    0  0.00000000000E+00  0.00000000000E+00 -0.20778237652E+04  0.20778237652E+04  0.50400001928E-02 0.  1.
    10030    2    1    2    0    0  0.00000000000E+00  0.00000000000E+00 -0.76416053438E+03  0.33914869960E+04  0.33042764294E+04 0.  0.
        1    1    3    3  502    0  0.16982299214E+03 -0.81379808026E+03  0.10833467363E+04  0.13655575107E+04  0.50400001928E-02 0. -1.
       -1    1    3    3    0  502 -0.16982299214E+03  0.81379808026E+03 -0.18475072707E+04  0.20259294853E+04  0.50400001928E-02 0.  1.
</event>
<event>
 5   0  0.2705859E-06  0.3327216E+04  0.7818609E-02  0.8156005E-01
        2   -1    0    0  501    0  0.00000000000E+00  0.00000000000E+00  0.14327688445E+04  0.14327688445E+04  0.25500000920E-02 0.  1.
       -2   -1    0    0    0  501  0.00000000000E+00  0.00000000000E+00 -0.19316385311E+04  0.19316385311E+04  0.25500000920E-02 0. -1.
    10030    2    1    2    0    0  0.00000000000E+00  0.00000000000E+00 -0.49886968660E+03  0.33644073757E+04  0.33272159571E+04 0.  0.
        1    1    3    3  502    0  0.23907909825E+03  0.16270383213E+03  0.14071573797E+04  0.14365664772E+04  0.50400001928E-02 0.  1.
       -1    1    3    3    0  502 -0.23907909825E+03 -0.16270383213E+03 -0.19060270663E+04  0.19278408984E+04  0.50400001928E-02 0. -1.
</event>
<event>
 5   0  0.9295663E-07  0.3354695E+04  0.7818609E-02  0.8149116E-01
        1   -1    0    0  501    0  0.00000000000E+00  0.00000000000E+00  0.16837164785E+04  0.16837164785E+04  0.50400001928E-02 0.  1.
       -1   -1    0    0    0  501  0.00000000000E+00  0.00000000000E+00 -0.16710025329E+04  0.16710025329E+04  0.50400001928E-02 0. -1.
    10030    2    1    2    0    0  0.00000000000E+00  0.00000000000E+00  0.12713945543E+02  0.33547190114E+04  0.33546949193E+04 0.  0.
        4    1    3    3  502    0  0.70627392636E+03  0.15077137702E+04 -0.19728440630E+03  0.16765877316E+04  0.12699999809E+01 0. -1.
       -4    1    3    3    0  502 -0.70627392636E+03 -0.15077137702E+04  0.20999835184E+03  0.16781312799E+04  0.12699999809E+01 0.  1.
</event>
<event>
 5   0  0.9530268E-07  0.3332048E+04  0.7818609E-02  0.8154788E-01
        1   -1    0    0  501    0  0.00000000000E+00  0.00000000000E+00  0.18269382450E+04  0.18269382450E+04  0.50400001928E-02 0. -1.
       -1   -1    0    0    0  501  0.00000000000E+00  0.00000000000E+00 -0.15192825778E+04  0.15192825778E+04  0.50400001928E-02 0.  1.
    10030    2    1    2    0    0  0.00000000000E+00  0.00000000000E+00  0.30765566720E+03  0.33462208228E+04  0.33320476865E+04 0.  0.
        5    1    3    3  502    0  0.93978145442E+03 -0.13579810879E+04  0.37456162669E+03  0.16934049484E+04  0.46999998093E+01 0. -1.
       -5    1    3    3    0  502 -0.93978145442E+03  0.13579810879E+04 -0.66905959486E+02  0.16528158744E+04  0.46999998093E+01 0.  1.
</event>
<event>
 5   0  0.8705956E-07  0.3298009E+04  0.7818609E-02  0.8163402E-01
       -1   -1    0    0    0  501  0.00000000000E+00  0.00000000000E+00  0.12667758599E+04  0.12667758599E+04  0.50400001928E-02 0.  1.
        1   -1    0    0  501    0  0.00000000000E+00  0.00000000000E+00 -0.21465649060E+04  0.21465649061E+04  0.50400001928E-02 0. -1.
    10030    2    1    2    0    0  0.00000000000E+00  0.00000000000E+00 -0.87978904615E+03  0.34133407660E+04  0.32980094631E+04 0.  0.
        2    1    3    3  502    0  0.95673216638E+02  0.14732380060E+04  0.32039150158E+03  0.15107065568E+04  0.25500000920E-02 0.  1.
       -2    1    3    3    0  502 -0.95673216638E+02 -0.14732380060E+04 -0.12001805477E+04  0.19026342091E+04  0.25500000920E-02 0. -1.
</event>
<event>
 5   0  0.9295663E-07  0.3298418E+04  0.7818609E-02  0.8163298E-01
       -1   -1    0    0    0  501  0.00000000000E+00  0.00000000000E+00  0.19063834498E+04  0.19063834498E+04  0.50400001928E-02 0.  1.
        1   -1    0    0  501    0  0.00000000000E+00  0.00000000000E+00 -0.14267282097E+04  0.14267282097E+04  0.50400001928E-02 0. -1.
    10030    2    1    2    0    0  0.00000000000E+00  0.00000000000E+00  0.47965524011E+03  0.33331116595E+04  0.32984184370E+04 0.  0.
        4    1    3    3  502    0  0.59760562694E+03  0.15033169317E+04  0.56381674123E+03  0.17131798543E+04  0.12699999809E+01 0.  1.
       -4    1    3    3    0  502 -0.59760562694E+03 -0.15033169317E+04 -0.84161501122E+02  0.16199318052E+04  0.12699999809E+01 0. -1.
</event>
<event>
 5   0  0.9530268E-07  0.3334743E+04  0.7818609E-02  0.8154111E-01
        1   -1    0    0  501    0  0.00000000000E+00  0.00000000000E+00  0.14452029333E+04  0.14452029333E+04  0.50400001928E-02 0.  1.
       -1   -1    0    0    0  501  0.00000000000E+00  0.00000000000E+00 -0.19236937943E+04  0.19236937943E+04  0.50400001928E-02 0. -1.
    10030    2    1    2    0    0  0.00000000000E+00  0.00000000000E+00 -0.47849086101E+03  0.33688967275E+04  0.33347431170E+04 0.  0.
        5    1    3    3  502    0  0.33171621476E+03  0.16002534242E+04  0.94683643003E+02  0.16370197772E+04  0.46999998093E+01 0.  1.
       -5    1    3    3    0  502 -0.33171621476E+03 -0.16002534242E+04 -0.57317450401E+03  0.17318769503E+04  0.46999998093E+01 0. -1.
</event>
<event>
 5   0  0.2614212E-06  0.2880133E+04  0.7818609E-02  0.8278813E-01
        2   -1    0    0  501    0  0.00000000000E+00  0.00000000000E+00  0.11348816573E+04  0.11348816573E+04  0.25500000920E-02 0.  1.
       -2   -1    0    0    0  501  0.00000000000E+00  0.00000000000E+00 -0.18273201991E+04  0.18273201991E+04  0.25500000920E-02 0. -1.
    10030    2    1    2    0    0  0.00000000000E+00  0.00000000000E+00 -0.69243854181E+03  0.29622018564E+04  0.28801334525E+04 0.  0.
        2    1    3    3  502    0 -0.22907243146E+02 -0.85191588562E+03 -0.15401180670E+04  0.17601843876E+04  0.25500000920E-02 0. -1.
       -2    1    3    3    0  502  0.22907243146E+02  0.85191588562E+03  0.84767952520E+03  0.12020174688E+04  0.25500000920E-02 0.  1.
</event>
<event>
 5   0  0.8845526E-07  0.3664653E+04  0.7818609E-02  0.8075841E-01
        1   -1    0    0  501    0  0.00000000000E+00  0.00000000000E+00  0.19478425560E+04  0.19478425560E+04  0.50400001928E-02 0.  1.
       -1   -1    0    0    0  501  0.00000000000E+00  0.00000000000E+00 -0.17236611683E+04  0.17236611683E+04  0.50400001928E-02 0. -1.
    10030    2    1    2    0    0  0.00000000000E+00  0.00000000000E+00  0.22418138773E+03  0.36715037243E+04  0.36646530944E+04 0.  0.
        1    1    3    3  502    0 -0.42243478823E+03 -0.10584189969E+04 -0.13254150982E+04  0.17479780050E+04  0.50400001928E-02 0. -1.
       -1    1    3    3    0  502  0.42243478823E+03  0.10584189969E+04  0.15495964859E+04  0.19235257193E+04  0.50400001928E-02 0.  1.
</event>
<event>
 5   0  0.8845526E-07  0.3289488E+04  0.7818609E-02  0.8165575E-01
        1   -1    0    0  501    0  0.00000000000E+00  0.00000000000E+00  0.23246968524E+04  0.23246968524E+04  0.50400001928E-02 0.  1.
       -1   -1    0    0    0  501  0.00000000000E+00  0.00000000000E+00 -0.11636714603E+04  0.11636714603E+04  0.50400001928E-02 0. -1.
    10030    2    1    2    0    0  0.00000000000E+00  0.00000000000E+00  0.11610253921E+04  0.34883683128E+04  0.32894883378E+04 0.  0.
        1    1    3    3  502    0 -0.11846080523E+04 -0.11214444144E+04  0.35743892791E+03  0.16699390406E+04  0.50400001928E-02 0.  1.
       -1    1    3    3    0  502  0.11846080523E+04  0.11214444144E+04  0.80358646423E+03  0.18184292721E+04  0.50400001928E-02 0. -1.
</event>
<event>
 5   0  0.8845526E-07  0.2897534E+04  0.7818609E-02  0.8273612E-01
        1   -1    0    0  501    0  0.00000000000E+00  0.00000000000E+00  0.13734111964E+04  0.13734111964E+04  0.50400001928E-02 0. -1.
       -1   -1    0    0    0  501  0.00000000000E+00  0.00000000000E+00 -0.15282574252E+04  0.15282574252E+04  0.50400001928E-02 0.  1.
    10030    2    1    2    0    0  0.00000000000E+00  0.00000000000E+00 -0.15484622881E+03  0.29016686216E+04  0.28975340266E+04 0.  0.
        1    1    3    3  502    0  0.39532299089E+03 -0.14453591005E+02  0.13182788973E+04  0.13763533065E+04  0.50400001928E-02 0. -1.
       -1    1    3    3    0  502 -0.39532299089E+03  0.14453591005E+02 -0.14731251261E+04  0.15253153151E+04  0.50400001928E-02 0.  1.
</event>
<event>
 5   0  0.2574803E-06  0.3269802E+04  0.7818609E-02  0.8170622E-01
        2   -1    0    0  501    0  0.00000000000E+00  0.00000000000E+00  0.19236982840E+04  0.19236982840E+04  0.25500000920E-02 0. -1.
       -2   -1    0    0    0  501  0.00000000000E+00  0.00000000000E+00 -0.13894595471E+04  0.13894595471E+04  0.25500000920E-02 0.  1.
    10030    2    1    2    0    0  0.00000000000E+00  0.00000000000E+00  0.53423873685E+03  0.33131578311E+04  0.32698017961E+04 0.  0.
        4    1    3    3  502    0  0.12005477880E+04  0.21324588177E+03 -0.83640843320E+03  0.14786377100E+04  0.12699999809E+01 0.  1.
       -4    1    3    3    0  502 -0.12005477880E+04 -0.21324588177E+03  0.13706471701E+04  0.18345201212E+04  0.12699999809E+01 0. -1.
</event>
<event>
 5   0  0.9268670E-07  0.3282540E+04  0.7818609E-02  0.8167352E-01
       -1   -1    0    0    0  501  0.00000000000E+00  0.00000000000E+00  0.22926570372E+04  0.22926570372E+04  0.50400001928E-02 0. -1.
        1   -1    0    0  501    0  0.00000000000E+00  0.00000000000E+00 -0.11749543193E+04  0.11749543193E+04  0.50400001928E-02 0.  1.
    10030    2    1    2    0    0  0.00000000000E+00  0.00000000000E+00  0.11177027179E+04  0.34676113565E+04  0.32825400461E+04 0.  0.
        3    1    3    3  502    0  0.76938082937E+03  0.82187377806E+03 -0.70278010023E+03  0.13271485400E+04  0.10100000352E+00 0.  1.
       -3    1    3    3    0  502 -0.76938082937E+03 -0.82187377806E+03  0.18204828181E+04  0.21404628165E+04  0.10100000352E+00 0. -1.
</event>
<event>
 5   0  0.2574803E-06  0.3294092E+04  0.7818609E-02  0.8164400E-01
       -2   -1    0    0    0  501  0.00000000000E+00  0.00000000000E+00  0.16178309245E+04  0.16178309245E+04  0.25500000920E-02 0.  1.
        2   -1    0    0  501    0  0.00000000000E+00  0.00000000000E+00 -0.16767884030E+04  0.16767884030E+04  0.25500000920E-02 0. -1.
    10030    2    1    2    0    0  0.00000000000E+00  0.00000000000E+00 -0.58957478499E+02  0.32946193274E+04  0.32940917608E+04 0.  0.
        4    1    3    3  502    0  0.78092301166E+03 -0.34093355336E+03 -0.14392015801E+04  0.16725367676E+04  0.12699999809E+01 0. -1.
       -4    1    3    3    0  502 -0.78092301166E+03  0.34093355336E+03  0.13802441016E+04  0.16220825598E+04  0.12699999809E+01 0.  1.
</event>
<event>
 5   0  0.2674551E-06  0.2636012E+04  0.7818609E-02  0.8356071E-01
        2   -1    0    0  501    0  0.00000000000E+00  0.00000000000E+00  0.27255971905E+04  0.27255971905E+04  0.25500000920E-02 0. -1.
       -2   -1    0    0    0  501  0.00000000000E+00  0.00000000000E+00 -0.63734260317E+03  0.63734260318E+03  0.25500000920E-02 0.  1.
    10030    2    1    2    0    0  0.00000000000E+00  0.00000000000E+00  0.20882545873E+04  0.33629397937E+04  0.26360115391E+04 0.  0.
        3    1    3    3  502    0  0.39533930895E+03  0.30759201462E+03 -0.51117660913E+03  0.71568676989E+03  0.10100000352E+00 0.  1.
       -3    1    3    3    0  502 -0.39533930895E+03 -0.30759201462E+03  0.25994311965E+04  0.26472530238E+04  0.10100000352E+00 0. -1.
</event>
<event>
 5   0  0.2705859E-06  0.3316432E+04  0.7818609E-02  0.8158727E-01
       -2   -1    0    0    0  501  0.00000000000E+00  0.00000000000E+00  0.12087575905E+04  0.12087575905E+04  0.25500000920E-02 0.  1.
        2   -1    0    0  501    0  0.00000000000E+00  0.00000000000E+00 -0.22747993816E+04  0.22747993816E+04  0.25500000920E-02 0. -1.
    10030    2    1    2    0    0  0.00000000000E+00  0.00000000000E+00 -0.10660417911E+04  0.34835569720E+04  0.33164324322E+04 0.  0.
        1    1    3    3  502    0 -0.25979524751E+03 -0.34316040215E+03  0.11490606724E+04  0.12270261045E+04  0.50400001928E-02 0.  1.
       -1    1    3    3    0  502  0.25979524751E+03  0.34316040215E+03 -0.22151024635E+04  0.22565308675E+04  0.50400001928E-02 0. -1.
</event>
<event>
 5   0  0.2574803E-06  0.3282925E+04  0.7818609E-02  0.8167254E-01
       -2   -1    0    0    0  501  0.00000000000E+00  0.00000000000E+00  0.15558779153E+04  0.15558779154E+04  0.25500000920E-02 0. -1.
        2   -1    0    0  501    0  0.00000000000E+00  0.00000000000E+00 -0.17317547528E+04  0.17317547528E+04  0.25500000920E-02 0.  1.
    10030    2    1    2    0    0  0.00000000000E+00  0.00000000000E+00 -0.17587683743E+03  0.32876326681E+04  0.32829248999E+04 0.  0.
        4    1    3    3  502    0 -0.11757784661E+04 -0.44154353321E+03  0.97045069010E+03  0.15871962223E+04  0.12699999809E+01 0. -1.
       -4    1    3    3    0  502  0.11757784661E+04  0.44154353321E+03 -0.11463275275E+04  0.17004364459E+04  0.12699999809E+01 0.  1.
</event>
<event>
 5   0  0.9268670E-07  0.3315845E+04  0.7818609E-02  0.8158875E-01
       -1   -1    0    0    0  501  0.00000000000E+00  0.00000000000E+00  0.16524427122E+04  0.16524427122E+04  0.50400001928E-02 0. -1.
        1   -1    0    0  501    0  0.00000000000E+00  0.00000000000E+00 -0.16634200206E+04  0.16634200206E+04  0.50400001928E-02 0.  1.
    10030    2    1    2    0    0  0.00000000000E+00  0.00000000000E+00 -0.10977308342E+02  0.33158627328E+04  0.33158445623E+04 0.  0.
        3    1    3    3  502    0  0.81413306368E+03  0.13942344352E+04 -0.38232486640E+03  0.16591788991E+04  0.10100000352E+00 0.  1.
       -3    1    3    3    0  502 -0.81413306368E+03 -0.13942344352E+04  0.37134755806E+03  0.16566838337E+04  0.10100000352E+00 0. -1.
</event>
<event>
 5   0  0.2674551E-06  0.3279580E+04  0.7818609E-02  0.8168111E-01
       -2   -1    0    0    0  501  0.00000000000E+00  0.00000000000E+00  0.14859277539E+04  0.14859277539E+04  0.25500000920E-02 0.  1.
        2   -1    0    0  501    0  0.00000000000E+00  0.00000000000E+00 -0.18095836033E+04  0.18095836033E+04  0.25500000920E-02 0. -1.
    10030    2    1    2    0    0  0.00000000000E+00  0.00000000000E+00 -0.32365584935E+03  0.32955113572E+04  0.32795795457E+04 0.  0.
        3    1    3    3  502    0 -0.10121609540E+04 -0.40591568227E+03  0.10687325221E+04  0.15269009634E+04  0.10100000352E+00 0.  1.
       -3    1    3    3    0  502  0.10121609540E+04  0.40591568227E+03 -0.13923883715E+04  0.17686103938E+04  0.10100000352E+00 0. -1.
</event>
<event>
 5   0  0.9268670E-07  0.3319381E+04  0.7818609E-02  0.8157981E-01
       -1   -1    0    0    0  501  0.00000000000E+00  0.00000000000E+00  0.14437791565E+04  0.14437791565E+04  0.50400001928E-02 0.  1.
        1   -1    0    0  501    0  0.00000000000E+00  0.00000000000E+00 -0.19078910524E+04  0.19078910524E+04  0.50400001928E-02 0. -1.
    10030    2    1    2    0    0  0.00000000000E+00  0.00000000000E+00 -0.46411189583E+03  0.33516702089E+04  0.33193814691E+04 0.  0.
        3    1    3    3  502    0 -0.10225342990E+04  0.13009119661E+04 -0.10186380309E+03  0.16578071604E+04  0.10100000352E+00 0.  1.
       -3    1    3    3    0  502  0.10225342990E+04 -0.13009119661E+04 -0.36224809274E+03  0.16938630486E+04  0.10100000352E+00 0. -1.
</event>
<event>
 5   0  0.2574803E-06  0.3255995E+04  0.7818609E-02  0.8174184E-01
       -2   -1    0    0    0  501  0.00000000000E+00  0.00000000000E+00  0.12827569161E+04  0.12827569161E+04  0.25500000920E-02 0. -1.
        2   -1    0    0  501    0  0.00000000000E+00  0.00000000000E+00 -0.20661563070E+04  0.20661563070E+04  0.25500000920E-02 0.  1.
    10030    2    1    2    0    0  0.00000000000E+00  0.00000000000E+00 -0.78339939091E+03  0.33489132231E+04  0.32559952657E+04 0.  0.
        4    1    3    3  502    0  0.10901981360E+04  0.10355089608E+04  0.25026253874E+03  0.15242846633E+04  0.12699999809E+01 0.  1.
       -4    1    3    3    0  502 -0.10901981360E+04 -0.10355089608E+04 -0.10336619296E+04  0.18246285598E+04  0.12699999809E+01 0. -1.
</event>
<event>
 5   0  0.2614212E-06  0.3196895E+04  0.7818609E-02  0.8189638E-01
        2   -1    0    0  501    0  0.00000000000E+00  0.00000000000E+00  0.77751308424E+03  0.77751308424E+03  0.25500000920E-02 0. -1.
       -2   -1    0    0    0  501  0.00000000000E+00  0.00000000000E+00 -0.32861619680E+04  0.32861619680E+04  0.25500000920E-02 0.  1.
    10030    2    1    2    0    0  0.00000000000E+00  0.00000000000E+00 -0.25086488838E+04  0.40636750523E+04  0.31968946977E+04 0.  0.
        2    1    3    3  502    0  0.13082669501E+04 -0.46765745877E+03 -0.22590559816E+04  0.26520934824E+04  0.25500000920E-02 0.  1.
       -2    1    3    3    0  502 -0.13082669501E+04  0.46765745877E+03 -0.24959290217E+03  0.14115815698E+04  0.25500000920E-02 0. -1.
</event>
<event>
 5   0  0.2705859E-06  0.3350570E+04  0.7818609E-02  0.8150146E-01
        2   -1    0    0  501    0  0.00000000000E+00  0.00000000000E+00  0.13356841948E+04  0.13356841948E+04  0.25500000920E-02 0.  1.
       -2   -1    0    0    0  501  0.00000000000E+00  0.00000000000E+00 -0.21012305921E+04  0.21012305921E+04  0.25500000920E-02 0. -1.
    10030    2    1    2    0    0  0.00000000000E+00  0.00000000000E+00 -0.76554639727E+03  0.34369147869E+04  0.33505703942E+04 0.  0.
        1    1    3    3  502    0  0.11027564120E+04  0.10678115786E+04  0.30555383795E+03  0.15651378276E+04  0.50400001928E-02 0.  1.
       -1    1    3    3    0  502 -0.11027564120E+04 -0.10678115786E+04 -0.10711002352E+04  0.18717769593E+04  0.50400001928E-02 0. -1.
</event>
<event>
 5   0  0.2674551E-06  0.3217450E+04  0.7818609E-02  0.8184224E-01
        2   -1    0    0  501    0  0.00000000000E+00  0.00000000000E+00  0.12446269697E+04  0.12446269697E+04  0.25500000920E-02 0. -1.
       -2   -1    0    0    0  501  0.00000000000E+00  0.00000000000E+00 -0.20793341623E+04  0.20793341623E+04  0.25500000920E-02 0.  1.
    10030    2    1    2    0    0  0.00000000000E+00  0.00000000000E+00 -0.83470719262E+03  0.33239611320E+04  0.32174495349E+04 0.  0.
        3    1    3    3  502    0 -0.48070756912E+03 -0.14816380038E+04 -0.83273918513E+03  0.17662914544E+04  0.10100000352E+00 0.  1.
       -3    1    3    3    0  502  0.48070756912E+03  0.14816380038E+04 -0.19680074832E+01  0.15576696776E+04  0.10100000352E+00 0. -1.
</event>
<event>
 5   0  0.2614212E-06  0.3303578E+04  0.7818609E-02  0.8161986E-01
        2   -1    0    0  501    0  0.00000000000E+00  0.00000000000E+00  0.17352501107E+04  0.17352501107E+04  0.25500000920E-02 0. -1.
       -2   -1    0    0    0  501  0.00000000000E+00  0.00000000000E+00 -0.15723417377E+04  0.15723417377E+04  0.25500000920E-02 0.  1.
    10030    2    1    2    0    0  0.00000000000E+00  0.00000000000E+00  0.16290837303E+03  0.33075918484E+04  0.33035775604E+04 0.  0.
        2    1    3    3  502    0 -0.10396815116E+04 -0.36464269811E+03 -0.11506931738E+04  0.15931091373E+04  0.25500000920E-02 0.  1.
       -2    1    3    3    0  502  0.10396815116E+04  0.36464269811E+03  0.13136015469E+04  0.17144827111E+04  0.25500000920E-02 0. -1.
</event>
<event>
 5   0  0.8705956E-07  0.3334749E+04  0.7818609E-02  0.8154109E-01
       -1   -1    0    0    0  501  0.00000000000E+00  0.00000000000E+00  0.19116260236E+04  0.19116260236E+04  0.50400001928E-02 0. -1.
        1   -1    0    0  501    0  0.00000000000E+00  0.00000000000E+00 -0.14543312660E+04  0.14543312660E+04  0.50400001928E-02 0.  1.
    10030    2    1    2    0    0  0.00000000000E+00  0.00000000000E+00  0.45729475757E+03  0.33659572896E+04  0.33347488631E+04 0.  0.
        2    1    3    3  502    0 -0.12309745216E+03 -0.63535741990E+03  0.17796822200E+04  0.18937003030E+04  0.25500000920E-02 0. -1.
       -2    1    3    3    0  502  0.12309745216E+03  0.63535741990E+03 -0.13223874624E+04  0.14722569865E+04  0.25500000920E-02 0.  1.
</event>
<event>
 5   0  0.8705956E-07  0.3288513E+04  0.7818609E-02  0.8165824E-01
       -1   -1    0    0    0  501  0.00000000000E+00  0.00000000000E+00  0.12909961204E+04  0.12909961204E+04  0.50400001928E-02 0.  1.
        1   -1    0    0  501    0  0.00000000000E+00  0.00000000000E+00 -0.20941806610E+04  0.20941806610E+04  0.50400001928E-02 0. -1.
    10030    2    1    2    0    0  0.00000000000E+00  0.00000000000E+00 -0.80318454055E+03  0.33851767814E+04  0.32885127999E+04 0.  0.
        2    1    3    3  502    0  0.28588604485E+03 -0.12405097773E+04 -0.14728470953E+04  0.19467598476E+04  0.25500000920E-02 0.  1.
       -2    1    3    3    0  502 -0.28588604485E+03  0.12405097773E+04  0.66966255472E+03  0.14384169338E+04  0.25500000920E-02 0. -1.
</event>
<event>
 5   0  0.9295663E-07  0.3375204E+04  0.7818609E-02  0.8144019E-01
        1   -1    0    0  501    0  0.00000000000E+00  0.00000000000E+00  0.12407051862E+04  0.12407051862E+04  0.50400001928E-02 0. -1.
       -1   -1    0    0    0  501  0.00000000000E+00  0.00000000000E+00 -0.22954685603E+04  0.22954685603E+04  0.50400001928E-02 0.  1.
    10030    2    1    2    0    0  0.00000000000E+00  0.00000000000E+00 -0.10547633741E+04  0.35361737465E+04  0.33752035480E+04 0.  0.
        4    1    3    3  502    0  0.95492616777E+03  0.26896220889E+03  0.90292836357E+03  0.13414566330E+04  0.12699999809E+01 0. -1.
       -4    1    3    3    0  502 -0.95492616777E+03 -0.26896220889E+03 -0.19576917376E+04  0.21947171135E+04  0.12699999809E+01 0.  1.
</event>
<event>
 5   0  0.9530268E-07  0.3370877E+04  0.7818609E-02  0.8145091E-01
        1   -1    0    0  501    0  0.00000000000E+00  0.00000000000E+00  0.17970826813E+04  0.17970826814E+04  0.50400001928E-02 0. -1.
       -1   -1    0    0    0  501  0.00000000000E+00  0.00000000000E+00 -0.15807300190E+04  0.15807300190E+04  0.50400001928E-02 0.  1.
    10030    2    1    2    0    0  0.00000000000E+00  0.00000000000E+00  0.21635266237E+03  0.33778127003E+04  0.33708767649E+04 0.  0.
        5    1    3    3  502    0 -0.80353672199E+03 -0.70230978641E+00  0.15927809628E+04  0.17839969289E+04  0.46999998093E+01 0. -1.
       -5    1    3    3    0  502  0.80353672199E+03  0.70230978641E+00 -0.13764283005E+04  0.15938157714E+04  0.46999998093E+01 0.  1.
</event>
<event>
 5   0  0.9530268E-07  0.3197407E+04  0.7818609E-02  0.8189502E-01
        1   -1    0    0  501    0  0.00000000000E+00  0.00000000000E+00  0.12082734668E+04  0.12082734668E+04  0.50400001928E-02 0. -1.
       -1   -1    0    0    0  501  0.00000000000E+00  0.00000000000E+00 -0.21152936917E+04  0.21152936917E+04  0.50400001928E-02 0.  1.
    10030    2    1    2    0    0  0.00000000000E+00  0.00000000000E+00 -0.90702022492E+03  0.33235671585E+04  0.31974072259E+04 0.  0.
        5    1    3    3  502    0  0.12750029894E+04  0.79305324294E+03  0.11702306772E+03  0.15060818561E+04  0.46999998093E+01 0.  1.
       -5    1    3    3    0  502 -0.12750029894E+04 -0.79305324294E+03 -0.10240432926E+04  0.18174853023E+04  0.46999998093E+01 0. -1.
</event>
<event>
 5   0  0.2674551E-06  0.3253027E+04  0.7818609E-02  0.8174952E-01
       -2   -1    0    0    0  501  0.00000000000E+00  0.00000000000E+00  0.15972077515E+04  0.15972077515E+04  0.25500000920E-02 0. -1.
        2   -1    0    0  501    0  0.00000000000E+00  0.00000000000E+00 -0.16563570170E+04  0.16563570170E+04  0.25500000920E-02 0.  1.
    10030    2    1    2    0    0  0.00000000000E+00  0.00000000000E+00 -0.59149265448E+02  0.32535647685E+04  0.32530270622E+04 0.  0.
        3    1    3    3  502    0  0.28889073425E+03  0.99578265736E+03 -0.12829798079E+04  0.16495690815E+04  0.10100000352E+00 0.  1.
       -3    1    3    3    0  502 -0.28889073425E+03 -0.99578265736E+03  0.12238305425E+04  0.16039956870E+04  0.10100000352E+00 0. -1.
</event>
<event>
 5   0  0.2674551E-06  0.3325288E+04  0.7818609E-02  0.8156491E-01
        2   -1    0    0  501    0  0.00000000000E+00  0.00000000000E+00  0.22376044565E+04  0.22376044565E+04  0.25500000920E-02 0.  1.
       -2   -1    0    0    0  501  0.00000000000E+00  0.00000000000E+00 -0.12354213239E+04  0.12354213239E+04  0.25500000920E-02 0. -1.
    10030    2    1    2    0    0  0.00000000000E+00  0.00000000000E+00  0.10021831326E+04  0.34730257804E+04  0.33252875124E+04 0.  0.
        3    1    3    3  502    0  0.12763772414E+04 -0.10631580996E+04  0.42768195068E+03  0.17153296675E+04  0.10100000352E+00 0. -1.
       -3    1    3    3    0  502 -0.12763772414E+04  0.10631580996E+04  0.57450118191E+03  0.17576961129E+04  0.10100000352E+00 0.  1.
</event>
<event>
 5   0  0.8520125E-07  0.3414843E+04  0.7818609E-02  0.8134273E-01
        3   -1    0    0  501    0  0.00000000000E+00  0.00000000000E+00  0.17294225690E+04  0.17294225720E+04  0.10100000352E+00 0.  1.
       -3   -1    0    0    0  501  0.00000000000E+00  0.00000000000E+00 -0.16857003337E+04  0.16857003367E+04  0.10100000352E+00 0. -1.
    10030    2    1    2    0    0  0.00000000000E+00  0.00000000000E+00  0.43722235326E+02  0.34151229087E+04  0.34148430195E+04 0.  0.
        4    1    3    3  502    0 -0.95589056067E+03 -0.13162500735E+04  0.54059966861E+03  0.17142026235E+04  0.12699999809E+01 0.  1.
       -4    1    3    3    0  502  0.95589056067E+03  0.13162500735E+04 -0.49687743329E+03  0.17009202852E+04  0.12699999809E+01 0. -1.
</event>
<event>
 5   0  0.2705859E-06  0.3290777E+04  0.7818609E-02  0.8165246E-01
        2   -1    0    0  501    0  0.00000000000E+00  0.00000000000E+00  0.29987160410E+04  0.29987160410E+04  0.25500000920E-02 0. -1.
       -2   -1    0    0    0  501  0.00000000000E+00  0.00000000000E+00 -0.90282089658E+03  0.90282089658E+03  0.25500000920E-02 0.  1.
    10030    2    1    2    0    0  0.00000000000E+00  0.00000000000E+00  0.20958951444E+04  0.39015369375E+04  0.32907771147E+04 0.  0.
        1    1    3    3  502    0 -0.58891258335E+03  0.45161681157E+03  0.27890117415E+04  0.28860634556E+04  0.50400001928E-02 0. -1.
       -1    1    3    3    0  502  0.58891258335E+03 -0.45161681157E+03 -0.69311659713E+03  0.10154734820E+04  0.50400001928E-02 0.  1.
</event>
<event>
 5   0  0.8705956E-07  0.3344509E+04  0.7818609E-02  0.8151662E-01
        1   -1    0    0  501    0  0.00000000000E+00  0.00000000000E+00  0.13086758827E+04  0.13086758827E+04  0.50400001928E-02 0. -1.
       -1   -1    0    0    0  501  0.00000000000E+00  0.00000000000E+00 -0.21368426892E+04  0.21368426892E+04  0.50400001928E-02 0.  1.
    10030    2    1    2    0    0  0.00000000000E+00  0.00000000000E+00 -0.82816680655E+03  0.34455185719E+04  0.33445086290E+04 0.  0.
        2    1    3    3  502    0 -0.10817670779E+04 -0.90455753621E+03  0.51194712951E+03  0.15001780596E+04  0.25500000920E-02 0.  1.
       -2    1    3    3    0  502  0.10817670779E+04  0.90455753621E+03 -0.13401139361E+04  0.19453405123E+04  0.25500000920E-02 0. -1.
</event>
<event>
 5   0  0.2674551E-06  0.3261662E+04  0.7818609E-02  0.8172720E-01
       -2   -1    0    0    0  501  0.00000000000E+00  0.00000000000E+00  0.33186880421E+04  0.33186880421E+04  0.25500000920E-02 0. -1.
        2   -1    0    0  501    0  0.00000000000E+00  0.00000000000E+00 -0.80140403130E+03  0.80140403131E+03  0.25500000920E-02 0.  1.
    10030    2    1    2    0    0  0.00000000000E+00  0.00000000000E+00  0.25172840108E+04  0.41200920734E+04  0.32616621380E+04 0.  0.
        3    1    3    3  502    0 -0.50205553183E+03  0.11227803378E+04 -0.94157622037E+02  0.12335157526E+04  0.10100000352E+00 0.  1.
       -3    1    3    3    0  502  0.50205553183E+03 -0.11227803378E+04  0.26114416328E+04  0.28865763208E+04  0.10100000352E+00 0. -1.
</event>
<event>
 5   0  0.2574803E-06  0.3337235E+04  0.7818609E-02  0.8153485E-01
       -2   -1    0    0    0  501  0.00000000000E+00  0.00000000000E+00  0.13085154923E+04  0.13085154923E+04  0.25500000920E-02 0. -1.
        2   -1    0    0  501    0  0.00000000000E+00  0.00000000000E+00 -0.21278187234E+04  0.21278187234E+04  0.25500000920E-02 0.  1.
    10030    2    1    2    0    0  0.00000000000E+00  0.00000000000E+00 -0.81930323117E+03  0.34363342157E+04  0.33372346422E+04 0.  0.
        4    1    3    3  502    0 -0.43077925348E+03 -0.74532301217E+03 -0.18815052479E+04  0.20690917738E+04  0.12699999809E+01 0.  1.
       -4    1    3    3    0  502  0.43077925348E+03  0.74532301217E+03  0.10622020167E+04  0.13672424419E+04  0.12699999809E+01 0. -1.
</event>
<event>
 5   0  0.2658600E-06  0.3279656E+04  0.7818609E-02  0.8168091E-01
       -2   -1    0    0    0  501  0.00000000000E+00  0.00000000000E+00  0.22744517081E+04  0.22744517081E+04  0.25500000920E-02 0. -1.
        2   -1    0    0  501    0  0.00000000000E+00  0.00000000000E+00 -0.11822784035E+04  0.11822784035E+04  0.25500000920E-02 0.  1.
    10030    2    1    2    0    0  0.00000000000E+00  0.00000000000E+00  0.10921733045E+04  0.34567301116E+04  0.32796555516E+04 0.  0.
        5    1    3    3  502    0 -0.27157006434E+03  0.61035584489E+03 -0.10323442997E+04  0.12296509262E+04  0.46999998093E+01 0.  1.
       -5    1    3    3    0  502  0.27157006434E+03 -0.61035584489E+03  0.21245176042E+04  0.22270791854E+04  0.46999998093E+01 0. -1.
</event>
<event>
 5   0  0.8845526E-07  0.3361496E+04  0.7818609E-02  0.8147422E-01
       -1   -1    0    0    0  501  0.00000000000E+00  0.00000000000E+00  0.15088738495E+04  0.15088738495E+04  0.50400001928E-02 0.  1.
        1   -1    0    0  501    0  0.00000000000E+00  0.00000000000E+00 -0.18722006608E+04  0.18722006608E+04  0.50400001928E-02 0. -1.
    10030    2    1    2    0    0  0.00000000000E+00  0.00000000000E+00 -0.36332681127E+03  0.33810745102E+04  0.33614964632E+04 0.  0.
        1    1    3    3  502    0 -0.10088029710E+04 -0.51882939921E+03 -0.14290667959E+04  0.18245819485E+04  0.50400001928E-02 0. -1.
       -1    1    3    3    0  502  0.10088029710E+04  0.51882939921E+03  0.10657399847E+04  0.15564925617E+04  0.50400001928E-02 0.  1.
</event>
<event>
 5   0  0.9268670E-07  0.3352378E+04  0.7818609E-02  0.8149694E-01
        1   -1    0    0  501    0  0.00000000000E+00  0.00000000000E+00  0.21475548292E+04  0.21475548292E+04  0.50400001928E-02 0.  1.
       -1   -1    0    0    0  501  0.00000000000E+00  0.00000000000E+00 -0.13082832509E+04  0.13082832510E+04  0.50400001928E-02 0. -1.
    10030    2    1    2    0    0  0.00000000000E+00  0.00000000000E+00  0.83927157822E+03  0.34558380801E+04  0.33523782683E+04 0.  0.
        3    1    3    3  502    0  0.15940438562E+04  0.50618953432E+03  0.30481454062E+03  0.17000339922E+04  0.10100000352E+00 0. -1.
       -3    1    3    3    0  502 -0.15940438562E+04 -0.50618953432E+03  0.53445703761E+03  0.17558040880E+04  0.10100000352E+00 0.  1.
</event>
<event>
 5   0  0.9295663E-07  0.3327494E+04  0.7818609E-02  0.8155935E-01
       -1   -1    0    0    0  501  0.00000000000E+00  0.00000000000E+00  0.16376555852E+04  0.16376555852E+04  0.50400001928E-02 0.  1.
        1   -1    0    0  501    0  0.00000000000E+00  0.00000000000E+00 -0.16902541962E+04  0.16902541962E+04  0.50400001928E-02 0. -1.
    10030    2    1    2    0    0  0.00000000000E+00  0.00000000000E+00 -0.52598610969E+02  0.33279097814E+04  0.33274940870E+04 0.  0.
        4    1    3    3  502    0 -0.10094105702E+04 -0.12109231842E+04 -0.55816265251E+03  0.16723611502E+04  0.12699999809E+01 0. -1.
       -4    1    3    3    0  502  0.10094105702E+04  0.12109231842E+04  0.50556404154E+03  0.16555486312E+04  0.12699999809E+01 0.  1.
</event>
<event>
 5   0  0.9530268E-07  0.3312537E+04  0.7818609E-02  0.8159713E-01
       -1   -1    0    0    0  501  0.00000000000E+00  0.00000000000E+00  0.17551775034E+04  0.17551775034E+04  0.50400001928E-02 0.  1.
        1   -1    0    0  501    0  0.00000000000E+00  0.00000000000E+00 -0.15629332087E+04  0.15629332087E+04  0.50400001928E-02 0. -1.
    10030    2    1    2    0    0  0.00000000000E+00  0.00000000000E+00  0.19224429466E+03  0.33181107121E+04  0.33125369174E+04 0.  0.
        5    1    3    3  502    0 -0.14035428815E+04  0.36318315153E+03 -0.70608025298E+03  0.16125774510E+04  0.46999998093E+01 0. -1.
       -5    1    3    3    0  502  0.14035428815E+04 -0.36318315153E+03  0.89832454765E+03  0.17055332611E+04  0.46999998093E+01 0.  1.
</event>
<event>
 5   0  0.2674551E-06  0.3312086E+04  0.7818609E-02  0.8159827E-01
        2   -1    0    0  501    0  0.00000000000E+00  0.00000000000E+00  0.17724293855E+04  0.17724293855E+04  0.25500000920E-02 0. -1.
       -2   -1    0    0    0  501  0.00000000000E+00  0.00000000000E+00 -0.15472986806E+04  0.15472986806E+04  0.25500000920E-02 0.  1.
    10030    2    1    2    0    0  0.00000000000E+00  0.00000000000E+00  0.22513070484E+03  0.33197280661E+04  0.33120855361E+04 0.  0.
        3    1    3    3  502    0  0.46704215638E+03  0.12612680685E+04  0.10809998500E+04  0.17255393946E+04  0.10100000352E+00 0. -1.
       -3    1    3    3    0  502 -0.46704215638E+03 -0.12612680685E+04 -0.85586914520E+03  0.15941886715E+04  0.10100000352E+00 0.  1.
</event>
<event>
 5   0  0.8705956E-07  0.3366586E+04  0.7818609E-02  0.8146156E-01
       -1   -1    0    0    0  501  0.00000000000E+00  0.00000000000E+00  0.12159254605E+04  0.12159254605E+04  0.50400001928E-02 0. -1.
        1   -1    0    0  501    0  0.00000000000E+00  0.00000000000E+00 -0.23303035884E+04  0.23303035885E+04  0.50400001928E-02 0.  1.
    10030    2    1    2    0    0  0.00000000000E+00  0.00000000000E+00 -0.11143781280E+04  0.35462290489E+04  0.33665860832E+04 0.  0.
        2    1    3    3  502    0 -0.55732034138E+03 -0.11576083615E+04 -0.17027943011E+04  0.21331131038E+04  0.25500000920E-02 0.  1.
       -2    1    3    3    0  502  0.55732034138E+03  0.11576083615E+04  0.58841617316E+03  0.14131159452E+04  0.25500000920E-02 0. -1.
</event>
<event>
 5   0  0.9295663E-07  0.3237121E+04  0.7818609E-02  0.8179082E-01
       -1   -1    0    0    0  501  0.00000000000E+00  0.00000000000E+00  0.98230562343E+03  0.98230562345E+03  0.50400001928E-02 0.  1.
        1   -1    0    0  501    0  0.00000000000E+00  0.00000000000E+00 -0.26669273538E+04  0.26669273538E+04  0.50400001928E-02 0. -1.
    10030    2    1    2    0    0  0.00000000000E+00  0.00000000000E+00 -0.16846217304E+04  0.36492329772E+04  0.32371207805E+04 0.  0.
        4    1    3    3  502    0 -0.11754239719E+04 -0.96258445442E+03 -0.14715324650E+04  0.21150885924E+04  0.12699999809E+01 0. -1.
       -4    1    3    3    0  502  0.11754239719E+04  0.96258445442E+03 -0.21308926537E+03  0.15341443848E+04  0.12699999809E+01 0.  1.
</event>
<event>
 5   0  0.9268670E-07  0.3073422E+04  0.7818609E-02  0.8223070E-01
        1   -1    0    0  501    0  0.00000000000E+00  0.00000000000E+00  0.19653160232E+04  0.19653160232E+04  0.50400001928E-02 0. -1.
       -1   -1    0    0    0  501  0.00000000000E+00  0.00000000000E+00 -0.12015780027E+04  0.12015780028E+04  0.50400001928E-02 0.  1.
    10030    2    1    2    0    0  0.00000000000E+00  0.00000000000E+00  0.76373802042E+03  0.31668940259E+04  0.30734218727E+04 0.  0.
        3    1    3    3  502    0  0.12632228805E+03 -0.15314881446E+04  0.39031803991E+03  0.15854846073E+04  0.10100000352E+00 0. -1.
       -3    1    3    3    0  502 -0.12632228805E+03  0.15314881446E+04  0.37341998051E+03  0.15814094187E+04  0.10100000352E+00 0.  1.
</event>
<event>
 5   0  0.9295663E-07  0.3308596E+04  0.7818609E-02  0.8160711E-01
       -1   -1    0    0    0  501  0.00000000000E+00  0.00000000000E+00  0.13272662723E+04  0.13272662723E+04  0.50400001928E-02 0. -1.
        1   -1    0    0  501    0  0.00000000000E+00  0.00000000000E+00 -0.20619090835E+04  0.20619090835E+04  0.50400001928E-02 0.  1.
    10030    2    1    2    0    0  0.00000000000E+00  0.00000000000E+00 -0.73464281117E+03  0.33891753558E+04  0.33085963085E+04 0.  0.
        4    1    3    3  502    0  0.20038457047E+03 -0.11843401279E+04 -0.15325151408E+04  0.19471568463E+04  0.12699999809E+01 0.  1.
       -4    1    3    3    0  502 -0.20038457047E+03  0.11843401279E+04  0.79787232959E+03  0.14420185095E+04  0.12699999809E+01 0. -1.
</event>
<event>
 5   0  0.2614212E-06  0.3278364E+04  0.7818609E-02  0.8168423E-01
       -2   -1    0    0    0  501  0.00000000000E+00  0.00000000000E+00  0.13019454771E+04  0.13019454771E+04  0.25500000920E-02 0.  1.
        2   -1    0    0  501    0  0.00000000000E+00  0.00000000000E+00 -0.20637710915E+04  0.20637710915E+04  0.25500000920E-02 0. -1.
    10030    2    1    2    0    0  0.00000000000E+00  0.00000000000E+00 -0.76182561441E+03  0.33657165685E+04  0.32783638835E+04 0.  0.
        2    1    3    3  502    0  0.34302578067E+03 -0.89222567749E+03  0.98617779326E+03  0.13734190860E+04  0.25500000920E-02 0.  1.
       -2    1    3    3    0  502 -0.34302578067E+03  0.89222567749E+03 -0.17480034077E+04  0.19922974826E+04  0.25500000920E-02 0. -1.
</event>
<event>
 5   0  0.2658600E-06  0.3357310E+04  0.7818609E-02  0.8148464E-01
        2   -1    0    0  501    0  0.00000000000E+00  0.00000000000E+00  0.21456194513E+04  0.21456194513E+04  0.25500000920E-02 0. -1.
       -2   -1    0    0    0  501  0.00000000000E+00  0.00000000000E+00 -0.13133185746E+04  0.13133185746E+04  0.25500000920E-02 0.  1.
    10030    2    1    2    0    0  0.00000000000E+00  0.00000000000E+00  0.83230087667E+03  0.34589380259E+04  0.33573095654E+04 0.  0.
        5    1    3    3  502    0  0.82026190421E+03  0.10750413233E+04 -0.60860206173E+03  0.14828897456E+04  0.46999998093E+01 0.  1.
       -5    1    3    3    0  502 -0.82026190421E+03 -0.10750413233E+04  0.14409029384E+04  0.19760482803E+04  0.46999998093E+01 0. -1.
</event>
<event>
 5   0  0.2674551E-06  0.3221895E+04  0.7818609E-02  0.8183059E-01
        2   -1    0    0  501    0  0.00000000000E+00  0.00000000000E+00  0.23550772644E+04  0.23550772644E+04  0.25500000920E-02 0.  1.
       -2   -1    0    0    0  501  0.00000000000E+00  0.00000000000E+00 -0.11019392780E+04  0.11019392780E+04  0.25500000920E-02 0. -1.
    10030    2    1    2    0    0  0.00000000000E+00  0.00000000000E+00  0.12531379863E+04  0.34570165424E+04  0.32218951817E+04 0.  0.
        3    1    3    3  502    0 -0.13105084101E+04 -0.82796691643E+03  0.10969568991E+04  0.18990197356E+04  0.10100000352E+00 0.  1.
       -3    1    3    3    0  502  0.13105084101E+04  0.82796691643E+03  0.15618108721E+03  0.15579968067E+04  0.10100000352E+00 0. -1.
</event>
<event>
 5   0  0.2658600E-06  0.3293896E+04  0.7818609E-02  0.8164450E-01
        2   -1    0    0  501    0  0.00000000000E+00  0.00000000000E+00  0.22595413261E+04  0.22595413261E+04  0.25500000920E-02 0.  1.
       -2   -1    0    0    0  501  0.00000000000E+00  0.00000000000E+00 -0.12004373781E+04  0.12004373781E+04  0.25500000920E-02 0. -1.
    10030    2    1    2    0    0  0.00000000000E+00  0.00000000000E+00  0.10591039480E+04  0.34599787042E+04  0.32938960914E+04 0.  0.
        5    1    3    3  502    0 -0.11818905298E+04  0.28641007121E+02 -0.67487883905E+03  0.13613115254E+04  0.46999998093E+01 0. -1.
       -5    1    3    3    0  502  0.11818905298E+04 -0.28641007121E+02  0.17339827871E+04  0.20986671788E+04  0.46999998093E+01 0.  1.
</event>
<event>
 5   0  0.9295663E-07  0.3301060E+04  0.7818609E-02  0.8162626E-01
       -1   -1    0    0    0  501  0.00000000000E+00  0.00000000000E+00  0.12132991151E+04  0.12132991151E+04  0.50400001928E-02 0.  1.
        1   -1    0    0  501    0  0.00000000000E+00  0.00000000000E+00 -0.22453239677E+04  0.22453239677E+04  0.50400001928E-02 0. -1.
    10030    2    1    2    0    0  0.00000000000E+00  0.00000000000E+00 -0.10320248526E+04  0.34586230828E+04  0.33010601831E+04 0.  0.
        4    1    3    3  502    0  0.76569130975E+03 -0.79864835885E+03 -0.17992693106E+04  0.21122249046E+04  0.12699999809E+01 0. -1.
       -4    1    3    3    0  502 -0.76569130975E+03  0.79864835885E+03  0.76724445795E+03  0.13463981781E+04  0.12699999809E+01 0.  1.
</event>
<event>
 5   0  0.9530268E-07  0.2477314E+04  0.7818609E-02  0.8411112E-01
       -1   -1    0    0    0  501  0.00000000000E+00  0.00000000000E+00  0.95284910829E+03  0.95284910831E+03  0.50400001928E-02 0. -1.
        1   -1    0    0  501    0  0.00000000000E+00  0.00000000000E+00 -0.16101927706E+04  0.16101927706E+04  0.50400001928E-02 0.  1.
    10030    2    1    2    0    0  0.00000000000E+00  0.00000000000E+00 -0.65734366232E+03  0.25630418789E+04  0.24773136626E+04 0.  0.
        5    1    3    3  502    0 -0.70918926838E+03 -0.89120888090E+02  0.71794622820E+03  0.10130946785E+04  0.46999998093E+01 0. -1.
       -5    1    3    3    0  502  0.70918926838E+03  0.89120888090E+02 -0.13752898905E+04  0.15499472004E+04  0.46999998093E+01 0.  1.
</event>
<event>
 5   0  0.9268670E-07  0.3245306E+04  0.7818609E-02  0.8176953E-01
        1   -1    0    0  501    0  0.00000000000E+00  0.00000000000E+00  0.17503948338E+04  0.17503948338E+04  0.50400001928E-02 0.  1.
       -1   -1    0    0    0  501  0.00000000000E+00  0.00000000000E+00 -0.15042340667E+04  0.15042340667E+04  0.50400001928E-02 0. -1.
    10030    2    1    2    0    0  0.00000000000E+00  0.00000000000E+00  0.24616076704E+03  0.32546289005E+04  0.32453064812E+04 0.  0.
        3    1    3    3  502    0  0.15939587543E+04 -0.25267341462E+03  0.29225153534E+03  0.16401095497E+04  0.10100000352E+00 0.  1.
       -3    1    3    3    0  502 -0.15939587543E+04  0.25267341462E+03 -0.46090768302E+02  0.16145193508E+04  0.10100000352E+00 0. -1.
</event>
<event>
 5   0  0.9530268E-07  0.3275797E+04  0.7818609E-02  0.8169081E-01
       -1   -1    0    0    0  501  0.00000000000E+00  0.00000000000E+00  0.16818249712E+04  0.16818249712E+04  0.50400001928E-02 0. -1.
        1   -1    0    0  501    0  0.00000000000E+00  0.00000000000E+00 -0.15951191552E+04  0.15951191552E+04  0.50400001928E-02 0.  1.
    10030    2    1    2    0    0  0.00000000000E+00  0.00000000000E+00  0.86705815982E+02  0.32769441263E+04  0.32757968357E+04 0.  0.
        5    1    3    3  502    0 -0.15201411328E+04 -0.56451892765E+03 -0.18733239685E+03  0.16323682796E+04  0.46999998093E+01 0.  1.
       -5    1    3    3    0  502  0.15201411328E+04  0.56451892765E+03  0.27403821284E+03  0.16445758467E+04  0.46999998093E+01 0. -1.
</event>
<event>
 5   0  0.2614212E-06  0.2698393E+04  0.7818609E-02  0.8335527E-01
        2   -1    0    0  501    0  0.00000000000E+00  0.00000000000E+00  0.28258988934E+04  0.28258988935E+04  0.25500000920E-02 0.  1.
       -2   -1    0    0    0  501  0.00000000000E+00  0.00000000000E+00 -0.64415986632E+03  0.64415986633E+03  0.25500000920E-02 0. -1.
    10030    2    1    2    0    0  0.00000000000E+00  0.00000000000E+00  0.21817390271E+04  0.34700587598E+04  0.26983925982E+04 0.  0.
        2    1    3    3  502    0  0.11854102345E+04 -0.18861321925E+03  0.29860367759E+03  0.12369060299E+04  0.25500000920E-02 0.  1.
       -2    1    3    3    0  502 -0.11854102345E+04  0.18861321925E+03  0.18831353495E+04  0.22331527299E+04  0.25500000920E-02 0. -1.
</event>
<event>
 5   0  0.2674551E-06  0.3235806E+04  0.7818609E-02  0.8179424E-01
       -2   -1    0    0    0  501  0.00000000000E+00  0.00000000000E+00  0.18258415445E+04  0.18258415445E+04  0.25500000920E-02 0.  1.
        2   -1    0    0  501    0  0.00000000000E+00  0.00000000000E+00 -0.14336459950E+04  0.14336459950E+04  0.25500000920E-02 0. -1.
    10030    2    1    2    0    0  0.00000000000E+00  0.00000000000E+00  0.39219554947E+03  0.32594875396E+04  0.32358061857E+04 0.  0.
        3    1    3    3  502    0  0.98247357847E+03 -0.82512006262E+03 -0.79677955175E+03  0.15102765026E+04  0.10100000352E+00 0. -1.
       -3    1    3    3    0  502 -0.98247357847E+03  0.82512006262E+03  0.11889751012E+04  0.17492110369E+04  0.10100000352E+00 0.  1.
</event>
<event>
 5   0  0.2674551E-06  0.3398883E+04  0.7818609E-02  0.8138180E-01
        2   -1    0    0  501    0  0.00000000000E+00  0.00000000000E+00  0.19568114156E+04  0.19568114156E+04  0.25500000920E-02 0. -1.
       -2   -1    0    0    0  501  0.00000000000E+00  0.00000000000E+00 -0.14759226297E+04  0.14759226297E+04  0.25500000920E-02 0.  1.
    10030    2    1    2    0    0  0.00000000000E+00  0.00000000000E+00  0.48088878591E+03  0.34327340453E+04  0.33988834933E+04 0.  0.
        3    1    3    3  502    0 -0.11704978929E+04  0.44410168061E+03 -0.92026675422E+03  0.15537639876E+04  0.10100000352E+00 0.  1.
       -3    1    3    3    0  502  0.11704978929E+04 -0.44410168061E+03  0.14011555401E+04  0.18789700577E+04  0.10100000352E+00 0. -1.
</event>
<event>
 5   0  0.8705956E-07  0.3252066E+04  0.7818609E-02  0.8175200E-01
       -1   -1    0    0    0  501  0.00000000000E+00  0.00000000000E+00  0.94365191172E+03  0.94365191173E+03  0.50400001928E-02 0.  1.
        1   -1    0    0  501    0  0.00000000000E+00  0.00000000000E+00 -0.28018634545E+04  0.28018634545E+04  0.50400001928E-02 0. -1.
    10030    2    1    2    0    0  0.00000000000E+00  0.00000000000E+00 -0.18582115427E+04  0.37455153662E+04  0.32520663002E+04 0.  0.
        2    1    3    3  502    0  0.12914428037E+04 -0.46660179788E+03  0.73923008592E+02  0.13751386709E+04  0.25500000920E-02 0.  1.
       -2    1    3    3    0  502 -0.12914428037E+04  0.46660179788E+03 -0.19321345513E+04  0.23703766953E+04  0.25500000920E-02 0. -1.
</event>
<event>
 5   0  0.2574803E-06  0.3287681E+04  0.7818609E-02  0.8166037E-01
       -2   -1    0    0    0  501  0.00000000000E+00  0.00000000000E+00  0.10087208780E+04  0.10087208780E+04  0.25500000920E-02 0.  1.
        2   -1    0    0  501    0  0.00000000000E+00  0.00000000000E+00 -0.26788498653E+04  0.26788498653E+04  0.25500000920E-02 0. -1.
    10030    2    1    2    0    0  0.00000000000E+00  0.00000000000E+00 -0.16701289873E+04  0.36875707434E+04  0.32876811210E+04 0.  0.
        4    1    3    3  502    0 -0.10748348912E+04 -0.12066022497E+04 -0.11735136019E+04  0.19970715608E+04  0.12699999809E+01 0.  1.
       -4    1    3    3    0  502  0.10748348912E+04  0.12066022497E+04 -0.49661538545E+03  0.16904991826E+04  0.12699999809E+01 0. -1.
</event>
<event>
 5   0  0.2674551E-06  0.3021459E+04  0.7818609E-02  0.8237630E-01
        2   -1    0    0  501    0  0.00000000000E+00  0.00000000000E+00  0.10395203928E+04  0.10395203928E+04  0.25500000920E-02 0.  1.
       -2   -1    0    0    0  501  0.00000000000E+00  0.00000000000E+00 -0.21955347002E+04  0.21955347002E+04  0.25500000920E-02 0. -1.
    10030    2    1    2    0    0  0.00000000000E+00  0.00000000000E+00 -0.11560143074E+04  0.32350550930E+04  0.30214586504E+04 0.  0.
        3    1    3    3  502    0 -0.19227045887E+03  0.14756749778E+04 -0.85663129117E+03  0.17170910717E+04  0.10100000352E+00 0. -1.
       -3    1    3    3    0  502  0.19227045887E+03 -0.14756749778E+04 -0.29938301620E+03  0.15179640213E+04  0.10100000352E+00 0.  1.
</event>
<event>
 5   0  0.2674551E-06  0.3355682E+04  0.7818609E-02  0.8148870E-01
       -2   -1    0    0    0  501  0.00000000000E+00  0.00000000000E+00  0.14045088936E+04  0.14045088936E+04  0.25500000920E-02 0. -1.
        2   -1    0    0  501    0  0.00000000000E+00  0.00000000000E+00 -0.20043661188E+04  0.20043661188E+04  0.25500000920E-02 0.  1.
    10030    2    1    2    0    0  0.00000000000E+00  0.00000000000E+00 -0.59985722522E+03  0.34088750125E+04  0.33556817727E+04 0.  0.
        3    1    3    3  502    0  0.13234468575E+04  0.10312433253E+04 -0.31339196711E+03  0.17068066428E+04  0.10100000352E+00 0. -1.
       -3    1    3    3    0  502 -0.13234468575E+04 -0.10312433253E+04 -0.28646525811E+03  0.17020683697E+04  0.10100000352E+00 0.  1.
</event>
<event>
 5   0  0.2674551E-06  0.3309024E+04  0.7818609E-02  0.8160603E-01
       -2   -1    0    0    0  501  0.00000000000E+00  0.00000000000E+00  0.12990561456E+04  0.12990561456E+04  0.25500000920E-02 0. -1.
        2   -1    0    0  501    0  0.00000000000E+00  0.00000000000E+00 -0.21072293755E+04  0.21072293755E+04  0.25500000920E-02 0.  1.
    10030    2    1    2    0    0  0.00000000000E+00  0.00000000000E+00 -0.80817322994E+03  0.34062855211E+04  0.33090235843E+04 0.  0.
        3    1    3    3  502    0 -0.10671122989E+04  0.11697705776E+04 -0.89810664544E+03  0.18203536523E+04  0.10100000352E+00 0.  1.
       -3    1    3    3    0  502  0.10671122989E+04 -0.11697705776E+04  0.89933415492E+02  0.15859318687E+04  0.10100000352E+00 0. -1.
</event>
<event>
 5   0  0.2658600E-06  0.3071176E+04  0.7818609E-02  0.8223693E-01
       -2   -1    0    0    0  501  0.00000000000E+00  0.00000000000E+00  0.99546655948E+03  0.99546655949E+03  0.25500000920E-02 0.  1.
        2   -1    0    0  501    0  0.00000000000E+00  0.00000000000E+00 -0.23687691682E+04  0.23687691682E+04  0.25500000920E-02 0. -1.
    10030    2    1    2    0    0  0.00000000000E+00  0.00000000000E+00 -0.13733026087E+04  0.33642357276E+04  0.30711759924E+04 0.  0.
        5    1    3    3  502    0  0.63667707352E+03 -0.65659899818E+03 -0.20378578955E+04  0.22336890636E+04  0.46999998093E+01 0. -1.
       -5    1    3    3    0  502 -0.63667707352E+03  0.65659899818E+03  0.66455528686E+03  0.11305466641E+04  0.46999998093E+01 0.  1.
</event>
<event>
 5   0  0.9268670E-07  0.3316866E+04  0.7818609E-02  0.8158617E-01
       -1   -1    0    0    0  501  0.00000000000E+00  0.00000000000E+00  0.20618865785E+04  0.20618865785E+04  0.50400001928E-02 0. -1.
        1   -1    0    0  501    0  0.00000000000E+00  0.00000000000E+00 -0.13339239044E+04  0.13339239044E+04  0.50400001928E-02 0.  1.
    10030    2    1    2    0    0  0.00000000000E+00  0.00000000000E+00  0.72796267410E+03  0.33958104829E+04  0.33168658671E+04 0.  0.
        3    1    3    3  502    0 -0.16677509309E+03  0.97052304528E+03 -0.10021968999E+04  0.14050364940E+04  0.10100000352E+00 0.  1.
       -3    1    3    3    0  502  0.16677509309E+03 -0.97052304528E+03  0.17301595740E+04  0.19907739889E+04  0.10100000352E+00 0. -1.
</event>
<event>
 5   0  0.8705956E-07  0.3288596E+04  0.7818609E-02  0.8165803E-01
       -1   -1    0    0    0  501  0.00000000000E+00  0.00000000000E+00  0.18989553872E+04  0.18989553872E+04  0.50400001928E-02 0. -1.
        1   -1    0    0  501    0  0.00000000000E+00  0.00000000000E+00 -0.14237907686E+04  0.14237907687E+04  0.50400001928E-02 0.  1.
    10030    2    1    2    0    0  0.00000000000E+00  0.00000000000E+00  0.47516461855E+03  0.33227461559E+04  0.32885955363E+04 0.  0.
        2    1    3    3  502    0 -0.38955699584E+03  0.11123608279E+04  0.13960550227E+04  0.18270388312E+04  0.25500000920E-02 0. -1.
       -2    1    3    3    0  502  0.38955699584E+03 -0.11123608279E+04 -0.92089040417E+03  0.14957073246E+04  0.25500000920E-02 0.  1.
</event>
<event>
 5   0  0.9295663E-07  0.3164229E+04  0.7818609E-02  0.8198329E-01
        1   -1    0    0  501    0  0.00000000000E+00  0.00000000000E+00  0.17301616270E+04  0.17301616270E+04  0.50400001928E-02 0. -1.
       -1   -1    0    0    0  501  0.00000000000E+00  0.00000000000E+00 -0.14467356975E+04  0.14467356975E+04  0.50400001928E-02 0.  1.
    10030    2    1    2    0    0  0.00000000000E+00  0.00000000000E+00  0.28342592950E+03  0.31768973245E+04  0.31642291878E+04 0.  0.
        4    1    3    3  502    0  0.24569060559E+02  0.12606531700E+04  0.11011721431E+04  0.16740465213E+04  0.12699999809E+01 0. -1.
       -4    1    3    3    0  502 -0.24569060559E+02 -0.12606531700E+04 -0.81774621362E+03  0.15028508032E+04  0.12699999809E+01 0.  1.
</event>
<event>
 5   0  0.2674551E-06  0.3296271E+04  0.7818609E-02  0.8163845E-01
       -2   -1    0    0    0  501  0.00000000000E+00  0.00000000000E+00  0.15400287165E+04  0.15400287165E+04  0.25500000920E-02 0. -1.
        2   -1    0    0  501    0  0.00000000000E+00  0.00000000000E+00 -0.17638306612E+04  0.17638306612E+04  0.25500000920E-02 0.  1.
    10030    2    1    2    0    0  0.00000000000E+00  0.00000000000E+00 -0.22380194473E+03  0.33038593777E+04  0.32962705406E+04 0.  0.
        3    1    3    3  502    0  0.25691755994E+03 -0.36834857879E+03 -0.17013205647E+04  0.17595962554E+04  0.10100000352E+00 0.  1.
       -3    1    3    3    0  502 -0.25691755994E+03  0.36834857879E+03  0.14775186200E+04  0.15442631222E+04  0.10100000352E+00 0. -1.
</event>
<event>
 5   0  0.2674551E-06  0.3233451E+04  0.7818609E-02  0.8180038E-01
       -2   -1    0    0    0  501  0.00000000000E+00  0.00000000000E+00  0.17744872419E+04  0.17744872419E+04  0.25500000920E-02 0.  1.
        2   -1    0    0  501    0  0.00000000000E+00  0.00000000000E+00 -0.14729892758E+04  0.14729892758E+04  0.25500000920E-02 0. -1.
    10030    2    1    2    0    0  0.00000000000E+00  0.00000000000E+00  0.30149796613E+03  0.32474765177E+04  0.32334505887E+04 0.  0.
        3    1    3    3  502    0 -0.90332678376E+03  0.71121892783E+03 -0.99082967639E+03  0.15177533065E+04  0.10100000352E+00 0.  1.
       -3    1    3    3    0  502  0.90332678376E+03 -0.71121892783E+03  0.12923276425E+04  0.17297232112E+04  0.10100000352E+00 0. -1.
</event>
<event>
 5   0  0.2705859E-06  0.3297393E+04  0.7818609E-02  0.8163559E-01
       -2   -1    0    0    0  501  0.00000000000E+00  0.00000000000E+00  0.20018769387E+04  0.20018769387E+04  0.25500000920E-02 0.  1.
        2   -1    0    0  501    0  0.00000000000E+00  0.00000000000E+00 -0.13578261895E+04  0.13578261895E+04  0.25500000920E-02 0. -1.
    10030    2    1    2    0    0  0.00000000000E+00  0.00000000000E+00  0.64405074922E+03  0.33597031283E+04  0.32973934771E+04 0.  0.
        1    1    3    3  502    0 -0.61256008275E+02  0.11829901337E+04  0.14904217344E+04  0.19038316368E+04  0.50400001928E-02 0.  1.
       -1    1    3    3    0  502  0.61256008275E+02 -0.11829901337E+04 -0.84637098519E+03  0.14558714914E+04  0.50400001928E-02 0. -1.
</event>
<event>
 5   0  0.8845526E-07  0.3296001E+04  0.7818609E-02  0.8163914E-01
       -1   -1    0    0    0  501  0.00000000000E+00  0.00000000000E+00  0.19891246117E+04  0.19891246117E+04  0.50400001928E-02 0. -1.
        1   -1    0    0  501    0  0.00000000000E+00  0.00000000000E+00 -0.13653775155E+04  0.13653775155E+04  0.50400001928E-02 0.  1.
    10030    2    1    2    0    0  0.00000000000E+00  0.00000000000E+00  0.62374709617E+03  0.33545021272E+04  0.32960012260E+04 0.  0.
        1    1    3    3  502    0 -0.22518566164E+03 -0.31252854218E+03  0.19426630531E+04  0.19804853975E+04  0.50400001928E-02 0. -1.
       -1    1    3    3    0  502  0.22518566164E+03  0.31252854218E+03 -0.13189159570E+04  0.13740167297E+04  0.50400001928E-02 0.  1.
</event>
<event>
 5   0  0.2614212E-06  0.3312127E+04  0.7818609E-02  0.8159817E-01
        2   -1    0    0  501    0  0.00000000000E+00  0.00000000000E+00  0.23329394489E+04  0.23329394489E+04  0.25500000920E-02 0.  1.
       -2   -1    0    0    0  501  0.00000000000E+00  0.00000000000E+00 -0.11755750856E+04  0.11755750856E+04  0.25500000920E-02 0. -1.
    10030    2    1    2    0    0  0.00000000000E+00  0.00000000000E+00  0.11573643633E+04  0.35085145345E+04  0.33121265026E+04 0.  0.
        2    1    3    3  502    0 -0.64714494074E+03  0.80428470463E+03 -0.79304174294E+03  0.13017625231E+04  0.25500000920E-02 0. -1.
       -2    1    3    3    0  502  0.64714494074E+03 -0.80428470463E+03  0.19504061063E+04  0.22067520114E+04  0.25500000920E-02 0.  1.
</event>
<event>
 5   0  0.2674551E-06  0.3267555E+04  0.7818609E-02  0.8171200E-01
       -2   -1    0    0    0  501  0.00000000000E+00  0.00000000000E+00  0.21396100333E+04  0.21396100333E+04  0.25500000920E-02 0. -1.
        2   -1    0    0  501    0  0.00000000000E+00  0.00000000000E+00 -0.12475303383E+04  0.12475303383E+04  0.25500000920E-02 0.  1.
    10030    2    1    2    0    0  0.00000000000E+00  0.00000000000E+00  0.89207969497E+03  0.33871403716E+04  0.32675546996E+04 0.  0.
        3    1    3    3  502    0  0.96400140476E+03  0.88565957007E+03  0.14593305218E+04  0.19604431041E+04  0.10100000352E+00 0. -1.
       -3    1    3    3    0  502 -0.96400140476E+03 -0.88565957007E+03 -0.56725082678E+03  0.14266972675E+04  0.10100000352E+00 0.  1.
</event>
<event>
 5   0  0.8845526E-07  0.3281971E+04  0.7818609E-02  0.8167498E-01
        1   -1    0    0  501    0  0.00000000000E+00  0.00000000000E+00  0.16367472293E+04  0.16367472293E+04  0.50400001928E-02 0.  1.
       -1   -1    0    0    0  501  0.00000000000E+00  0.00000000000E+00 -0.16452343915E+04  0.16452343915E+04  0.50400001928E-02 0. -1.
    10030    2    1    2    0    0  0.00000000000E+00  0.00000000000E+00 -0.84871621941E+01  0.32819816208E+04  0.32819706469E+04 0.  0.
        1    1    3    3  502    0  0.11457180135E+03  0.20753241448E+03 -0.16280212947E+04  0.16451898786E+04  0.50400001928E-02 0. -1.
       -1    1    3    3    0  502 -0.11457180135E+03 -0.20753241448E+03  0.16195341325E+04  0.16367917421E+04  0.50400001928E-02 0.  1.
</event>
<event>
 5   0  0.2574803E-06  0.3314306E+04  0.7818609E-02  0.8159265E-01
        2   -1    0    0  501    0  0.00000000000E+00  0.00000000000E+00  0.15234321378E+04  0.15234321378E+04  0.25500000920E-02 0. -1.
       -2   -1    0    0    0  501  0.00000000000E+00  0.00000000000E+00 -0.18026115236E+04  0.18026115236E+04  0.25500000920E-02 0.  1.
    10030    2    1    2    0    0  0.00000000000E+00  0.00000000000E+00 -0.27917938582E+03  0.33260436614E+04  0.33143061578E+04 0.  0.
        4    1    3    3  502    0  0.54963715376E+03 -0.33785083503E+02 -0.17081067962E+04  0.17946790445E+04  0.12699999809E+01 0.  1.
       -4    1    3    3    0  502 -0.54963715376E+03  0.33785083503E+02  0.14289274104E+04  0.15313646169E+04  0.12699999809E+01 0. -1.
</event>
<event>
 5   0  0.8520125E-07  0.3266509E+04  0.7818609E-02  0.8171470E-01
        3   -1    0    0  501    0  0.00000000000E+00  0.00000000000E+00  0.16207863857E+04  0.16207863888E+04  0.10100000352E+00 0.  1.
       -3   -1    0    0    0  501  0.00000000000E+00  0.00000000000E+00 -0.16458181940E+04  0.16458181971E+04  0.10100000352E+00 0. -1.
    10030    2    1    2    0    0  0.00000000000E+00  0.00000000000E+00 -0.25031808331E+02  0.32666045860E+04  0.32665086759E+04 0.  0.
        3    1    3    3  502    0  0.40044075351E+03 -0.29527741601E+01  0.15709314227E+04  0.16211684246E+04  0.10100000352E+00 0.  1.
       -3    1    3    3    0  502 -0.40044075351E+03  0.29527741601E+01 -0.15959632310E+04  0.16454361613E+04  0.10100000352E+00 0. -1.
</event>
<event>
 5   0  0.2658600E-06  0.3271160E+04  0.7818609E-02  0.8170273E-01
       -2   -1    0    0    0  501  0.00000000000E+00  0.00000000000E+00  0.11654236176E+04  0.11654236176E+04  0.25500000920E-02 0. -1.
        2   -1    0    0  501    0  0.00000000000E+00  0.00000000000E+00 -0.22954068177E+04  0.22954068177E+04  0.25500000920E-02 0.  1.
    10030    2    1    2    0    0  0.00000000000E+00  0.00000000000E+00 -0.11299832002E+04  0.34608304353E+04  0.32711596215E+04 0.  0.
        5    1    3    3  502    0  0.12761257643E+04 -0.44908880956E+03 -0.15374852315E+04  0.20479405880E+04  0.46999998093E+01 0.  1.
       -5    1    3    3    0  502 -0.12761257643E+04  0.44908880956E+03  0.40750203129E+03  0.14128898473E+04  0.46999998093E+01 0. -1.
</event>
<event>
 5   0  0.2574803E-06  0.3280995E+04  0.7818609E-02  0.8167748E-01
       -2   -1    0    0    0  501  0.00000000000E+00  0.00000000000E+00  0.12610024666E+04  0.12610024666E+04  0.25500000920E-02 0.  1.
        2   -1    0    0  501    0  0.00000000000E+00  0.00000000000E+00 -0.21342004512E+04  0.21342004512E+04  0.25500000920E-02 0. -1.
    10030    2    1    2    0    0  0.00000000000E+00  0.00000000000E+00 -0.87319798465E+03  0.33952029178E+04  0.32809949912E+04 0.  0.
        4    1    3    3  502    0  0.16190732686E+04  0.25498294556E+03 -0.36478691637E+03  0.16791324126E+04  0.12699999809E+01 0. -1.
       -4    1    3    3    0  502 -0.16190732686E+04 -0.25498294556E+03 -0.50841106828E+03  0.17160705052E+04  0.12699999809E+01 0.  1.
</event>
<event>
 5   0  0.2674551E-06  0.3282945E+04  0.7818609E-02  0.8167249E-01
        2   -1    0    0  501    0  0.00000000000E+00  0.00000000000E+00  0.24559560841E+04  0.24559560841E+04  0.25500000920E-02 0.  1.
       -2   -1    0    0    0  501  0.00000000000E+00  0.00000000000E+00 -0.10971009443E+04  0.10971009443E+04  0.25500000920E-02 0. -1.
    10030    2    1    2    0    0  0.00000000000E+00  0.00000000000E+00  0.13588551398E+04  0.35530570284E+04  0.32829448603E+04 0.  0.
        3    1    3    3  502    0 -0.15388531717E+04  0.44652641729E+03  0.29377095506E+03  0.16290353923E+04  0.10100000352E+00 0. -1.
       -3    1    3    3    0  502  0.15388531717E+04 -0.44652641729E+03  0.10650841847E+04  0.19240216361E+04  0.10100000352E+00 0.  1.
</event>
<event>
 5   0  0.2674551E-06  0.3407335E+04  0.7818609E-02  0.8136108E-01
        2   -1    0    0  501    0  0.00000000000E+00  0.00000000000E+00  0.23813135906E+04  0.23813135906E+04  0.25500000920E-02 0. -1.
       -2   -1    0    0    0  501  0.00000000000E+00  0.00000000000E+00 -0.12188578151E+04  0.12188578151E+04  0.25500000920E-02 0.  1.
    10030    2    1    2    0    0  0.00000000000E+00  0.00000000000E+00  0.11624557755E+04  0.36001714057E+04  0.34073348412E+04 0.  0.
        3    1    3    3  502    0  0.38866005202E+03 -0.84331185300E+03 -0.92798387016E+03  0.13127778148E+04  0.10100000352E+00 0.  1.
       -3    1    3    3    0  502 -0.38866005202E+03  0.84331185300E+03  0.20904396457E+04  0.22873935909E+04  0.10100000352E+00 0. -1.
</event>
<event>
 5   0  0.2574803E-06  0.3346430E+04  0.7818609E-02  0.8151181E-01
        2   -1    0    0  501    0  0.00000000000E+00  0.00000000000E+00  0.11595202331E+04  0.11595202331E+04  0.25500000920E-02 0. -1.
       -2   -1    0    0    0  501  0.00000000000E+00  0.00000000000E+00 -0.24144880911E+04  0.24144880911E+04  0.25500000920E-02 0.  1.
    10030    2    1    2    0    0  0.00000000000E+00  0.00000000000E+00 -0.12549678580E+04  0.35740083241E+04  0.33464296162E+04 0.  0.
        4    1    3    3  502    0 -0.67642722044E+03  0.51063667070E+03  0.91331387153E+03  0.12459724856E+04  0.12699999809E+01 0. -1.
       -4    1    3    3    0  502  0.67642722044E+03 -0.51063667070E+03 -0.21682817295E+04  0.23280358385E+04  0.12699999809E+01 0.  1.
</event>
<event>
 5   0  0.2674551E-06  0.3317857E+04  0.7818609E-02  0.8158367E-01
       -2   -1    0    0    0  501  0.00000000000E+00  0.00000000000E+00  0.23506065990E+04  0.23506065990E+04  0.25500000920E-02 0. -1.
        2   -1    0    0  501    0  0.00000000000E+00  0.00000000000E+00 -0.11707800149E+04  0.11707800149E+04  0.25500000920E-02 0.  1.
    10030    2    1    2    0    0  0.00000000000E+00  0.00000000000E+00  0.11798265841E+04  0.35213866138E+04  0.33178566750E+04 0.  0.
        3    1    3    3  502    0  0.92869608341E+03  0.12980445959E+04  0.10978332722E+03  0.15998276712E+04  0.10100000352E+00 0.  1.
       -3    1    3    3    0  502 -0.92869608341E+03 -0.12980445959E+04  0.10700432569E+04  0.19215589427E+04  0.10100000352E+00 0. -1.
</event>
<event>
 5   0  0.9530268E-07  0.3203626E+04  0.7818609E-02  0.8187860E-01
        1   -1    0    0  501    0  0.00000000000E+00  0.00000000000E+00  0.24250667305E+04  0.24250667305E+04  0.50400001928E-02 0.  1.
       -1   -1    0    0    0  501  0.00000000000E+00  0.00000000000E+00 -0.10580345670E+04  0.10580345670E+04  0.50400001928E-02 0. -1.
    10030    2    1    2    0    0  0.00000000000E+00  0.00000000000E+00  0.13670321636E+04  0.34831012975E+04  0.32036257135E+04 0.  0.
        5    1    3    3  502    0 -0.10893883497E+04 -0.36453483546E+03  0.18972010145E+04  0.22178923333E+04  0.46999998093E+01 0.  1.
       -5    1    3    3    0  502  0.10893883497E+04  0.36453483546E+03 -0.53016885089E+03  0.12652089642E+04  0.46999998093E+01 0. -1.
</event>
<event>
 5   0  0.2705859E-06  0.3261141E+04  0.7818609E-02  0.8172854E-01
        2   -1    0    0  501    0  0.00000000000E+00  0.00000000000E+00  0.11292603856E+04  0.11292603856E+04  0.25500000920E-02 0.  1.
       -2   -1    0    0    0  501  0.00000000000E+00  0.00000000000E+00 -0.23544261731E+04  0.23544261732E+04  0.25500000920E-02 0. -1.
    10030    2    1    2    0    0  0.00000000000E+00  0.00000000000E+00 -0.12251657875E+04  0.34836865588E+04  0.32611410324E+04 0.  0.
        1    1    3    3  502    0 -0.31902457537E+03  0.10119049214E+04 -0.19352333811E+04  0.22070016967E+04  0.50400001928E-02 0. -1.
       -1    1    3    3    0  502  0.31902457537E+03 -0.10119049214E+04  0.71006759361E+03  0.12766848621E+04  0.50400001928E-02 0.  1.
</event>
<event>
 5   0  0.9268670E-07  0.3091891E+04  0.7818609E-02  0.8217967E-01
        1   -1    0    0  501    0  0.00000000000E+00  0.00000000000E+00  0.20154750685E+04  0.20154750685E+04  0.50400001928E-02 0. -1.
       -1   -1    0    0    0  501  0.00000000000E+00  0.00000000000E+00 -0.11857984197E+04  0.11857984197E+04  0.50400001928E-02 0.  1.
    10030    2    1    2    0    0  0.00000000000E+00  0.00000000000E+00  0.82967664879E+03  0.32012734881E+04  0.30918907814E+04 0.  0.
        3    1    3    3  502    0 -0.54407013934E+03 -0.11319944998E+03 -0.10788062614E+04  0.12135276642E+04  0.10100000352E+00 0.  1.
       -3    1    3    3    0  502  0.54407013934E+03  0.11319944998E+03  0.19084829102E+04  0.19877458239E+04  0.10100000352E+00 0. -1.
</event>
<event>
 5   0  0.2574803E-06  0.3315909E+04  0.7818609E-02  0.8158859E-01
        2   -1    0    0  501    0  0.00000000000E+00  0.00000000000E+00  0.21269967969E+04  0.21269967969E+04  0.25500000920E-02 0.  1.
       -2   -1    0    0    0  501  0.00000000000E+00  0.00000000000E+00 -0.12923444390E+04  0.12923444390E+04  0.25500000920E-02 0. -1.
    10030    2    1    2    0    0  0.00000000000E+00  0.00000000000E+00  0.83465235788E+03  0.34193412358E+04  0.33159086128E+04 0.  0.
        4    1    3    3  502    0 -0.71505695389E+03 -0.95965122432E+03  0.16005380541E+04  0.19984895785E+04  0.12699999809E+01 0.  1.
       -4    1    3    3    0  502  0.71505695389E+03  0.95965122432E+03 -0.76588569624E+03  0.14208516574E+04  0.12699999809E+01 0. -1.
</event>
<event>
 5   0  0.2574803E-06  0.3280366E+04  0.7818609E-02  0.8167909E-01
        2   -1    0    0  501    0  0.00000000000E+00  0.00000000000E+00  0.29285836293E+04  0.29285836293E+04  0.25500000920E-02 0.  1.
       -2   -1    0    0    0  501  0.00000000000E+00  0.00000000000E+00 -0.91860104731E+03  0.91860104731E+03  0.25500000920E-02 0. -1.
    10030    2    1    2    0    0  0.00000000000E+00  0.00000000000E+00  0.20099825820E+04  0.38471846766E+04  0.32803658266E+04 0.  0.
        4    1    3    3  502    0  0.42567014544E+03  0.14544905037E+04  0.26934097917E+03  0.15392478273E+04  0.12699999809E+01 0.  1.
       -4    1    3    3    0  502 -0.42567014544E+03 -0.14544905037E+04  0.17406416028E+04  0.23079368493E+04  0.12699999809E+01 0. -1.
</event>
<event>
 5   0  0.2574803E-06  0.3061898E+04  0.7818609E-02  0.8226273E-01
        2   -1    0    0  501    0  0.00000000000E+00  0.00000000000E+00  0.18479671648E+04  0.18479671648E+04  0.25500000920E-02 0.  1.
       -2   -1    0    0    0  501  0.00000000000E+00  0.00000000000E+00 -0.12683152662E+04  0.12683152662E+04  0.25500000920E-02 0. -1.
    10030    2    1    2    0    0  0.00000000000E+00  0.00000000000E+00  0.57965189858E+03  0.31162824310E+04  0.30618980823E+04 0.  0.
        4    1    3    3  502    0 -0.47041617337E+03  0.92679166570E+03 -0.85422560021E+03  0.13453390490E+04  0.12699999809E+01 0. -1.
       -4    1    3    3    0  502  0.47041617337E+03 -0.92679166570E+03  0.14338774988E+04  0.17709433820E+04  0.12699999809E+01 0.  1.
</event>
<event>
 5   0  0.2705859E-06  0.3407686E+04  0.7818609E-02  0.8136023E-01
        2   -1    0    0  501    0  0.00000000000E+00  0.00000000000E+00  0.27477491549E+04  0.27477491549E+04  0.25500000920E-02 0.  1.
       -2   -1    0    0    0  501  0.00000000000E+00  0.00000000000E+00 -0.10565303271E+04  0.10565303271E+04  0.25500000920E-02 0. -1.
    10030    2    1    2    0    0  0.00000000000E+00  0.00000000000E+00  0.16912188278E+04  0.38042794820E+04  0.34076856155E+04 0.  0.
        1    1    3    3  502    0 -0.10759559814E+04 -0.13210387332E+04  0.86346123100E+03  0.19100758901E+04  0.50400001928E-02 0. -1.
       -1    1    3    3    0  502  0.10759559814E+04  0.13210387332E+04  0.82775759683E+03  0.18942035919E+04  0.50400001928E-02 0.  1.
</event>
<event>
 5   0  0.9295663E-07  0.3131202E+04  0.7818609E-02  0.8207227E-01
        1   -1    0    0  501    0  0.00000000000E+00  0.00000000000E+00  0.10559384825E+04  0.10559384825E+04  0.50400001928E-02 0. -1.
       -1   -1    0    0    0  501  0.00000000000E+00  0.00000000000E+00 -0.23212582926E+04  0.23212582926E+04  0.50400001928E-02 0.  1.
    10030    2    1    2    0    0  0.00000000000E+00  0.00000000000E+00 -0.12653198100E+04  0.33771967751E+04  0.31312016601E+04 0.  0.
        4    1    3    3  502    0  0.26396110792E+03 -0.15056930613E+04 -0.26798886323E+03  0.15519686546E+04  0.12699999809E+01 0. -1.
       -4    1    3    3    0  502 -0.26396110792E+03  0.15056930613E+04 -0.99733094681E+03  0.18252281204E+04  0.12699999809E+01 0.  1.
</event>
<event>
 5   0  0.9530268E-07  0.3337390E+04  0.7818609E-02  0.8153446E-01
        1   -1    0    0  501    0  0.00000000000E+00  0.00000000000E+00  0.23621810600E+04  0.23621810600E+04  0.50400001928E-02 0.  1.
       -1   -1    0    0    0  501  0.00000000000E+00  0.00000000000E+00 -0.11788015129E+04  0.11788015129E+04  0.50400001928E-02 0. -1.
    10030    2    1    2    0    0  0.00000000000E+00  0.00000000000E+00  0.11833795471E+04  0.35409825729E+04  0.33373897628E+04 0.  0.
        5    1    3    3  502    0 -0.28888161493E+03 -0.15775908407E+04  0.10285020133E+03  0.16071234246E+04  0.46999998093E+01 0. -1.
       -5    1    3    3    0  502  0.28888161493E+03  0.15775908407E+04  0.10805293457E+04  0.19338591482E+04  0.46999998093E+01 0.  1.
</event>
<event>
 5   0  0.2574803E-06  0.3365166E+04  0.7818609E-02  0.8146509E-01
        2   -1    0    0  501    0  0.00000000000E+00  0.00000000000E+00  0.23359972770E+04  0.23359972770E+04  0.25500000920E-02 0. -1.
       -2   -1    0    0    0  501  0.00000000000E+00  0.00000000000E+00 -0.12119388487E+04  0.12119388487E+04  0.25500000920E-02 0.  1.
    10030    2    1    2    0    0  0.00000000000E+00  0.00000000000E+00  0.11240584283E+04  0.35479361256E+04  0.33651661774E+04 0.  0.
        4    1    3    3  502    0  0.81132549396E+03 -0.13230588742E+04  0.12472108744E+04  0.19910475684E+04  0.12699999809E+01 0. -1.
       -4    1    3    3    0  502 -0.81132549396E+03  0.13230588742E+04 -0.12315244608E+03  0.15568885572E+04  0.12699999809E+01 0.  1.
</event>
<event>
 5   0  0.2705859E-06  0.3341347E+04  0.7818609E-02  0.8152454E-01
       -2   -1    0    0    0  501  0.00000000000E+00  0.00000000000E+00  0.14535023924E+04  0.14535023924E+04  0.25500000920E-02 0. -1.
        2   -1    0    0  501    0  0.00000000000E+00  0.00000000000E+00 -0.19202921915E+04  0.19202921915E+04  0.25500000920E-02 0.  1.
    10030    2    1    2    0    0  0.00000000000E+00  0.00000000000E+00 -0.46678979912E+03  0.33737945839E+04  0.33413466114E+04 0.  0.
        1    1    3    3  502    0  0.23808902029E+03  0.16536040063E+04 -0.24099816996E+03  0.16879492614E+04  0.50400001928E-02 0.  1.
       -1    1    3    3    0  502 -0.23808902029E+03 -0.16536040063E+04 -0.22579162916E+03  0.16858453224E+04  0.50400001928E-02 0. -1.
</event>
<event>
 5   0  0.2614212E-06  0.3274256E+04  0.7818609E-02  0.8169477E-01
        2   -1    0    0  501    0  0.00000000000E+00  0.00000000000E+00  0.20354651247E+04  0.20354651247E+04  0.25500000920E-02 0.  1.
       -2   -1    0    0    0  501  0.00000000000E+00  0.00000000000E+00 -0.13167448300E+04  0.13167448300E+04  0.25500000920E-02 0. -1.
    10030    2    1    2    0    0  0.00000000000E+00  0.00000000000E+00  0.71872029469E+03  0.33522099548E+04  0.32742560558E+04 0.  0.
        2    1    3    3  502    0  0.14782215997E+04  0.45507784796E+03 -0.19002833738E+03  0.15583150242E+04  0.25500000920E-02 0.  1.
       -2    1    3    3    0  502 -0.14782215997E+04 -0.45507784796E+03  0.90874863207E+03  0.17938949306E+04  0.25500000920E-02 0. -1.
</event>
<event>
 5   0  0.2658600E-06  0.3271439E+04  0.7818609E-02  0.8170201E-01
       -2   -1    0    0    0  501  0.00000000000E+00  0.00000000000E+00  0.17215621994E+04  0.17215621994E+04  0.25500000920E-02 0. -1.
        2   -1    0    0  501    0  0.00000000000E+00  0.00000000000E+00 -0.15541570925E+04  0.15541570925E+04  0.25500000920E-02 0.  1.
    10030    2    1    2    0    0  0.00000000000E+00  0.00000000000E+00  0.16740510689E+03  0.32757192919E+04  0.32714388897E+04 0.  0.
        5    1    3    3  502    0  0.14283194627E+04  0.18910633180E+03 -0.69171259731E+03  0.15982321795E+04  0.46999998093E+01 0.  1.
       -5    1    3    3    0  502 -0.14283194627E+04 -0.18910633180E+03  0.85911770420E+03  0.16774871123E+04  0.46999998093E+01 0. -1.
</event>
<event>
 5   0  0.2614212E-06  0.3296702E+04  0.7818609E-02  0.8163735E-01
        2   -1    0    0  501    0  0.00000000000E+00  0.00000000000E+00  0.14987177156E+04  0.14987177156E+04  0.25500000920E-02 0. -1.
       -2   -1    0    0    0  501  0.00000000000E+00  0.00000000000E+00 -0.18129239174E+04  0.18129239174E+04  0.25500000920E-02 0.  1.
    10030    2    1    2    0    0  0.00000000000E+00  0.00000000000E+00 -0.31420620186E+03  0.33116416330E+04  0.32967021049E+04 0.  0.
        2    1    3    3  502    0 -0.16297375594E+03  0.12113115791E+04 -0.12681101223E+04  0.17612323722E+04  0.25500000920E-02 0.  1.
       -2    1    3    3    0  502  0.16297375594E+03 -0.12113115791E+04  0.95390392040E+03  0.15504092608E+04  0.25500000920E-02 0. -1.
</event>
<event>
 5   0  0.9268670E-07  0.3210562E+04  0.7818609E-02  0.8186033E-01
        1   -1    0    0  501    0  0.00000000000E+00  0.00000000000E+00  0.15664921860E+04  0.15664921860E+04  0.50400001928E-02 0. -1.
       -1   -1    0    0    0  501  0.00000000000E+00  0.00000000000E+00 -0.16450304176E+04  0.16450304176E+04  0.50400001928E-02 0.  1.
    10030    2    1    2    0    0  0.00000000000E+00  0.00000000000E+00 -0.78538231639E+02  0.32115226036E+04  0.32105621283E+04 0.  0.
        3    1    3    3  502    0 -0.19301370801E+03  0.52638396150E+03 -0.15439108939E+04  0.16425575256E+04  0.10100000352E+00 0.  1.
       -3    1    3    3    0  502  0.19301370801E+03 -0.52638396150E+03  0.14653726623E+04  0.15689650780E+04  0.10100000352E+00 0. -1.
</event>
<event>
 5   0  0.2705859E-06  0.3277359E+04  0.7818609E-02  0.8168680E-01
        2   -1    0    0  501    0  0.00000000000E+00  0.00000000000E+00  0.21791604502E+04  0.21791604502E+04  0.25500000920E-02 0.  1.
       -2   -1    0    0    0  501  0.00000000000E+00  0.00000000000E+00 -0.12322503448E+04  0.12322503448E+04  0.25500000920E-02 0. -1.
    10030    2    1    2    0    0  0.00000000000E+00  0.00000000000E+00  0.94691010549E+03  0.34114107950E+04  0.32773594347E+04 0.  0.
        1    1    3    3  502    0  0.23210368607E+03  0.75309091966E+03 -0.10220621901E+04  0.12905925673E+04  0.50400001928E-02 0. -1.
       -1    1    3    3    0  502 -0.23210368607E+03 -0.75309091966E+03  0.19689722955E+04  0.21208182277E+04  0.50400001928E-02 0.  1.
</event>
<event>
 5   0  0.8705956E-07  0.3067992E+04  0.7818609E-02  0.8224578E-01
       -1   -1    0    0    0  501  0.00000000000E+00  0.00000000000E+00  0.11570306117E+04  0.11570306117E+04  0.50400001928E-02 0.  1.
        1   -1    0    0  501    0  0.00000000000E+00  0.00000000000E+00 -0.20337780284E+04  0.20337780284E+04  0.50400001928E-02 0. -1.
    10030    2    1    2    0    0  0.00000000000E+00  0.00000000000E+00 -0.87674741669E+03  0.31908086401E+04  0.30679918098E+04 0.  0.
        2    1    3    3  502    0 -0.36931114668E+03  0.38044035968E+03 -0.19354478507E+04  0.20067595704E+04  0.25500000920E-02 0. -1.
       -2    1    3    3    0  502  0.36931114668E+03 -0.38044035968E+03  0.10587004341E+04  0.11840490697E+04  0.25500000920E-02 0.  1.
</event>
<event>
 5   0  0.9295663E-07  0.3256148E+04  0.7818609E-02  0.8174144E-01
        1   -1    0    0  501    0  0.00000000000E+00  0.00000000000E+00  0.23754610723E+04  0.23754610723E+04  0.50400001928E-02 0. -1.
       -1   -1    0    0    0  501  0.00000000000E+00  0.00000000000E+00 -0.11158357588E+04  0.11158357588E+04  0.50400001928E-02 0.  1.
    10030    2    1    2    0    0  0.00000000000E+00  0.00000000000E+00  0.12596253135E+04  0.34912968311E+04  0.32561476675E+04 0.  0.
        4    1    3    3  502    0  0.86767427483E+03 -0.79045268848E+03  0.18395417695E+04  0.21821066964E+04  0.12699999809E+01 0. -1.
       -4    1    3    3    0  502 -0.86767427483E+03  0.79045268848E+03 -0.57991645599E+03  0.13091901347E+04  0.12699999809E+01 0.  1.
</event>
<event>
 5   0  0.2674551E-06  0.2914890E+04  0.7818609E-02  0.8268461E-01
        2   -1    0    0  501    0  0.00000000000E+00  0.00000000000E+00  0.82048474500E+03  0.82048474501E+03  0.25500000920E-02 0.  1.
       -2   -1    0    0    0  501  0.00000000000E+00  0.00000000000E+00 -0.25888918911E+04  0.25888918911E+04  0.25500000920E-02 0. -1.
    10030    2    1    2    0    0  0.00000000000E+00  0.00000000000E+00 -0.17684071461E+04  0.34093766361E+04  0.29148902574E+04 0.  0.
        3    1    3    3  502    0  0.90900315397E+03  0.11030605504E+04 -0.55107747210E+03  0.15318993773E+04  0.10100000352E+00 0.  1.
       -3    1    3    3    0  502 -0.90900315397E+03 -0.11030605504E+04 -0.12173296740E+04  0.18774772588E+04  0.10100000352E+00 0. -1.
</event>
<event>
 5   0  0.2658600E-06  0.3339246E+04  0.7818609E-02  0.8152980E-01
        2   -1    0    0  501    0  0.00000000000E+00  0.00000000000E+00  0.19387939030E+04  0.19387939030E+04  0.25500000920E-02 0. -1.
       -2   -1    0    0    0  501  0.00000000000E+00  0.00000000000E+00 -0.14378225670E+04  0.14378225670E+04  0.25500000920E-02 0.  1.
    10030    2    1    2    0    0  0.00000000000E+00  0.00000000000E+00  0.50097133598E+03  0.33766164700E+04  0.33392463979E+04 0.  0.
        5    1    3    3  502    0 -0.65052640301E+03  0.15324547176E+04  0.12250915225E+03  0.16693210131E+04  0.46999998093E+01 0.  1.
       -5    1    3    3    0  502  0.65052640301E+03 -0.15324547176E+04  0.37846218374E+03  0.17072954568E+04  0.46999998093E+01 0. -1.
</event>
<event>
 5   0  0.2658600E-06  0.3406449E+04  0.7818609E-02  0.8136325E-01
        2   -1    0    0  501    0  0.00000000000E+00  0.00000000000E+00  0.12819506074E+04  0.12819506074E+04  0.25500000920E-02 0. -1.
       -2   -1    0    0    0  501  0.00000000000E+00  0.00000000000E+00 -0.22629367484E+04  0.22629367484E+04  0.25500000920E-02 0.  1.
    10030    2    1    2    0    0  0.00000000000E+00  0.00000000000E+00 -0.98098614107E+03  0.35448873558E+04  0.34064486722E+04 0.  0.
        5    1    3    3  502    0 -0.88547195855E+03  0.52951118519E+03 -0.19007461128E+04  0.21627067670E+04  0.46999998093E+01 0.  1.
       -5    1    3    3    0  502  0.88547195855E+03 -0.52951118519E+03  0.91975997171E+03  0.13821805888E+04  0.46999998093E+01 0. -1.
</event>
<event>
 5   0  0.2705859E-06  0.3247713E+04  0.7818609E-02  0.8176329E-01
        2   -1    0    0  501    0  0.00000000000E+00  0.00000000000E+00  0.15884490599E+04  0.15884490599E+04  0.25500000920E-02 0.  1.
       -2   -1    0    0    0  501  0.00000000000E+00  0.00000000000E+00 -0.16600527336E+04  0.16600527336E+04  0.25500000920E-02 0. -1.
    10030    2    1    2    0    0  0.00000000000E+00  0.00000000000E+00 -0.71603673747E+02  0.32485017935E+04  0.32477125514E+04 0.  0.
        1    1    3    3  502    0  0.24065975647E+03  0.13692755152E+03  0.15646629195E+04  0.15889733554E+04  0.50400001928E-02 0.  1.
       -1    1    3    3    0  502 -0.24065975647E+03 -0.13692755152E+03 -0.16362665932E+04  0.16595284381E+04  0.50400001928E-02 0. -1.
</event>
<event>
 5   0  0.9295663E-07  0.3322653E+04  0.7818609E-02  0.8157155E-01
       -1   -1    0    0    0  501  0.00000000000E+00  0.00000000000E+00  0.13697543102E+04  0.13697543102E+04  0.50400001928E-02 0.  1.
        1   -1    0    0  501    0  0.00000000000E+00  0.00000000000E+00 -0.20149639343E+04  0.20149639343E+04  0.50400001928E-02 0. -1.
    10030    2    1    2    0    0  0.00000000000E+00  0.00000000000E+00 -0.64520962414E+03  0.33847182446E+04  0.33226528762E+04 0.  0.
        4    1    3    3  502    0  0.10364571739E+04 -0.10270513737E+04 -0.11317505229E+04  0.18466019757E+04  0.12699999809E+01 0. -1.
       -4    1    3    3    0  502 -0.10364571739E+04  0.10270513737E+04  0.48654089875E+03  0.15381162689E+04  0.12699999809E+01 0.  1.
</event>
<event>
 5   0  0.8520125E-07  0.3342635E+04  0.7818609E-02  0.8152131E-01
       -3   -1    0    0    0  501  0.00000000000E+00  0.00000000000E+00  0.17486629951E+04  0.17486629980E+04  0.10100000352E+00 0.  1.
        3   -1    0    0  501    0  0.00000000000E+00  0.00000000000E+00 -0.15973926741E+04  0.15973926773E+04  0.10100000352E+00 0. -1.
    10030    2    1    2    0    0  0.00000000000E+00  0.00000000000E+00  0.15127032102E+03  0.33460556753E+04  0.33426345706E+04 0.  0.
        3    1    3    3  502    0 -0.61829339977E+03  0.15517259641E+04  0.19352514905E+02  0.16704833809E+04  0.10100000352E+00 0. -1.
       -3    1    3    3    0  502  0.61829339977E+03 -0.15517259641E+04  0.13191780611E+03  0.16755722944E+04  0.10100000352E+00 0.  1.
</event>
<event>
 5   0  0.2658600E-06  0.3696158E+04  0.7818609E-02  0.8068814E-01
        2   -1    0    0  501    0  0.00000000000E+00  0.00000000000E+00  0.21809629955E+04  0.21809629955E+04  0.25500000920E-02 0.  1.
       -2   -1    0    0    0  501  0.00000000000E+00  0.00000000000E+00 -0.15660034821E+04  0.15660034821E+04  0.25500000920E-02 0. -1.
    10030    2    1    2    0    0  0.00000000000E+00  0.00000000000E+00  0.61495951338E+03  0.37469664776E+04  0.36961578133E+04 0.  0.
        5    1    3    3  502    0 -0.38041072761E+03  0.36137372017E+03 -0.14889034449E+04  0.15786572920E+04  0.46999998093E+01 0. -1.
       -5    1    3    3    0  502  0.38041072761E+03 -0.36137372017E+03  0.21038629582E+04  0.21683091856E+04  0.46999998093E+01 0.  1.
</event>
<event>
 5   0  0.2614212E-06  0.3279821E+04  0.7818609E-02  0.8168049E-01
       -2   -1    0    0    0  501  0.00000000000E+00  0.00000000000E+00  0.10619591000E+04  0.10619591000E+04  0.25500000920E-02 0.  1.
        2   -1    0    0  501    0  0.00000000000E+00  0.00000000000E+00 -0.25324007517E+04  0.25324007517E+04  0.25500000920E-02 0. -1.
    10030    2    1    2    0    0  0.00000000000E+00  0.00000000000E+00 -0.14704416517E+04  0.35943598517E+04  0.32798207409E+04 0.  0.
        2    1    3    3  502    0  0.58662747305E+03 -0.15228294600E+04 -0.55795335361E+03  0.17246603437E+04  0.25500000920E-02 0. -1.
       -2    1    3    3    0  502 -0.58662747305E+03  0.15228294600E+04 -0.91248829810E+03  0.18696995080E+04  0.25500000920E-02 0.  1.
</event>
<event>
 5   0  0.2674551E-06  0.3264348E+04  0.7818609E-02  0.8172027E-01
       -2   -1    0    0    0  501  0.00000000000E+00  0.00000000000E+00  0.12147460576E+04  0.12147460576E+04  0.25500000920E-02 0.  1.
        2   -1    0    0  501    0  0.00000000000E+00  0.00000000000E+00 -0.21930447843E+04  0.21930447843E+04  0.25500000920E-02 0. -1.
    10030    2    1    2    0    0  0.00000000000E+00  0.00000000000E+00 -0.97829872673E+03  0.34077908419E+04  0.32643483306E+04 0.  0.
        3    1    3    3  502    0  0.28607766734E+03  0.35626554230E+03  0.11466206995E+04  0.12343032881E+04  0.10100000352E+00 0.  1.
       -3    1    3    3    0  502 -0.28607766734E+03 -0.35626554230E+03 -0.21249194262E+04  0.21734875538E+04  0.10100000352E+00 0. -1.
</event>
<event>
 5   0  0.8845526E-07  0.3307268E+04  0.7818609E-02  0.8161049E-01
        1   -1    0    0  501    0  0.00000000000E+00  0.00000000000E+00  0.17349432397E+04  0.17349432397E+04  0.50400001928E-02 0. -1.
       -1   -1    0    0    0  501  0.00000000000E+00  0.00000000000E+00 -0.15761350157E+04  0.15761350157E+04  0.50400001928E-02 0.  1.
    10030    2    1    2    0    0  0.00000000000E+00  0.00000000000E+00  0.15880822399E+03  0.33110782554E+04  0.33072676277E+04 0.  0.
        1    1    3    3  502    0 -0.26811444739E+03  0.23687159591E+02  0.17128655665E+04  0.17338843351E+04  0.50400001928E-02 0. -1.
       -1    1    3    3    0  502  0.26811444739E+03 -0.23687159591E+02 -0.15540573425E+04  0.15771939203E+04  0.50400001928E-02 0.  1.
</event>
<event>
 5   0  0.2674551E-06  0.3301617E+04  0.7818609E-02  0.8162484E-01
        2   -1    0    0  501    0  0.00000000000E+00  0.00000000000E+00  0.15644234641E+04  0.15644234641E+04  0.25500000920E-02 0. -1.
       -2   -1    0    0    0  501  0.00000000000E+00  0.00000000000E+00 -0.17419640269E+04  0.17419640269E+04  0.25500000920E-02 0.  1.
    10030    2    1    2    0    0  0.00000000000E+00  0.00000000000E+00 -0.17754056273E+03  0.33063874910E+04  0.33016174202E+04 0.  0.
        3    1    3    3  502    0  0.91751324391E+02  0.16340559548E+03 -0.17312769946E+04  0.17413901735E+04  0.10100000352E+00 0.  1.
       -3    1    3    3    0  502 -0.91751324391E+02 -0.16340559548E+03  0.15537364318E+04  0.15649973176E+04  0.10100000352E+00 0. -1.
</event>
<event>
 5   0  0.2658600E-06  0.3279460E+04  0.7818609E-02  0.8168142E-01
        2   -1    0    0  501    0  0.00000000000E+00  0.00000000000E+00  0.16859154947E+04  0.16859154947E+04  0.25500000920E-02 0.  1.
       -2   -1    0    0    0  501  0.00000000000E+00  0.00000000000E+00 -0.15948097540E+04  0.15948097540E+04  0.25500000920E-02 0. -1.
    10030    2    1    2    0    0  0.00000000000E+00  0.00000000000E+00  0.91105740698E+02  0.32807252487E+04  0.32794600015E+04 0.  0.
        5    1    3    3  502    0 -0.27768301127E+03  0.13020582015E+04 -0.91201492715E+03  0.16137709665E+04  0.46999998093E+01 0. -1.
       -5    1    3    3    0  502  0.27768301127E+03 -0.13020582015E+04  0.10031206678E+04  0.16669542822E+04  0.46999998093E+01 0.  1.
</event>
<event>
 5   0  0.8845526E-07  0.2884119E+04  0.7818609E-02  0.8277618E-01
        1   -1    0    0  501    0  0.00000000000E+00  0.00000000000E+00  0.16683613175E+04  0.16683613175E+04  0.50400001928E-02 0. -1.
       -1   -1    0    0    0  501  0.00000000000E+00  0.00000000000E+00 -0.12464536577E+04  0.12464536578E+04  0.50400001928E-02 0.  1.
    10030    2    1    2    0    0  0.00000000000E+00  0.00000000000E+00  0.42190765972E+03  0.29148149752E+04  0.28841186291E+04 0.  0.
        1    1    3    3  502    0 -0.74439240785E+03 -0.10522503352E+04 -0.44260051188E+03  0.13628081442E+04  0.50400001928E-02 0.  1.
       -1    1    3    3    0  502  0.74439240785E+03  0.10522503352E+04  0.86450817161E+03  0.15520068310E+04  0.50400001928E-02 0. -1.
</event>
<event>
 5   0  0.8705956E-07  0.2455500E+04  0.7818609E-02  0.8419013E-01
       -1   -1    0    0    0  501  0.00000000000E+00  0.00000000000E+00  0.48926340762E+03  0.48926340765E+03  0.50400001928E-02 0. -1.
        1   -1    0    0  501    0  0.00000000000E+00  0.00000000000E+00 -0.30808962725E+04  0.30808962725E+04  0.50400001928E-02 0.  1.
    10030    2    1    2    0    0  0.00000000000E+00  0.00000000000E+00 -0.25916328649E+04  0.35701596802E+04  0.24554997934E+04 0.  0.
        2    1    3    3  502    0  0.31428638435E+03  0.83246304319E+03 -0.25257528187E+04  0.26779092500E+04  0.25500000920E-02 0.  1.
       -2    1    3    3    0  502 -0.31428638435E+03 -0.83246304319E+03 -0.65880046126E+02  0.89225043018E+03  0.25500000920E-02 0. -1.
</event>
<event>
 5   0  0.2574803E-06  0.3281395E+04  0.7818609E-02  0.8167646E-01
        2   -1    0    0  501    0  0.00000000000E+00  0.00000000000E+00  0.13053800244E+04  0.13053800244E+04  0.25500000920E-02 0. -1.
       -2   -1    0    0    0  501  0.00000000000E+00  0.00000000000E+00 -0.20621494955E+04  0.20621494955E+04  0.25500000920E-02 0.  1.
    10030    2    1    2    0    0  0.00000000000E+00  0.00000000000E+00 -0.75676947115E+03  0.33675295199E+04  0.32813952878E+04 0.  0.
        4    1    3    3  502    0 -0.17686863050E+03  0.58970615947E+02  0.12944730647E+04  0.13078310954E+04  0.12699999809E+01 0. -1.
       -4    1    3    3    0  502  0.17686863050E+03 -0.58970615947E+02 -0.20512425359E+04  0.20596984245E+04  0.12699999809E+01 0.  1.
</event>
<event>
 5   0  0.2574803E-06  0.3356287E+04  0.7818609E-02  0.8148719E-01
        2   -1    0    0  501    0  0.00000000000E+00  0.00000000000E+00  0.20006557121E+04  0.20006557121E+04  0.25500000920E-02 0. -1.
       -2   -1    0    0    0  501  0.00000000000E+00  0.00000000000E+00 -0.14076209718E+04  0.14076209718E+04  0.25500000920E-02 0.  1.
    10030    2    1    2    0    0  0.00000000000E+00  0.00000000000E+00  0.59303474031E+03  0.34082766839E+04  0.33562866014E+04 0.  0.
        4    1    3    3  502    0  0.15109837229E+04  0.20177067769E+02  0.10376753578E+04  0.18330986569E+04  0.12699999809E+01 0. -1.
       -4    1    3    3    0  502 -0.15109837229E+04 -0.20177067769E+02 -0.44464061748E+03  0.15751780269E+04  0.12699999809E+01 0.  1.
</event>
<event>
 5   0  0.2614212E-06  0.3264558E+04  0.7818609E-02  0.8171973E-01
        2   -1    0    0  501    0  0.00000000000E+00  0.00000000000E+00  0.24652442960E+04  0.24652442960E+04  0.25500000920E-02 0.  1.
       -2   -1    0    0    0  501  0.00000000000E+00  0.00000000000E+00 -0.10807588793E+04  0.10807588793E+04  0.25500000920E-02 0. -1.
    10030    2    1    2    0    0  0.00000000000E+00  0.00000000000E+00  0.13844854167E+04  0.35460031753E+04  0.32645579563E+04 0.  0.
        2    1    3    3  502    0  0.15420717825E+04  0.31108971544E+03  0.21930671238E+03  0.15883505997E+04  0.25500000920E-02 0. -1.
       -2    1    3    3    0  502 -0.15420717825E+04 -0.31108971544E+03  0.11651787043E+04  0.19576525756E+04  0.25500000920E-02 0.  1.
</event>
<event>
 5   0  0.2705859E-06  0.2717600E+04  0.7818609E-02  0.8329317E-01
        2   -1    0    0  501    0  0.00000000000E+00  0.00000000000E+00  0.78265441451E+03  0.78265441451E+03  0.25500000920E-02 0.  1.
       -2   -1    0    0    0  501  0.00000000000E+00  0.00000000000E+00 -0.23590716859E+04  0.23590716859E+04  0.25500000920E-02 0. -1.
    10030    2    1    2    0    0  0.00000000000E+00  0.00000000000E+00 -0.15764172713E+04  0.31417261004E+04  0.27176003158E+04 0.  0.
        1    1    3    3  502    0 -0.86438821630E+03 -0.17825295699E+03  0.40618003866E+03  0.97155716712E+03  0.50400001928E-02 0.  1.
       -1    1    3    3    0  502  0.86438821630E+03  0.17825295699E+03 -0.19825973100E+04  0.21701689332E+04  0.50400001928E-02 0. -1.
</event>
<event>
 5   0  0.2574803E-06  0.3247506E+04  0.7818609E-02  0.8176383E-01
        2   -1    0    0  501    0  0.00000000000E+00  0.00000000000E+00  0.11547690671E+04  0.11547690671E+04  0.25500000920E-02 0. -1.
       -2   -1    0    0    0  501  0.00000000000E+00  0.00000000000E+00 -0.22832038118E+04  0.22832038118E+04  0.25500000920E-02 0.  1.
    10030    2    1    2    0    0  0.00000000000E+00  0.00000000000E+00 -0.11284347447E+04  0.34379728790E+04  0.32475055879E+04 0.  0.
        4    1    3    3  502    0 -0.30735129284E+03 -0.39984570169E+03  0.10697538186E+04  0.11826733478E+04  0.12699999809E+01 0. -1.
       -4    1    3    3    0  502  0.30735129284E+03  0.39984570169E+03 -0.21981885633E+04  0.22552995311E+04  0.12699999809E+01 0.  1.
</event>
<event>
 5   0  0.2674551E-06  0.2934109E+04  0.7818609E-02  0.8262801E-01
        2   -1    0    0  501    0  0.00000000000E+00  0.00000000000E+00  0.19288809942E+04  0.19288809942E+04  0.25500000920E-02 0.  1.
       -2   -1    0    0    0  501  0.00000000000E+00  0.00000000000E+00 -0.11158020655E+04  0.11158020655E+04  0.25500000920E-02 0. -1.
    10030    2    1    2    0    0  0.00000000000E+00  0.00000000000E+00  0.81307892868E+03  0.30446830597E+04  0.29341093350E+04 0.  0.
        3    1    3    3  502    0 -0.83935904927E+03 -0.11497135920E+04  0.77471235423E+03  0.16206616548E+04  0.10100000352E+00 0.  1.
       -3    1    3    3    0  502  0.83935904927E+03  0.11497135920E+04  0.38366574454E+02  0.14240214049E+04  0.10100000352E+00 0. -1.
</event>
<event>
 5   0  0.9268670E-07  0.2959251E+04  0.7818609E-02  0.8255464E-01
       -1   -1    0    0    0  501  0.00000000000E+00  0.00000000000E+00  0.11331087642E+04  0.11331087642E+04  0.50400001928E-02 0.  1.
        1   -1    0    0  501    0  0.00000000000E+00  0.00000000000E+00 -0.19321108976E+04  0.19321108976E+04  0.50400001928E-02 0. -1.
    10030    2    1    2    0    0  0.00000000000E+00  0.00000000000E+00 -0.79900213338E+03  0.30652196618E+04  0.29592511158E+04 0.  0.
        3    1    3    3  502    0 -0.94483496708E+03 -0.50684154188E+03 -0.14556660935E+04  0.18079173790E+04  0.10100000352E+00 0.  1.
       -3    1    3    3    0  502  0.94483496708E+03  0.50684154188E+03  0.65666396009E+03  0.12573022828E+04  0.10100000352E+00 0. -1.
</event>
<event>
 5   0  0.9268670E-07  0.3331194E+04  0.7818609E-02  0.8155003E-01
        1   -1    0    0  501    0  0.00000000000E+00  0.00000000000E+00  0.23163606073E+04  0.23163606073E+04  0.50400001928E-02 0.  1.
       -1   -1    0    0    0  501  0.00000000000E+00  0.00000000000E+00 -0.11976606842E+04  0.11976606842E+04  0.50400001928E-02 0. -1.
    10030    2    1    2    0    0  0.00000000000E+00  0.00000000000E+00  0.11186999231E+04  0.35140212915E+04  0.33311943983E+04 0.  0.
        3    1    3    3  502    0  0.13543363638E+04  0.92684676722E+03  0.25923223077E+03  0.16614672058E+04  0.10100000352E+00 0. -1.
       -3    1    3    3    0  502 -0.13543363638E+04 -0.92684676722E+03  0.85946769233E+03  0.18525540857E+04  0.10100000352E+00 0.  1.
</event>
<event>
 5   0  0.9295663E-07  0.3324746E+04  0.7818609E-02  0.8156627E-01
        1   -1    0    0  501    0  0.00000000000E+00  0.00000000000E+00  0.27998863189E+04  0.27998863189E+04  0.50400001928E-02 0. -1.
       -1   -1    0    0    0  501  0.00000000000E+00  0.00000000000E+00 -0.98699844825E+03  0.98699844826E+03  0.50400001928E-02 0.  1.
    10030    2    1    2    0    0  0.00000000000E+00  0.00000000000E+00  0.18128878707E+04  0.37868847672E+04  0.33247456757E+04 0.  0.
        4    1    3    3  502    0  0.14777128807E+04  0.63442438488E+03  0.42677463106E+03  0.16638112443E+04  0.12699999809E+01 0. -1.
       -4    1    3    3    0  502 -0.14777128807E+04 -0.63442438488E+03  0.13861132396E+04  0.21230735229E+04  0.12699999809E+01 0.  1.
</event>
<event>
 5   0  0.8845526E-07  0.3309489E+04  0.7818609E-02  0.8160485E-01
       -1   -1    0    0    0  501  0.00000000000E+00  0.00000000000E+00  0.21858467982E+04  0.21858467982E+04  0.50400001928E-02 0. -1.
        1   -1    0    0  501    0  0.00000000000E+00  0.00000000000E+00 -0.12526856235E+04  0.12526856235E+04  0.50400001928E-02 0.  1.
    10030    2    1    2    0    0  0.00000000000E+00  0.00000000000E+00  0.93316117472E+03  0.34385324218E+04  0.33094886973E+04 0.  0.
        1    1    3    3  502    0 -0.13904536359E+04 -0.25572783803E+03  0.13600055002E+04  0.19617270456E+04  0.50400001928E-02 0. -1.
       -1    1    3    3    0  502  0.13904536359E+04  0.25572783803E+03 -0.42684432549E+03  0.14768053762E+04  0.50400001928E-02 0.  1.
</event>
<event>
 5   0  0.2705859E-06  0.3260201E+04  0.7818609E-02  0.8173097E-01
       -2   -1    0    0    0  501  0.00000000000E+00  0.00000000000E+00  0.12493531732E+04  0.12493531732E+04  0.25500000920E-02 0.  1.
        2   -1    0    0  501    0  0.00000000000E+00  0.00000000000E+00 -0.21268827369E+04  0.21268827369E+04  0.25500000920E-02 0. -1.
    10030    2    1    2    0    0  0.00000000000E+00  0.00000000000E+00 -0.87752956366E+03  0.33762359102E+04  0.32602010346E+04 0.  0.
        1    1    3    3  502    0 -0.10795241175E+04 -0.15014588221E+03  0.81652893804E+03  0.13618500699E+04  0.50400001928E-02 0.  1.
       -1    1    3    3    0  502  0.10795241175E+04  0.15014588221E+03 -0.16940585017E+04  0.20143858403E+04  0.50400001928E-02 0. -1.
</event>
<event>
 5   0  0.2574803E-06  0.3275094E+04  0.7818609E-02  0.8169262E-01
       -2   -1    0    0    0  501  0.00000000000E+00  0.00000000000E+00  0.14902042026E+04  0.14902042026E+04  0.25500000920E-02 0.  1.
        2   -1    0    0  501    0  0.00000000000E+00  0.00000000000E+00 -0.17994580811E+04  0.17994580811E+04  0.25500000920E-02 0. -1.
    10030    2    1    2    0    0  0.00000000000E+00  0.00000000000E+00 -0.30925387851E+03  0.32896622837E+04  0.32750938886E+04 0.  0.
        4    1    3    3  502    0  0.56236271881E+03 -0.15336394468E+04 -0.38977465441E+02  0.16339591905E+04  0.12699999809E+01 0. -1.
       -4    1    3    3    0  502 -0.56236271881E+03  0.15336394468E+04 -0.27027641307E+03  0.16557030932E+04  0.12699999809E+01 0.  1.
</event>
<event>
 5   0  0.2614212E-06  0.3259051E+04  0.7818609E-02  0.8173394E-01
       -2   -1    0    0    0  501  0.00000000000E+00  0.00000000000E+00  0.17722438740E+04  0.17722438740E+04  0.25500000920E-02 0.  1.
        2   -1    0    0  501    0  0.00000000000E+00  0.00000000000E+00 -0.14983001888E+04  0.14983001888E+04  0.25500000920E-02 0. -1.
    10030    2    1    2    0    0  0.00000000000E+00  0.00000000000E+00  0.27394368516E+03  0.32705440628E+04  0.32590509852E+04 0.  0.
        2    1    3    3  502    0 -0.12036534384E+04  0.50399468615E+02 -0.96418148864E+03  0.15430384471E+04  0.25500000920E-02 0. -1.
       -2    1    3    3    0  502  0.12036534384E+04 -0.50399468615E+02  0.12381251738E+04  0.17275056157E+04  0.25500000920E-02 0.  1.
</event>
<event>
 5   0  0.8520125E-07  0.3271504E+04  0.7818609E-02  0.8170184E-01
        3   -1    0    0  501    0  0.00000000000E+00  0.00000000000E+00  0.22158777047E+04  0.22158777070E+04  0.10100000352E+00 0.  1.
       -3   -1    0    0    0  501  0.00000000000E+00  0.00000000000E+00 -0.12075058744E+04  0.12075058786E+04  0.10100000352E+00 0. -1.
    10030    2    1    2    0    0  0.00000000000E+00  0.00000000000E+00  0.10083718303E+04  0.34233835856E+04  0.32715044591E+04 0.  0.
        2    1    3    3  502    0 -0.15492756415E+04  0.24433390106E+03  0.99021763710E+03  0.18548544518E+04  0.25500000920E-02 0.  1.
       -2    1    3    3    0  502  0.15492756415E+04 -0.24433390106E+03  0.18154193232E+02  0.15685291337E+04  0.25500000920E-02 0. -1.
</event>
<event>
 5   0  0.9268670E-07  0.3282649E+04  0.7818609E-02  0.8167324E-01
        1   -1    0    0  501    0  0.00000000000E+00  0.00000000000E+00  0.13090409636E+04  0.13090409637E+04  0.50400001928E-02 0.  1.
       -1   -1    0    0    0  501  0.00000000000E+00  0.00000000000E+00 -0.20579546406E+04  0.20579546406E+04  0.50400001928E-02 0. -1.
    10030    2    1    2    0    0  0.00000000000E+00  0.00000000000E+00 -0.74891367694E+03  0.33669956043E+04  0.32826494945E+04 0.  0.
        3    1    3    3  502    0  0.24506003698E+03 -0.83837625691E+03 -0.17997728652E+04  0.20005278170E+04  0.10100000352E+00 0. -1.
       -3    1    3    3    0  502 -0.24506003698E+03  0.83837625691E+03  0.10508591883E+04  0.13664677873E+04  0.10100000352E+00 0.  1.
</event>
<event>
 5   0  0.2705859E-06  0.3321871E+04  0.7818609E-02  0.8157352E-01
        2   -1    0    0  501    0  0.00000000000E+00  0.00000000000E+00  0.16463486809E+04  0.16463486809E+04  0.25500000920E-02 0.  1.
       -2   -1    0    0    0  501  0.00000000000E+00  0.00000000000E+00 -0.16756517052E+04  0.16756517052E+04  0.25500000920E-02 0. -1.
    10030    2    1    2    0    0  0.00000000000E+00  0.00000000000E+00 -0.29303024323E+02  0.33220003861E+04  0.33218711441E+04 0.  0.
        1    1    3    3  502    0  0.19267474613E+03 -0.11008620745E+04  0.12140891377E+04  0.16501615979E+04  0.50400001928E-02 0.  1.
       -1    1    3    3    0  502 -0.19267474613E+03  0.11008620745E+04 -0.12433921620E+04  0.16718387882E+04  0.50400001928E-02 0. -1.
</event>
<event>
 5   0  0.9295663E-07  0.3282129E+04  0.7818609E-02  0.8167457E-01
        1   -1    0    0  501    0  0.00000000000E+00  0.00000000000E+00  0.26093214012E+04  0.26093214012E+04  0.50400001928E-02 0.  1.
       -1   -1    0    0    0  501  0.00000000000E+00  0.00000000000E+00 -0.10321049293E+04  0.10321049294E+04  0.50400001928E-02 0. -1.
    10030    2    1    2    0    0  0.00000000000E+00  0.00000000000E+00  0.15772164719E+04  0.36414263306E+04  0.32821294798E+04 0.  0.
        4    1    3    3  502    0 -0.43977928223E+03  0.89598736622E+03 -0.65664186262E+03  0.11947298130E+04  0.12699999809E+01 0. -1.
       -4    1    3    3    0  502  0.43977928223E+03 -0.89598736622E+03  0.22338583345E+04  0.24466965176E+04  0.12699999809E+01 0.  1.
</event>
<event>
 5   0  0.9268670E-07  0.3304716E+04  0.7818609E-02  0.8161697E-01
       -1   -1    0    0    0  501  0.00000000000E+00  0.00000000000E+00  0.17607732007E+04  0.17607732007E+04  0.50400001928E-02 0.  1.
        1   -1    0    0  501    0  0.00000000000E+00  0.00000000000E+00 -0.15506177631E+04  0.15506177631E+04  0.50400001928E-02 0. -1.
    10030    2    1    2    0    0  0.00000000000E+00  0.00000000000E+00  0.21015543761E+03  0.33113909638E+04  0.33047155410E+04 0.  0.
        3    1    3    3  502    0  0.46948091068E+03  0.79653631185E+02 -0.14803728426E+04  0.15550758148E+04  0.10100000352E+00 0. -1.
       -3    1    3    3    0  502 -0.46948091068E+03 -0.79653631185E+02  0.16905282802E+04  0.17563151490E+04  0.10100000352E+00 0.  1.
</event>
<event>
 5   0  0.8845526E-07  0.3405687E+04  0.7818609E-02  0.8136512E-01
       -1   -1    0    0    0  501  0.00000000000E+00  0.00000000000E+00  0.11360137695E+04  0.11360137695E+04  0.50400001928E-02 0.  1.
        1   -1    0    0  501    0  0.00000000000E+00  0.00000000000E+00 -0.25525010515E+04  0.25525010515E+04  0.50400001928E-02 0. -1.
    10030    2    1    2    0    0  0.00000000000E+00  0.00000000000E+00 -0.14164872820E+04  0.36885148210E+04  0.34056872089E+04 0.  0.
        1    1    3    3  502    0  0.70965348534E+03 -0.55829125912E+03  0.85539046226E+03  0.12437805442E+04  0.50400001928E-02 0.  1.
       -1    1    3    3    0  502 -0.70965348534E+03  0.55829125912E+03 -0.22718777442E+04  0.24447342768E+04  0.50400001928E-02 0. -1.
</event>
<event>
 5   0  0.8520125E-07  0.3309709E+04  0.7818609E-02  0.8160429E-01
        3   -1    0    0  501    0  0.00000000000E+00  0.00000000000E+00  0.19107857096E+04  0.19107857123E+04  0.10100000352E+00 0. -1.
       -3   -1    0    0    0  501  0.00000000000E+00  0.00000000000E+00 -0.14332025413E+04  0.14332025448E+04  0.10100000352E+00 0.  1.
    10030    2    1    2    0    0  0.00000000000E+00  0.00000000000E+00  0.47758316833E+03  0.33439882571E+04  0.33097087154E+04 0.  0.
        2    1    3    3  502    0 -0.68246347861E+03  0.12401324267E+04 -0.62732572059E+03  0.15482966109E+04  0.25500000920E-02 0.  1.
       -2    1    3    3    0  502  0.68246347861E+03 -0.12401324267E+04  0.11049088889E+04  0.17956916462E+04  0.25500000920E-02 0. -1.
</event>
<event>
 5   0  0.9268670E-07  0.3203105E+04  0.7818609E-02  0.8187998E-01
       -1   -1    0    0    0  501  0.00000000000E+00  0.00000000000E+00  0.15524173044E+04  0.15524173044E+04  0.50400001928E-02 0. -1.
        1   -1    0    0  501    0  0.00000000000E+00  0.00000000000E+00 -0.16522425229E+04  0.16522425229E+04  0.50400001928E-02 0.  1.
    10030    2    1    2    0    0  0.00000000000E+00  0.00000000000E+00 -0.99825218498E+02  0.32046598273E+04  0.32031046712E+04 0.  0.
        3    1    3    3  502    0 -0.13170996249E+04  0.22459934217E+03 -0.93338923875E+03  0.16298502286E+04  0.10100000352E+00 0.  1.
       -3    1    3    3    0  502  0.13170996249E+04 -0.22459934217E+03  0.83356402025E+03  0.15748095988E+04  0.10100000352E+00 0. -1.
</event>
<event>
 5   0  0.2574803E-06  0.3317238E+04  0.7818609E-02  0.8158523E-01
        2   -1    0    0  501    0  0.00000000000E+00  0.00000000000E+00  0.20884150644E+04  0.20884150644E+04  0.25500000920E-02 0.  1.
       -2   -1    0    0    0  501  0.00000000000E+00  0.00000000000E+00 -0.13172748402E+04  0.13172748402E+04  0.25500000920E-02 0. -1.
    10030    2    1    2    0    0  0.00000000000E+00  0.00000000000E+00  0.77114022421E+03  0.34056899046E+04  0.33172377788E+04 0.  0.
        4    1    3    3  502    0  0.59691634797E+01  0.16476201380E+04  0.18989084875E+03  0.16585378794E+04  0.12699999809E+01 0. -1.
       -4    1    3    3    0  502 -0.59691634797E+01 -0.16476201380E+04  0.58124937546E+03  0.17471520253E+04  0.12699999809E+01 0.  1.
</event>
<event>
 5   0  0.2705859E-06  0.3266952E+04  0.7818609E-02  0.8171356E-01
       -2   -1    0    0    0  501  0.00000000000E+00  0.00000000000E+00  0.13169850536E+04  0.13169850536E+04  0.25500000920E-02 0.  1.
        2   -1    0    0  501    0  0.00000000000E+00  0.00000000000E+00 -0.20260239250E+04  0.20260239250E+04  0.25500000920E-02 0. -1.
    10030    2    1    2    0    0  0.00000000000E+00  0.00000000000E+00 -0.70903887136E+03  0.33430089786E+04  0.32669516234E+04 0.  0.
        1    1    3    3  502    0 -0.12928799750E+03 -0.28862781659E+03  0.12853569256E+04  0.13236932534E+04  0.50400001928E-02 0.  1.
       -1    1    3    3    0  502  0.12928799750E+03  0.28862781659E+03 -0.19943957970E+04  0.20193157252E+04  0.50400001928E-02 0. -1.
</event>
<event>
 5   0  0.9295663E-07  0.3272343E+04  0.7818609E-02  0.8169969E-01
        1   -1    0    0  501    0  0.00000000000E+00  0.00000000000E+00  0.15469784069E+04  0.15469784070E+04  0.50400001928E-02 0. -1.
       -1   -1    0    0    0  501  0.00000000000E+00  0.00000000000E+00 -0.17305066568E+04  0.17305066568E+04  0.50400001928E-02 0.  1.
    10030    2    1    2    0    0  0.00000000000E+00  0.00000000000E+00 -0.18352824981E+03  0.32774850637E+04  0.32723425439E+04 0.  0.
        4    1    3    3  502    0 -0.15556259187E+04  0.45709330587E+03 -0.31153668883E+03  0.16510490636E+04  0.12699999809E+01 0. -1.
       -4    1    3    3    0  502  0.15556259187E+04 -0.45709330587E+03  0.12800843902E+03  0.16264360001E+04  0.12699999809E+01 0.  1.
</event>
<event>
 5   0  0.2658600E-06  0.3240546E+04  0.7818609E-02  0.8178190E-01
       -2   -1    0    0    0  501  0.00000000000E+00  0.00000000000E+00  0.13377830325E+04  0.13377830325E+04  0.25500000920E-02 0.  1.
        2   -1    0    0  501    0  0.00000000000E+00  0.00000000000E+00 -0.19624147820E+04  0.19624147820E+04  0.25500000920E-02 0. -1.
    10030    2    1    2    0    0  0.00000000000E+00  0.00000000000E+00 -0.62463174948E+03  0.33001978144E+04  0.32405463724E+04 0.  0.
        5    1    3    3  502    0  0.61958437051E+03 -0.11984677884E+04  0.60144812226E+03  0.14771498793E+04  0.46999998093E+01 0.  1.
       -5    1    3    3    0  502 -0.61958437051E+03  0.11984677884E+04 -0.12260798717E+04  0.18230479352E+04  0.46999998093E+01 0. -1.
</event>
<event>
 5   0  0.9295663E-07  0.3307005E+04  0.7818609E-02  0.8161115E-01
       -1   -1    0    0    0  501  0.00000000000E+00  0.00000000000E+00  0.19296896927E+04  0.19296896927E+04  0.50400001928E-02 0.  1.
        1   -1    0    0  501    0  0.00000000000E+00  0.00000000000E+00 -0.14168444762E+04  0.14168444762E+04  0.50400001928E-02 0. -1.
    10030    2    1    2    0    0  0.00000000000E+00  0.00000000000E+00  0.51284521650E+03  0.33465341689E+04  0.33070047970E+04 0.  0.
        4    1    3    3  502    0  0.25235217549E+03 -0.13263632349E+04 -0.70952770327E+03  0.15252384161E+04  0.12699999809E+01 0. -1.
       -4    1    3    3    0  502 -0.25235217549E+03  0.13263632349E+04  0.12223729198E+04  0.18212957528E+04  0.12699999809E+01 0.  1.
</event>
<event>
 5   0  0.8845526E-07  0.3532422E+04  0.7818609E-02  0.8106149E-01
       -1   -1    0    0    0  501  0.00000000000E+00  0.00000000000E+00  0.14483359622E+04  0.14483359623E+04  0.50400001928E-02 0.  1.
        1   -1    0    0  501    0  0.00000000000E+00  0.00000000000E+00 -0.21538522868E+04  0.21538522868E+04  0.50400001928E-02 0. -1.
    10030    2    1    2    0    0  0.00000000000E+00  0.00000000000E+00 -0.70551632460E+03  0.36021882491E+04  0.35324222423E+04 0.  0.
        1    1    3    3  502    0 -0.14270196283E+04 -0.94869603506E+03  0.83585946540E+02  0.17156327687E+04  0.50400001928E-02 0.  1.
       -1    1    3    3    0  502  0.14270196283E+04  0.94869603506E+03 -0.78910227114E+03  0.18865554804E+04  0.50400001928E-02 0. -1.
</event>
<event>
 5   0  0.8845526E-07  0.3300690E+04  0.7818609E-02  0.8162720E-01
       -1   -1    0    0    0  501  0.00000000000E+00  0.00000000000E+00  0.98902999751E+03  0.98902999753E+03  0.50400001928E-02 0.  1.
        1   -1    0    0  501    0  0.00000000000E+00  0.00000000000E+00 -0.27538487913E+04  0.27538487913E+04  0.50400001928E-02 0. -1.
    10030    2    1    2    0    0  0.00000000000E+00  0.00000000000E+00 -0.17648187938E+04  0.37428787888E+04  0.33006902692E+04 0.  0.
        1    1    3    3  502    0  0.15286422403E+04 -0.32745815504E+03 -0.28273074286E+03  0.15886826666E+04  0.50400001928E-02 0.  1.
       -1    1    3    3    0  502 -0.15286422403E+04  0.32745815504E+03 -0.14820880509E+04  0.21541961222E+04  0.50400001928E-02 0. -1.
</event>
<event>
 5   0  0.9268670E-07  0.3338453E+04  0.7818609E-02  0.8153179E-01
        1   -1    0    0  501    0  0.00000000000E+00  0.00000000000E+00  0.16460012235E+04  0.16460012235E+04  0.50400001928E-02 0.  1.
       -1   -1    0    0    0  501  0.00000000000E+00  0.00000000000E+00 -0.16927795716E+04  0.16927795716E+04  0.50400001928E-02 0. -1.
    10030    2    1    2    0    0  0.00000000000E+00  0.00000000000E+00 -0.46778348036E+02  0.33387807951E+04  0.33384530825E+04 0.  0.
        3    1    3    3  502    0  0.10458715919E+04 -0.35027144416E+03  0.12296423372E+04  0.16518346646E+04  0.10100000352E+00 0.  1.
       -3    1    3    3    0  502 -0.10458715919E+04  0.35027144416E+03 -0.12764206853E+04  0.16869461305E+04  0.10100000352E+00 0. -1.
</event>
<event>
 5   0  0.2658600E-06  0.2383665E+04  0.7818609E-02  0.8445644E-01
       -2   -1    0    0    0  501  0.00000000000E+00  0.00000000000E+00  0.15291046261E+04  0.15291046261E+04  0.25500000920E-02 0.  1.
        2   -1    0    0  501    0  0.00000000000E+00  0.00000000000E+00 -0.92895207936E+03  0.92895207937E+03  0.25500000920E-02 0. -1.
    10030    2    1    2    0    0  0.00000000000E+00  0.00000000000E+00  0.60015254673E+03  0.24580567055E+04  0.23836651795E+04 0.  0.
        5    1    3    3  502    0 -0.10202789820E+04 -0.60980737596E+03  0.39002580002E+03  0.12509901884E+04  0.46999998093E+01 0.  1.
       -5    1    3    3    0  502  0.10202789820E+04  0.60980737596E+03  0.21012674671E+03  0.12070665170E+04  0.46999998093E+01 0. -1.
</event>
<event>
 5   0  0.2705859E-06  0.3281588E+04  0.7818609E-02  0.8167596E-01
       -2   -1    0    0    0  501  0.00000000000E+00  0.00000000000E+00  0.11638680306E+04  0.11638680307E+04  0.25500000920E-02 0.  1.
        2   -1    0    0  501    0  0.00000000000E+00  0.00000000000E+00 -0.23131537001E+04  0.23131537001E+04  0.25500000920E-02 0. -1.
    10030    2    1    2    0    0  0.00000000000E+00  0.00000000000E+00 -0.11492856695E+04  0.34770217308E+04  0.32815884212E+04 0.  0.
        1    1    3    3  502    0  0.77214036342E+03  0.12650238109E+04 -0.13206471940E+04  0.19850931953E+04  0.50400001928E-02 0. -1.
       -1    1    3    3    0  502 -0.77214036342E+03 -0.12650238109E+04  0.17136152454E+03  0.14919285355E+04  0.50400001928E-02 0.  1.
</event>
<event>
 5   0  0.9295663E-07  0.3309100E+04  0.7818609E-02  0.8160584E-01
        1   -1    0    0  501    0  0.00000000000E+00  0.00000000000E+00  0.17867152697E+04  0.17867152697E+04  0.50400001928E-02 0. -1.
       -1   -1    0    0    0  501  0.00000000000E+00  0.00000000000E+00 -0.15321608760E+04  0.15321608760E+04  0.50400001928E-02 0.  1.
    10030    2    1    2    0    0  0.00000000000E+00  0.00000000000E+00  0.25455439375E+03  0.33188761457E+04  0.33090997161E+04 0.  0.
        4    1    3    3  502    0 -0.50067556893E+03  0.35283265084E+03 -0.14142629822E+04  0.15412035234E+04  0.12699999809E+01 0.  1.
       -4    1    3    3    0  502  0.50067556893E+03 -0.35283265084E+03  0.16688173760E+04  0.17776726223E+04  0.12699999809E+01 0. -1.
</event>
<event>
 5   0  0.9268670E-07  0.3352060E+04  0.7818609E-02  0.8149774E-01
        1   -1    0    0  501    0  0.00000000000E+00  0.00000000000E+00  0.20237705358E+04  0.20237705359E+04  0.50400001928E-02 0.  1.
       -1   -1    0    0    0  501  0.00000000000E+00  0.00000000000E+00 -0.13880411906E+04  0.13880411906E+04  0.50400001928E-02 0. -1.
    10030    2    1    2    0    0  0.00000000000E+00  0.00000000000E+00  0.63572934523E+03  0.34118117265E+04  0.33520601809E+04 0.  0.
        3    1    3    3  502    0  0.43831171985E+03 -0.13822828166E+04  0.11732340170E+04  0.18652884543E+04  0.10100000352E+00 0.  1.
       -3    1    3    3    0  502 -0.43831171985E+03  0.13822828166E+04 -0.53750467181E+03  0.15465232722E+04  0.10100000352E+00 0. -1.
</event>
<event>
 5   0  0.2658600E-06  0.3269359E+04  0.7818609E-02  0.8170736E-01
       -2   -1    0    0    0  501  0.00000000000E+00  0.00000000000E+00  0.16717446396E+04  0.16717446396E+04  0.25500000920E-02 0.  1.
        2   -1    0    0  501    0  0.00000000000E+00  0.00000000000E+00 -0.15984360283E+04  0.15984360283E+04  0.25500000920E-02 0. -1.
    10030    2    1    2    0    0  0.00000000000E+00  0.00000000000E+00  0.73308611267E+02  0.32701806680E+04  0.32693588742E+04 0.  0.
        5    1    3    3  502    0 -0.79023046572E+03 -0.28731771538E+03 -0.13655322589E+04  0.16036571013E+04  0.46999998093E+01 0. -1.
       -5    1    3    3    0  502  0.79023046572E+03  0.28731771538E+03  0.14388408702E+04  0.16665235666E+04  0.46999998093E+01 0.  1.
</event>
<event>
 5   0  0.9268670E-07  0.3285689E+04  0.7818609E-02  0.8166546E-01
        1   -1    0    0  501    0  0.00000000000E+00  0.00000000000E+00  0.24247853706E+04  0.24247853706E+04  0.50400001928E-02 0.  1.
       -1   -1    0    0    0  501  0.00000000000E+00  0.00000000000E+00 -0.11130626320E+04  0.11130626320E+04  0.50400001928E-02 0. -1.
    10030    2    1    2    0    0  0.00000000000E+00  0.00000000000E+00  0.13117227386E+04  0.35378480026E+04  0.32856889607E+04 0.  0.
        3    1    3    3  502    0  0.80198199153E+03  0.13791339536E+04  0.23365607666E+03  0.16123835614E+04  0.10100000352E+00 0. -1.
       -3    1    3    3    0  502 -0.80198199153E+03 -0.13791339536E+04  0.10780666619E+04  0.19254644412E+04  0.10100000352E+00 0.  1.
</event>
<event>
 5   0  0.9268670E-07  0.3304075E+04  0.7818609E-02  0.8161859E-01
       -1   -1    0    0    0  501  0.00000000000E+00  0.00000000000E+00  0.13358775801E+04  0.13358775801E+04  0.50400001928E-02 0. -1.
        1   -1    0    0  501    0  0.00000000000E+00  0.00000000000E+00 -0.20430221384E+04  0.20430221384E+04  0.50400001928E-02 0.  1.
    10030    2    1    2    0    0  0.00000000000E+00  0.00000000000E+00 -0.70714455829E+03  0.33788997184E+04  0.33040747390E+04 0.  0.
        3    1    3    3  502    0 -0.13998071778E+04 -0.32977033536E+03 -0.11850150517E+04  0.18634562758E+04  0.10100000352E+00 0.  1.
       -3    1    3    3    0  502  0.13998071778E+04  0.32977033536E+03  0.47787049337E+03  0.15154434426E+04  0.10100000352E+00 0. -1.
</event>
<event>
 5   0  0.2574803E-06  0.3317741E+04  0.7818609E-02  0.8158396E-01
        2   -1    0    0  501    0  0.00000000000E+00  0.00000000000E+00  0.15889424243E+04  0.15889424243E+04  0.25500000920E-02 0. -1.
       -2   -1    0    0    0  501  0.00000000000E+00  0.00000000000E+00 -0.17318761549E+04  0.17318761549E+04  0.25500000920E-02 0.  1.
    10030    2    1    2    0    0  0.00000000000E+00  0.00000000000E+00 -0.14293373059E+03  0.33208185792E+04  0.33177410967E+04 0.  0.
        4    1    3    3  502    0  0.68042890527E+03  0.12529913523E+04  0.77718696201E+03  0.16238817725E+04  0.12699999809E+01 0. -1.
       -4    1    3    3    0  502 -0.68042890527E+03 -0.12529913523E+04 -0.92012069260E+03  0.16969368067E+04  0.12699999809E+01 0.  1.
</event>
<event>
 5   0  0.2614212E-06  0.3295768E+04  0.7818609E-02  0.8163973E-01
       -2   -1    0    0    0  501  0.00000000000E+00  0.00000000000E+00  0.16695036718E+04  0.16695036718E+04  0.25500000920E-02 0. -1.
        2   -1    0    0  501    0  0.00000000000E+00  0.00000000000E+00 -0.16265443006E+04  0.16265443006E+04  0.25500000920E-02 0.  1.
    10030    2    1    2    0    0  0.00000000000E+00  0.00000000000E+00  0.42959371190E+02  0.32960479724E+04  0.32957680029E+04 0.  0.
        2    1    3    3  502    0  0.47046053393E+02 -0.14676792394E+03 -0.16193203840E+04  0.16266384542E+04  0.25500000920E-02 0.  1.
       -2    1    3    3    0  502 -0.47046053393E+02  0.14676792394E+03  0.16622797552E+04  0.16694095181E+04  0.25500000920E-02 0. -1.
</event>
<event>
 5   0  0.8705956E-07  0.3330738E+04  0.7818609E-02  0.8155118E-01
        1   -1    0    0  501    0  0.00000000000E+00  0.00000000000E+00  0.18312626120E+04  0.18312626120E+04  0.50400001928E-02 0. -1.
       -1   -1    0    0    0  501  0.00000000000E+00  0.00000000000E+00 -0.15145039076E+04  0.15145039076E+04  0.50400001928E-02 0.  1.
    10030    2    1    2    0    0  0.00000000000E+00  0.00000000000E+00  0.31675870439E+03  0.33457665196E+04  0.33307382856E+04 0.  0.
        2    1    3    3  502    0 -0.44777416028E+03 -0.85050110750E+03  0.15245158517E+04  0.18022215221E+04  0.25500000920E-02 0. -1.
       -2    1    3    3    0  502  0.44777416028E+03  0.85050110750E+03 -0.12077571473E+04  0.15435449975E+04  0.25500000920E-02 0.  1.
</event>
<event>
 5   0  0.2614212E-06  0.3135626E+04  0.7818609E-02  0.8206028E-01
        2   -1    0    0  501    0  0.00000000000E+00  0.00000000000E+00  0.14166285145E+04  0.14166285145E+04  0.25500000920E-02 0. -1.
       -2   -1    0    0    0  501  0.00000000000E+00  0.00000000000E+00 -0.17351318003E+04  0.17351318003E+04  0.25500000920E-02 0.  1.
    10030    2    1    2    0    0  0.00000000000E+00  0.00000000000E+00 -0.31850328578E+03  0.31517603148E+04  0.31356257332E+04 0.  0.
        2    1    3    3  502    0 -0.10830879171E+04 -0.10655736858E+04  0.22940380918E+03  0.15366043159E+04  0.25500000920E-02 0.  1.
       -2    1    3    3    0  502  0.10830879171E+04  0.10655736858E+04 -0.54790709496E+03  0.16151559989E+04  0.25500000920E-02 0. -1.
</event>
<event>
 5   0  0.8705956E-07  0.3205172E+04  0.7818609E-02  0.8187453E-01
        1   -1    0    0  501    0  0.00000000000E+00  0.00000000000E+00  0.24676528295E+04  0.24676528295E+04  0.50400001928E-02 0. -1.
       -1   -1    0    0    0  501  0.00000000000E+00  0.00000000000E+00 -0.10407794702E+04  0.10407794702E+04  0.50400001928E-02 0.  1.
    10030    2    1    2    0    0  0.00000000000E+00  0.00000000000E+00  0.14268733593E+04  0.35084322997E+04  0.32051723227E+04 0.  0.
        2    1    3    3  502    0 -0.98743729379E+03  0.12382232089E+04  0.98168072151E+03  0.18633105386E+04  0.25500000920E-02 0.  1.
       -2    1    3    3    0  502  0.98743729379E+03 -0.12382232089E+04  0.44519263776E+03  0.16451217611E+04  0.25500000920E-02 0. -1.
</event>
<event>
 5   0  0.8845526E-07  0.3310199E+04  0.7818609E-02  0.8160305E-01
       -1   -1    0    0    0  501  0.00000000000E+00  0.00000000000E+00  0.12288282623E+04  0.12288282623E+04  0.50400001928E-02 0. -1.
        1   -1    0    0  501    0  0.00000000000E+00  0.00000000000E+00 -0.22292405250E+04  0.22292405250E+04  0.50400001928E-02 0.  1.
    10030    2    1    2    0    0  0.00000000000E+00  0.00000000000E+00 -0.10004122627E+04  0.34580687873E+04  0.33101986410E+04 0.  0.
        1    1    3    3  502    0  0.11380432753E+04 -0.46461532992E+03 -0.16580221436E+04  0.20639882098E+04  0.50400001928E-02 0.  1.
       -1    1    3    3    0  502 -0.11380432753E+04  0.46461532992E+03  0.65760988093E+03  0.13940805776E+04  0.50400001928E-02 0. -1.
</event>
<event>
 5   0  0.2614212E-06  0.3308483E+04  0.7818609E-02  0.8160740E-01
        2   -1    0    0  501    0  0.00000000000E+00  0.00000000000E+00  0.13324979344E+04  0.13324979344E+04  0.25500000920E-02 0. -1.
       -2   -1    0    0    0  501  0.00000000000E+00  0.00000000000E+00 -0.20536730365E+04  0.20536730365E+04  0.25500000920E-02 0.  1.
    10030    2    1    2    0    0  0.00000000000E+00  0.00000000000E+00 -0.72117510214E+03  0.33861709709E+04  0.33084830839E+04 0.  0.
        2    1    3    3  502    0  0.73417785753E+03  0.80797336802E+03  0.91144669092E+03  0.14221719869E+04  0.25500000920E-02 0. -1.
       -2    1    3    3    0  502 -0.73417785753E+03 -0.80797336802E+03 -0.16326217931E+04  0.19639989840E+04  0.25500000920E-02 0.  1.
</event>
<event>
 5   0  0.2574803E-06  0.3307972E+04  0.7818609E-02  0.8160870E-01
       -2   -1    0    0    0  501  0.00000000000E+00  0.00000000000E+00  0.16005631372E+04  0.16005631372E+04  0.25500000920E-02 0. -1.
        2   -1    0    0  501    0  0.00000000000E+00  0.00000000000E+00 -0.17091920835E+04  0.17091920835E+04  0.25500000920E-02 0.  1.
    10030    2    1    2    0    0  0.00000000000E+00  0.00000000000E+00 -0.10862894636E+03  0.33097552207E+04  0.33079720938E+04 0.  0.
        4    1    3    3  502    0 -0.12365994781E+04  0.24384460132E+03  0.10172575931E+04  0.16197077151E+04  0.12699999809E+01 0. -1.
       -4    1    3    3    0  502  0.12365994781E+04 -0.24384460132E+03 -0.11258865394E+04  0.16900475056E+04  0.12699999809E+01 0.  1.
</event>
<event>
 5   0  0.2705859E-06  0.3264689E+04  0.7818609E-02  0.8171939E-01
        2   -1    0    0  501    0  0.00000000000E+00  0.00000000000E+00  0.17803581145E+04  0.17803581145E+04  0.25500000920E-02 0.  1.
       -2   -1    0    0    0  501  0.00000000000E+00  0.00000000000E+00 -0.14966358539E+04  0.14966358539E+04  0.25500000920E-02 0. -1.
    10030    2    1    2    0    0  0.00000000000E+00  0.00000000000E+00  0.28372226062E+03  0.32769939684E+04  0.32646885223E+04 0.  0.
        1    1    3    3  502    0 -0.24998682965E+03  0.63102645450E+03 -0.13482748100E+04  0.15094809586E+04  0.50400001928E-02 0. -1.
       -1    1    3    3    0  502  0.24998682965E+03 -0.63102645450E+03  0.16319970706E+04  0.17675130098E+04  0.50400001928E-02 0.  1.
</event>
<event>
 5   0  0.2705859E-06  0.3297464E+04  0.7818609E-02  0.8163541E-01
       -2   -1    0    0    0  501  0.00000000000E+00  0.00000000000E+00  0.15354802602E+04  0.15354802602E+04  0.25500000920E-02 0. -1.
        2   -1    0    0  501    0  0.00000000000E+00  0.00000000000E+00 -0.17703369423E+04  0.17703369423E+04  0.25500000920E-02 0.  1.
    10030    2    1    2    0    0  0.00000000000E+00  0.00000000000E+00 -0.23485668215E+03  0.33058172025E+04  0.32974641340E+04 0.  0.
        1    1    3    3  502    0  0.23115052166E+03  0.10187111010E+03 -0.17508220083E+04  0.17689505340E+04  0.50400001928E-02 0.  1.
       -1    1    3    3    0  502 -0.23115052166E+03 -0.10187111010E+03  0.15159653262E+04  0.15368666686E+04  0.50400001928E-02 0. -1.
</event>
<event>
 5   0  0.8705956E-07  0.3292433E+04  0.7818609E-02  0.8164823E-01
       -1   -1    0    0    0  501  0.00000000000E+00  0.00000000000E+00  0.11522375494E+04  0.11522375494E+04  0.50400001928E-02 0. -1.
        1   -1    0    0  501    0  0.00000000000E+00  0.00000000000E+00 -0.23519705690E+04  0.23519705691E+04  0.50400001928E-02 0.  1.
    10030    2    1    2    0    0  0.00000000000E+00  0.00000000000E+00 -0.11997330197E+04  0.35042081184E+04  0.32924330242E+04 0.  0.
        2    1    3    3  502    0  0.14445914217E+04  0.51186306295E+03 -0.12395058554E+04  0.19710968866E+04  0.25500000920E-02 0.  1.
       -2    1    3    3    0  502 -0.14445914217E+04 -0.51186306295E+03  0.39772835688E+02  0.15331112319E+04  0.25500000920E-02 0. -1.
</event>
<event>
 5   0  0.8705956E-07  0.3291804E+04  0.7818609E-02  0.8164984E-01
        1   -1    0    0  501    0  0.00000000000E+00  0.00000000000E+00  0.21303739702E+04  0.21303739702E+04  0.50400001928E-02 0. -1.
       -1   -1    0    0    0  501  0.00000000000E+00  0.00000000000E+00 -0.12716049796E+04  0.12716049797E+04  0.50400001928E-02 0.  1.
    10030    2    1    2    0    0  0.00000000000E+00  0.00000000000E+00  0.85876899057E+03  0.34019789499E+04  0.32918044590E+04 0.  0.
        2    1    3    3  502    0 -0.83416134038E+03 -0.46937070761E+03  0.18131764442E+04  0.20503031046E+04  0.25500000920E-02 0. -1.
       -2    1    3    3    0  502  0.83416134038E+03  0.46937070761E+03 -0.95440745367E+03  0.13516758452E+04  0.25500000920E-02 0.  1.
</event>
<event>
 5   0  0.2705859E-06  0.3322249E+04  0.7818609E-02  0.8157257E-01
        2   -1    0    0  501    0  0.00000000000E+00  0.00000000000E+00  0.87867324191E+03  0.87867324191E+03  0.25500000920E-02 0.  1.
       -2   -1    0    0    0  501  0.00000000000E+00  0.00000000000E+00 -0.31403420962E+04  0.31403420962E+04  0.25500000920E-02 0. -1.
    10030    2    1    2    0    0  0.00000000000E+00  0.00000000000E+00 -0.22616688543E+04  0.40190153381E+04  0.33222489794E+04 0.  0.
        1    1    3    3  502    0 -0.10935515890E+04 -0.27526768123E+03  0.34468937220E+03  0.11791684093E+04  0.50400001928E-02 0.  1.
       -1    1    3    3    0  502  0.10935515890E+04  0.27526768123E+03 -0.26063582265E+04  0.28398469288E+04  0.50400001928E-02 0. -1.
</event>
<event>
 5   0  0.2658600E-06  0.3347759E+04  0.7818609E-02  0.8150848E-01
       -2   -1    0    0    0  501  0.00000000000E+00  0.00000000000E+00  0.15459642744E+04  0.15459642744E+04  0.25500000920E-02 0. -1.
        2   -1    0    0  501    0  0.00000000000E+00  0.00000000000E+00 -0.18123790690E+04  0.18123790690E+04  0.25500000920E-02 0.  1.
    10030    2    1    2    0    0  0.00000000000E+00  0.00000000000E+00 -0.26641479458E+03  0.33583433434E+04  0.33477594253E+04 0.  0.
        5    1    3    3  502    0 -0.12637800630E+03  0.48011901306E+03 -0.17368122791E+04  0.18063844137E+04  0.46999998093E+01 0.  1.
       -5    1    3    3    0  502  0.12637800630E+03 -0.48011901306E+03  0.14703974845E+04  0.15519589297E+04  0.46999998093E+01 0. -1.
</event>
<event>
 5   0  0.2574803E-06  0.3274304E+04  0.7818609E-02  0.8169465E-01
       -2   -1    0    0    0  501  0.00000000000E+00  0.00000000000E+00  0.17384011130E+04  0.17384011130E+04  0.25500000920E-02 0. -1.
        2   -1    0    0  501    0  0.00000000000E+00  0.00000000000E+00 -0.15417995813E+04  0.15417995813E+04  0.25500000920E-02 0.  1.
    10030    2    1    2    0    0  0.00000000000E+00  0.00000000000E+00  0.19660153169E+03  0.32802006943E+04  0.32743036561E+04 0.  0.
        4    1    3    3  502    0 -0.10860607692E+04  0.20526274276E+03 -0.11116010254E+04  0.15675838863E+04  0.12699999809E+01 0.  1.
       -4    1    3    3    0  502  0.10860607692E+04 -0.20526274276E+03  0.13082025571E+04  0.17126168080E+04  0.12699999809E+01 0. -1.
</event>
<event>
 5   0  0.8845526E-07  0.2918641E+04  0.7818609E-02  0.8267353E-01
       -1   -1    0    0    0  501  0.00000000000E+00  0.00000000000E+00  0.15004003753E+04  0.15004003753E+04  0.50400001928E-02 0. -1.
        1   -1    0    0  501    0  0.00000000000E+00  0.00000000000E+00 -0.14193654281E+04  0.14193654281E+04  0.50400001928E-02 0.  1.
    10030    2    1    2    0    0  0.00000000000E+00  0.00000000000E+00  0.81034947209E+02  0.29197658034E+04  0.29186410680E+04 0.  0.
        1    1    3    3  502    0  0.45400696067E+03 -0.82236444003E+03  0.11577337779E+04  0.14908900339E+04  0.50400001928E-02 0. -1.
       -1    1    3    3    0  502 -0.45400696067E+03  0.82236444003E+03 -0.10766988307E+04  0.14288757695E+04  0.50400001928E-02 0.  1.
</event>
<event>
 5   0  0.2674551E-06  0.3277599E+04  0.7818609E-02  0.8168619E-01
        2   -1    0    0  501    0  0.00000000000E+00  0.00000000000E+00  0.19884745574E+04  0.19884745574E+04  0.25500000920E-02 0. -1.
       -2   -1    0    0    0  501  0.00000000000E+00  0.00000000000E+00 -0.13506151423E+04  0.13506151423E+04  0.25500000920E-02 0.  1.
    10030    2    1    2    0    0  0.00000000000E+00  0.00000000000E+00  0.63785941512E+03  0.33390896997E+04  0.32775990281E+04 0.  0.
        3    1    3    3  502    0 -0.67307236920E+02 -0.94866356629E+03  0.16785732765E+04  0.19292747552E+04  0.10100000352E+00 0. -1.
       -3    1    3    3    0  502  0.67307236920E+02  0.94866356629E+03 -0.10407138614E+04  0.14098149445E+04  0.10100000352E+00 0.  1.
</event>
<event>
 5   0  0.2705859E-06  0.3295912E+04  0.7818609E-02  0.8163936E-01
       -2   -1    0    0    0  501  0.00000000000E+00  0.00000000000E+00  0.99383815298E+03  0.99383815298E+03  0.25500000920E-02 0. -1.
        2   -1    0    0  501    0  0.00000000000E+00  0.00000000000E+00 -0.27325971592E+04  0.27325971592E+04  0.25500000920E-02 0.  1.
    10030    2    1    2    0    0  0.00000000000E+00  0.00000000000E+00 -0.17387590063E+04  0.37264353122E+04  0.32959122037E+04 0.  0.
        1    1    3    3  502    0 -0.42919747090E+03 -0.10884101200E+03 -0.26640824825E+04  0.27006281322E+04  0.50400001928E-02 0.  1.
       -1    1    3    3    0  502  0.42919747090E+03  0.10884101200E+03  0.92532347622E+03  0.10258071800E+04  0.50400001928E-02 0. -1.
</event>
<event>
 5   0  0.9295663E-07  0.3312906E+04  0.7818609E-02  0.8159619E-01
       -1   -1    0    0    0  501  0.00000000000E+00  0.00000000000E+00  0.11327236313E+04  0.11327236313E+04  0.50400001928E-02 0.  1.
        1   -1    0    0  501    0  0.00000000000E+00  0.00000000000E+00 -0.24223352894E+04  0.24223352894E+04  0.50400001928E-02 0. -1.
    10030    2    1    2    0    0  0.00000000000E+00  0.00000000000E+00 -0.12896116582E+04  0.35550589207E+04  0.33129059300E+04 0.  0.
        4    1    3    3  502    0  0.15769371411E+04 -0.25597028883E+03 -0.17511022357E+03  0.16071455252E+04  0.12699999809E+01 0.  1.
       -4    1    3    3    0  502 -0.15769371411E+04  0.25597028883E+03 -0.11145014346E+04  0.19479133955E+04  0.12699999809E+01 0. -1.
</event>
<event>
 5   0  0.2674551E-06  0.2366238E+04  0.7818609E-02  0.8452253E-01
        2   -1    0    0  501    0  0.00000000000E+00  0.00000000000E+00  0.17591401522E+04  0.17591401522E+04  0.25500000920E-02 0.  1.
       -2   -1    0    0    0  501  0.00000000000E+00  0.00000000000E+00 -0.79571291076E+03  0.79571291076E+03  0.25500000920E-02 0. -1.
    10030    2    1    2    0    0  0.00000000000E+00  0.00000000000E+00  0.96342724146E+03  0.25548530630E+04  0.23662379686E+04 0.  0.
        3    1    3    3  502    0  0.69247255572E+03  0.35073993294E+03 -0.48233814611E+03  0.91388557181E+03  0.10100000352E+00 0. -1.
       -3    1    3    3    0  502 -0.69247255572E+03 -0.35073993294E+03  0.14457653876E+04  0.16409674912E+04  0.10100000352E+00 0.  1.
</event>
<event>
 5   0  0.2705859E-06  0.3357112E+04  0.7818609E-02  0.8148513E-01
       -2   -1    0    0    0  501  0.00000000000E+00  0.00000000000E+00  0.12812755438E+04  0.12812755438E+04  0.25500000920E-02 0. -1.
        2   -1    0    0  501    0  0.00000000000E+00  0.00000000000E+00 -0.21990197654E+04  0.21990197654E+04  0.25500000920E-02 0.  1.
    10030    2    1    2    0    0  0.00000000000E+00  0.00000000000E+00 -0.91774422159E+03  0.34802953092E+04  0.33571120004E+04 0.  0.
        1    1    3    3  502    0 -0.53803476065E+03  0.10625861546E+04 -0.16850569494E+04  0.20634891961E+04  0.50400001928E-02 0.  1.
       -1    1    3    3    0  502  0.53803476065E+03 -0.10625861546E+04  0.76731272784E+03  0.14168061131E+04  0.50400001928E-02 0. -1.
</event>
<event>
 5   0  0.8705956E-07  0.3215405E+04  0.7818609E-02  0.8184761E-01
        1   -1    0    0  501    0  0.00000000000E+00  0.00000000000E+00  0.18579269414E+04  0.18579269414E+04  0.50400001928E-02 0.  1.
       -1   -1    0    0    0  501  0.00000000000E+00  0.00000000000E+00 -0.13911781949E+04  0.13911781949E+04  0.50400001928E-02 0. -1.
    10030    2    1    2    0    0  0.00000000000E+00  0.00000000000E+00  0.46674874648E+03  0.32491051364E+04  0.32154050748E+04 0.  0.
        2    1    3    3  502    0  0.14267687864E+04  0.71067247955E+03  0.44529343858E+03  0.16549957068E+04  0.25500000920E-02 0.  1.
       -2    1    3    3    0  502 -0.14267687864E+04 -0.71067247955E+03  0.21455307898E+02  0.15941094296E+04  0.25500000920E-02 0. -1.
</event>
<event>
 5   0  0.2658600E-06  0.3272681E+04  0.7818609E-02  0.8169882E-01
       -2   -1    0    0    0  501  0.00000000000E+00  0.00000000000E+00  0.14822549791E+04  0.14822549791E+04  0.25500000920E-02 0. -1.
        2   -1    0    0  501    0  0.00000000000E+00  0.00000000000E+00 -0.18064433394E+04  0.18064433394E+04  0.25500000920E-02 0.  1.
    10030    2    1    2    0    0  0.00000000000E+00  0.00000000000E+00 -0.32418836027E+03  0.32886983184E+04  0.32726806347E+04 0.  0.
        5    1    3    3  502    0  0.12835551675E+04  0.32666689940E+03 -0.11277147431E+04  0.17395366519E+04  0.46999998093E+01 0.  1.
       -5    1    3    3    0  502 -0.12835551675E+04 -0.32666689940E+03  0.80352638285E+03  0.15491616666E+04  0.46999998093E+01 0. -1.
</event>
<event>
 5   0  0.8845526E-07  0.3262792E+04  0.7818609E-02  0.8172428E-01
        1   -1    0    0  501    0  0.00000000000E+00  0.00000000000E+00  0.15057271215E+04  0.15057271215E+04  0.50400001928E-02 0. -1.
       -1   -1    0    0    0  501  0.00000000000E+00  0.00000000000E+00 -0.17675531312E+04  0.17675531313E+04  0.50400001928E-02 0.  1.
    10030    2    1    2    0    0  0.00000000000E+00  0.00000000000E+00 -0.26182600978E+03  0.32732802527E+04  0.32627918649E+04 0.  0.
        1    1    3    3  502    0 -0.97965518682E+03 -0.23448089482E+03 -0.14182945379E+04  0.17396163288E+04  0.50400001928E-02 0.  1.
       -1    1    3    3    0  502  0.97965518682E+03  0.23448089482E+03  0.11564685281E+04  0.15336639240E+04  0.50400001928E-02 0. -1.
</event>
<event>
 5   0  0.2705859E-06  0.3322065E+04  0.7818609E-02  0.8157304E-01
        2   -1    0    0  501    0  0.00000000000E+00  0.00000000000E+00  0.24178313075E+04  0.24178313075E+04  0.25500000920E-02 0.  1.
       -2   -1    0    0    0  501  0.00000000000E+00  0.00000000000E+00 -0.11411171099E+04  0.11411171099E+04  0.25500000920E-02 0. -1.
    10030    2    1    2    0    0  0.00000000000E+00  0.00000000000E+00  0.12767141976E+04  0.35589484174E+04  0.33220648241E+04 0.  0.
        1    1    3    3  502    0 -0.11769228350E+04  0.11326244603E+04  0.31510807664E+03  0.16635139397E+04  0.50400001928E-02 0.  1.
       -1    1    3    3    0  502  0.11769228350E+04 -0.11326244603E+04  0.96160612097E+03  0.18954344778E+04  0.50400001928E-02 0. -1.
</event>
<event>
 5   0  0.2614212E-06  0.3542223E+04  0.7818609E-02  0.8103856E-01
       -2   -1    0    0    0  501  0.00000000000E+00  0.00000000000E+00  0.13698991886E+04  0.13698991886E+04  0.25500000920E-02 0.  1.
        2   -1    0    0  501    0  0.00000000000E+00  0.00000000000E+00 -0.22898291504E+04  0.22898291504E+04  0.25500000920E-02 0. -1.
    10030    2    1    2    0    0  0.00000000000E+00  0.00000000000E+00 -0.91992996180E+03  0.36597283390E+04  0.35422225199E+04 0.  0.
        2    1    3    3  502    0  0.81244498274E+02 -0.11179344782E+04  0.95682247987E+03  0.14737324805E+04  0.25500000920E-02 0.  1.
       -2    1    3    3    0  502 -0.81244498274E+02  0.11179344782E+04 -0.18767524417E+04  0.21859958585E+04  0.25500000920E-02 0. -1.
</event>
<event>
 5   0  0.8520125E-07  0.2403528E+04  0.7818609E-02  0.8438184E-01
       -3   -1    0    0    0  501  0.00000000000E+00  0.00000000000E+00  0.80865204095E+03  0.80865204726E+03  0.10100000352E+00 0.  1.
        3   -1    0    0  501    0  0.00000000000E+00  0.00000000000E+00 -0.17859803934E+04  0.17859803963E+04  0.10100000352E+00 0. -1.
    10030    2    1    2    0    0  0.00000000000E+00  0.00000000000E+00 -0.97732835248E+03  0.25946324435E+04  0.24035279920E+04 0.  0.
        4    1    3    3  502    0  0.96410093777E+03  0.11204389019E+03 -0.12536633495E+04  0.15854708633E+04  0.12699999809E+01 0. -1.
       -4    1    3    3    0  502 -0.96410093777E+03 -0.11204389019E+03  0.27633499705E+03  0.10091615802E+04  0.12699999809E+01 0.  1.
</event>
<event>
 5   0  0.9268670E-07  0.2879739E+04  0.7818609E-02  0.8278931E-01
       -1   -1    0    0    0  501  0.00000000000E+00  0.00000000000E+00  0.10036395096E+04  0.10036395096E+04  0.50400001928E-02 0.  1.
        1   -1    0    0  501    0  0.00000000000E+00  0.00000000000E+00 -0.20657067211E+04  0.20657067211E+04  0.50400001928E-02 0. -1.
    10030    2    1    2    0    0  0.00000000000E+00  0.00000000000E+00 -0.10620672115E+04  0.30693462307E+04  0.28797394886E+04 0.  0.
        3    1    3    3  502    0 -0.13874165683E+04 -0.19664056539E+03 -0.88394248393E+03  0.16567880284E+04  0.10100000352E+00 0. -1.
       -3    1    3    3    0  502  0.13874165683E+04  0.19664056539E+03 -0.17812472760E+03  0.14125582023E+04  0.10100000352E+00 0.  1.
</event>
<event>
 5   0  0.2674551E-06  0.3249834E+04  0.7818609E-02  0.8175779E-01
        2   -1    0    0  501    0  0.00000000000E+00  0.00000000000E+00  0.14436531812E+04  0.14436531812E+04  0.25500000920E-02 0. -1.
       -2   -1    0    0    0  501  0.00000000000E+00  0.00000000000E+00 -0.18289406564E+04  0.18289406564E+04  0.25500000920E-02 0.  1.
    10030    2    1    2    0    0  0.00000000000E+00  0.00000000000E+00 -0.38528747520E+03  0.32725938376E+04  0.32498344553E+04 0.  0.
        3    1    3    3  502    0 -0.11710276252E+04  0.69777934284E+03  0.69794475957E+03  0.15314465736E+04  0.10100000352E+00 0. -1.
       -3    1    3    3    0  502  0.11710276252E+04 -0.69777934284E+03 -0.10832322348E+04  0.17411472640E+04  0.10100000352E+00 0.  1.
</event>
<event>
 5   0  0.2658600E-06  0.3332657E+04  0.7818609E-02  0.8154635E-01
       -2   -1    0    0    0  501  0.00000000000E+00  0.00000000000E+00  0.15424918137E+04  0.15424918137E+04  0.25500000920E-02 0.  1.
        2   -1    0    0  501    0  0.00000000000E+00  0.00000000000E+00 -0.18001074101E+04  0.18001074101E+04  0.25500000920E-02 0. -1.
    10030    2    1    2    0    0  0.00000000000E+00  0.00000000000E+00 -0.25761559640E+03  0.33425992238E+04  0.33326571644E+04 0.  0.
        5    1    3    3  502    0 -0.16233016448E+04 -0.20051470131E+03  0.19044111289E+03  0.16466949575E+04  0.46999998093E+01 0.  1.
       -5    1    3    3    0  502  0.16233016448E+04  0.20051470131E+03 -0.44805670928E+03  0.16959042663E+04  0.46999998093E+01 0. -1.
</event>
<event>
 5   0  0.8520125E-07  0.3234280E+04  0.7818609E-02  0.8179822E-01
        3   -1    0    0  501    0  0.00000000000E+00  0.00000000000E+00  0.20125496699E+04  0.20125496725E+04  0.10100000352E+00 0.  1.
       -3   -1    0    0    0  501  0.00000000000E+00  0.00000000000E+00 -0.12994174325E+04  0.12994174364E+04  0.10100000352E+00 0. -1.
    10030    2    1    2    0    0  0.00000000000E+00  0.00000000000E+00  0.71313223742E+03  0.33119671089E+04  0.32342802201E+04 0.  0.
        4    1    3    3  502    0  0.11081929610E+04 -0.80927878820E+03 -0.51962437121E+03  0.14673223558E+04  0.12699999809E+01 0. -1.
       -4    1    3    3    0  502 -0.11081929610E+04  0.80927878820E+03  0.12327566086E+04  0.18446447530E+04  0.12699999809E+01 0.  1.
</event>
<event>
 5   0  0.2705859E-06  0.3334821E+04  0.7818609E-02  0.8154091E-01
       -2   -1    0    0    0  501  0.00000000000E+00  0.00000000000E+00  0.13451641736E+04  0.13451641736E+04  0.25500000920E-02 0. -1.
        2   -1    0    0  501    0  0.00000000000E+00  0.00000000000E+00 -0.20668540626E+04  0.20668540626E+04  0.25500000920E-02 0.  1.
    10030    2    1    2    0    0  0.00000000000E+00  0.00000000000E+00 -0.72168988901E+03  0.34120182362E+04  0.33348211568E+04 0.  0.
        1    1    3    3  502    0  0.44479686784E+03 -0.14660356391E+04 -0.10342239988E+04  0.18484382674E+04  0.50400001928E-02 0.  1.
       -1    1    3    3    0  502 -0.44479686784E+03  0.14660356391E+04  0.31253410976E+03  0.15635799687E+04  0.50400001928E-02 0. -1.
</event>
<event>
 5   0  0.8845526E-07  0.3425663E+04  0.7818609E-02  0.8131636E-01
       -1   -1    0    0    0  501  0.00000000000E+00  0.00000000000E+00  0.21457092262E+04  0.21457092262E+04  0.50400001928E-02 0. -1.
        1   -1    0    0  501    0  0.00000000000E+00  0.00000000000E+00 -0.13672831894E+04  0.13672831895E+04  0.50400001928E-02 0.  1.
    10030    2    1    2    0    0  0.00000000000E+00  0.00000000000E+00  0.77842603678E+03  0.35129924157E+04  0.34256632377E+04 0.  0.
        1    1    3    3  502    0 -0.10646036848E+03 -0.14736244063E+04  0.12778421519E+04  0.19534029963E+04  0.50400001928E-02 0. -1.
       -1    1    3    3    0  502  0.10646036848E+03  0.14736244063E+04 -0.49941611508E+03  0.15595894194E+04  0.50400001928E-02 0.  1.
</event>
<event>
 5   0  0.2674551E-06  0.3320234E+04  0.7818609E-02  0.8157766E-01
       -2   -1    0    0    0  501  0.00000000000E+00  0.00000000000E+00  0.95954836308E+03  0.95954836308E+03  0.25500000920E-02 0.  1.
        2   -1    0    0  501    0  0.00000000000E+00  0.00000000000E+00 -0.28721733020E+04  0.28721733020E+04  0.25500000920E-02 0. -1.
    10030    2    1    2    0    0  0.00000000000E+00  0.00000000000E+00 -0.19126249389E+04  0.38317216650E+04  0.33202344438E+04 0.  0.
        3    1    3    3  502    0  0.67652753819E+03  0.14288343727E+04 -0.15410557108E+04  0.22077386368E+04  0.10100000352E+00 0. -1.
       -3    1    3    3    0  502 -0.67652753819E+03 -0.14288343727E+04 -0.37156922806E+03  0.16239830282E+04  0.10100000352E+00 0.  1.
</event>
<event>
 5   0  0.2574803E-06  0.3328377E+04  0.7818609E-02  0.8155712E-01
       -2   -1    0    0    0  501  0.00000000000E+00  0.00000000000E+00  0.16449256427E+04  0.16449256427E+04  0.25500000920E-02 0.  1.
        2   -1    0    0  501    0  0.00000000000E+00  0.00000000000E+00 -0.16836769966E+04  0.16836769967E+04  0.25500000920E-02 0. -1.
    10030    2    1    2    0    0  0.00000000000E+00  0.00000000000E+00 -0.38751353950E+02  0.33286026394E+04  0.33283770615E+04 0.  0.
        4    1    3    3  502    0  0.11312281853E+04  0.99647485646E+03 -0.72432238416E+03  0.16725082588E+04  0.12699999809E+01 0.  1.
       -4    1    3    3    0  502 -0.11312281853E+04 -0.99647485646E+03  0.68557103021E+03  0.16560943805E+04  0.12699999809E+01 0. -1.
</event>
<event>
 5   0  0.2614212E-06  0.3040667E+04  0.7818609E-02  0.8232213E-01
        2   -1    0    0  501    0  0.00000000000E+00  0.00000000000E+00  0.90856785536E+03  0.90856785537E+03  0.25500000920E-02 0. -1.
       -2   -1    0    0    0  501  0.00000000000E+00  0.00000000000E+00 -0.25440189163E+04  0.25440189163E+04  0.25500000920E-02 0.  1.
    10030    2    1    2    0    0  0.00000000000E+00  0.00000000000E+00 -0.16354510609E+04  0.34525867716E+04  0.30406669076E+04 0.  0.
        2    1    3    3  502    0 -0.14904669221E+04  0.25072717933E+03 -0.63094828155E+03  0.16378191287E+04  0.25500000920E-02 0. -1.
       -2    1    3    3    0  502  0.14904669221E+04 -0.25072717933E+03 -0.10045027793E+04  0.18147676430E+04  0.25500000920E-02 0.  1.
</event>
<event>
 5   0  0.2614212E-06  0.3441547E+04  0.7818609E-02  0.8127784E-01
       -2   -1    0    0    0  501  0.00000000000E+00  0.00000000000E+00  0.20072297140E+04  0.20072297140E+04  0.25500000920E-02 0.  1.
        2   -1    0    0  501    0  0.00000000000E+00  0.00000000000E+00 -0.14751981366E+04  0.14751981366E+04  0.25500000920E-02 0. -1.
    10030    2    1    2    0    0  0.00000000000E+00  0.00000000000E+00  0.53203157748E+03  0.34824278506E+04  0.34415470555E+04 0.  0.
        2    1    3    3  502    0  0.13695995138E+04 -0.21982831923E+03  0.12964114423E+04  0.18986337050E+04  0.25500000920E-02 0.  1.
       -2    1    3    3    0  502 -0.13695995138E+04  0.21982831923E+03 -0.76437986480E+03  0.15837941456E+04  0.25500000920E-02 0. -1.
</event>
<event>
 5   0  0.2705859E-06  0.3352080E+04  0.7818609E-02  0.8149769E-01
       -2   -1    0    0    0  501  0.00000000000E+00  0.00000000000E+00  0.25644211876E+04  0.25644211876E+04  0.25500000920E-02 0. -1.
        2   -1    0    0  501    0  0.00000000000E+00  0.00000000000E+00 -0.10954167089E+04  0.10954167089E+04  0.25500000920E-02 0.  1.
    10030    2    1    2    0    0  0.00000000000E+00  0.00000000000E+00  0.14690044787E+04  0.36598378965E+04  0.33520798425E+04 0.  0.
        1    1    3    3  502    0  0.65700577477E+03  0.10381844369E+03  0.24141445393E+04  0.25041023769E+04  0.50400001928E-02 0. -1.
       -1    1    3    3    0  502 -0.65700577477E+03 -0.10381844369E+03 -0.94514006056E+03  0.11557355197E+04  0.50400001928E-02 0.  1.
</event>
<event>
 5   0  0.8520125E-07  0.3292474E+04  0.7818609E-02  0.8164813E-01
       -3   -1    0    0    0  501  0.00000000000E+00  0.00000000000E+00  0.13588545845E+04  0.13588545883E+04  0.10100000352E+00 0.  1.
        3   -1    0    0  501    0  0.00000000000E+00  0.00000000000E+00 -0.19943971876E+04  0.19943971901E+04  0.10100000352E+00 0. -1.
    10030    2    1    2    0    0  0.00000000000E+00  0.00000000000E+00 -0.63554260306E+03  0.33532517784E+04  0.32924737037E+04 0.  0.
        4    1    3    3  502    0 -0.66606326181E+03 -0.90304051415E+03 -0.15445700454E+04  0.19091413454E+04  0.12699999809E+01 0. -1.
       -4    1    3    3    0  502  0.66606326181E+03  0.90304051415E+03  0.90902744230E+03  0.14441104330E+04  0.12699999809E+01 0.  1.
</event>
<event>
 5   0  0.8845526E-07  0.3312039E+04  0.7818609E-02  0.8159839E-01
        1   -1    0    0  501    0  0.00000000000E+00  0.00000000000E+00  0.18481219225E+04  0.18481219225E+04  0.50400001928E-02 0.  1.
       -1   -1    0    0    0  501  0.00000000000E+00  0.00000000000E+00 -0.14838855467E+04  0.14838855467E+04  0.50400001928E-02 0. -1.
    10030    2    1    2    0    0  0.00000000000E+00  0.00000000000E+00  0.36423637575E+03  0.33320074692E+04  0.33120394981E+04 0.  0.
        1    1    3    3  502    0 -0.85851326658E+03 -0.33176401680E+03 -0.12028767368E+04  0.15146038544E+04  0.50400001928E-02 0. -1.
       -1    1    3    3    0  502  0.85851326658E+03  0.33176401680E+03  0.15671131125E+04  0.18174036148E+04  0.50400001928E-02 0.  1.
</event>
<event>
 5   0  0.2705859E-06  0.3253579E+04  0.7818609E-02  0.8174809E-01
       -2   -1    0    0    0  501  0.00000000000E+00  0.00000000000E+00  0.13442581598E+04  0.13442581598E+04  0.25500000920E-02 0. -1.
        2   -1    0    0  501    0  0.00000000000E+00  0.00000000000E+00 -0.19687017756E+04  0.19687017756E+04  0.25500000920E-02 0.  1.
    10030    2    1    2    0    0  0.00000000000E+00  0.00000000000E+00 -0.62444361576E+03  0.33129599354E+04  0.32535785997E+04 0.  0.
        1    1    3    3  502    0  0.10596978936E+04  0.32105752092E+03 -0.15257814075E+04  0.18852178816E+04  0.50400001928E-02 0.  1.
       -1    1    3    3    0  502 -0.10596978936E+04 -0.32105752092E+03  0.90133779170E+03  0.14277420538E+04  0.50400001928E-02 0. -1.
</event>
<event>
 5   0  0.8705956E-07  0.3290531E+04  0.7818609E-02  0.8165309E-01
       -1   -1    0    0    0  501  0.00000000000E+00  0.00000000000E+00  0.14151844942E+04  0.14151844942E+04  0.50400001928E-02 0.  1.
        1   -1    0    0  501    0  0.00000000000E+00  0.00000000000E+00 -0.19127534525E+04  0.19127534525E+04  0.50400001928E-02 0. -1.
    10030    2    1    2    0    0  0.00000000000E+00  0.00000000000E+00 -0.49756895826E+03  0.33279379467E+04  0.32905312806E+04 0.  0.
        2    1    3    3  502    0  0.99832815756E+03  0.87294395334E+03  0.73604531826E+03  0.15167244201E+04  0.25500000920E-02 0.  1.
       -2    1    3    3    0  502 -0.99832815756E+03 -0.87294395334E+03 -0.12336142765E+04  0.18112135266E+04  0.25500000920E-02 0. -1.
</event>
<event>
 5   0  0.9268670E-07  0.3233251E+04  0.7818609E-02  0.8180091E-01
        1   -1    0    0  501    0  0.00000000000E+00  0.00000000000E+00  0.13618123036E+04  0.13618123036E+04  0.50400001928E-02 0.  1.
       -1   -1    0    0    0  501  0.00000000000E+00  0.00000000000E+00 -0.19191172892E+04  0.19191172892E+04  0.50400001928E-02 0. -1.
    10030    2    1    2    0    0  0.00000000000E+00  0.00000000000E+00 -0.55730498563E+03  0.32809295929E+04  0.32332507089E+04 0.  0.
        3    1    3    3  502    0 -0.37627859607E+03  0.73723911586E+03  0.11304830230E+04  0.14011063384E+04  0.10100000352E+00 0.  1.
       -3    1    3    3    0  502  0.37627859607E+03 -0.73723911586E+03 -0.16877880087E+04  0.18798232545E+04  0.10100000352E+00 0. -1.
</event>
<event>
 5   0  0.9295663E-07  0.2485054E+04  0.7818609E-02  0.8408330E-01
        1   -1    0    0  501    0  0.00000000000E+00  0.00000000000E+00  0.83918903264E+03  0.83918903265E+03  0.50400001928E-02 0. -1.
       -1   -1    0    0    0  501  0.00000000000E+00  0.00000000000E+00 -0.18397203109E+04  0.18397203110E+04  0.50400001928E-02 0.  1.
    10030    2    1    2    0    0  0.00000000000E+00  0.00000000000E+00 -0.10005312783E+04  0.26789093436E+04  0.24850538088E+04 0.  0.
        4    1    3    3  502    0  0.25799928730E+03  0.99413332923E+03 -0.12541064814E+04  0.16210025873E+04  0.12699999809E+01 0.  1.
       -4    1    3    3    0  502 -0.25799928730E+03 -0.99413332923E+03  0.25357520305E+03  0.10579067563E+04  0.12699999809E+01 0. -1.
</event>
<event>
 5   0  0.2705859E-06  0.3329168E+04  0.7818609E-02  0.8155513E-01
       -2   -1    0    0    0  501  0.00000000000E+00  0.00000000000E+00  0.19741175089E+04  0.19741175089E+04  0.25500000920E-02 0. -1.
        2   -1    0    0  501    0  0.00000000000E+00  0.00000000000E+00 -0.14035842956E+04  0.14035842956E+04  0.25500000920E-02 0.  1.
    10030    2    1    2    0    0  0.00000000000E+00  0.00000000000E+00  0.57053321329E+03  0.33777018045E+04  0.33291682644E+04 0.  0.
        1    1    3    3  502    0  0.98425111623E+03 -0.13313035627E+04  0.11035585023E+03  0.16593064363E+04  0.50400001928E-02 0. -1.
       -1    1    3    3    0  502 -0.98425111623E+03  0.13313035627E+04  0.46017736305E+03  0.17183953682E+04  0.50400001928E-02 0.  1.
</event>
<event>
 5   0  0.8705956E-07  0.3285155E+04  0.7818609E-02  0.8166683E-01
       -1   -1    0    0    0  501  0.00000000000E+00  0.00000000000E+00  0.13694405911E+04  0.13694405911E+04  0.50400001928E-02 0. -1.
        1   -1    0    0  501    0  0.00000000000E+00  0.00000000000E+00 -0.19701915992E+04  0.19701915993E+04  0.50400001928E-02 0.  1.
    10030    2    1    2    0    0  0.00000000000E+00  0.00000000000E+00 -0.60075100811E+03  0.33396321904E+04  0.32851546986E+04 0.  0.
        2    1    3    3  502    0  0.55755192357E+03  0.39079502919E+03  0.12192291203E+04  0.13964614388E+04  0.25500000920E-02 0. -1.
       -2    1    3    3    0  502 -0.55755192357E+03 -0.39079502919E+03 -0.18199801284E+04  0.19431707516E+04  0.25500000920E-02 0.  1.
</event>
<event>
 5   0  0.9530268E-07  0.2847731E+04  0.7818609E-02  0.8288601E-01
        1   -1    0    0  501    0  0.00000000000E+00  0.00000000000E+00  0.14633223024E+04  0.14633223024E+04  0.50400001928E-02 0.  1.
       -1   -1    0    0    0  501  0.00000000000E+00  0.00000000000E+00 -0.13854721250E+04  0.13854721250E+04  0.50400001928E-02 0. -1.
    10030    2    1    2    0    0  0.00000000000E+00  0.00000000000E+00  0.77850177433E+02  0.28487944274E+04  0.28477305069E+04 0.  0.
        5    1    3    3  502    0 -0.83614299883E+03  0.10925934580E+04 -0.32791968767E+03  0.14143722956E+04  0.46999998093E+01 0. -1.
       -5    1    3    3    0  502  0.83614299883E+03 -0.10925934580E+04  0.40576986510E+03  0.14344221319E+04  0.46999998093E+01 0.  1.
</event>
<event>
 5   0  0.9530268E-07  0.3299856E+04  0.7818609E-02  0.8162932E-01
       -1   -1    0    0    0  501  0.00000000000E+00  0.00000000000E+00  0.17527202973E+04  0.17527202973E+04  0.50400001928E-02 0. -1.
        1   -1    0    0  501    0  0.00000000000E+00  0.00000000000E+00 -0.15531645427E+04  0.15531645427E+04  0.50400001928E-02 0.  1.
    10030    2    1    2    0    0  0.00000000000E+00  0.00000000000E+00  0.19955575458E+03  0.33058848400E+04  0.32998563721E+04 0.  0.
        5    1    3    3  502    0 -0.10344524535E+04  0.60512034940E+03 -0.10363037141E+04  0.15843642238E+04  0.46999998093E+01 0.  1.
       -5    1    3    3    0  502  0.10344524535E+04 -0.60512034940E+03  0.12358594687E+04  0.17215206162E+04  0.46999998093E+01 0. -1.
</event>
<event>
 5   0  0.2705859E-06  0.3344883E+04  0.7818609E-02  0.8151568E-01
        2   -1    0    0  501    0  0.00000000000E+00  0.00000000000E+00  0.14531861474E+04  0.14531861474E+04  0.25500000920E-02 0.  1.
       -2   -1    0    0    0  501  0.00000000000E+00  0.00000000000E+00 -0.19247784672E+04  0.19247784672E+04  0.25500000920E-02 0. -1.
    10030    2    1    2    0    0  0.00000000000E+00  0.00000000000E+00 -0.47159231980E+03  0.33779646147E+04  0.33448834990E+04 0.  0.
        1    1    3    3  502    0 -0.82269160903E+03 -0.11765336967E+04  0.63059792803E+03  0.15680263932E+04  0.50400001928E-02 0.  1.
       -1    1    3    3    0  502  0.82269160903E+03  0.11765336967E+04 -0.11021902478E+04  0.18099382214E+04  0.50400001928E-02 0. -1.
</event>
<event>
 5   0  0.9530268E-07  0.2656615E+04  0.7818609E-02  0.8349221E-01
       -1   -1    0    0    0  501  0.00000000000E+00  0.00000000000E+00  0.10602864232E+04  0.10602864232E+04  0.50400001928E-02 0. -1.
        1   -1    0    0  501    0  0.00000000000E+00  0.00000000000E+00 -0.16640789441E+04  0.16640789441E+04  0.50400001928E-02 0.  1.
    10030    2    1    2    0    0  0.00000000000E+00  0.00000000000E+00 -0.60379252092E+03  0.27243653672E+04  0.26566146213E+04 0.  0.
        5    1    3    3  502    0  0.12221730097E+04  0.69270184728E+01  0.23158533696E+03  0.12439488364E+04  0.46999998093E+01 0. -1.
       -5    1    3    3    0  502 -0.12221730097E+04 -0.69270184728E+01 -0.83537785788E+03  0.14804165308E+04  0.46999998093E+01 0.  1.
</event>
<event>
 5   0  0.2614212E-06  0.3272602E+04  0.7818609E-02  0.8169902E-01
       -2   -1    0    0    0  501  0.00000000000E+00  0.00000000000E+00  0.12439970236E+04  0.12439970236E+04  0.25500000920E-02 0. -1.
        2   -1    0    0  501    0  0.00000000000E+00  0.00000000000E+00 -0.21523205176E+04  0.21523205176E+04  0.25500000920E-02 0.  1.
    10030    2    1    2    0    0  0.00000000000E+00  0.00000000000E+00 -0.90832349401E+03  0.33963175411E+04  0.32726016058E+04 0.  0.
        2    1    3    3  502    0 -0.46421589939E+03 -0.63391807809E+03  0.10354141987E+04  0.12997811715E+04  0.25500000920E-02 0. -1.
       -2    1    3    3    0  502  0.46421589939E+03  0.63391807809E+03 -0.19437376927E+04  0.20965363696E+04  0.25500000920E-02 0.  1.
</event>
<event>
 5   0  0.8705956E-07  0.3277469E+04  0.7818609E-02  0.8168652E-01
        1   -1    0    0  501    0  0.00000000000E+00  0.00000000000E+00  0.20240869062E+04  0.20240869062E+04  0.50400001928E-02 0.  1.
       -1   -1    0    0    0  501  0.00000000000E+00  0.00000000000E+00 -0.13267465446E+04  0.13267465446E+04  0.50400001928E-02 0. -1.
    10030    2    1    2    0    0  0.00000000000E+00  0.00000000000E+00  0.69734036153E+03  0.33508334508E+04  0.32774687238E+04 0.  0.
        2    1    3    3  502    0 -0.15214278362E+04  0.57811360077E+03  0.15336445279E+03  0.16347717429E+04  0.25500000920E-02 0. -1.
       -2    1    3    3    0  502  0.15214278362E+04 -0.57811360077E+03  0.54397590875E+03  0.17160617079E+04  0.25500000920E-02 0.  1.
</event>
<event>
 5   0  0.2658600E-06  0.3317218E+04  0.7818609E-02  0.8158528E-01
        2   -1    0    0  501    0  0.00000000000E+00  0.00000000000E+00  0.17688148963E+04  0.17688148963E+04  0.25500000920E-02 0.  1.
       -2   -1    0    0    0  501  0.00000000000E+00  0.00000000000E+00 -0.15552697162E+04  0.15552697162E+04  0.25500000920E-02 0. -1.
    10030    2    1    2    0    0  0.00000000000E+00  0.00000000000E+00  0.21354518007E+03  0.33240846125E+04  0.33172182574E+04 0.  0.
        5    1    3    3  502    0 -0.88783931060E+03  0.11466661550E+04 -0.69979113618E+03  0.16102272004E+04  0.46999998093E+01 0. -1.
       -5    1    3    3    0  502  0.88783931060E+03 -0.11466661550E+04  0.91333631624E+03  0.17138574121E+04  0.46999998093E+01 0.  1.
</event>
<event>
 5   0  0.2574803E-06  0.3213584E+04  0.7818609E-02  0.8185239E-01
       -2   -1    0    0    0  501  0.00000000000E+00  0.00000000000E+00  0.13419313439E+04  0.13419313439E+04  0.25500000920E-02 0.  1.
        2   -1    0    0  501    0  0.00000000000E+00  0.00000000000E+00 -0.19239292812E+04  0.19239292812E+04  0.25500000920E-02 0. -1.
    10030    2    1    2    0    0  0.00000000000E+00  0.00000000000E+00 -0.58199793731E+03  0.32658606252E+04  0.32135842955E+04 0.  0.
        4    1    3    3  502    0 -0.29473346996E+03 -0.15794880981E+04 -0.27945985368E+03  0.16308739661E+04  0.12699999809E+01 0. -1.
       -4    1    3    3    0  502  0.29473346996E+03  0.15794880981E+04 -0.30253808363E+03  0.16349866591E+04  0.12699999809E+01 0.  1.
</event>
<event>
 5   0  0.2574803E-06  0.3073295E+04  0.7818609E-02  0.8223105E-01
       -2   -1    0    0    0  501  0.00000000000E+00  0.00000000000E+00  0.11419518917E+04  0.11419518917E+04  0.25500000920E-02 0. -1.
        2   -1    0    0  501    0  0.00000000000E+00  0.00000000000E+00 -0.20677630725E+04  0.20677630725E+04  0.25500000920E-02 0.  1.
    10030    2    1    2    0    0  0.00000000000E+00  0.00000000000E+00 -0.92581118082E+03  0.32097149643E+04  0.30732952688E+04 0.  0.
        4    1    3    3  502    0 -0.27931841686E+03 -0.11713039208E+04 -0.14599072649E+04  0.18924329547E+04  0.12699999809E+01 0.  1.
       -4    1    3    3    0  502  0.27931841686E+03  0.11713039208E+04  0.53409608408E+03  0.13172820096E+04  0.12699999809E+01 0. -1.
</event>
<event>
 5   0  0.8520125E-07  0.2520392E+04  0.7818609E-02  0.8395757E-01
       -3   -1    0    0    0  501  0.00000000000E+00  0.00000000000E+00  0.23430479890E+04  0.23430479912E+04  0.10100000352E+00 0. -1.
        3   -1    0    0  501    0  0.00000000000E+00  0.00000000000E+00 -0.67778977280E+03  0.67778978033E+03  0.10100000352E+00 0.  1.
    10030    2    1    2    0    0  0.00000000000E+00  0.00000000000E+00  0.16652582162E+04  0.30208377715E+04  0.25203920162E+04 0.  0.
        4    1    3    3  502    0  0.10219185048E+04 -0.39522863095E+03  0.15787925587E+04  0.19217467725E+04  0.12699999809E+01 0. -1.
       -4    1    3    3    0  502 -0.10219185048E+04  0.39522863095E+03  0.86465657459E+02  0.10990909990E+04  0.12699999809E+01 0.  1.
</event>
<event>
 5   0  0.8520125E-07  0.3187372E+04  0.7818609E-02  0.8192160E-01
       -3   -1    0    0    0  501  0.00000000000E+00  0.00000000000E+00  0.21573083049E+04  0.21573083073E+04  0.10100000352E+00 0. -1.
        3   -1    0    0  501    0  0.00000000000E+00  0.00000000000E+00 -0.11773163391E+04  0.11773163434E+04  0.10100000352E+00 0.  1.
    10030    2    1    2    0    0  0.00000000000E+00  0.00000000000E+00  0.97999196586E+03  0.33346246507E+04  0.31873715359E+04 0.  0.
        5    1    3    3  502    0  0.25355458785E+03  0.24970961698E+03  0.21152003946E+04  0.21449334771E+04  0.46999998093E+01 0. -1.
       -5    1    3    3    0  502 -0.25355458785E+03 -0.24970961698E+03 -0.11352084287E+04  0.11896911736E+04  0.46999998093E+01 0.  1.
</event>
<event>
 5   0  0.9530268E-07  0.3311797E+04  0.7818609E-02  0.8159900E-01
       -1   -1    0    0    0  501  0.00000000000E+00  0.00000000000E+00  0.98468945307E+03  0.98468945309E+03  0.50400001928E-02 0.  1.
        1   -1    0    0  501    0  0.00000000000E+00  0.00000000000E+00 -0.27846334872E+04  0.27846334872E+04  0.50400001928E-02 0. -1.
    10030    2    1    2    0    0  0.00000000000E+00  0.00000000000E+00 -0.17999440342E+04  0.37693229403E+04  0.33117966276E+04 0.  0.
        5    1    3    3  502    0  0.51706017055E+03  0.87717056929E+02 -0.26876045308E+04  0.27382997838E+04  0.46999998093E+01 0. -1.
       -5    1    3    3    0  502 -0.51706017055E+03 -0.87717056929E+02  0.88766049662E+03  0.10310231565E+04  0.46999998093E+01 0.  1.
</event>
<event>
 5   0  0.2574803E-06  0.2370198E+04  0.7818609E-02  0.8450746E-01
       -2   -1    0    0    0  501  0.00000000000E+00  0.00000000000E+00  0.89685732174E+03  0.89685732175E+03  0.25500000920E-02 0. -1.
        2   -1    0    0  501    0  0.00000000000E+00  0.00000000000E+00 -0.15659785257E+04  0.15659785257E+04  0.25500000920E-02 0.  1.
    10030    2    1    2    0    0  0.00000000000E+00  0.00000000000E+00 -0.66912120393E+03  0.24628358474E+04  0.23701977187E+04 0.  0.
        4    1    3    3  502    0  0.50231636809E+03  0.10723859228E+04 -0.28666801856E+03  0.12184061174E+04  0.12699999809E+01 0. -1.
       -4    1    3    3    0  502 -0.50231636809E+03 -0.10723859228E+04 -0.38245318538E+03  0.12444297300E+04  0.12699999809E+01 0.  1.
</event>
<event>
 5   0  0.2658600E-06  0.3293440E+04  0.7818609E-02  0.8164567E-01
       -2   -1    0    0    0  501  0.00000000000E+00  0.00000000000E+00  0.12016265994E+04  0.12016265994E+04  0.25500000920E-02 0. -1.
        2   -1    0    0  501    0  0.00000000000E+00  0.00000000000E+00 -0.22566803904E+04  0.22566803904E+04  0.25500000920E-02 0.  1.
    10030    2    1    2    0    0  0.00000000000E+00  0.00000000000E+00 -0.10550537910E+04  0.34583069899E+04  0.32934402582E+04 0.  0.
        5    1    3    3  502    0 -0.15738249270E+03  0.26743423815E+03  0.11706413582E+04  0.12110795186E+04  0.46999998093E+01 0. -1.
       -5    1    3    3    0  502  0.15738249270E+03 -0.26743423815E+03 -0.22256951492E+04  0.22472274713E+04  0.46999998093E+01 0.  1.
</event>
<event>
 5   0  0.9530268E-07  0.3416791E+04  0.7818609E-02  0.8133797E-01
        1   -1    0    0  501    0  0.00000000000E+00  0.00000000000E+00  0.10610496769E+04  0.10610496769E+04  0.50400001928E-02 0. -1.
       -1   -1    0    0    0  501  0.00000000000E+00  0.00000000000E+00 -0.27506868642E+04  0.27506868642E+04  0.50400001928E-02 0.  1.
    10030    2    1    2    0    0  0.00000000000E+00  0.00000000000E+00 -0.16896371873E+04  0.38117365411E+04  0.34167911312E+04 0.  0.
        5    1    3    3  502    0  0.60492378856E+03  0.12962776766E+04 -0.18867605652E+04  0.23677322748E+04  0.46999998093E+01 0.  1.
       -5    1    3    3    0  502 -0.60492378856E+03 -0.12962776766E+04  0.19712337799E+03  0.14440042662E+04  0.46999998093E+01 0. -1.
</event>
<event>
 5   0  0.2574803E-06  0.3313464E+04  0.7818609E-02  0.8159478E-01
        2   -1    0    0  501    0  0.00000000000E+00  0.00000000000E+00  0.32063412632E+04  0.32063412632E+04  0.25500000920E-02 0.  1.
       -2   -1    0    0    0  501  0.00000000000E+00  0.00000000000E+00 -0.85604157330E+03  0.85604157330E+03  0.25500000920E-02 0. -1.
    10030    2    1    2    0    0  0.00000000000E+00  0.00000000000E+00  0.23502996899E+04  0.40623828365E+04  0.33134643016E+04 0.  0.
        4    1    3    3  502    0 -0.42126870706E+03  0.15501755207E+04  0.16720270170E+04  0.23186606969E+04  0.12699999809E+01 0. -1.
       -4    1    3    3    0  502  0.42126870706E+03 -0.15501755207E+04  0.67827267291E+03  0.17437221397E+04  0.12699999809E+01 0.  1.
</event>
<event>
 5   0  0.2705859E-06  0.3304432E+04  0.7818609E-02  0.8161769E-01
        2   -1    0    0  501    0  0.00000000000E+00  0.00000000000E+00  0.23438808488E+04  0.23438808488E+04  0.25500000920E-02 0.  1.
       -2   -1    0    0    0  501  0.00000000000E+00  0.00000000000E+00 -0.11646573778E+04  0.11646573778E+04  0.25500000920E-02 0. -1.
    10030    2    1    2    0    0  0.00000000000E+00  0.00000000000E+00  0.11792234710E+04  0.35085382266E+04  0.33044322497E+04 0.  0.
        1    1    3    3  502    0  0.54835831728E+03  0.16101492099E+03  0.22355892928E+04  0.23074839404E+04  0.50400001928E-02 0.  1.
       -1    1    3    3    0  502 -0.54835831728E+03 -0.16101492099E+03 -0.10563658218E+04  0.12010542862E+04  0.50400001928E-02 0. -1.
</event>
<event>
 5   0  0.9268670E-07  0.3282372E+04  0.7818609E-02  0.8167395E-01
       -1   -1    0    0    0  501  0.00000000000E+00  0.00000000000E+00  0.19889082263E+04  0.19889082263E+04  0.50400001928E-02 0. -1.
        1   -1    0    0  501    0  0.00000000000E+00  0.00000000000E+00 -0.13542559780E+04  0.13542559780E+04  0.50400001928E-02 0.  1.
    10030    2    1    2    0    0  0.00000000000E+00  0.00000000000E+00  0.63465224826E+03  0.33431642043E+04  0.32823716152E+04 0.  0.
        3    1    3    3  502    0 -0.14782198199E+04 -0.20676404668E+02  0.10432175660E+04  0.18093822841E+04  0.10100000352E+00 0. -1.
       -3    1    3    3    0  502  0.14782198199E+04  0.20676404668E+02 -0.40856531778E+03  0.15337819202E+04  0.10100000352E+00 0.  1.
</event>
<event>
 5   0  0.2674551E-06  0.3347091E+04  0.7818609E-02  0.8151015E-01
       -2   -1    0    0    0  501  0.00000000000E+00  0.00000000000E+00  0.17513880927E+04  0.17513880927E+04  0.25500000920E-02 0.  1.
        2   -1    0    0  501    0  0.00000000000E+00  0.00000000000E+00 -0.15991625189E+04  0.15991625189E+04  0.25500000920E-02 0. -1.
    10030    2    1    2    0    0  0.00000000000E+00  0.00000000000E+00  0.15222557377E+03  0.33505506116E+04  0.33470907929E+04 0.  0.
        3    1    3    3  502    0  0.54262772744E+03  0.12307173480E+04 -0.92072987179E+03  0.16299857510E+04  0.10100000352E+00 0. -1.
       -3    1    3    3    0  502 -0.54262772744E+03 -0.12307173480E+04  0.10729554456E+04  0.17205648607E+04  0.10100000352E+00 0.  1.
</event>
<event>
 5   0  0.9268670E-07  0.3189974E+04  0.7818609E-02  0.8191470E-01
        1   -1    0    0  501    0  0.00000000000E+00  0.00000000000E+00  0.22366246658E+04  0.22366246658E+04  0.50400001928E-02 0. -1.
       -1   -1    0    0    0  501  0.00000000000E+00  0.00000000000E+00 -0.11374210315E+04  0.11374210315E+04  0.50400001928E-02 0.  1.
    10030    2    1    2    0    0  0.00000000000E+00  0.00000000000E+00  0.10992036344E+04  0.33740456973E+04  0.31899742534E+04 0.  0.
        3    1    3    3  502    0 -0.75686926347E+02 -0.37974070203E+03 -0.10869531986E+04  0.11538625472E+04  0.10100000352E+00 0.  1.
       -3    1    3    3    0  502  0.75686926347E+02  0.37974070203E+03  0.21861568330E+04  0.22201831501E+04  0.10100000352E+00 0. -1.
</event>
<event>
 5   0  0.9530268E-07  0.3308850E+04  0.7818609E-02  0.8160647E-01
        1   -1    0    0  501    0  0.00000000000E+00  0.00000000000E+00  0.21150216830E+04  0.21150216831E+04  0.50400001928E-02 0.  1.
       -1   -1    0    0    0  501  0.00000000000E+00  0.00000000000E+00 -0.12941342787E+04  0.12941342787E+04  0.50400001928E-02 0. -1.
    10030    2    1    2    0    0  0.00000000000E+00  0.00000000000E+00  0.82088740431E+03  0.34091559618E+04  0.33088499877E+04 0.  0.
        5    1    3    3  502    0 -0.14881476326E+04  0.55138960794E+03 -0.71150990422E+02  0.15886152554E+04  0.46999998093E+01 0. -1.
       -5    1    3    3    0  502  0.14881476326E+04 -0.55138960794E+03  0.89203839473E+03  0.18205407064E+04  0.46999998093E+01 0.  1.
</event>
<event>
 5   0  0.8845526E-07  0.3382738E+04  0.7818609E-02  0.8142156E-01
       -1   -1    0    0    0  501  0.00000000000E+00  0.00000000000E+00  0.16636852413E+04  0.16636852414E+04  0.50400001928E-02 0. -1.
        1   -1    0    0  501    0  0.00000000000E+00  0.00000000000E+00 -0.17195135844E+04  0.17195135844E+04  0.50400001928E-02 0.  1.
    10030    2    1    2    0    0  0.00000000000E+00  0.00000000000E+00 -0.55828343073E+02  0.33831988258E+04  0.33827381647E+04 0.  0.
        1    1    3    3  502    0 -0.16755548439E+03 -0.16810414849E+04 -0.11010844216E+03  0.16929557535E+04  0.50400001928E-02 0. -1.
       -1    1    3    3    0  502  0.16755548439E+03  0.16810414849E+04  0.54280099085E+02  0.16902430723E+04  0.50400001928E-02 0.  1.
</event>
<event>
 5   0  0.8845526E-07  0.3286996E+04  0.7818609E-02  0.8166212E-01
        1   -1    0    0  501    0  0.00000000000E+00  0.00000000000E+00  0.23125633625E+04  0.23125633625E+04  0.50400001928E-02 0.  1.
       -1   -1    0    0    0  501  0.00000000000E+00  0.00000000000E+00 -0.11680048096E+04  0.11680048096E+04  0.50400001928E-02 0. -1.
    10030    2    1    2    0    0  0.00000000000E+00  0.00000000000E+00  0.11445585529E+04  0.34805681721E+04  0.32869956677E+04 0.  0.
        1    1    3    3  502    0  0.17431122049E+03 -0.91234172040E+03  0.20079774289E+04  0.22124025789E+04  0.50400001928E-02 0.  1.
       -1    1    3    3    0  502 -0.17431122049E+03  0.91234172040E+03 -0.86341887594E+03  0.12681655932E+04  0.50400001928E-02 0. -1.
</event>
<event>
 5   0  0.2674551E-06  0.3147045E+04  0.7818609E-02  0.8202944E-01
        2   -1    0    0  501    0  0.00000000000E+00  0.00000000000E+00  0.11255065191E+04  0.11255065191E+04  0.25500000920E-02 0. -1.
       -2   -1    0    0    0  501  0.00000000000E+00  0.00000000000E+00 -0.21998743714E+04  0.21998743714E+04  0.25500000920E-02 0.  1.
    10030    2    1    2    0    0  0.00000000000E+00  0.00000000000E+00 -0.10743678522E+04  0.33253808905E+04  0.31470449290E+04 0.  0.
        3    1    3    3  502    0  0.26882868803E+03 -0.40425388710E+03 -0.21187592572E+04  0.21736676077E+04  0.10100000352E+00 0.  1.
       -3    1    3    3    0  502 -0.26882868803E+03  0.40425388710E+03  0.10443914050E+04  0.11517132828E+04  0.10100000352E+00 0. -1.
</event>
<event>
 5   0  0.8845526E-07  0.3310459E+04  0.7818609E-02  0.8160239E-01
       -1   -1    0    0    0  501  0.00000000000E+00  0.00000000000E+00  0.15112999090E+04  0.15112999090E+04  0.50400001928E-02 0.  1.
        1   -1    0    0  501    0  0.00000000000E+00  0.00000000000E+00 -0.18128661456E+04  0.18128661456E+04  0.50400001928E-02 0. -1.
    10030    2    1    2    0    0  0.00000000000E+00  0.00000000000E+00 -0.30156623653E+03  0.33241660546E+04  0.33104588449E+04 0.  0.
        1    1    3    3  502    0  0.10254606198E+04 -0.18466077544E+03 -0.14422325748E+04  0.17792425031E+04  0.50400001928E-02 0. -1.
       -1    1    3    3    0  502 -0.10254606198E+04  0.18466077544E+03  0.11406663383E+04  0.15449235516E+04  0.50400001928E-02 0.  1.
</event>
<event>
 5   0  0.8705956E-07  0.3316928E+04  0.7818609E-02  0.8158601E-01
        1   -1    0    0  501    0  0.00000000000E+00  0.00000000000E+00  0.22683215007E+04  0.22683215007E+04  0.50400001928E-02 0. -1.
       -1   -1    0    0    0  501  0.00000000000E+00  0.00000000000E+00 -0.12125719111E+04  0.12125719111E+04  0.50400001928E-02 0.  1.
    10030    2    1    2    0    0  0.00000000000E+00  0.00000000000E+00  0.10557495897E+04  0.34808934118E+04  0.33169280589E+04 0.  0.
        2    1    3    3  502    0  0.91569584748E+03  0.11119379174E+04 -0.33470422132E+03  0.14788278240E+04  0.25500000920E-02 0.  1.
       -2    1    3    3    0  502 -0.91569584748E+03 -0.11119379174E+04  0.13904538110E+04  0.20020655878E+04  0.25500000920E-02 0. -1.
</event>
<event>
 5   0  0.9530268E-07  0.3259424E+04  0.7818609E-02  0.8173297E-01
       -1   -1    0    0    0  501  0.00000000000E+00  0.00000000000E+00  0.14161881009E+04  0.14161881009E+04  0.50400001928E-02 0.  1.
        1   -1    0    0  501    0  0.00000000000E+00  0.00000000000E+00 -0.18754300064E+04  0.18754300064E+04  0.50400001928E-02 0. -1.
    10030    2    1    2    0    0  0.00000000000E+00  0.00000000000E+00 -0.45924190555E+03  0.32916181073E+04  0.32594242800E+04 0.  0.
        5    1    3    3  502    0  0.10737364641E+04 -0.20448924413E+03 -0.14503672556E+04  0.18161258523E+04  0.46999998093E+01 0. -1.
       -5    1    3    3    0  502 -0.10737364641E+04  0.20448924413E+03  0.99112535002E+03  0.14754922551E+04  0.46999998093E+01 0.  1.
</event>
<event>
 5   0  0.2574803E-06  0.3300908E+04  0.7818609E-02  0.8162664E-01
        2   -1    0    0  501    0  0.00000000000E+00  0.00000000000E+00  0.18167213808E+04  0.18167213808E+04  0.25500000920E-02 0. -1.
       -2   -1    0    0    0  501  0.00000000000E+00  0.00000000000E+00 -0.14994033026E+04  0.14994033026E+04  0.25500000920E-02 0.  1.
    10030    2    1    2    0    0  0.00000000000E+00  0.00000000000E+00  0.31731807822E+03  0.33161246834E+04  0.33009077771E+04 0.  0.
        4    1    3    3  502    0  0.93694964397E+03 -0.12207472479E+04 -0.44066293538E+03  0.16007135640E+04  0.12699999809E+01 0.  1.
       -4    1    3    3    0  502 -0.93694964397E+03  0.12207472479E+04  0.75798101359E+03  0.17154111194E+04  0.12699999809E+01 0. -1.
</event>
<event>
 5   0  0.2674551E-06  0.3301203E+04  0.7818609E-02  0.8162589E-01
        2   -1    0    0  501    0  0.00000000000E+00  0.00000000000E+00  0.19210644507E+04  0.19210644507E+04  0.25500000920E-02 0. -1.
       -2   -1    0    0    0  501  0.00000000000E+00  0.00000000000E+00 -0.14182164933E+04  0.14182164933E+04  0.25500000920E-02 0.  1.
    10030    2    1    2    0    0  0.00000000000E+00  0.00000000000E+00  0.50284795737E+03  0.33392809440E+04  0.33012029860E+04 0.  0.
        3    1    3    3  502    0 -0.58034712030E+02  0.45248129611E+03  0.18560309083E+04  0.19112713292E+04  0.10100000352E+00 0. -1.
       -3    1    3    3    0  502  0.58034712030E+02 -0.45248129611E+03 -0.13531829509E+04  0.14280096148E+04  0.10100000352E+00 0.  1.
</event>
<event>
 5   0  0.8845526E-07  0.3300794E+04  0.7818609E-02  0.8162693E-01
        1   -1    0    0  501    0  0.00000000000E+00  0.00000000000E+00  0.19373278427E+04  0.19373278427E+04  0.50400001928E-02 0.  1.
       -1   -1    0    0    0  501  0.00000000000E+00  0.00000000000E+00 -0.14059624662E+04  0.14059624662E+04  0.50400001928E-02 0. -1.
    10030    2    1    2    0    0  0.00000000000E+00  0.00000000000E+00  0.53136537651E+03  0.33432903090E+04  0.33007939843E+04 0.  0.
        1    1    3    3  502    0  0.16080018333E+03 -0.12955915292E+04  0.12883330090E+04  0.18341799398E+04  0.50400001928E-02 0.  1.
       -1    1    3    3    0  502 -0.16080018333E+03  0.12955915292E+04 -0.75696763254E+03  0.15091103691E+04  0.50400001928E-02 0. -1.
</event>
<event>
 5   0  0.8705956E-07  0.3310011E+04  0.7818609E-02  0.8160353E-01
        1   -1    0    0  501    0  0.00000000000E+00  0.00000000000E+00  0.16095414831E+04  0.16095414831E+04  0.50400001928E-02 0. -1.
       -1   -1    0    0    0  501  0.00000000000E+00  0.00000000000E+00 -0.17017532884E+04  0.17017532884E+04  0.50400001928E-02 0.  1.
    10030    2    1    2    0    0  0.00000000000E+00  0.00000000000E+00 -0.92211805285E+02  0.33112947715E+04  0.33100105811E+04 0.  0.
        2    1    3    3  502    0 -0.14143262551E+04 -0.55081794097E+03 -0.70615226724E+03  0.16740281314E+04  0.25500000920E-02 0.  1.
       -2    1    3    3    0  502  0.14143262551E+04  0.55081794097E+03  0.61394046196E+03  0.16372666401E+04  0.25500000920E-02 0. -1.
</event>
<event>
 5   0  0.9295663E-07  0.3057237E+04  0.7818609E-02  0.8227573E-01
       -1   -1    0    0    0  501  0.00000000000E+00  0.00000000000E+00  0.15405081674E+04  0.15405081674E+04  0.50400001928E-02 0. -1.
        1   -1    0    0  501    0  0.00000000000E+00  0.00000000000E+00 -0.15168203968E+04  0.15168203968E+04  0.50400001928E-02 0.  1.
    10030    2    1    2    0    0  0.00000000000E+00  0.00000000000E+00  0.23687770592E+02  0.30573285641E+04  0.30572367979E+04 0.  0.
        4    1    3    3  502    0 -0.12705106683E+04  0.35534372375E+03 -0.76032310998E+03  0.15226816360E+04  0.12699999809E+01 0.  1.
       -4    1    3    3    0  502  0.12705106683E+04 -0.35534372375E+03  0.78401088057E+03  0.15346469281E+04  0.12699999809E+01 0. -1.
</event>
<event>
 5   0  0.9268670E-07  0.3295902E+04  0.7818609E-02  0.8163939E-01
        1   -1    0    0  501    0  0.00000000000E+00  0.00000000000E+00  0.26190692971E+04  0.26190692971E+04  0.50400001928E-02 0.  1.
       -1   -1    0    0    0  501  0.00000000000E+00  0.00000000000E+00 -0.10369112501E+04  0.10369112502E+04  0.50400001928E-02 0. -1.
    10030    2    1    2    0    0  0.00000000000E+00  0.00000000000E+00  0.15821580470E+04  0.36559805473E+04  0.32959019519E+04 0.  0.
        3    1    3    3  502    0 -0.29298021647E+03  0.16210122238E+04  0.84339487595E+03  0.18506304234E+04  0.10100000352E+00 0. -1.
       -3    1    3    3    0  502  0.29298021647E+03 -0.16210122238E+04  0.73876317101E+03  0.18053501239E+04  0.10100000352E+00 0.  1.
</event>
<event>
 5   0  0.8845526E-07  0.3303350E+04  0.7818609E-02  0.8162043E-01
       -1   -1    0    0    0  501  0.00000000000E+00  0.00000000000E+00  0.21416036134E+04  0.21416036134E+04  0.50400001928E-02 0.  1.
        1   -1    0    0  501    0  0.00000000000E+00  0.00000000000E+00 -0.12738261170E+04  0.12738261170E+04  0.50400001928E-02 0. -1.
    10030    2    1    2    0    0  0.00000000000E+00  0.00000000000E+00  0.86777749634E+03  0.34154297304E+04  0.33033501873E+04 0.  0.
        1    1    3    3  502    0 -0.42012227163E+03  0.91603117820E+03 -0.91910323029E+03  0.13639525617E+04  0.50400001928E-02 0. -1.
       -1    1    3    3    0  502  0.42012227163E+03 -0.91603117820E+03  0.17868807266E+04  0.20514771687E+04  0.50400001928E-02 0.  1.
</event>
<event>
 5   0  0.2574803E-06  0.3302862E+04  0.7818609E-02  0.8162167E-01
       -2   -1    0    0    0  501  0.00000000000E+00  0.00000000000E+00  0.14193389140E+04  0.14193389140E+04  0.25500000920E-02 0. -1.
        2   -1    0    0  501    0  0.00000000000E+00  0.00000000000E+00 -0.19214756066E+04  0.19214756066E+04  0.25500000920E-02 0.  1.
    10030    2    1    2    0    0  0.00000000000E+00  0.00000000000E+00 -0.50213669259E+03  0.33408145206E+04  0.33028624560E+04 0.  0.
        4    1    3    3  502    0 -0.86122244285E+03  0.89230320447E+03  0.85201978500E+03  0.15046090627E+04  0.12699999809E+01 0. -1.
       -4    1    3    3    0  502  0.86122244285E+03 -0.89230320447E+03 -0.13541564776E+04  0.18362054579E+04  0.12699999809E+01 0.  1.
</event>
<event>
 5   0  0.2574803E-06  0.3387746E+04  0.7818609E-02  0.8140920E-01
        2   -1    0    0  501    0  0.00000000000E+00  0.00000000000E+00  0.14208769241E+04  0.14208769241E+04  0.25500000920E-02 0. -1.
       -2   -1    0    0    0  501  0.00000000000E+00  0.00000000000E+00 -0.20193200974E+04  0.20193200974E+04  0.25500000920E-02 0.  1.
    10030    2    1    2    0    0  0.00000000000E+00  0.00000000000E+00 -0.59844317326E+03  0.34401970215E+04  0.33877457572E+04 0.  0.
        4    1    3    3  502    0 -0.15198176446E+04  0.57267520904E+03  0.18926794377E+03  0.16351227891E+04  0.12699999809E+01 0. -1.
       -4    1    3    3    0  502  0.15198176446E+04 -0.57267520904E+03 -0.78771111704E+03  0.18050742325E+04  0.12699999809E+01 0.  1.
</event>
<event>
 5   0  0.8845526E-07  0.3295404E+04  0.7818609E-02  0.8164066E-01
       -1   -1    0    0    0  501  0.00000000000E+00  0.00000000000E+00  0.27222339311E+04  0.27222339311E+04  0.50400001928E-02 0.  1.
        1   -1    0    0  501    0  0.00000000000E+00  0.00000000000E+00 -0.99731373993E+03  0.99731373995E+03  0.50400001928E-02 0. -1.
    10030    2    1    2    0    0  0.00000000000E+00  0.00000000000E+00  0.17249201912E+04  0.37195476711E+04  0.32954036492E+04 0.  0.
        1    1    3    3  502    0 -0.63170794321E+03  0.44805921561E+03  0.25039866781E+04  0.26210229435E+04  0.50400001928E-02 0.  1.
       -1    1    3    3    0  502  0.63170794321E+03 -0.44805921561E+03 -0.77906648687E+03  0.10985247276E+04  0.50400001928E-02 0. -1.
</event>
<event>
 5   0  0.9295663E-07  0.2803934E+04  0.7818609E-02  0.8302048E-01
        1   -1    0    0  501    0  0.00000000000E+00  0.00000000000E+00  0.14709721982E+04  0.14709721982E+04  0.50400001928E-02 0.  1.
       -1   -1    0    0    0  501  0.00000000000E+00  0.00000000000E+00 -0.13361989354E+04  0.13361989354E+04  0.50400001928E-02 0. -1.
    10030    2    1    2    0    0  0.00000000000E+00  0.00000000000E+00  0.13477326279E+03  0.28071711337E+04  0.28039340116E+04 0.  0.
        4    1    3    3  502    0 -0.48593522741E+03  0.13283673137E+03 -0.12424552960E+04  0.13406996002E+04  0.12699999809E+01 0. -1.
       -4    1    3    3    0  502  0.48593522741E+03 -0.13283673137E+03  0.13772285588E+04  0.14664715335E+04  0.12699999809E+01 0.  1.
</event>
<event>
 5   0  0.2574803E-06  0.3310240E+04  0.7818609E-02  0.8160295E-01
       -2   -1    0    0    0  501  0.00000000000E+00  0.00000000000E+00  0.11106425958E+04  0.11106425958E+04  0.25500000920E-02 0.  1.
        2   -1    0    0  501    0  0.00000000000E+00  0.00000000000E+00 -0.24665200274E+04  0.24665200274E+04  0.25500000920E-02 0. -1.
    10030    2    1    2    0    0  0.00000000000E+00  0.00000000000E+00 -0.13558774316E+04  0.35771626231E+04  0.33102399947E+04 0.  0.
        4    1    3    3  502    0 -0.85240235058E+03  0.98475378345E+02 -0.22073846934E+04  0.23682981158E+04  0.12699999809E+01 0. -1.
       -4    1    3    3    0  502  0.85240235058E+03 -0.98475378345E+02  0.85150726180E+03  0.12088645074E+04  0.12699999809E+01 0.  1.
</event>
<event>
 5   0  0.2574803E-06  0.3314229E+04  0.7818609E-02  0.8159284E-01
       -2   -1    0    0    0  501  0.00000000000E+00  0.00000000000E+00  0.14693019668E+04  0.14693019668E+04  0.25500000920E-02 0. -1.
        2   -1    0    0  501    0  0.00000000000E+00  0.00000000000E+00 -0.18689340689E+04  0.18689340689E+04  0.25500000920E-02 0.  1.
    10030    2    1    2    0    0  0.00000000000E+00  0.00000000000E+00 -0.39963210208E+03  0.33382360357E+04  0.33142290224E+04 0.  0.
        4    1    3    3  502    0 -0.92665026964E+03  0.97782055020E+03  0.77216785180E+03  0.15527583698E+04  0.12699999809E+01 0.  1.
       -4    1    3    3    0  502  0.92665026964E+03 -0.97782055020E+03 -0.11717999539E+04  0.17854776659E+04  0.12699999809E+01 0. -1.
</event>
<event>
 5   0  0.2658600E-06  0.3340805E+04  0.7818609E-02  0.8152590E-01
       -2   -1    0    0    0  501  0.00000000000E+00  0.00000000000E+00  0.18297057979E+04  0.18297057979E+04  0.25500000920E-02 0.  1.
        2   -1    0    0  501    0  0.00000000000E+00  0.00000000000E+00 -0.15249688386E+04  0.15249688386E+04  0.25500000920E-02 0. -1.
    10030    2    1    2    0    0  0.00000000000E+00  0.00000000000E+00  0.30473695928E+03  0.33546746365E+04  0.33408048884E+04 0.  0.
        5    1    3    3  502    0  0.12077411006E+04  0.59807510422E+03 -0.83858715191E+03  0.15873194063E+04  0.46999998093E+01 0. -1.
       -5    1    3    3    0  502 -0.12077411006E+04 -0.59807510422E+03  0.11433241112E+04  0.17673552302E+04  0.46999998093E+01 0.  1.
</event>
<event>
 5   0  0.2705859E-06  0.3029099E+04  0.7818609E-02  0.8235470E-01
       -2   -1    0    0    0  501  0.00000000000E+00  0.00000000000E+00  0.22062084139E+04  0.22062084139E+04  0.25500000920E-02 0. -1.
        2   -1    0    0  501    0  0.00000000000E+00  0.00000000000E+00 -0.10397297593E+04  0.10397297593E+04  0.25500000920E-02 0.  1.
    10030    2    1    2    0    0  0.00000000000E+00  0.00000000000E+00  0.11664786546E+04  0.32459381732E+04  0.30290992346E+04 0.  0.
        1    1    3    3  502    0 -0.79075974920E+03  0.11781689612E+04  0.11507522117E+04  0.18269137185E+04  0.50400001928E-02 0.  1.
       -1    1    3    3    0  502  0.79075974920E+03 -0.11781689612E+04  0.15726442822E+02  0.14190244547E+04  0.50400001928E-02 0. -1.
</event>
<event>
 5   0  0.8520125E-07  0.3284868E+04  0.7818609E-02  0.8166756E-01
        3   -1    0    0  501    0  0.00000000000E+00  0.00000000000E+00  0.16097062515E+04  0.16097062547E+04  0.10100000352E+00 0.  1.
       -3   -1    0    0    0  501  0.00000000000E+00  0.00000000000E+00 -0.16758268762E+04  0.16758268792E+04  0.10100000352E+00 0. -1.
    10030    2    1    2    0    0  0.00000000000E+00  0.00000000000E+00 -0.66120624702E+02  0.32855331339E+04  0.32848677351E+04 0.  0.
        4    1    3    3  502    0 -0.22576927633E+03  0.65964453653E+01 -0.16602187038E+04  0.16755127682E+04  0.12699999809E+01 0. -1.
       -4    1    3    3    0  502  0.22576927633E+03 -0.65964453653E+01  0.15940980791E+04  0.16100203657E+04  0.12699999809E+01 0.  1.
</event>
<event>
 5   0  0.2658600E-06  0.3321734E+04  0.7818609E-02  0.8157387E-01
        2   -1    0    0  501    0  0.00000000000E+00  0.00000000000E+00  0.16669296769E+04  0.16669296769E+04  0.25500000920E-02 0. -1.
       -2   -1    0    0    0  501  0.00000000000E+00  0.00000000000E+00 -0.16548260441E+04  0.16548260441E+04  0.25500000920E-02 0.  1.
    10030    2    1    2    0    0  0.00000000000E+00  0.00000000000E+00  0.12103632746E+02  0.33217557210E+04  0.33217336697E+04 0.  0.
        5    1    3    3  502    0 -0.20308474949E+03 -0.48081358299E+03  0.15827776781E+04  0.16666230484E+04  0.46999998093E+01 0. -1.
       -5    1    3    3    0  502  0.20308474949E+03  0.48081358299E+03 -0.15706740454E+04  0.16551326726E+04  0.46999998093E+01 0.  1.
</event>
<event>
 5   0  0.8705956E-07  0.3273492E+04  0.7818609E-02  0.8169673E-01
        1   -1    0    0  501    0  0.00000000000E+00  0.00000000000E+00  0.16100084882E+04  0.16100084882E+04  0.50400001928E-02 0. -1.
       -1   -1    0    0    0  501  0.00000000000E+00  0.00000000000E+00 -0.16639271807E+04  0.16639271807E+04  0.50400001928E-02 0.  1.
    10030    2    1    2    0    0  0.00000000000E+00  0.00000000000E+00 -0.53918692466E+02  0.32739356689E+04  0.32734916433E+04 0.  0.
        2    1    3    3  502    0 -0.10845198492E+04 -0.82081772477E+02 -0.12502426492E+04  0.16571141791E+04  0.25500000920E-02 0.  1.
       -2    1    3    3    0  502  0.10845198492E+04  0.82081772477E+02  0.11963239567E+04  0.16168214899E+04  0.25500000920E-02 0. -1.
</event>
<event>
 5   0  0.2658600E-06  0.3286306E+04  0.7818609E-02  0.8166388E-01
        2   -1    0    0  501    0  0.00000000000E+00  0.00000000000E+00  0.22152022207E+04  0.22152022207E+04  0.25500000920E-02 0.  1.
       -2   -1    0    0    0  501  0.00000000000E+00  0.00000000000E+00 -0.12188289396E+04  0.12188289396E+04  0.25500000920E-02 0. -1.
    10030    2    1    2    0    0  0.00000000000E+00  0.00000000000E+00  0.99637328110E+03  0.34340311603E+04  0.32863064822E+04 0.  0.
        5    1    3    3  502    0 -0.54340927580E+03  0.69131705195E+03 -0.95227149321E+03  0.12961697397E+04  0.46999998093E+01 0. -1.
       -5    1    3    3    0  502  0.54340927580E+03 -0.69131705195E+03  0.19486447743E+04  0.21378614206E+04  0.46999998093E+01 0.  1.
</event>
<event>
 5   0  0.9268670E-07  0.3296544E+04  0.7818609E-02  0.8163775E-01
       -1   -1    0    0    0  501  0.00000000000E+00  0.00000000000E+00  0.16225884090E+04  0.16225884090E+04  0.50400001928E-02 0.  1.
        1   -1    0    0  501    0  0.00000000000E+00  0.00000000000E+00 -0.16743620406E+04  0.16743620406E+04  0.50400001928E-02 0. -1.
    10030    2    1    2    0    0  0.00000000000E+00  0.00000000000E+00 -0.51773631577E+02  0.32969504496E+04  0.32965439112E+04 0.  0.
        3    1    3    3  502    0  0.72788522558E+03  0.10194132260E+04 -0.10973639805E+04  0.16653011568E+04  0.10100000352E+00 0. -1.
       -3    1    3    3    0  502 -0.72788522558E+03 -0.10194132260E+04  0.10455903489E+04  0.16316492928E+04  0.10100000352E+00 0.  1.
</event>
<event>
 5   0  0.9295663E-07  0.3280237E+04  0.7818609E-02  0.8167942E-01
        1   -1    0    0  501    0  0.00000000000E+00  0.00000000000E+00  0.22693460354E+04  0.22693460354E+04  0.50400001928E-02 0. -1.
       -1   -1    0    0    0  501  0.00000000000E+00  0.00000000000E+00 -0.11853585683E+04  0.11853585683E+04  0.50400001928E-02 0.  1.
    10030    2    1    2    0    0  0.00000000000E+00  0.00000000000E+00  0.10839874671E+04  0.34547046037E+04  0.32802370448E+04 0.  0.
        4    1    3    3  502    0  0.53640032639E+03  0.15380536696E+04  0.34036194839E+03  0.16640860163E+04  0.12699999809E+01 0. -1.
       -4    1    3    3    0  502 -0.53640032639E+03 -0.15380536696E+04  0.74362551870E+03  0.17906185875E+04  0.12699999809E+01 0.  1.
</event>
<event>
 5   0  0.9268670E-07  0.3339440E+04  0.7818609E-02  0.8152932E-01
       -1   -1    0    0    0  501  0.00000000000E+00  0.00000000000E+00  0.16050362735E+04  0.16050362735E+04  0.50400001928E-02 0. -1.
        1   -1    0    0  501    0  0.00000000000E+00  0.00000000000E+00 -0.17370108438E+04  0.17370108438E+04  0.50400001928E-02 0.  1.
    10030    2    1    2    0    0  0.00000000000E+00  0.00000000000E+00 -0.13197457026E+03  0.33420471173E+04  0.33394403195E+04 0.  0.
        3    1    3    3  502    0  0.52562973034E+03  0.11226510330E+04 -0.11854906633E+04  0.17152317856E+04  0.10100000352E+00 0.  1.
       -3    1    3    3    0  502 -0.52562973034E+03 -0.11226510330E+04  0.10535160930E+04  0.16268153318E+04  0.10100000352E+00 0. -1.
</event>
<event>
 5   0  0.9268670E-07  0.3010533E+04  0.7818609E-02  0.8240729E-01
        1   -1    0    0  501    0  0.00000000000E+00  0.00000000000E+00  0.16341238975E+04  0.16341238975E+04  0.50400001928E-02 0.  1.
       -1   -1    0    0    0  501  0.00000000000E+00  0.00000000000E+00 -0.13865703534E+04  0.13865703534E+04  0.50400001928E-02 0. -1.
    10030    2    1    2    0    0  0.00000000000E+00  0.00000000000E+00  0.24755354413E+03  0.30206942509E+04  0.30105333415E+04 0.  0.
        3    1    3    3  502    0  0.10349302142E+04  0.12087878091E+03  0.12137837224E+04  0.15996759556E+04  0.10100000352E+00 0.  1.
       -3    1    3    3    0  502 -0.10349302142E+04 -0.12087878091E+03 -0.96623017826E+03  0.14210182953E+04  0.10100000352E+00 0. -1.
</event>
<event>
 5   0  0.2614212E-06  0.3369889E+04  0.7818609E-02  0.8145336E-01
       -2   -1    0    0    0  501  0.00000000000E+00  0.00000000000E+00  0.15982801485E+04  0.15982801485E+04  0.25500000920E-02 0.  1.
        2   -1    0    0  501    0  0.00000000000E+00  0.00000000000E+00 -0.17763075996E+04  0.17763075996E+04  0.25500000920E-02 0. -1.
    10030    2    1    2    0    0  0.00000000000E+00  0.00000000000E+00 -0.17802745107E+03  0.33745877480E+04  0.33698885287E+04 0.  0.
        2    1    3    3  502    0  0.61574293661E+03 -0.10656499186E+04  0.10633681576E+04  0.16264996009E+04  0.25500000920E-02 0.  1.
       -2    1    3    3    0  502 -0.61574293661E+03  0.10656499186E+04 -0.12413956086E+04  0.17480881472E+04  0.25500000920E-02 0. -1.
</event>
<event>
 5   0  0.9530268E-07  0.3286657E+04  0.7818609E-02  0.8166299E-01
       -1   -1    0    0    0  501  0.00000000000E+00  0.00000000000E+00  0.24943745417E+04  0.24943745417E+04  0.50400001928E-02 0. -1.
        1   -1    0    0  501    0  0.00000000000E+00  0.00000000000E+00 -0.10826475007E+04  0.10826475007E+04  0.50400001928E-02 0.  1.
    10030    2    1    2    0    0  0.00000000000E+00  0.00000000000E+00  0.14117270410E+04  0.35770220425E+04  0.32866568811E+04 0.  0.
        5    1    3    3  502    0 -0.12425650980E+04  0.90190114567E+03  0.13433714138E+04  0.20401133656E+04  0.46999998093E+01 0. -1.
       -5    1    3    3    0  502  0.12425650980E+04 -0.90190114567E+03  0.68355627257E+02  0.15369086769E+04  0.46999998093E+01 0.  1.
</event>
<event>
 5   0  0.8705956E-07  0.3321829E+04  0.7818609E-02  0.8157363E-01
        1   -1    0    0  501    0  0.00000000000E+00  0.00000000000E+00  0.16240119275E+04  0.16240119275E+04  0.50400001928E-02 0. -1.
       -1   -1    0    0    0  501  0.00000000000E+00  0.00000000000E+00 -0.16986559548E+04  0.16986559548E+04  0.50400001928E-02 0.  1.
    10030    2    1    2    0    0  0.00000000000E+00  0.00000000000E+00 -0.74644027285E+02  0.33226678824E+04  0.33218293342E+04 0.  0.
        2    1    3    3  502    0 -0.11532279498E+04  0.11952545466E+04 -0.45654546326E+02  0.16615211323E+04  0.25500000920E-02 0.  1.
       -2    1    3    3    0  502  0.11532279498E+04 -0.11952545466E+04 -0.28989480958E+02  0.16611467501E+04  0.25500000920E-02 0. -1.
</event>
<event>
 5   0  0.9268670E-07  0.3320599E+04  0.7818609E-02  0.8157674E-01
       -1   -1    0    0    0  501  0.00000000000E+00  0.00000000000E+00  0.10939816279E+04  0.10939816279E+04  0.50400001928E-02 0.  1.
        1   -1    0    0  501    0  0.00000000000E+00  0.00000000000E+00 -0.25197815579E+04  0.25197815579E+04  0.50400001928E-02 0. -1.
    10030    2    1    2    0    0  0.00000000000E+00  0.00000000000E+00 -0.14257999300E+04  0.36137631858E+04  0.33205991813E+04 0.  0.
        3    1    3    3  502    0  0.11770066799E+04 -0.11606586585E+04 -0.88192271345E+03  0.18735690349E+04  0.10100000352E+00 0.  1.
       -3    1    3    3    0  502 -0.11770066799E+04  0.11606586585E+04 -0.54387721658E+03  0.17401941509E+04  0.10100000352E+00 0. -1.
</event>
<event>
 5   0  0.2705859E-06  0.3303372E+04  0.7818609E-02  0.8162038E-01
       -2   -1    0    0    0  501  0.00000000000E+00  0.00000000000E+00  0.14489377860E+04  0.14489377860E+04  0.25500000920E-02 0. -1.
        2   -1    0    0  501    0  0.00000000000E+00  0.00000000000E+00 -0.18828049623E+04  0.18828049623E+04  0.25500000920E-02 0.  1.
    10030    2    1    2    0    0  0.00000000000E+00  0.00000000000E+00 -0.43386717631E+03  0.33317427484E+04  0.33033723699E+04 0.  0.
        1    1    3    3  502    0 -0.42398869584E+03  0.75487230205E+03 -0.16355942142E+04  0.18506126122E+04  0.50400001928E-02 0.  1.
       -1    1    3    3    0  502  0.42398869584E+03 -0.75487230205E+03  0.12017270379E+04  0.14811301362E+04  0.50400001928E-02 0. -1.
</event>
<event>
 5   0  0.2614212E-06  0.3213098E+04  0.7818609E-02  0.8185367E-01
        2   -1    0    0  501    0  0.00000000000E+00  0.00000000000E+00  0.24626743313E+04  0.24626743313E+04  0.25500000920E-02 0.  1.
       -2   -1    0    0    0  501  0.00000000000E+00  0.00000000000E+00 -0.10480472322E+04  0.10480472322E+04  0.25500000920E-02 0. -1.
    10030    2    1    2    0    0  0.00000000000E+00  0.00000000000E+00  0.14146270991E+04  0.35107215635E+04  0.32130975813E+04 0.  0.
        2    1    3    3  502    0 -0.10011412386E+04  0.24116319639E+02  0.20799147057E+04  0.23084433195E+04  0.25500000920E-02 0.  1.
       -2    1    3    3    0  502  0.10011412386E+04 -0.24116319639E+02 -0.66528760654E+03  0.12022782440E+04  0.25500000920E-02 0. -1.
</event>
<event>
 5   0  0.9268670E-07  0.3385773E+04  0.7818609E-02  0.8141407E-01
       -1   -1    0    0    0  501  0.00000000000E+00  0.00000000000E+00  0.23027107354E+04  0.23027107354E+04  0.50400001928E-02 0.  1.
        1   -1    0    0  501    0  0.00000000000E+00  0.00000000000E+00 -0.12445610079E+04  0.12445610079E+04  0.50400001928E-02 0. -1.
    10030    2    1    2    0    0  0.00000000000E+00  0.00000000000E+00  0.10581497275E+04  0.35472717433E+04  0.33857725817E+04 0.  0.
        3    1    3    3  502    0 -0.62679177294E+03  0.14225729248E+04 -0.17318257025E+03  0.15641527629E+04  0.10100000352E+00 0. -1.
       -3    1    3    3    0  502  0.62679177294E+03 -0.14225729248E+04  0.12313322977E+04  0.19831189804E+04  0.10100000352E+00 0.  1.
</event>
<event>
 5   0  0.2705859E-06  0.3328292E+04  0.7818609E-02  0.8155734E-01
        2   -1    0    0  501    0  0.00000000000E+00  0.00000000000E+00  0.14389735956E+04  0.14389735956E+04  0.25500000920E-02 0. -1.
       -2   -1    0    0    0  501  0.00000000000E+00  0.00000000000E+00 -0.19245538556E+04  0.19245538556E+04  0.25500000920E-02 0.  1.
    10030    2    1    2    0    0  0.00000000000E+00  0.00000000000E+00 -0.48558025997E+03  0.33635274513E+04  0.33282921636E+04 0.  0.
        1    1    3    3  502    0 -0.10693394181E+04  0.22260477108E+02  0.10456185538E+04  0.14957608365E+04  0.50400001928E-02 0. -1.
       -1    1    3    3    0  502  0.10693394181E+04 -0.22260477108E+02 -0.15311988138E+04  0.18677666148E+04  0.50400001928E-02 0.  1.
</event>
<event>
 5   0  0.8845526E-07  0.3331627E+04  0.7818609E-02  0.8154894E-01
        1   -1    0    0  501    0  0.00000000000E+00  0.00000000000E+00  0.26841016681E+04  0.26841016681E+04  0.50400001928E-02 0.  1.
       -1   -1    0    0    0  501  0.00000000000E+00  0.00000000000E+00 -0.10338408821E+04  0.10338408821E+04  0.50400001928E-02 0. -1.
    10030    2    1    2    0    0  0.00000000000E+00  0.00000000000E+00  0.16502607860E+04  0.37179425502E+04  0.33316266515E+04 0.  0.
        1    1    3    3  502    0 -0.89340067010E+03  0.12744621267E+04  0.14877060820E+04  0.21530647589E+04  0.50400001928E-02 0.  1.
       -1    1    3    3    0  502  0.89340067010E+03 -0.12744621267E+04  0.16255470399E+03  0.15648777913E+04  0.50400001928E-02 0. -1.
</event>
<event>
 5   0  0.9268670E-07  0.3322990E+04  0.7818609E-02  0.8157070E-01
       -1   -1    0    0    0  501  0.00000000000E+00  0.00000000000E+00  0.17335746341E+04  0.17335746341E+04  0.50400001928E-02 0.  1.
        1   -1    0    0  501    0  0.00000000000E+00  0.00000000000E+00 -0.15924120134E+04  0.15924120134E+04  0.50400001928E-02 0. -1.
    10030    2    1    2    0    0  0.00000000000E+00  0.00000000000E+00  0.14116262070E+03  0.33259866476E+04  0.33229896621E+04 0.  0.
        3    1    3    3  502    0 -0.66006021848E+03  0.95072306531E+03  0.12637181777E+04  0.17136328317E+04  0.10100000352E+00 0.  1.
       -3    1    3    3    0  502  0.66006021848E+03 -0.95072306531E+03 -0.11225555570E+04  0.16123538159E+04  0.10100000352E+00 0. -1.
</event>
<event>
 5   0  0.2574803E-06  0.3312192E+04  0.7818609E-02  0.8159800E-01
        2   -1    0    0  501    0  0.00000000000E+00  0.00000000000E+00  0.18751971112E+04  0.18751971112E+04  0.25500000920E-02 0.  1.
       -2   -1    0    0    0  501  0.00000000000E+00  0.00000000000E+00 -0.14625948933E+04  0.14625948933E+04  0.25500000920E-02 0. -1.
    10030    2    1    2    0    0  0.00000000000E+00  0.00000000000E+00  0.41260221790E+03  0.33377920046E+04  0.33121918537E+04 0.  0.
        4    1    3    3  502    0  0.12478431635E+04 -0.32865161678E+03 -0.83976227137E+03  0.15395865456E+04  0.12699999809E+01 0. -1.
       -4    1    3    3    0  502 -0.12478431635E+04  0.32865161678E+03  0.12523644893E+04  0.17982054590E+04  0.12699999809E+01 0.  1.
</event>
<event>
 5   0  0.8520125E-07  0.3318789E+04  0.7818609E-02  0.8158131E-01
        4   -1    0    0  501    0  0.00000000000E+00  0.00000000000E+00  0.21788197505E+04  0.21788201206E+04  0.12699999809E+01 0. -1.
       -4   -1    0    0    0  501  0.00000000000E+00  0.00000000000E+00 -0.12637983265E+04  0.12637989646E+04  0.12699999809E+01 0.  1.
    10030    2    1    2    0    0  0.00000000000E+00  0.00000000000E+00  0.91502142395E+03  0.34426190853E+04  0.33187892310E+04 0.  0.
        4    1    3    3  502    0  0.11369847947E+04 -0.66956021023E+03  0.15013079943E+04  0.19987427561E+04  0.12699999809E+01 0. -1.
       -4    1    3    3    0  502 -0.11369847947E+04  0.66956021023E+03 -0.58628657036E+03  0.14438763292E+04  0.12699999809E+01 0.  1.
</event>
<event>
 5   0  0.2705859E-06  0.3147988E+04  0.7818609E-02  0.8202690E-01
        2   -1    0    0  501    0  0.00000000000E+00  0.00000000000E+00  0.17434252249E+04  0.17434252249E+04  0.25500000920E-02 0. -1.
       -2   -1    0    0    0  501  0.00000000000E+00  0.00000000000E+00 -0.14210287612E+04  0.14210287612E+04  0.25500000920E-02 0.  1.
    10030    2    1    2    0    0  0.00000000000E+00  0.00000000000E+00  0.32239646371E+03  0.31644539861E+04  0.31479881751E+04 0.  0.
        1    1    3    3  502    0  0.54743335783E+03 -0.14751214396E+04  0.20373795447E+03  0.15865609654E+04  0.50400001928E-02 0. -1.
       -1    1    3    3    0  502 -0.54743335783E+03  0.14751214396E+04  0.11865850924E+03  0.15778930207E+04  0.50400001928E-02 0.  1.
</event>
<event>
 5   0  0.2658600E-06  0.3335750E+04  0.7818609E-02  0.8153858E-01
       -2   -1    0    0    0  501  0.00000000000E+00  0.00000000000E+00  0.12083730008E+04  0.12083730008E+04  0.25500000920E-02 0.  1.
        2   -1    0    0  501    0  0.00000000000E+00  0.00000000000E+00 -0.23021090950E+04  0.23021090950E+04  0.25500000920E-02 0. -1.
    10030    2    1    2    0    0  0.00000000000E+00  0.00000000000E+00 -0.10937360941E+04  0.35104820958E+04  0.33357496761E+04 0.  0.
        5    1    3    3  502    0  0.48333700228E+03 -0.38984169487E+03  0.10821812387E+04  0.12476896762E+04  0.46999998093E+01 0.  1.
       -5    1    3    3    0  502 -0.48333700228E+03  0.38984169487E+03 -0.21759173328E+04  0.22627924196E+04  0.46999998093E+01 0. -1.
</event>
<event>
 5   0  0.2574803E-06  0.3245521E+04  0.7818609E-02  0.8176898E-01
        2   -1    0    0  501    0  0.00000000000E+00  0.00000000000E+00  0.20847354201E+04  0.20847354201E+04  0.25500000920E-02 0. -1.
       -2   -1    0    0    0  501  0.00000000000E+00  0.00000000000E+00 -0.12631587716E+04  0.12631587716E+04  0.25500000920E-02 0.  1.
    10030    2    1    2    0    0  0.00000000000E+00  0.00000000000E+00  0.82157664848E+03  0.33478941917E+04  0.32455211183E+04 0.  0.
        4    1    3    3  502    0 -0.60958571377E+03 -0.11226120208E+04 -0.62152674895E+03  0.14206159242E+04  0.12699999809E+01 0.  1.
       -4    1    3    3    0  502  0.60958571377E+03  0.11226120208E+04  0.14431033974E+04  0.19272782675E+04  0.12699999809E+01 0. -1.
</event>
<event>
 5   0  0.9268670E-07  0.3126728E+04  0.7818609E-02  0.8208441E-01
       -1   -1    0    0    0  501  0.00000000000E+00  0.00000000000E+00  0.17972008066E+04  0.17972008066E+04  0.50400001928E-02 0.  1.
        1   -1    0    0  501    0  0.00000000000E+00  0.00000000000E+00 -0.13599522223E+04  0.13599522223E+04  0.50400001928E-02 0. -1.
    10030    2    1    2    0    0  0.00000000000E+00  0.00000000000E+00  0.43724858426E+03  0.31571530289E+04  0.31267281499E+04 0.  0.
        3    1    3    3  502    0  0.21004001451E+03 -0.20281781020E+03 -0.13321770354E+04  0.13637989352E+04  0.10100000352E+00 0. -1.
       -3    1    3    3    0  502 -0.21004001451E+03  0.20281781020E+03  0.17694256196E+04  0.17933540937E+04  0.10100000352E+00 0.  1.
</event>
<event>
 5   0  0.9268670E-07  0.3300865E+04  0.7818609E-02  0.8162675E-01
        1   -1    0    0  501    0  0.00000000000E+00  0.00000000000E+00  0.14226888155E+04  0.14226888155E+04  0.50400001928E-02 0.  1.
       -1   -1    0    0    0  501  0.00000000000E+00  0.00000000000E+00 -0.19146335272E+04  0.19146335273E+04  0.50400001928E-02 0. -1.
    10030    2    1    2    0    0  0.00000000000E+00  0.00000000000E+00 -0.49194471174E+03  0.33373223428E+04  0.33008651624E+04 0.  0.
        3    1    3    3  502    0 -0.53958811295E+03 -0.89250471761E+02  0.13284053636E+04  0.14365868574E+04  0.10100000352E+00 0.  1.
       -3    1    3    3    0  502  0.53958811295E+03  0.89250471761E+02 -0.18203500754E+04  0.19007354854E+04  0.10100000352E+00 0. -1.
</event>
<event>
 5   0  0.2674551E-06  0.3293152E+04  0.7818609E-02  0.8164640E-01
       -2   -1    0    0    0  501  0.00000000000E+00  0.00000000000E+00  0.13722364533E+04  0.13722364533E+04  0.25500000920E-02 0.  1.
        2   -1    0    0  501    0  0.00000000000E+00  0.00000000000E+00 -0.19757622802E+04  0.19757622802E+04  0.25500000920E-02 0. -1.
    10030    2    1    2    0    0  0.00000000000E+00  0.00000000000E+00 -0.60352582694E+03  0.33479987335E+04  0.32931523038E+04 0.  0.
        3    1    3    3  502    0 -0.74398119087E+03  0.14669675267E+04 -0.22493127697E+03  0.16601493385E+04  0.10100000352E+00 0. -1.
       -3    1    3    3    0  502  0.74398119087E+03 -0.14669675267E+04 -0.37859454997E+03  0.16878493950E+04  0.10100000352E+00 0.  1.
</event>
<event>
 5   0  0.2574803E-06  0.3251859E+04  0.7818609E-02  0.8175254E-01
       -2   -1    0    0    0  501  0.00000000000E+00  0.00000000000E+00  0.15679030565E+04  0.15679030565E+04  0.25500000920E-02 0.  1.
        2   -1    0    0  501    0  0.00000000000E+00  0.00000000000E+00 -0.16861032904E+04  0.16861032904E+04  0.25500000920E-02 0. -1.
    10030    2    1    2    0    0  0.00000000000E+00  0.00000000000E+00 -0.11820023385E+03  0.32540063469E+04  0.32518588547E+04 0.  0.
        4    1    3    3  502    0 -0.75611482791E+03 -0.11771751909E+04 -0.88801533328E+03  0.16571131247E+04  0.12699999809E+01 0. -1.
       -4    1    3    3    0  502  0.75611482791E+03  0.11771751909E+04  0.76981509942E+03  0.15968932222E+04  0.12699999809E+01 0.  1.
</event>
<event>
 5   0  0.8705956E-07  0.3258266E+04  0.7818609E-02  0.8173596E-01
       -1   -1    0    0    0  501  0.00000000000E+00  0.00000000000E+00  0.99074490045E+03  0.99074490047E+03  0.50400001928E-02 0. -1.
        1   -1    0    0  501    0  0.00000000000E+00  0.00000000000E+00 -0.26788679751E+04  0.26788679751E+04  0.50400001928E-02 0.  1.
    10030    2    1    2    0    0  0.00000000000E+00  0.00000000000E+00 -0.16881230747E+04  0.36696128756E+04  0.32582662785E+04 0.  0.
        2    1    3    3  502    0  0.12310302197E+04 -0.88644176457E+03 -0.17504765915E+03  0.15270416126E+04  0.25500000920E-02 0. -1.
       -2    1    3    3    0  502 -0.12310302197E+04  0.88644176457E+03 -0.15130754155E+04  0.21425712629E+04  0.25500000920E-02 0.  1.
</event>
<event>
 5   0  0.8845526E-07  0.3281487E+04  0.7818609E-02  0.8167622E-01
       -1   -1    0    0    0  501  0.00000000000E+00  0.00000000000E+00  0.95439977003E+03  0.95439977004E+03  0.50400001928E-02 0.  1.
        1   -1    0    0  501    0  0.00000000000E+00  0.00000000000E+00 -0.28206612192E+04  0.28206612192E+04  0.50400001928E-02 0. -1.
    10030    2    1    2    0    0  0.00000000000E+00  0.00000000000E+00 -0.18662614491E+04  0.37750609892E+04  0.32814865040E+04 0.  0.
        1    1    3    3  502    0 -0.77315218508E+03  0.80151468629E+03 -0.23192926765E+04  0.25728017049E+04  0.50400001928E-02 0. -1.
       -1    1    3    3    0  502  0.77315218508E+03 -0.80151468629E+03  0.45303122736E+03  0.12022592843E+04  0.50400001928E-02 0.  1.
</event>
<event>
 5   0  0.8705956E-07  0.2974885E+04  0.7818609E-02  0.8250939E-01
        1   -1    0    0  501    0  0.00000000000E+00  0.00000000000E+00  0.27955490802E+04  0.27955490802E+04  0.50400001928E-02 0. -1.
       -1   -1    0    0    0  501  0.00000000000E+00  0.00000000000E+00 -0.79143110807E+03  0.79143110809E+03  0.50400001928E-02 0.  1.
    10030    2    1    2    0    0  0.00000000000E+00  0.00000000000E+00  0.20041179722E+04  0.35869801883E+04  0.29748845398E+04 0.  0.
        2    1    3    3  502    0  0.18896819104E+03 -0.23970266354E+03 -0.75326360905E+03  0.81275605741E+03  0.25500000920E-02 0.  1.
       -2    1    3    3    0  502 -0.18896819104E+03  0.23970266354E+03  0.27573815812E+04  0.27742241309E+04  0.25500000920E-02 0. -1.
</event>
<event>
 5   0  0.2574803E-06  0.3331881E+04  0.7818609E-02  0.8154830E-01
       -2   -1    0    0    0  501  0.00000000000E+00  0.00000000000E+00  0.15158949337E+04  0.15158949337E+04  0.25500000920E-02 0. -1.
        2   -1    0    0  501    0  0.00000000000E+00  0.00000000000E+00 -0.18308380261E+04  0.18308380261E+04  0.25500000920E-02 0.  1.
    10030    2    1    2    0    0  0.00000000000E+00  0.00000000000E+00 -0.31494309248E+03  0.33467329598E+04  0.33318812033E+04 0.  0.
        4    1    3    3  502    0 -0.65625588729E+03 -0.53846952090E+03 -0.15972958143E+04  0.18088606209E+04  0.12699999809E+01 0.  1.
       -4    1    3    3    0  502  0.65625588729E+03  0.53846952090E+03  0.12823527219E+04  0.15378723389E+04  0.12699999809E+01 0. -1.
</event>
<event>
 5   0  0.2574803E-06  0.2466149E+04  0.7818609E-02  0.8415145E-01
        2   -1    0    0  501    0  0.00000000000E+00  0.00000000000E+00  0.10693561094E+04  0.10693561094E+04  0.25500000920E-02 0. -1.
       -2   -1    0    0    0  501  0.00000000000E+00  0.00000000000E+00 -0.14218578373E+04  0.14218578373E+04  0.25500000920E-02 0.  1.
    10030    2    1    2    0    0  0.00000000000E+00  0.00000000000E+00 -0.35250172795E+03  0.24912139467E+04  0.24661487100E+04 0.  0.
        4    1    3    3  502    0  0.99199519033E+03  0.71518720084E+03 -0.16774317479E+02  0.12230413650E+04  0.12699999809E+01 0. -1.
       -4    1    3    3    0  502 -0.99199519033E+03 -0.71518720084E+03 -0.33572741048E+03  0.12681725817E+04  0.12699999809E+01 0.  1.
</event>
<event>
 5   0  0.2658600E-06  0.3331046E+04  0.7818609E-02  0.8155040E-01
       -2   -1    0    0    0  501  0.00000000000E+00  0.00000000000E+00  0.12704441569E+04  0.12704441569E+04  0.25500000920E-02 0.  1.
        2   -1    0    0  501    0  0.00000000000E+00  0.00000000000E+00 -0.21834622210E+04  0.21834622210E+04  0.25500000920E-02 0. -1.
    10030    2    1    2    0    0  0.00000000000E+00  0.00000000000E+00 -0.91301806405E+03  0.34539063779E+04  0.33310459741E+04 0.  0.
        5    1    3    3  502    0 -0.12123908357E+04 -0.22348253250E+03 -0.16176836485E+04  0.20339022734E+04  0.46999998093E+01 0.  1.
       -5    1    3    3    0  502  0.12123908357E+04  0.22348253250E+03  0.70466558449E+03  0.14200041045E+04  0.46999998093E+01 0. -1.
</event>
<event>
 5   0  0.9268670E-07  0.3461086E+04  0.7818609E-02  0.8123074E-01
       -1   -1    0    0    0  501  0.00000000000E+00  0.00000000000E+00  0.95176673819E+03  0.95176673821E+03  0.50400001928E-02 0. -1.
        1   -1    0    0  501    0  0.00000000000E+00  0.00000000000E+00 -0.31465481844E+04  0.31465481844E+04  0.50400001928E-02 0.  1.
    10030    2    1    2    0    0  0.00000000000E+00  0.00000000000E+00 -0.21947814462E+04  0.40983149226E+04  0.34610864780E+04 0.  0.
        3    1    3    3  502    0 -0.61520540771E+03  0.11898449782E+04 -0.23948293514E+04  0.27439782066E+04  0.10100000352E+00 0.  1.
       -3    1    3    3    0  502  0.61520540771E+03 -0.11898449782E+04  0.20004790522E+03  0.13543367160E+04  0.10100000352E+00 0. -1.
</event>
<event>
 5   0  0.8705956E-07  0.3333142E+04  0.7818609E-02  0.8154513E-01
       -1   -1    0    0    0  501  0.00000000000E+00  0.00000000000E+00  0.20974785049E+04  0.20974785049E+04  0.50400001928E-02 0. -1.
        1   -1    0    0  501    0  0.00000000000E+00  0.00000000000E+00 -0.13241890795E+04  0.13241890795E+04  0.50400001928E-02 0.  1.
    10030    2    1    2    0    0  0.00000000000E+00  0.00000000000E+00  0.77328942540E+03  0.34216675844E+04  0.33331415396E+04 0.  0.
        2    1    3    3  502    0 -0.14867910529E+04  0.22049525159E+03 -0.35240125955E+03  0.15438110113E+04  0.25500000920E-02 0.  1.
       -2    1    3    3    0  502  0.14867910529E+04 -0.22049525159E+03  0.11256906850E+04  0.18778565731E+04  0.25500000920E-02 0. -1.
</event>
<event>
 5   0  0.2705859E-06  0.3304608E+04  0.7818609E-02  0.8161724E-01
       -2   -1    0    0    0  501  0.00000000000E+00  0.00000000000E+00  0.12592064449E+04  0.12592064449E+04  0.25500000920E-02 0. -1.
        2   -1    0    0  501    0  0.00000000000E+00  0.00000000000E+00 -0.21681177675E+04  0.21681177675E+04  0.25500000920E-02 0.  1.
    10030    2    1    2    0    0  0.00000000000E+00  0.00000000000E+00 -0.90891132261E+03  0.34273242124E+04  0.33046076112E+04 0.  0.
        1    1    3    3  502    0 -0.31083248654E+03  0.88979917296E+03  0.95305096563E+03  0.13403975328E+04  0.50400001928E-02 0. -1.
       -1    1    3    3    0  502  0.31083248654E+03 -0.88979917296E+03 -0.18619622882E+04  0.20869266795E+04  0.50400001928E-02 0.  1.
</event>
<event>
 5   0  0.9295663E-07  0.3555513E+04  0.7818609E-02  0.8100759E-01
       -1   -1    0    0    0  501  0.00000000000E+00  0.00000000000E+00  0.10181010055E+04  0.10181010055E+04  0.50400001928E-02 0.  1.
        1   -1    0    0  501    0  0.00000000000E+00  0.00000000000E+00 -0.31042282389E+04  0.31042282389E+04  0.50400001928E-02 0. -1.
    10030    2    1    2    0    0  0.00000000000E+00  0.00000000000E+00 -0.20861272334E+04  0.41223292443E+04  0.35555128413E+04 0.  0.
        4    1    3    3  502    0  0.36786880184E+03 -0.24644476144E+02 -0.30594134702E+04  0.30815494804E+04  0.12699999809E+01 0. -1.
       -4    1    3    3    0  502 -0.36786880184E+03  0.24644476144E+02  0.97328623676E+03  0.10407797640E+04  0.12699999809E+01 0.  1.
</event>
<event>
 5   0  0.2574803E-06  0.3343345E+04  0.7818609E-02  0.8151953E-01
        2   -1    0    0  501    0  0.00000000000E+00  0.00000000000E+00  0.18767247148E+04  0.18767247148E+04  0.25500000920E-02 0. -1.
       -2   -1    0    0    0  501  0.00000000000E+00  0.00000000000E+00 -0.14890242417E+04  0.14890242417E+04  0.25500000920E-02 0.  1.
    10030    2    1    2    0    0  0.00000000000E+00  0.00000000000E+00  0.38770047313E+03  0.33657489565E+04  0.33433447895E+04 0.  0.
        4    1    3    3  502    0 -0.13454940186E+04 -0.40892823595E+02 -0.80398336825E+03  0.15679340696E+04  0.12699999809E+01 0.  1.
       -4    1    3    3    0  502  0.13454940186E+04  0.40892823595E+02  0.11916838414E+04  0.17978148870E+04  0.12699999809E+01 0. -1.
</event>
<event>
 5   0  0.2614212E-06  0.3038246E+04  0.7818609E-02  0.8232893E-01
        2   -1    0    0  501    0  0.00000000000E+00  0.00000000000E+00  0.26656001144E+04  0.26656001144E+04  0.25500000920E-02 0. -1.
       -2   -1    0    0    0  501  0.00000000000E+00  0.00000000000E+00 -0.86574667848E+03  0.86574667848E+03  0.25500000920E-02 0.  1.
    10030    2    1    2    0    0  0.00000000000E+00  0.00000000000E+00  0.17998534359E+04  0.35313467929E+04  0.30382458394E+04 0.  0.
        2    1    3    3  502    0 -0.28102001446E+03  0.69838618865E+02  0.26332261594E+04  0.26490997882E+04  0.25500000920E-02 0. -1.
       -2    1    3    3    0  502  0.28102001446E+03 -0.69838618865E+02 -0.83337272343E+03  0.88224700474E+03  0.25500000920E-02 0.  1.
</event>
<event>
 5   0  0.9295663E-07  0.3281328E+04  0.7818609E-02  0.8167663E-01
        1   -1    0    0  501    0  0.00000000000E+00  0.00000000000E+00  0.14774028379E+04  0.14774028380E+04  0.50400001928E-02 0.  1.
       -1   -1    0    0    0  501  0.00000000000E+00  0.00000000000E+00 -0.18219668867E+04  0.18219668867E+04  0.50400001928E-02 0. -1.
    10030    2    1    2    0    0  0.00000000000E+00  0.00000000000E+00 -0.34456404871E+03  0.32993697246E+04  0.32813284194E+04 0.  0.
        4    1    3    3  502    0  0.15281806028E+04 -0.56397124022E+03  0.24697920029E+02  0.16291135978E+04  0.12699999809E+01 0. -1.
       -4    1    3    3    0  502 -0.15281806028E+04  0.56397124022E+03 -0.36926196873E+03  0.16702561268E+04  0.12699999809E+01 0.  1.
</event>
<event>
 5   0  0.2574803E-06  0.3350172E+04  0.7818609E-02  0.8150245E-01
        2   -1    0    0  501    0  0.00000000000E+00  0.00000000000E+00  0.18323510265E+04  0.18323510265E+04  0.25500000920E-02 0.  1.
       -2   -1    0    0    0  501  0.00000000000E+00  0.00000000000E+00 -0.15313185895E+04  0.15313185895E+04  0.25500000920E-02 0. -1.
    10030    2    1    2    0    0  0.00000000000E+00  0.00000000000E+00  0.30103243705E+03  0.33636696160E+04  0.33501720489E+04 0.  0.
        4    1    3    3  502    0 -0.47272781286E+03 -0.14024147280E+04  0.93832578107E+03  0.17523400180E+04  0.12699999809E+01 0.  1.
       -4    1    3    3    0  502  0.47272781286E+03  0.14024147280E+04 -0.63729334401E+03  0.16113295980E+04  0.12699999809E+01 0. -1.
</event>
<event>
 5   0  0.9268670E-07  0.2873721E+04  0.7818609E-02  0.8280739E-01
       -1   -1    0    0    0  501  0.00000000000E+00  0.00000000000E+00  0.18378572999E+04  0.18378572999E+04  0.50400001928E-02 0.  1.
        1   -1    0    0  501    0  0.00000000000E+00  0.00000000000E+00 -0.11233561672E+04  0.11233561672E+04  0.50400001928E-02 0. -1.
    10030    2    1    2    0    0  0.00000000000E+00  0.00000000000E+00  0.71450113273E+03  0.29612134671E+04  0.28737211641E+04 0.  0.
        3    1    3    3  502    0  0.80627109111E+03 -0.75984567512E+03  0.13000547269E+04  0.17080927450E+04  0.10100000352E+00 0.  1.
       -3    1    3    3    0  502 -0.80627109111E+03  0.75984567512E+03 -0.58555359418E+03  0.12531207221E+04  0.10100000352E+00 0. -1.
</event>
<event>
 5   0  0.2658600E-06  0.3368922E+04  0.7818609E-02  0.8145576E-01
       -2   -1    0    0    0  501  0.00000000000E+00  0.00000000000E+00  0.16781271568E+04  0.16781271568E+04  0.25500000920E-02 0.  1.
        2   -1    0    0  501    0  0.00000000000E+00  0.00000000000E+00 -0.16908183896E+04  0.16908183896E+04  0.25500000920E-02 0. -1.
    10030    2    1    2    0    0  0.00000000000E+00  0.00000000000E+00 -0.12691232836E+02  0.33689455464E+04  0.33689216416E+04 0.  0.
        5    1    3    3  502    0 -0.14884147858E+04  0.47593164911E+03 -0.63523532866E+03  0.16868418782E+04  0.46999998093E+01 0. -1.
       -5    1    3    3    0  502  0.14884147858E+04 -0.47593164911E+03  0.62254409582E+03  0.16821036682E+04  0.46999998093E+01 0.  1.
</event>
<event>
 5   0  0.2658600E-06  0.3257575E+04  0.7818609E-02  0.8173775E-01
        2   -1    0    0  501    0  0.00000000000E+00  0.00000000000E+00  0.23550547918E+04  0.23550547918E+04  0.25500000920E-02 0.  1.
       -2   -1    0    0    0  501  0.00000000000E+00  0.00000000000E+00 -0.11264915426E+04  0.11264915426E+04  0.25500000920E-02 0. -1.
    10030    2    1    2    0    0  0.00000000000E+00  0.00000000000E+00  0.12285632493E+04  0.34815463344E+04  0.32575753592E+04 0.  0.
        5    1    3    3  502    0 -0.95681652973E+02 -0.15535319224E+04  0.11271841798E+04  0.19217655106E+04  0.46999998093E+01 0. -1.
       -5    1    3    3    0  502  0.95681652973E+02  0.15535319224E+04  0.10137906942E+03  0.15597808238E+04  0.46999998093E+01 0.  1.
</event>
<event>
 5   0  0.2705859E-06  0.3333519E+04  0.7818609E-02  0.8154418E-01
        2   -1    0    0  501    0  0.00000000000E+00  0.00000000000E+00  0.19347204340E+04  0.19347204340E+04  0.25500000920E-02 0.  1.
       -2   -1    0    0    0  501  0.00000000000E+00  0.00000000000E+00 -0.14359116206E+04  0.14359116206E+04  0.25500000920E-02 0. -1.
    10030    2    1    2    0    0  0.00000000000E+00  0.00000000000E+00  0.49880881343E+03  0.33706320545E+04  0.33335191937E+04 0.  0.
        1    1    3    3  502    0  0.88206184848E+03 -0.81219411846E+02  0.16770220806E+04  0.18965844975E+04  0.50400001928E-02 0.  1.
       -1    1    3    3    0  502 -0.88206184848E+03  0.81219411846E+02 -0.11782132672E+04  0.14740475570E+04  0.50400001928E-02 0. -1.
</event>
<event>
 5   0  0.9295663E-07  0.2357978E+04  0.7818609E-02  0.8455406E-01
       -1   -1    0    0    0  501  0.00000000000E+00  0.00000000000E+00  0.18045786927E+04  0.18045786928E+04  0.50400001928E-02 0. -1.
        1   -1    0    0  501    0  0.00000000000E+00  0.00000000000E+00 -0.77027104441E+03  0.77027104443E+03  0.50400001928E-02 0.  1.
    10030    2    1    2    0    0  0.00000000000E+00  0.00000000000E+00  0.10343076483E+04  0.25748497372E+04  0.23579777051E+04 0.  0.
        4    1    3    3  502    0 -0.10465413717E+04 -0.26539318458E+03  0.10343515027E+04  0.14951812696E+04  0.12699999809E+01 0.  1.
       -4    1    3    3    0  502  0.10465413717E+04  0.26539318458E+03 -0.43854368314E-01  0.10796684676E+04  0.12699999809E+01 0. -1.
</event>
<event>
 5   0  0.9268670E-07  0.3282293E+04  0.7818609E-02  0.8167415E-01
        1   -1    0    0  501    0  0.00000000000E+00  0.00000000000E+00  0.13886622475E+04  0.13886622475E+04  0.50400001928E-02 0.  1.
       -1   -1    0    0    0  501  0.00000000000E+00  0.00000000000E+00 -0.19395375046E+04  0.19395375046E+04  0.50400001928E-02 0. -1.
    10030    2    1    2    0    0  0.00000000000E+00  0.00000000000E+00 -0.55087525706E+03  0.33281997521E+04  0.32822934118E+04 0.  0.
        3    1    3    3  502    0 -0.13179008630E+04  0.80953533760E+03  0.28101104693E+03  0.15719978900E+04  0.10100000352E+00 0.  1.
       -3    1    3    3    0  502  0.13179008630E+04 -0.80953533760E+03 -0.83188630399E+03  0.17562018621E+04  0.10100000352E+00 0. -1.
</event>
<event>
 5   0  0.9268670E-07  0.3116142E+04  0.7818609E-02  0.8211322E-01
        1   -1    0    0  501    0  0.00000000000E+00  0.00000000000E+00  0.14846449642E+04  0.14846449642E+04  0.50400001928E-02 0. -1.
       -1   -1    0    0    0  501  0.00000000000E+00  0.00000000000E+00 -0.16351284422E+04  0.16351284422E+04  0.50400001928E-02 0.  1.
    10030    2    1    2    0    0  0.00000000000E+00  0.00000000000E+00 -0.15048347802E+03  0.31197734064E+04  0.31161419785E+04 0.  0.
        3    1    3    3  502    0  0.29260468754E+03 -0.53411496038E+03 -0.15110290712E+04  0.16291424610E+04  0.10100000352E+00 0.  1.
       -3    1    3    3    0  502 -0.29260468754E+03  0.53411496038E+03  0.13605455931E+04  0.14906309454E+04  0.10100000352E+00 0. -1.
</event>
<event>
 5   0  0.2574803E-06  0.3323971E+04  0.7818609E-02  0.8156823E-01
        2   -1    0    0  501    0  0.00000000000E+00  0.00000000000E+00  0.16201769263E+04  0.16201769264E+04  0.25500000920E-02 0. -1.
       -2   -1    0    0    0  501  0.00000000000E+00  0.00000000000E+00 -0.17048732254E+04  0.17048732254E+04  0.25500000920E-02 0.  1.
    10030    2    1    2    0    0  0.00000000000E+00  0.00000000000E+00 -0.84696299044E+02  0.33250501517E+04  0.33239712767E+04 0.  0.
        4    1    3    3  502    0  0.40788274796E+03  0.43876874249E+03 -0.15931120452E+04  0.17020264237E+04  0.12699999809E+01 0.  1.
       -4    1    3    3    0  502 -0.40788274796E+03 -0.43876874249E+03  0.15084157462E+04  0.16230237280E+04  0.12699999809E+01 0. -1.
</event>
<event>
 5   0  0.9530268E-07  0.3466694E+04  0.7818609E-02  0.8121729E-01
       -1   -1    0    0    0  501  0.00000000000E+00  0.00000000000E+00  0.15368576222E+04  0.15368576222E+04  0.50400001928E-02 0. -1.
        1   -1    0    0  501    0  0.00000000000E+00  0.00000000000E+00 -0.19549579342E+04  0.19549579342E+04  0.50400001928E-02 0.  1.
    10030    2    1    2    0    0  0.00000000000E+00  0.00000000000E+00 -0.41810031200E+03  0.34918155565E+04  0.34666941038E+04 0.  0.
        5    1    3    3  502    0 -0.14609079353E+03  0.46083733369E+03  0.14675709998E+04  0.15451538103E+04  0.46999998093E+01 0. -1.
       -5    1    3    3    0  502  0.14609079353E+03 -0.46083733369E+03 -0.18856713118E+04  0.19466617462E+04  0.46999998093E+01 0.  1.
</event>
<event>
 5   0  0.9295663E-07  0.3298758E+04  0.7818609E-02  0.8163212E-01
        1   -1    0    0  501    0  0.00000000000E+00  0.00000000000E+00  0.12236357082E+04  0.12236357082E+04  0.50400001928E-02 0.  1.
       -1   -1    0    0    0  501  0.00000000000E+00  0.00000000000E+00 -0.22232518727E+04  0.22232518727E+04  0.50400001928E-02 0. -1.
    10030    2    1    2    0    0  0.00000000000E+00  0.00000000000E+00 -0.99961616446E+03  0.34468875809E+04  0.32987575721E+04 0.  0.
        4    1    3    3  502    0  0.79568713637E+03 -0.17630746496E+03 -0.19981616260E+04  0.21579744757E+04  0.12699999809E+01 0. -1.
       -4    1    3    3    0  502 -0.79568713637E+03  0.17630746496E+03  0.99854546154E+03  0.12889131052E+04  0.12699999809E+01 0.  1.
</event>
<event>
 5   0  0.8705956E-07  0.3224153E+04  0.7818609E-02  0.8182467E-01
        1   -1    0    0  501    0  0.00000000000E+00  0.00000000000E+00  0.24860732460E+04  0.24860732460E+04  0.50400001928E-02 0.  1.
       -1   -1    0    0    0  501  0.00000000000E+00  0.00000000000E+00 -0.10453397923E+04  0.10453397923E+04  0.50400001928E-02 0. -1.
    10030    2    1    2    0    0  0.00000000000E+00  0.00000000000E+00  0.14407334536E+04  0.35314130383E+04  0.32241534025E+04 0.  0.
        2    1    3    3  502    0  0.11799289342E+04 -0.88748337426E+03  0.14292989587E+04  0.20549341942E+04  0.25500000920E-02 0. -1.
       -2    1    3    3    0  502 -0.11799289342E+04  0.88748337426E+03  0.11434494954E+02  0.14764788441E+04  0.25500000920E-02 0.  1.
</event>
<event>
 5   0  0.2674551E-06  0.3033571E+04  0.7818609E-02  0.8234209E-01
       -2   -1    0    0    0  501  0.00000000000E+00  0.00000000000E+00  0.18620799116E+04  0.18620799116E+04  0.25500000920E-02 0.  1.
        2   -1    0    0  501    0  0.00000000000E+00  0.00000000000E+00 -0.12355210443E+04  0.12355210443E+04  0.25500000920E-02 0. -1.
    10030    2    1    2    0    0  0.00000000000E+00  0.00000000000E+00  0.62655886728E+03  0.30976009559E+04  0.30335714377E+04 0.  0.
        3    1    3    3  502    0 -0.39992301133E+03  0.12306958344E+04  0.11212378726E+04  0.17122280890E+04  0.10100000352E+00 0.  1.
       -3    1    3    3    0  502  0.39992301133E+03 -0.12306958344E+04 -0.49467900531E+03  0.13853728669E+04  0.10100000352E+00 0. -1.
</event>
<event>
 5   0  0.2574803E-06  0.3256890E+04  0.7818609E-02  0.8173952E-01
       -2   -1    0    0    0  501  0.00000000000E+00  0.00000000000E+00  0.13293486004E+04  0.13293486004E+04  0.25500000920E-02 0. -1.
        2   -1    0    0  501    0  0.00000000000E+00  0.00000000000E+00 -0.19948369892E+04  0.19948369892E+04  0.25500000920E-02 0.  1.
    10030    2    1    2    0    0  0.00000000000E+00  0.00000000000E+00 -0.66548838878E+03  0.33241855897E+04  0.32568903941E+04 0.  0.
        4    1    3    3  502    0  0.16110344635E+04 -0.16999545465E+03 -0.16348140610E+03  0.16282070754E+04  0.12699999809E+01 0. -1.
       -4    1    3    3    0  502 -0.16110344635E+04  0.16999545465E+03 -0.50200698268E+03  0.16959785143E+04  0.12699999809E+01 0.  1.
</event>
<event>
 5   0  0.2705859E-06  0.3233331E+04  0.7818609E-02  0.8180070E-01
       -2   -1    0    0    0  501  0.00000000000E+00  0.00000000000E+00  0.10617603955E+04  0.10617603955E+04  0.25500000920E-02 0. -1.
        2   -1    0    0  501    0  0.00000000000E+00  0.00000000000E+00 -0.24615794202E+04  0.24615794202E+04  0.25500000920E-02 0.  1.
    10030    2    1    2    0    0  0.00000000000E+00  0.00000000000E+00 -0.13998190248E+04  0.35233398157E+04  0.32333311236E+04 0.  0.
        1    1    3    3  502    0  0.94252729867E+02 -0.90577602086E+03  0.75567533995E+03  0.11833676506E+04  0.50400001928E-02 0. -1.
       -1    1    3    3    0  502 -0.94252729867E+02  0.90577602086E+03 -0.21554943647E+04  0.23399721651E+04  0.50400001928E-02 0.  1.
</event>
<event>
 5   0  0.2674551E-06  0.3284995E+04  0.7818609E-02  0.8166724E-01
        2   -1    0    0  501    0  0.00000000000E+00  0.00000000000E+00  0.19285193248E+04  0.19285193248E+04  0.25500000920E-02 0. -1.
       -2   -1    0    0    0  501  0.00000000000E+00  0.00000000000E+00 -0.13988961352E+04  0.13988961352E+04  0.25500000920E-02 0.  1.
    10030    2    1    2    0    0  0.00000000000E+00  0.00000000000E+00  0.52962318965E+03  0.33274154600E+04  0.32849951173E+04 0.  0.
        3    1    3    3  502    0 -0.10956374995E+04 -0.61876334207E+03 -0.80452398414E+03  0.14935020773E+04  0.10100000352E+00 0.  1.
       -3    1    3    3    0  502  0.10956374995E+04  0.61876334207E+03  0.13341471738E+04  0.18339133827E+04  0.10100000352E+00 0. -1.
</event>
<event>
 5   0  0.9530268E-07  0.3343848E+04  0.7818609E-02  0.8151827E-01
       -1   -1    0    0    0  501  0.00000000000E+00  0.00000000000E+00  0.13998855078E+04  0.13998855079E+04  0.50400001928E-02 0. -1.
        1   -1    0    0  501    0  0.00000000000E+00  0.00000000000E+00 -0.19968270080E+04  0.19968270080E+04  0.50400001928E-02 0.  1.
    10030    2    1    2    0    0  0.00000000000E+00  0.00000000000E+00 -0.59694150010E+03  0.33967125158E+04  0.33438475983E+04 0.  0.
        5    1    3    3  502    0  0.15301215030E+02 -0.72383376285E+03 -0.18293257080E+04  0.19673901696E+04  0.46999998093E+01 0.  1.
       -5    1    3    3    0  502 -0.15301215030E+02  0.72383376285E+03  0.12323842079E+04  0.14293223462E+04  0.46999998093E+01 0. -1.
</event>
<event>
 5   0  0.9295663E-07  0.2556431E+04  0.7818609E-02  0.8383153E-01
       -1   -1    0    0    0  501  0.00000000000E+00  0.00000000000E+00  0.81212553698E+03  0.81212553699E+03  0.50400001928E-02 0.  1.
        1   -1    0    0  501    0  0.00000000000E+00  0.00000000000E+00 -0.20118010301E+04  0.20118010301E+04  0.50400001928E-02 0. -1.
    10030    2    1    2    0    0  0.00000000000E+00  0.00000000000E+00 -0.11996754931E+04  0.28239265671E+04  0.25564310997E+04 0.  0.
        4    1    3    3  502    0  0.32271697399E+02  0.56593719507E+02  0.81028967552E+03  0.81290545742E+03  0.12699999809E+01 0.  1.
       -4    1    3    3    0  502 -0.32271697399E+02 -0.56593719507E+02 -0.20099651686E+04  0.20110211096E+04  0.12699999809E+01 0. -1.
</event>
<event>
 5   0  0.9530268E-07  0.3289869E+04  0.7818609E-02  0.8165478E-01
       -1   -1    0    0    0  501  0.00000000000E+00  0.00000000000E+00  0.14810900456E+04  0.14810900456E+04  0.50400001928E-02 0.  1.
        1   -1    0    0  501    0  0.00000000000E+00  0.00000000000E+00 -0.18269036259E+04  0.18269036259E+04  0.50400001928E-02 0. -1.
    10030    2    1    2    0    0  0.00000000000E+00  0.00000000000E+00 -0.34581358029E+03  0.33079936715E+04  0.32898685534E+04 0.  0.
        5    1    3    3  502    0  0.16451706250E+02 -0.10560446841E+04  0.10951061751E+04  0.15214403236E+04  0.46999998093E+01 0.  1.
       -5    1    3    3    0  502 -0.16451706250E+02  0.10560446841E+04 -0.14409197554E+04  0.17865533479E+04  0.46999998093E+01 0. -1.
</event>
<event>
 5   0  0.8845526E-07  0.2942961E+04  0.7818609E-02  0.8260209E-01
       -1   -1    0    0    0  501  0.00000000000E+00  0.00000000000E+00  0.10020436362E+04  0.10020436362E+04  0.50400001928E-02 0. -1.
        1   -1    0    0  501    0  0.00000000000E+00  0.00000000000E+00 -0.21608382555E+04  0.21608382555E+04  0.50400001928E-02 0.  1.
    10030    2    1    2    0    0  0.00000000000E+00  0.00000000000E+00 -0.11587946194E+04  0.31628818917E+04  0.29429605657E+04 0.  0.
        1    1    3    3  502    0  0.76440797169E+03  0.12492475928E+04 -0.42621510795E+03  0.15253191186E+04  0.50400001928E-02 0. -1.
       -1    1    3    3    0  502 -0.76440797169E+03 -0.12492475928E+04 -0.73257951140E+03  0.16375627731E+04  0.50400001928E-02 0.  1.
</event>
<event>
 5   0  0.2574803E-06  0.3185159E+04  0.7818609E-02  0.8192748E-01
        2   -1    0    0  501    0  0.00000000000E+00  0.00000000000E+00  0.17021940874E+04  0.17021940874E+04  0.25500000920E-02 0.  1.
       -2   -1    0    0    0  501  0.00000000000E+00  0.00000000000E+00 -0.14900236806E+04  0.14900236806E+04  0.25500000920E-02 0. -1.
    10030    2    1    2    0    0  0.00000000000E+00  0.00000000000E+00  0.21217040680E+03  0.31922177680E+04  0.31851590222E+04 0.  0.
        4    1    3    3  502    0 -0.12789740699E+04 -0.52389913441E+03  0.89908007585E+03  0.16488152019E+04  0.12699999809E+01 0.  1.
       -4    1    3    3    0  502  0.12789740699E+04  0.52389913441E+03 -0.68690966905E+03  0.15434025660E+04  0.12699999809E+01 0. -1.
</event>
<event>
 5   0  0.2705859E-06  0.3330095E+04  0.7818609E-02  0.8155280E-01
        2   -1    0    0  501    0  0.00000000000E+00  0.00000000000E+00  0.16536694449E+04  0.16536694449E+04  0.25500000920E-02 0.  1.
       -2   -1    0    0    0  501  0.00000000000E+00  0.00000000000E+00 -0.16765040030E+04  0.16765040030E+04  0.25500000920E-02 0. -1.
    10030    2    1    2    0    0  0.00000000000E+00  0.00000000000E+00 -0.22834558098E+02  0.33301734480E+04  0.33300951603E+04 0.  0.
        1    1    3    3  502    0  0.14942092134E+04  0.31871463157E+03 -0.67335674407E+03  0.16696255552E+04  0.50400001928E-02 0. -1.
       -1    1    3    3    0  502 -0.14942092134E+04 -0.31871463157E+03  0.65052218597E+03  0.16605478928E+04  0.50400001928E-02 0.  1.
</event>
<event>
 5   0  0.2614212E-06  0.3312631E+04  0.7818609E-02  0.8159689E-01
       -2   -1    0    0    0  501  0.00000000000E+00  0.00000000000E+00  0.14507010952E+04  0.14507010952E+04  0.25500000920E-02 0. -1.
        2   -1    0    0  501    0  0.00000000000E+00  0.00000000000E+00 -0.18910725668E+04  0.18910725668E+04  0.25500000920E-02 0.  1.
    10030    2    1    2    0    0  0.00000000000E+00  0.00000000000E+00 -0.44037147163E+03  0.33417736620E+04  0.33126310050E+04 0.  0.
        2    1    3    3  502    0 -0.11432941042E+04  0.53686037377E+03  0.86070697489E+03  0.15284492030E+04  0.25500000920E-02 0. -1.
       -2    1    3    3    0  502  0.11432941042E+04 -0.53686037377E+03 -0.13010784465E+04  0.18133244590E+04  0.25500000920E-02 0.  1.
</event>
<event>
 5   0  0.9268670E-07  0.3306405E+04  0.7818609E-02  0.8161267E-01
       -1   -1    0    0    0  501  0.00000000000E+00  0.00000000000E+00  0.31021927692E+04  0.31021927692E+04  0.50400001928E-02 0. -1.
        1   -1    0    0  501    0  0.00000000000E+00  0.00000000000E+00 -0.88101515459E+03  0.88101515461E+03  0.50400001928E-02 0.  1.
    10030    2    1    2    0    0  0.00000000000E+00  0.00000000000E+00  0.22211776146E+04  0.39832079238E+04  0.33064052033E+04 0.  0.
        3    1    3    3  502    0 -0.68324016502E+03 -0.14752197693E+04  0.14719737259E+04  0.21931249738E+04  0.10100000352E+00 0. -1.
       -3    1    3    3    0  502  0.68324016502E+03  0.14752197693E+04  0.74920388869E+03  0.17900829500E+04  0.10100000352E+00 0.  1.
</event>
<event>
 5   0  0.2674551E-06  0.2659274E+04  0.7818609E-02  0.8348341E-01
        2   -1    0    0  501    0  0.00000000000E+00  0.00000000000E+00  0.18995059548E+04  0.18995059548E+04  0.25500000920E-02 0. -1.
       -2   -1    0    0    0  501  0.00000000000E+00  0.00000000000E+00 -0.93073415527E+03  0.93073415527E+03  0.25500000920E-02 0.  1.
    10030    2    1    2    0    0  0.00000000000E+00  0.00000000000E+00  0.96877179952E+03  0.28302401101E+04  0.26592743900E+04 0.  0.
        3    1    3    3  502    0 -0.55183476708E+03 -0.41136952945E+03 -0.72637645309E+03  0.10006843967E+04  0.10100000352E+00 0.  1.
       -3    1    3    3    0  502  0.55183476708E+03  0.41136952945E+03  0.16951482526E+04  0.18295557134E+04  0.10100000352E+00 0. -1.
</event>
<event>
 5   0  0.2658600E-06  0.3282264E+04  0.7818609E-02  0.8167423E-01
        2   -1    0    0  501    0  0.00000000000E+00  0.00000000000E+00  0.16686793143E+04  0.16686793143E+04  0.25500000920E-02 0.  1.
       -2   -1    0    0    0  501  0.00000000000E+00  0.00000000000E+00 -0.16140395298E+04  0.16140395298E+04  0.25500000920E-02 0. -1.
    10030    2    1    2    0    0  0.00000000000E+00  0.00000000000E+00  0.54639784529E+02  0.32827188441E+04  0.32822640819E+04 0.  0.
        5    1    3    3  502    0 -0.82990529898E+03  0.49048970222E+03 -0.13010091962E+04  0.16192498176E+04  0.46999998093E+01 0. -1.
       -5    1    3    3    0  502  0.82990529898E+03 -0.49048970222E+03  0.13556489807E+04  0.16634690265E+04  0.46999998093E+01 0.  1.
</event>
<event>
 5   0  0.2705859E-06  0.3184378E+04  0.7818609E-02  0.8192955E-01
        2   -1    0    0  501    0  0.00000000000E+00  0.00000000000E+00  0.23913957072E+04  0.23913957072E+04  0.25500000920E-02 0.  1.
       -2   -1    0    0    0  501  0.00000000000E+00  0.00000000000E+00 -0.10600781487E+04  0.10600781487E+04  0.25500000920E-02 0. -1.
    10030    2    1    2    0    0  0.00000000000E+00  0.00000000000E+00  0.13313175586E+04  0.34514738559E+04  0.31843783280E+04 0.  0.
        1    1    3    3  502    0  0.57758445154E+03  0.11314946872E+04 -0.37462714608E+03  0.13244733008E+04  0.50400001928E-02 0. -1.
       -1    1    3    3    0  502 -0.57758445154E+03 -0.11314946872E+04  0.17059447046E+04  0.21270005551E+04  0.50400001928E-02 0.  1.
</event>
<event>
 5   0  0.9268670E-07  0.3302503E+04  0.7818609E-02  0.8162259E-01
        1   -1    0    0  501    0  0.00000000000E+00  0.00000000000E+00  0.19915238443E+04  0.19915238443E+04  0.50400001928E-02 0. -1.
       -1   -1    0    0    0  501  0.00000000000E+00  0.00000000000E+00 -0.13691183963E+04  0.13691183963E+04  0.50400001928E-02 0.  1.
    10030    2    1    2    0    0  0.00000000000E+00  0.00000000000E+00  0.62240544803E+03  0.33606422406E+04  0.33025032517E+04 0.  0.
        3    1    3    3  502    0 -0.10336709101E+03 -0.15781506569E+04  0.79431058612E+03  0.17697947815E+04  0.10100000352E+00 0. -1.
       -3    1    3    3    0  502  0.10336709101E+03  0.15781506569E+04 -0.17190513810E+03  0.15908474591E+04  0.10100000352E+00 0.  1.
</event>
<event>
 5   0  0.9295663E-07  0.3126788E+04  0.7818609E-02  0.8208424E-01
       -1   -1    0    0    0  501  0.00000000000E+00  0.00000000000E+00  0.22102537432E+04  0.22102537432E+04  0.50400001928E-02 0.  1.
        1   -1    0    0  501    0  0.00000000000E+00  0.00000000000E+00 -0.11058460484E+04  0.11058460484E+04  0.50400001928E-02 0. -1.
    10030    2    1    2    0    0  0.00000000000E+00  0.00000000000E+00  0.11044076948E+04  0.33160997917E+04  0.31267877242E+04 0.  0.
        4    1    3    3  502    0  0.94773962502E+03 -0.11071715301E+04 -0.47880682936E+02  0.14581952429E+04  0.12699999809E+01 0.  1.
       -4    1    3    3    0  502 -0.94773962502E+03  0.11071715301E+04  0.11522883777E+04  0.18579045487E+04  0.12699999809E+01 0. -1.
</event>
<event>
 5   0  0.9268670E-07  0.3294111E+04  0.7818609E-02  0.8164395E-01
       -1   -1    0    0    0  501  0.00000000000E+00  0.00000000000E+00  0.12858619628E+04  0.12858619628E+04  0.50400001928E-02 0. -1.
        1   -1    0    0  501    0  0.00000000000E+00  0.00000000000E+00 -0.21097070991E+04  0.21097070991E+04  0.50400001928E-02 0.  1.
    10030    2    1    2    0    0  0.00000000000E+00  0.00000000000E+00 -0.82384513635E+03  0.33955690619E+04  0.32941111769E+04 0.  0.
        3    1    3    3  502    0 -0.54375926402E+03 -0.55488048007E+03  0.10851258061E+04  0.13345652886E+04  0.10100000352E+00 0. -1.
       -3    1    3    3    0  502  0.54375926402E+03  0.55488048007E+03 -0.19089709424E+04  0.20610037733E+04  0.10100000352E+00 0.  1.
</event>
<event>
 5   0  0.2574803E-06  0.3314663E+04  0.7818609E-02  0.8159174E-01
        2   -1    0    0  501    0  0.00000000000E+00  0.00000000000E+00  0.18305245743E+04  0.18305245743E+04  0.25500000920E-02 0.  1.
       -2   -1    0    0    0  501  0.00000000000E+00  0.00000000000E+00 -0.15005253051E+04  0.15005253051E+04  0.25500000920E-02 0. -1.
    10030    2    1    2    0    0  0.00000000000E+00  0.00000000000E+00  0.32999926913E+03  0.33310498794E+04  0.33146634492E+04 0.  0.
        4    1    3    3  502    0 -0.26061479878E+03 -0.15602752566E+04  0.66177924162E+03  0.17147397258E+04  0.12699999809E+01 0.  1.
       -4    1    3    3    0  502  0.26061479878E+03  0.15602752566E+04 -0.33177997249E+03  0.16163101536E+04  0.12699999809E+01 0. -1.
</event>
<event>
 5   0  0.2658600E-06  0.3270452E+04  0.7818609E-02  0.8170455E-01
        2   -1    0    0  501    0  0.00000000000E+00  0.00000000000E+00  0.18026823059E+04  0.18026823059E+04  0.25500000920E-02 0. -1.
       -2   -1    0    0    0  501  0.00000000000E+00  0.00000000000E+00 -0.14833250651E+04  0.14833250651E+04  0.25500000920E-02 0.  1.
    10030    2    1    2    0    0  0.00000000000E+00  0.00000000000E+00  0.31935724075E+03  0.32860073710E+04  0.32704518641E+04 0.  0.
        5    1    3    3  502    0 -0.12797684498E+04 -0.83228559962E+03 -0.42914218351E+03  0.15857779505E+04  0.46999998093E+01 0.  1.
       -5    1    3    3    0  502  0.12797684498E+04  0.83228559962E+03  0.74849942426E+03  0.17002294206E+04  0.46999998093E+01 0. -1.
</event>
<event>
 5   0  0.2614212E-06  0.3308000E+04  0.7818609E-02  0.8160863E-01
       -2   -1    0    0    0  501  0.00000000000E+00  0.00000000000E+00  0.89491198641E+03  0.89491198642E+03  0.25500000920E-02 0. -1.
        2   -1    0    0  501    0  0.00000000000E+00  0.00000000000E+00 -0.30569662477E+04  0.30569662477E+04  0.25500000920E-02 0.  1.
    10030    2    1    2    0    0  0.00000000000E+00  0.00000000000E+00 -0.21620542613E+04  0.39518782342E+04  0.33079998411E+04 0.  0.
        2    1    3    3  502    0 -0.55965939518E+03 -0.11836154612E+04 -0.22884745168E+04  0.26365279844E+04  0.25500000920E-02 0. -1.
       -2    1    3    3    0  502  0.55965939518E+03  0.11836154612E+04  0.12642025548E+03  0.13153502497E+04  0.25500000920E-02 0.  1.
</event>
<event>
 5   0  0.2674551E-06  0.3307459E+04  0.7818609E-02  0.8161000E-01
        2   -1    0    0  501    0  0.00000000000E+00  0.00000000000E+00  0.19576335758E+04  0.19576335758E+04  0.25500000920E-02 0. -1.
       -2   -1    0    0    0  501  0.00000000000E+00  0.00000000000E+00 -0.13970040428E+04  0.13970040428E+04  0.25500000920E-02 0.  1.
    10030    2    1    2    0    0  0.00000000000E+00  0.00000000000E+00  0.56062953300E+03  0.33546376186E+04  0.33074594599E+04 0.  0.
        3    1    3    3  502    0 -0.24748369554E+02 -0.15303497205E+04  0.91553835061E+03  0.17834778470E+04  0.10100000352E+00 0. -1.
       -3    1    3    3    0  502  0.24748369554E+02  0.15303497205E+04 -0.35490881761E+03  0.15711597716E+04  0.10100000352E+00 0.  1.
</event>
<event>
 5   0  0.2614212E-06  0.3287230E+04  0.7818609E-02  0.8166152E-01
       -2   -1    0    0    0  501  0.00000000000E+00  0.00000000000E+00  0.18257015589E+04  0.18257015589E+04  0.25500000920E-02 0.  1.
        2   -1    0    0  501    0  0.00000000000E+00  0.00000000000E+00 -0.14796889615E+04  0.14796889615E+04  0.25500000920E-02 0. -1.
    10030    2    1    2    0    0  0.00000000000E+00  0.00000000000E+00  0.34601259740E+03  0.33053905205E+04  0.32872301069E+04 0.  0.
        2    1    3    3  502    0  0.15452376699E+04  0.52848414237E+03  0.35954532455E+03  0.16722224091E+04  0.25500000920E-02 0.  1.
       -2    1    3    3    0  502 -0.15452376699E+04 -0.52848414237E+03 -0.13532727148E+02  0.16331681113E+04  0.25500000920E-02 0. -1.
</event>
<event>
 5   0  0.2674551E-06  0.3305632E+04  0.7818609E-02  0.8161464E-01
        2   -1    0    0  501    0  0.00000000000E+00  0.00000000000E+00  0.15654864487E+04  0.15654864487E+04  0.25500000920E-02 0. -1.
       -2   -1    0    0    0  501  0.00000000000E+00  0.00000000000E+00 -0.17450167190E+04  0.17450167190E+04  0.25500000920E-02 0.  1.
    10030    2    1    2    0    0  0.00000000000E+00  0.00000000000E+00 -0.17953027027E+03  0.33105031677E+04  0.33056315744E+04 0.  0.
        3    1    3    3  502    0 -0.94277653191E+03 -0.11174580863E+04  0.68225344935E+03  0.16133846234E+04  0.10100000352E+00 0. -1.
       -3    1    3    3    0  502  0.94277653191E+03  0.11174580863E+04 -0.86178371963E+03  0.16971185443E+04  0.10100000352E+00 0.  1.
</event>
<event>
 5   0  0.2674551E-06  0.3305692E+04  0.7818609E-02  0.8161449E-01
        2   -1    0    0  501    0  0.00000000000E+00  0.00000000000E+00  0.18920536115E+04  0.18920536115E+04  0.25500000920E-02 0. -1.
       -2   -1    0    0    0  501  0.00000000000E+00  0.00000000000E+00 -0.14438809764E+04  0.14438809764E+04  0.25500000920E-02 0.  1.
    10030    2    1    2    0    0  0.00000000000E+00  0.00000000000E+00  0.44817263514E+03  0.33359345879E+04  0.33056921913E+04 0.  0.
        3    1    3    3  502    0  0.62597724839E+03 -0.79681675574E+03 -0.10936684437E+04  0.14909309618E+04  0.10100000352E+00 0.  1.
       -3    1    3    3    0  502 -0.62597724839E+03  0.79681675574E+03  0.15418410789E+04  0.18450036261E+04  0.10100000352E+00 0. -1.
</event>
<event>
 5   0  0.2574803E-06  0.3304467E+04  0.7818609E-02  0.8161760E-01
        2   -1    0    0  501    0  0.00000000000E+00  0.00000000000E+00  0.18060056349E+04  0.18060056349E+04  0.25500000920E-02 0.  1.
       -2   -1    0    0    0  501  0.00000000000E+00  0.00000000000E+00 -0.15115541237E+04  0.15115541237E+04  0.25500000920E-02 0. -1.
    10030    2    1    2    0    0  0.00000000000E+00  0.00000000000E+00  0.29445151119E+03  0.33175597586E+04  0.33044668344E+04 0.  0.
        4    1    3    3  502    0 -0.30203198744E+03 -0.10195725976E+04 -0.11223486625E+04  0.15460982298E+04  0.12699999809E+01 0. -1.
       -4    1    3    3    0  502  0.30203198744E+03  0.10195725976E+04  0.14168001737E+04  0.17714615288E+04  0.12699999809E+01 0.  1.
</event>
<event>
 5   0  0.9530268E-07  0.3283267E+04  0.7818609E-02  0.8167166E-01
       -1   -1    0    0    0  501  0.00000000000E+00  0.00000000000E+00  0.22649329320E+04  0.22649329320E+04  0.50400001928E-02 0. -1.
        1   -1    0    0  501    0  0.00000000000E+00  0.00000000000E+00 -0.11898629384E+04  0.11898629384E+04  0.50400001928E-02 0.  1.
    10030    2    1    2    0    0  0.00000000000E+00  0.00000000000E+00  0.10750699935E+04  0.34547958704E+04  0.32832665160E+04 0.  0.
        5    1    3    3  502    0 -0.29792080231E+03  0.65525824708E+03  0.20900194622E+04  0.22105030235E+04  0.46999998093E+01 0. -1.
       -5    1    3    3    0  502  0.29792080231E+03 -0.65525824708E+03 -0.10149494686E+04  0.12442928468E+04  0.46999998093E+01 0.  1.
</event>
<event>
 5   0  0.8705956E-07  0.3201764E+04  0.7818609E-02  0.8188352E-01
       -1   -1    0    0    0  501  0.00000000000E+00  0.00000000000E+00  0.15399064432E+04  0.15399064432E+04  0.50400001928E-02 0. -1.
        1   -1    0    0  501    0  0.00000000000E+00  0.00000000000E+00 -0.16642715625E+04  0.16642715625E+04  0.50400001928E-02 0.  1.
    10030    2    1    2    0    0  0.00000000000E+00  0.00000000000E+00 -0.12436511928E+03  0.32041780057E+04  0.32017635780E+04 0.  0.
        2    1    3    3  502    0  0.53718976361E+02  0.68165961491E+03  0.13864161434E+04  0.15458639273E+04  0.25500000920E-02 0. -1.
       -2    1    3    3    0  502 -0.53718976361E+02 -0.68165961491E+03 -0.15107812627E+04  0.16583140784E+04  0.25500000920E-02 0.  1.
</event>
<event>
 5   0  0.8705956E-07  0.3330622E+04  0.7818609E-02  0.8155147E-01
       -1   -1    0    0    0  501  0.00000000000E+00  0.00000000000E+00  0.22183553181E+04  0.22183553181E+04  0.50400001928E-02 0. -1.
        1   -1    0    0  501    0  0.00000000000E+00  0.00000000000E+00 -0.12501423777E+04  0.12501423778E+04  0.50400001928E-02 0.  1.
    10030    2    1    2    0    0  0.00000000000E+00  0.00000000000E+00  0.96821294033E+03  0.34684976958E+04  0.33306215588E+04 0.  0.
        2    1    3    3  502    0 -0.45539029069E+03  0.11108753600E+04  0.16859320206E+04  0.20697321470E+04  0.25500000920E-02 0. -1.
       -2    1    3    3    0  502  0.45539029069E+03 -0.11108753600E+04 -0.71771908031E+03  0.13987655488E+04  0.25500000920E-02 0.  1.
</event>
<event>
 5   0  0.9268670E-07  0.3228522E+04  0.7818609E-02  0.8181325E-01
       -1   -1    0    0    0  501  0.00000000000E+00  0.00000000000E+00  0.11990693145E+04  0.11990693145E+04  0.50400001928E-02 0.  1.
        1   -1    0    0  501    0  0.00000000000E+00  0.00000000000E+00 -0.21732172997E+04  0.21732172997E+04  0.50400001928E-02 0. -1.
    10030    2    1    2    0    0  0.00000000000E+00  0.00000000000E+00 -0.97414798519E+03  0.33722866142E+04  0.32285217533E+04 0.  0.
        3    1    3    3  502    0  0.10330755322E+04 -0.89855053453E+03  0.40610575634E+03  0.14281316514E+04  0.10100000352E+00 0.  1.
       -3    1    3    3    0  502 -0.10330755322E+04  0.89855053453E+03 -0.13802537415E+04  0.19441549628E+04  0.10100000352E+00 0. -1.
</event>
<event>
 5   0  0.2705859E-06  0.2952010E+04  0.7818609E-02  0.8257569E-01
        2   -1    0    0  501    0  0.00000000000E+00  0.00000000000E+00  0.90682577045E+03  0.90682577046E+03  0.25500000920E-02 0.  1.
       -2   -1    0    0    0  501  0.00000000000E+00  0.00000000000E+00 -0.24024355466E+04  0.24024355466E+04  0.25500000920E-02 0. -1.
    10030    2    1    2    0    0  0.00000000000E+00  0.00000000000E+00 -0.14956097761E+04  0.33092613170E+04  0.29520098004E+04 0.  0.
        1    1    3    3  502    0 -0.12112661119E+04  0.63966402679E+03 -0.13149395196E+03  0.13760909565E+04  0.50400001928E-02 0. -1.
       -1    1    3    3    0  502  0.12112661119E+04 -0.63966402679E+03 -0.13641158242E+04  0.19331703605E+04  0.50400001928E-02 0.  1.
</event>
<event>
 5   0  0.9268670E-07  0.3150863E+04  0.7818609E-02  0.8201916E-01
       -1   -1    0    0    0  501  0.00000000000E+00  0.00000000000E+00  0.15993433660E+04  0.15993433660E+04  0.50400001928E-02 0. -1.
        1   -1    0    0  501    0  0.00000000000E+00  0.00000000000E+00 -0.15518774750E+04  0.15518774750E+04  0.50400001928E-02 0.  1.
    10030    2    1    2    0    0  0.00000000000E+00  0.00000000000E+00  0.47465891011E+02  0.31512208410E+04  0.31508633385E+04 0.  0.
        3    1    3    3  502    0  0.85041142229E+03 -0.11546558982E+04  0.67615280863E+03  0.15854376245E+04  0.10100000352E+00 0. -1.
       -3    1    3    3    0  502 -0.85041142229E+03  0.11546558982E+04 -0.62868691762E+03  0.15657832165E+04  0.10100000352E+00 0.  1.
</event>
<event>
 5   0  0.2674551E-06  0.3216806E+04  0.7818609E-02  0.8184393E-01
       -2   -1    0    0    0  501  0.00000000000E+00  0.00000000000E+00  0.12675312896E+04  0.12675312896E+04  0.25500000920E-02 0.  1.
        2   -1    0    0  501    0  0.00000000000E+00  0.00000000000E+00 -0.20409433389E+04  0.20409433389E+04  0.25500000920E-02 0. -1.
    10030    2    1    2    0    0  0.00000000000E+00  0.00000000000E+00 -0.77341204926E+03  0.33084746285E+04  0.32168055847E+04 0.  0.
        3    1    3    3  502    0 -0.90478956859E+03  0.96797917493E+03 -0.13244626935E+04  0.18734538380E+04  0.10100000352E+00 0. -1.
       -3    1    3    3    0  502  0.90478956859E+03 -0.96797917493E+03  0.55105064422E+03  0.14350207905E+04  0.10100000352E+00 0.  1.
</event>
<event>
 5   0  0.8845526E-07  0.2557593E+04  0.7818609E-02  0.8382750E-01
       -1   -1    0    0    0  501  0.00000000000E+00  0.00000000000E+00  0.87611076056E+03  0.87611076057E+03  0.50400001928E-02 0.  1.
        1   -1    0    0  501    0  0.00000000000E+00  0.00000000000E+00 -0.18665675696E+04  0.18665675697E+04  0.50400001928E-02 0. -1.
    10030    2    1    2    0    0  0.00000000000E+00  0.00000000000E+00 -0.99045680909E+03  0.27426783302E+04  0.25575925658E+04 0.  0.
        1    1    3    3  502    0  0.55564786407E+03 -0.49765305519E+03  0.61864926195E+03  0.96908721048E+03  0.50400001928E-02 0.  1.
       -1    1    3    3    0  502 -0.55564786407E+03  0.49765305519E+03 -0.16091060710E+04  0.17735911197E+04  0.50400001928E-02 0. -1.
</event>
<event>
 5   0  0.2574803E-06  0.3320621E+04  0.7818609E-02  0.8157668E-01
        2   -1    0    0  501    0  0.00000000000E+00  0.00000000000E+00  0.18012781634E+04  0.18012781634E+04  0.25500000920E-02 0.  1.
       -2   -1    0    0    0  501  0.00000000000E+00  0.00000000000E+00 -0.15303746619E+04  0.15303746619E+04  0.25500000920E-02 0. -1.
    10030    2    1    2    0    0  0.00000000000E+00  0.00000000000E+00  0.27090350155E+03  0.33316528253E+04  0.33206207012E+04 0.  0.
        4    1    3    3  502    0 -0.13728090301E+04 -0.83945959630E+02 -0.79767968653E+03  0.15899515881E+04  0.12699999809E+01 0. -1.
       -4    1    3    3    0  502  0.13728090301E+04  0.83945959630E+02  0.10685831881E+04  0.17417012373E+04  0.12699999809E+01 0.  1.
</event>
<event>
 5   0  0.2574803E-06  0.3290440E+04  0.7818609E-02  0.8165332E-01
       -2   -1    0    0    0  501  0.00000000000E+00  0.00000000000E+00  0.22436495545E+04  0.22436495545E+04  0.25500000920E-02 0.  1.
        2   -1    0    0  501    0  0.00000000000E+00  0.00000000000E+00 -0.12064043473E+04  0.12064043473E+04  0.25500000920E-02 0. -1.
    10030    2    1    2    0    0  0.00000000000E+00  0.00000000000E+00  0.10372452072E+04  0.34500539019E+04  0.32904398347E+04 0.  0.
        4    1    3    3  502    0 -0.88186105237E+03 -0.59701669150E+03  0.18335036440E+04  0.21203407912E+04  0.12699999809E+01 0.  1.
       -4    1    3    3    0  502  0.88186105237E+03  0.59701669150E+03 -0.79625843677E+03  0.13297131107E+04  0.12699999809E+01 0. -1.
</event>
<event>
 5   0  0.9530268E-07  0.3656688E+04  0.7818609E-02  0.8077629E-01
        1   -1    0    0  501    0  0.00000000000E+00  0.00000000000E+00  0.31166769125E+04  0.31166769125E+04  0.50400001928E-02 0. -1.
       -1   -1    0    0    0  501  0.00000000000E+00  0.00000000000E+00 -0.10725658664E+04  0.10725658664E+04  0.50400001928E-02 0.  1.
    10030    2    1    2    0    0  0.00000000000E+00  0.00000000000E+00  0.20441110461E+04  0.41892427789E+04  0.36566877214E+04 0.  0.
        5    1    3    3  502    0 -0.16006399487E+04  0.55125855604E+03  0.23091348643E+03  0.17085892921E+04  0.46999998093E+01 0.  1.
       -5    1    3    3    0  502  0.16006399487E+04 -0.55125855604E+03  0.18131975597E+04  0.24806534868E+04  0.46999998093E+01 0. -1.
</event>
<event>
 5   0  0.9268670E-07  0.3275854E+04  0.7818609E-02  0.8169067E-01
       -1   -1    0    0    0  501  0.00000000000E+00  0.00000000000E+00  0.10876854230E+04  0.10876854230E+04  0.50400001928E-02 0.  1.
        1   -1    0    0  501    0  0.00000000000E+00  0.00000000000E+00 -0.24665260827E+04  0.24665260827E+04  0.50400001928E-02 0. -1.
    10030    2    1    2    0    0  0.00000000000E+00  0.00000000000E+00 -0.13788406597E+04  0.35542115057E+04  0.32758537608E+04 0.  0.
        3    1    3    3  502    0 -0.12388858817E+04 -0.91950889068E+03 -0.12861252902E+04  0.20085948074E+04  0.10100000352E+00 0. -1.
       -3    1    3    3    0  502  0.12388858817E+04  0.91950889068E+03 -0.92715369512E+02  0.15456166983E+04  0.10100000352E+00 0.  1.
</event>
<event>
 5   0  0.8705956E-07  0.3307813E+04  0.7818609E-02  0.8160910E-01
        1   -1    0    0  501    0  0.00000000000E+00  0.00000000000E+00  0.20331746252E+04  0.20331746252E+04  0.50400001928E-02 0.  1.
       -1   -1    0    0    0  501  0.00000000000E+00  0.00000000000E+00 -0.13453866999E+04  0.13453866999E+04  0.50400001928E-02 0. -1.
    10030    2    1    2    0    0  0.00000000000E+00  0.00000000000E+00  0.68778792526E+03  0.33785613251E+04  0.33078126303E+04 0.  0.
        2    1    3    3  502    0  0.12317070427E+04  0.94205436867E+03  0.93138091028E+03  0.18088778490E+04  0.25500000920E-02 0.  1.
       -2    1    3    3    0  502 -0.12317070427E+04 -0.94205436867E+03 -0.24359298503E+03  0.15696834760E+04  0.25500000920E-02 0. -1.
</event>
<event>
 5   0  0.2574803E-06  0.2700459E+04  0.7818609E-02  0.8334856E-01
        2   -1    0    0  501    0  0.00000000000E+00  0.00000000000E+00  0.25030873133E+04  0.25030873133E+04  0.25500000920E-02 0. -1.
       -2   -1    0    0    0  501  0.00000000000E+00  0.00000000000E+00 -0.72834836428E+03  0.72834836428E+03  0.25500000920E-02 0.  1.
    10030    2    1    2    0    0  0.00000000000E+00  0.00000000000E+00  0.17747389490E+04  0.32314356775E+04  0.27004588871E+04 0.  0.
        4    1    3    3  502    0 -0.11381341756E+03  0.12111160425E+04  0.15885571886E+04  0.20008176121E+04  0.12699999809E+01 0. -1.
       -4    1    3    3    0  502  0.11381341756E+03 -0.12111160425E+04  0.18618176036E+03  0.12306180655E+04  0.12699999809E+01 0.  1.
</event>
<event>
 5   0  0.9268670E-07  0.3287829E+04  0.7818609E-02  0.8165999E-01
       -1   -1    0    0    0  501  0.00000000000E+00  0.00000000000E+00  0.10194675437E+04  0.10194675437E+04  0.50400001928E-02 0. -1.
        1   -1    0    0  501    0  0.00000000000E+00  0.00000000000E+00 -0.26508485892E+04  0.26508485892E+04  0.50400001928E-02 0.  1.
    10030    2    1    2    0    0  0.00000000000E+00  0.00000000000E+00 -0.16313810455E+04  0.36703161329E+04  0.32878285234E+04 0.  0.
        3    1    3    3  502    0 -0.10361021985E+04  0.12287437342E+04 -0.43037696600E+03  0.16638940090E+04  0.10100000352E+00 0. -1.
       -3    1    3    3    0  502  0.10361021985E+04 -0.12287437342E+04 -0.12010040795E+04  0.20064221239E+04  0.10100000352E+00 0.  1.
</event>
<event>
 5   0  0.2614212E-06  0.3274026E+04  0.7818609E-02  0.8169536E-01
       -2   -1    0    0    0  501  0.00000000000E+00  0.00000000000E+00  0.93624286607E+03  0.93624286607E+03  0.25500000920E-02 0.  1.
        2   -1    0    0  501    0  0.00000000000E+00  0.00000000000E+00 -0.28623032288E+04  0.28623032288E+04  0.25500000920E-02 0. -1.
    10030    2    1    2    0    0  0.00000000000E+00  0.00000000000E+00 -0.19260603627E+04  0.37985460948E+04  0.32740256434E+04 0.  0.
        2    1    3    3  502    0  0.35010204876E+03  0.88991227951E+03 -0.25045320376E+04  0.26808946338E+04  0.25500000920E-02 0. -1.
       -2    1    3    3    0  502 -0.35010204876E+03 -0.88991227951E+03  0.57847167493E+03  0.11176514611E+04  0.25500000920E-02 0.  1.
</event>
<event>
 5   0  0.2574803E-06  0.3305990E+04  0.7818609E-02  0.8161373E-01
       -2   -1    0    0    0  501  0.00000000000E+00  0.00000000000E+00  0.11796148069E+04  0.11796148069E+04  0.25500000920E-02 0. -1.
        2   -1    0    0  501    0  0.00000000000E+00  0.00000000000E+00 -0.23163423178E+04  0.23163423178E+04  0.25500000920E-02 0.  1.
    10030    2    1    2    0    0  0.00000000000E+00  0.00000000000E+00 -0.11367275109E+04  0.34959571247E+04  0.33059895317E+04 0.  0.
        4    1    3    3  502    0  0.93297037836E+03 -0.20081264671E+03 -0.19955964459E+04  0.22120502331E+04  0.12699999809E+01 0.  1.
       -4    1    3    3    0  502 -0.93297037836E+03  0.20081264671E+03  0.85886893500E+03  0.12839068916E+04  0.12699999809E+01 0. -1.
</event>
<event>
 5   0  0.9530268E-07  0.3217888E+04  0.7818609E-02  0.8184109E-01
        1   -1    0    0  501    0  0.00000000000E+00  0.00000000000E+00  0.16743369547E+04  0.16743369547E+04  0.50400001928E-02 0. -1.
       -1   -1    0    0    0  501  0.00000000000E+00  0.00000000000E+00 -0.15461052527E+04  0.15461052527E+04  0.50400001928E-02 0.  1.
    10030    2    1    2    0    0  0.00000000000E+00  0.00000000000E+00  0.12823170195E+03  0.32204422074E+04  0.32178882271E+04 0.  0.
        5    1    3    3  502    0  0.50078027964E+03  0.10251818688E+03  0.15909046649E+04  0.16710148443E+04  0.46999998093E+01 0. -1.
       -5    1    3    3    0  502 -0.50078027964E+03 -0.10251818688E+03 -0.14626729629E+04  0.15494273631E+04  0.46999998093E+01 0.  1.
</event>
<event>
 5   0  0.8705956E-07  0.3342617E+04  0.7818609E-02  0.8152135E-01
        1   -1    0    0  501    0  0.00000000000E+00  0.00000000000E+00  0.95252364821E+03  0.95252364822E+03  0.50400001928E-02 0.  1.
       -1   -1    0    0    0  501  0.00000000000E+00  0.00000000000E+00 -0.29324966692E+04  0.29324966692E+04  0.50400001928E-02 0. -1.
    10030    2    1    2    0    0  0.00000000000E+00  0.00000000000E+00 -0.19799730210E+04  0.38850203174E+04  0.33426171936E+04 0.  0.
        2    1    3    3  502    0  0.15454155983E+04 -0.20972749503E+03 -0.16882939634E+04  0.22983975941E+04  0.25500000920E-02 0. -1.
       -2    1    3    3    0  502 -0.15454155983E+04  0.20972749503E+03 -0.29167905762E+03  0.15866227234E+04  0.25500000920E-02 0.  1.
</event>
<event>
 5   0  0.2614212E-06  0.3176927E+04  0.7818609E-02  0.8194937E-01
       -2   -1    0    0    0  501  0.00000000000E+00  0.00000000000E+00  0.12181947668E+04  0.12181947668E+04  0.25500000920E-02 0. -1.
        2   -1    0    0  501    0  0.00000000000E+00  0.00000000000E+00 -0.20712750180E+04  0.20712750180E+04  0.25500000920E-02 0.  1.
    10030    2    1    2    0    0  0.00000000000E+00  0.00000000000E+00 -0.85308025121E+03  0.32894697847E+04  0.31769270608E+04 0.  0.
        2    1    3    3  502    0  0.92752685904E+03  0.54182110725E+03 -0.16381821746E+04  0.19589581475E+04  0.25500000920E-02 0.  1.
       -2    1    3    3    0  502 -0.92752685904E+03 -0.54182110725E+03  0.78510192343E+03  0.13305116372E+04  0.25500000920E-02 0. -1.
</event>
<event>
 5   0  0.2674551E-06  0.3203208E+04  0.7818609E-02  0.8187970E-01
        2   -1    0    0  501    0  0.00000000000E+00  0.00000000000E+00  0.15633568726E+04  0.15633568726E+04  0.25500000920E-02 0.  1.
       -2   -1    0    0    0  501  0.00000000000E+00  0.00000000000E+00 -0.16407873257E+04  0.16407873257E+04  0.25500000920E-02 0. -1.
    10030    2    1    2    0    0  0.00000000000E+00  0.00000000000E+00 -0.77430453136E+02  0.32041441983E+04  0.32032084803E+04 0.  0.
        3    1    3    3  502    0  0.83539347949E+03 -0.12381946917E+04 -0.61692194597E+03  0.16160448811E+04  0.10100000352E+00 0. -1.
       -3    1    3    3    0  502 -0.83539347949E+03  0.12381946917E+04  0.53949149283E+03  0.15880993172E+04  0.10100000352E+00 0.  1.
</event>
<event>
 5   0  0.2658600E-06  0.3313084E+04  0.7818609E-02  0.8159574E-01
       -2   -1    0    0    0  501  0.00000000000E+00  0.00000000000E+00  0.12507789841E+04  0.12507789841E+04  0.25500000920E-02 0.  1.
        2   -1    0    0  501    0  0.00000000000E+00  0.00000000000E+00 -0.21939377870E+04  0.21939377870E+04  0.25500000920E-02 0. -1.
    10030    2    1    2    0    0  0.00000000000E+00  0.00000000000E+00 -0.94315880288E+03  0.34447167711E+04  0.33130839267E+04 0.  0.
        5    1    3    3  502    0  0.46845423126E+03  0.31677635455E+03 -0.20904621228E+04  0.21656062898E+04  0.46999998093E+01 0. -1.
       -5    1    3    3    0  502 -0.46845423126E+03 -0.31677635455E+03  0.11473033199E+04  0.12791104813E+04  0.46999998093E+01 0.  1.
</event>
<event>
 5   0  0.8705956E-07  0.3287163E+04  0.7818609E-02  0.8166169E-01
       -1   -1    0    0    0  501  0.00000000000E+00  0.00000000000E+00  0.14564306512E+04  0.14564306512E+04  0.50400001928E-02 0. -1.
        1   -1    0    0  501    0  0.00000000000E+00  0.00000000000E+00 -0.18547810632E+04  0.18547810632E+04  0.50400001928E-02 0.  1.
    10030    2    1    2    0    0  0.00000000000E+00  0.00000000000E+00 -0.39835041201E+03  0.33112117144E+04  0.32871629055E+04 0.  0.
        2    1    3    3  502    0  0.14612474097E+04 -0.64667471059E+03 -0.58660288787E+03  0.17022147696E+04  0.25500000920E-02 0.  1.
       -2    1    3    3    0  502 -0.14612474097E+04  0.64667471059E+03  0.18825247587E+03  0.16089969448E+04  0.25500000920E-02 0. -1.
</event>
<event>
 5   0  0.2614212E-06  0.3309350E+04  0.7818609E-02  0.8160520E-01
        2   -1    0    0  501    0  0.00000000000E+00  0.00000000000E+00  0.18518028151E+04  0.18518028151E+04  0.25500000920E-02 0. -1.
       -2   -1    0    0    0  501  0.00000000000E+00  0.00000000000E+00 -0.14785318731E+04  0.14785318731E+04  0.25500000920E-02 0.  1.
    10030    2    1    2    0    0  0.00000000000E+00  0.00000000000E+00  0.37327094206E+03  0.33303346882E+04  0.33093500781E+04 0.  0.
        2    1    3    3  502    0  0.73428020478E+03  0.13554691033E+03  0.16726195718E+04  0.18317195790E+04  0.25500000920E-02 0. -1.
       -2    1    3    3    0  502 -0.73428020478E+03 -0.13554691033E+03 -0.12993486297E+04  0.14986151092E+04  0.25500000920E-02 0.  1.
</event>
<event>
 5   0  0.8705956E-07  0.3307365E+04  0.7818609E-02  0.8161024E-01
        1   -1    0    0  501    0  0.00000000000E+00  0.00000000000E+00  0.27613135975E+04  0.27613135975E+04  0.50400001928E-02 0.  1.
       -1   -1    0    0    0  501  0.00000000000E+00  0.00000000000E+00 -0.99034960541E+03  0.99034960542E+03  0.50400001928E-02 0. -1.
    10030    2    1    2    0    0  0.00000000000E+00  0.00000000000E+00  0.17709639921E+04  0.37516632029E+04  0.33073650126E+04 0.  0.
        2    1    3    3  502    0  0.46501576821E+03 -0.15566061664E+04  0.12358493749E+04  0.20412217174E+04  0.25500000920E-02 0. -1.
       -2    1    3    3    0  502 -0.46501576821E+03  0.15566061664E+04  0.53511461720E+03  0.17104414856E+04  0.25500000920E-02 0.  1.
</event>
<event>
 5   0  0.2658600E-06  0.3481862E+04  0.7818609E-02  0.8118102E-01
       -2   -1    0    0    0  501  0.00000000000E+00  0.00000000000E+00  0.18225972697E+04  0.18225972697E+04  0.25500000920E-02 0.  1.
        2   -1    0    0  501    0  0.00000000000E+00  0.00000000000E+00 -0.16629238201E+04  0.16629238201E+04  0.25500000920E-02 0. -1.
    10030    2    1    2    0    0  0.00000000000E+00  0.00000000000E+00  0.15967344963E+03  0.34855210898E+04  0.34818618090E+04 0.  0.
        5    1    3    3  502    0 -0.22807709932E+03  0.27124143614E+03  0.17861007667E+04  0.18209253468E+04  0.46999998093E+01 0.  1.
       -5    1    3    3    0  502  0.22807709932E+03 -0.27124143614E+03 -0.16264273171E+04  0.16645957430E+04  0.46999998093E+01 0. -1.
</event>
<event>
 5   0  0.8845526E-07  0.3319581E+04  0.7818609E-02  0.8157931E-01
       -1   -1    0    0    0  501  0.00000000000E+00  0.00000000000E+00  0.13681380535E+04  0.13681380535E+04  0.50400001928E-02 0.  1.
        1   -1    0    0  501    0  0.00000000000E+00  0.00000000000E+00 -0.20136152895E+04  0.20136152895E+04  0.50400001928E-02 0. -1.
    10030    2    1    2    0    0  0.00000000000E+00  0.00000000000E+00 -0.64547723603E+03  0.33817533430E+04  0.33195805173E+04 0.  0.
        1    1    3    3  502    0  0.67052464233E+03 -0.82500107462E+03  0.97576088344E+03  0.14430313132E+04  0.50400001928E-02 0.  1.
       -1    1    3    3    0  502 -0.67052464233E+03  0.82500107462E+03 -0.16212381195E+04  0.19387220299E+04  0.50400001928E-02 0. -1.
</event>
<event>
 5   0  0.8705956E-07  0.3230513E+04  0.7818609E-02  0.8180805E-01
       -1   -1    0    0    0  501  0.00000000000E+00  0.00000000000E+00  0.12400043580E+04  0.12400043581E+04  0.50400001928E-02 0. -1.
        1   -1    0    0  501    0  0.00000000000E+00  0.00000000000E+00 -0.21040682331E+04  0.21040682331E+04  0.50400001928E-02 0.  1.
    10030    2    1    2    0    0  0.00000000000E+00  0.00000000000E+00 -0.86406387509E+03  0.33440725912E+04  0.32305131349E+04 0.  0.
        2    1    3    3  502    0 -0.14943706340E+04  0.60510355231E+03 -0.32976708956E+03  0.16456124192E+04  0.25500000920E-02 0. -1.
       -2    1    3    3    0  502  0.14943706340E+04 -0.60510355231E+03 -0.53429678553E+03  0.16984601720E+04  0.25500000920E-02 0.  1.
</event>
<event>
 5   0  0.8845526E-07  0.3310630E+04  0.7818609E-02  0.8160196E-01
        1   -1    0    0  501    0  0.00000000000E+00  0.00000000000E+00  0.22537369902E+04  0.22537369902E+04  0.50400001928E-02 0. -1.
       -1   -1    0    0    0  501  0.00000000000E+00  0.00000000000E+00 -0.12157887577E+04  0.12157887577E+04  0.50400001928E-02 0.  1.
    10030    2    1    2    0    0  0.00000000000E+00  0.00000000000E+00  0.10379482325E+04  0.34695257480E+04  0.33106302093E+04 0.  0.
        1    1    3    3  502    0  0.10371902690E+04 -0.81404830311E+03 -0.52987510488E+03  0.14209876568E+04  0.50400001928E-02 0.  1.
       -1    1    3    3    0  502 -0.10371902690E+04  0.81404830311E+03  0.15678233374E+04  0.20485380912E+04  0.50400001928E-02 0. -1.
</event>
<event>
 5   0  0.2658600E-06  0.3186146E+04  0.7818609E-02  0.8192486E-01
        2   -1    0    0  501    0  0.00000000000E+00  0.00000000000E+00  0.24062180344E+04  0.24062180344E+04  0.25500000920E-02 0. -1.
       -2   -1    0    0    0  501  0.00000000000E+00  0.00000000000E+00 -0.10547181629E+04  0.10547181629E+04  0.25500000920E-02 0.  1.
    10030    2    1    2    0    0  0.00000000000E+00  0.00000000000E+00  0.13514998715E+04  0.34609361973E+04  0.31861461767E+04 0.  0.
        5    1    3    3  502    0  0.20899559263E+03 -0.12927694799E+04 -0.30964138751E+03  0.13456715665E+04  0.46999998093E+01 0.  1.
       -5    1    3    3    0  502 -0.20899559263E+03  0.12927694799E+04  0.16611412590E+04  0.21152646308E+04  0.46999998093E+01 0. -1.
</event>
<event>
 5   0  0.9530268E-07  0.3141582E+04  0.7818609E-02  0.8204418E-01
        1   -1    0    0  501    0  0.00000000000E+00  0.00000000000E+00  0.17871412370E+04  0.17871412370E+04  0.50400001928E-02 0. -1.
       -1   -1    0    0    0  501  0.00000000000E+00  0.00000000000E+00 -0.13806317634E+04  0.13806317634E+04  0.50400001928E-02 0.  1.
    10030    2    1    2    0    0  0.00000000000E+00  0.00000000000E+00  0.40650947361E+03  0.31677730004E+04  0.31415817402E+04 0.  0.
        5    1    3    3  502    0  0.49098060804E+03 -0.56279793290E+03  0.15966430415E+04  0.17626952552E+04  0.46999998093E+01 0. -1.
       -5    1    3    3    0  502 -0.49098060804E+03  0.56279793290E+03 -0.11901335679E+04  0.14050777452E+04  0.46999998093E+01 0.  1.
</event>
<event>
 5   0  0.9268670E-07  0.3123571E+04  0.7818609E-02  0.8209299E-01
        1   -1    0    0  501    0  0.00000000000E+00  0.00000000000E+00  0.27218412811E+04  0.27218412811E+04  0.50400001928E-02 0.  1.
       -1   -1    0    0    0  501  0.00000000000E+00  0.00000000000E+00 -0.89614868909E+03  0.89614868911E+03  0.50400001928E-02 0. -1.
    10030    2    1    2    0    0  0.00000000000E+00  0.00000000000E+00  0.18256925920E+04  0.36179899702E+04  0.31235713509E+04 0.  0.
        3    1    3    3  502    0  0.69558211892E+03  0.13957672782E+04  0.81474206484E+03  0.17594901027E+04  0.10100000352E+00 0.  1.
       -3    1    3    3    0  502 -0.69558211892E+03 -0.13957672782E+04  0.10109505272E+04  0.18584998675E+04  0.10100000352E+00 0. -1.
</event>
<event>
 5   0  0.2705859E-06  0.3304283E+04  0.7818609E-02  0.8161806E-01
        2   -1    0    0  501    0  0.00000000000E+00  0.00000000000E+00  0.14925026263E+04  0.14925026263E+04  0.25500000920E-02 0.  1.
       -2   -1    0    0    0  501  0.00000000000E+00  0.00000000000E+00 -0.18288552596E+04  0.18288552596E+04  0.25500000920E-02 0. -1.
    10030    2    1    2    0    0  0.00000000000E+00  0.00000000000E+00 -0.33635263331E+03  0.33213578859E+04  0.33042828438E+04 0.  0.
        1    1    3    3  502    0  0.37135265065E+02 -0.21940427906E+03  0.14773704611E+04  0.14940350548E+04  0.50400001928E-02 0.  1.
       -1    1    3    3    0  502 -0.37135265065E+02  0.21940427906E+03 -0.18137230944E+04  0.18273228311E+04  0.50400001928E-02 0. -1.
</event>
<event>
 5   0  0.9268670E-07  0.3473748E+04  0.7818609E-02  0.8120040E-01
        1   -1    0    0  501    0  0.00000000000E+00  0.00000000000E+00  0.21883722462E+04  0.21883722462E+04  0.50400001928E-02 0. -1.
       -1   -1    0    0    0  501  0.00000000000E+00  0.00000000000E+00 -0.13785274970E+04  0.13785274970E+04  0.50400001928E-02 0.  1.
    10030    2    1    2    0    0  0.00000000000E+00  0.00000000000E+00  0.80984474921E+03  0.35668997433E+04  0.34737480134E+04 0.  0.
        3    1    3    3  502    0 -0.87076427227E+03 -0.10805628408E+04 -0.66753994690E+03  0.15399532661E+04  0.10100000352E+00 0.  1.
       -3    1    3    3    0  502  0.87076427227E+03  0.10805628408E+04  0.14773846961E+04  0.20269464772E+04  0.10100000352E+00 0. -1.
</event>
<event>
 5   0  0.2674551E-06  0.3271484E+04  0.7818609E-02  0.8170190E-01
       -2   -1    0    0    0  501  0.00000000000E+00  0.00000000000E+00  0.23784216564E+04  0.23784216564E+04  0.25500000920E-02 0.  1.
        2   -1    0    0  501    0  0.00000000000E+00  0.00000000000E+00 -0.11249692550E+04  0.11249692550E+04  0.25500000920E-02 0. -1.
    10030    2    1    2    0    0  0.00000000000E+00  0.00000000000E+00  0.12534524013E+04  0.35033909114E+04  0.32714836016E+04 0.  0.
        3    1    3    3  502    0  0.80430172785E+03 -0.69768604897E+03 -0.70306606950E+03  0.12759188848E+04  0.10100000352E+00 0. -1.
       -3    1    3    3    0  502 -0.80430172785E+03  0.69768604897E+03  0.19565184708E+04  0.22274720266E+04  0.10100000352E+00 0.  1.
</event>
<event>
 5   0  0.8845526E-07  0.3296448E+04  0.7818609E-02  0.8163800E-01
       -1   -1    0    0    0  501  0.00000000000E+00  0.00000000000E+00  0.13632834312E+04  0.13632834312E+04  0.50400001928E-02 0. -1.
        1   -1    0    0  501    0  0.00000000000E+00  0.00000000000E+00 -0.19927202860E+04  0.19927202860E+04  0.50400001928E-02 0.  1.
    10030    2    1    2    0    0  0.00000000000E+00  0.00000000000E+00 -0.62943685486E+03  0.33560037172E+04  0.32964481181E+04 0.  0.
        1    1    3    3  502    0 -0.15572051379E+04  0.52774876354E+03 -0.19759230995E+03  0.16560342146E+04  0.50400001928E-02 0.  1.
       -1    1    3    3    0  502  0.15572051379E+04 -0.52774876354E+03 -0.43184454491E+03  0.16999695026E+04  0.50400001928E-02 0. -1.
</event>
<event>
 5   0  0.8845526E-07  0.3316166E+04  0.7818609E-02  0.8158794E-01
       -1   -1    0    0    0  501  0.00000000000E+00  0.00000000000E+00  0.11569537317E+04  0.11569537317E+04  0.50400001928E-02 0.  1.
        1   -1    0    0  501    0  0.00000000000E+00  0.00000000000E+00 -0.23762745214E+04  0.23762745214E+04  0.50400001928E-02 0. -1.
    10030    2    1    2    0    0  0.00000000000E+00  0.00000000000E+00 -0.12193207897E+04  0.35332282531E+04  0.33161662655E+04 0.  0.
        1    1    3    3  502    0  0.28111179193E+03  0.15024926401E+04  0.74833078847E+02  0.15303947082E+04  0.50400001928E-02 0.  1.
       -1    1    3    3    0  502 -0.28111179193E+03 -0.15024926401E+04 -0.12941538685E+04  0.20028335449E+04  0.50400001928E-02 0. -1.
</event>
<event>
 5   0  0.2705859E-06  0.2465876E+04  0.7818609E-02  0.8415244E-01
        2   -1    0    0  501    0  0.00000000000E+00  0.00000000000E+00  0.24905838449E+04  0.24905838449E+04  0.25500000920E-02 0.  1.
       -2   -1    0    0    0  501  0.00000000000E+00  0.00000000000E+00 -0.61035355365E+03  0.61035355366E+03  0.25500000920E-02 0. -1.
    10030    2    1    2    0    0  0.00000000000E+00  0.00000000000E+00  0.18802302912E+04  0.31009373985E+04  0.24658764773E+04 0.  0.
        1    1    3    3  502    0 -0.58342215919E+03  0.66559471416E+03 -0.13927512643E+03  0.89598844871E+03  0.50400001928E-02 0. -1.
       -1    1    3    3    0  502  0.58342215919E+03 -0.66559471416E+03  0.20195054176E+04  0.22049489498E+04  0.50400001928E-02 0.  1.
</event>
<event>
 5   0  0.9268670E-07  0.3342388E+04  0.7818609E-02  0.8152193E-01
        1   -1    0    0  501    0  0.00000000000E+00  0.00000000000E+00  0.21363579317E+04  0.21363579318E+04  0.50400001928E-02 0.  1.
       -1   -1    0    0    0  501  0.00000000000E+00  0.00000000000E+00 -0.13073133776E+04  0.13073133776E+04  0.50400001928E-02 0. -1.
    10030    2    1    2    0    0  0.00000000000E+00  0.00000000000E+00  0.82904455411E+03  0.34436713094E+04  0.33423879509E+04 0.  0.
        3    1    3    3  502    0  0.15954162643E+04  0.29092331522E+03  0.83036125345E+03  0.18219465561E+04  0.10100000352E+00 0.  1.
       -3    1    3    3    0  502 -0.15954162643E+04 -0.29092331522E+03 -0.13166993415E+01  0.16217247533E+04  0.10100000352E+00 0. -1.
</event>
<event>
 5   0  0.8845526E-07  0.3439332E+04  0.7818609E-02  0.8128320E-01
       -1   -1    0    0    0  501  0.00000000000E+00  0.00000000000E+00  0.12594905199E+04  0.12594905199E+04  0.50400001928E-02 0. -1.
        1   -1    0    0  501    0  0.00000000000E+00  0.00000000000E+00 -0.23479743810E+04  0.23479743810E+04  0.50400001928E-02 0.  1.
    10030    2    1    2    0    0  0.00000000000E+00  0.00000000000E+00 -0.10884838611E+04  0.36074649009E+04  0.34393321874E+04 0.  0.
        1    1    3    3  502    0  0.13838348870E+04 -0.51290364615E+03  0.38162279346E+03  0.15243703950E+04  0.50400001928E-02 0. -1.
       -1    1    3    3    0  502 -0.13838348870E+04  0.51290364615E+03 -0.14701066546E+04  0.20830945059E+04  0.50400001928E-02 0.  1.
</event>
<event>
 5   0  0.2674551E-06  0.3779235E+04  0.7818609E-02  0.8050626E-01
       -2   -1    0    0    0  501  0.00000000000E+00  0.00000000000E+00  0.18076224474E+04  0.18076224474E+04  0.25500000920E-02 0.  1.
        2   -1    0    0  501    0  0.00000000000E+00  0.00000000000E+00 -0.19753322774E+04  0.19753322774E+04  0.25500000920E-02 0. -1.
    10030    2    1    2    0    0  0.00000000000E+00  0.00000000000E+00 -0.16770983000E+03  0.37829547248E+04  0.37792353542E+04 0.  0.
        3    1    3    3  502    0  0.66920799049E+03  0.16791796640E+04 -0.63500671660E+03  0.19159115895E+04  0.10100000352E+00 0.  1.
       -3    1    3    3    0  502 -0.66920799049E+03 -0.16791796640E+04  0.46729688660E+03  0.18670431353E+04  0.10100000352E+00 0. -1.
</event>
<event>
 5   0  0.2658600E-06  0.3331926E+04  0.7818609E-02  0.8154819E-01
       -2   -1    0    0    0  501  0.00000000000E+00  0.00000000000E+00  0.15187337924E+04  0.15187337924E+04  0.25500000920E-02 0.  1.
        2   -1    0    0  501    0  0.00000000000E+00  0.00000000000E+00 -0.18274648722E+04  0.18274648722E+04  0.25500000920E-02 0. -1.
    10030    2    1    2    0    0  0.00000000000E+00  0.00000000000E+00 -0.30873107982E+03  0.33461986646E+04  0.33319259631E+04 0.  0.
        5    1    3    3  502    0  0.12553607482E+03 -0.20839982467E+03  0.15007903814E+04  0.15203893094E+04  0.46999998093E+01 0.  1.
       -5    1    3    3    0  502 -0.12553607482E+03  0.20839982467E+03 -0.18095214613E+04  0.18258093553E+04  0.46999998093E+01 0. -1.
</event>
<event>
 5   0  0.2614212E-06  0.3197241E+04  0.7818609E-02  0.8189546E-01
       -2   -1    0    0    0  501  0.00000000000E+00  0.00000000000E+00  0.13795286858E+04  0.13795286858E+04  0.25500000920E-02 0. -1.
        2   -1    0    0  501    0  0.00000000000E+00  0.00000000000E+00 -0.18525075811E+04  0.18525075811E+04  0.25500000920E-02 0.  1.
    10030    2    1    2    0    0  0.00000000000E+00  0.00000000000E+00 -0.47297889530E+03  0.32320362669E+04  0.31972409035E+04 0.  0.
        2    1    3    3  502    0 -0.64193960955E+03  0.93545749376E+03  0.90200897590E+03  0.14494093202E+04  0.25500000920E-02 0. -1.
       -2    1    3    3    0  502  0.64193960955E+03 -0.93545749376E+03 -0.13749878712E+04  0.17826269466E+04  0.25500000920E-02 0.  1.
</event>
<event>
 5   0  0.2614212E-06  0.3265467E+04  0.7818609E-02  0.8171738E-01
       -2   -1    0    0    0  501  0.00000000000E+00  0.00000000000E+00  0.12778943728E+04  0.12778943728E+04  0.25500000920E-02 0.  1.
        2   -1    0    0  501    0  0.00000000000E+00  0.00000000000E+00 -0.20861031561E+04  0.20861031561E+04  0.25500000920E-02 0. -1.
    10030    2    1    2    0    0  0.00000000000E+00  0.00000000000E+00 -0.80820878326E+03  0.33639975288E+04  0.32654674913E+04 0.  0.
        2    1    3    3  502    0 -0.84527709768E+03 -0.11287041699E+04 -0.12519520710E+04  0.18856962807E+04  0.25500000920E-02 0.  1.
       -2    1    3    3    0  502  0.84527709768E+03  0.11287041699E+04  0.44374328772E+03  0.14783012482E+04  0.25500000920E-02 0. -1.
</event>
<event>
 5   0  0.2674551E-06  0.3280809E+04  0.7818609E-02  0.8167796E-01
        2   -1    0    0  501    0  0.00000000000E+00  0.00000000000E+00  0.16870267053E+04  0.16870267053E+04  0.25500000920E-02 0.  1.
       -2   -1    0    0    0  501  0.00000000000E+00  0.00000000000E+00 -0.15950706200E+04  0.15950706200E+04  0.25500000920E-02 0. -1.
    10030    2    1    2    0    0  0.00000000000E+00  0.00000000000E+00  0.91956085357E+02  0.32820973253E+04  0.32808088837E+04 0.  0.
        3    1    3    3  502    0  0.38951758041E+03 -0.14486071874E+04 -0.61816519278E+03  0.16224410450E+04  0.10100000352E+00 0. -1.
       -3    1    3    3    0  502 -0.38951758041E+03  0.14486071874E+04  0.71012127814E+03  0.16596562803E+04  0.10100000352E+00 0.  1.
</event>
<event>
 5   0  0.8705956E-07  0.3308312E+04  0.7818609E-02  0.8160783E-01
       -1   -1    0    0    0  501  0.00000000000E+00  0.00000000000E+00  0.16708695625E+04  0.16708695625E+04  0.50400001928E-02 0.  1.
        1   -1    0    0  501    0  0.00000000000E+00  0.00000000000E+00 -0.16376100860E+04  0.16376100860E+04  0.50400001928E-02 0. -1.
    10030    2    1    2    0    0  0.00000000000E+00  0.00000000000E+00  0.33259476474E+02  0.33084796485E+04  0.33083124689E+04 0.  0.
        2    1    3    3  502    0 -0.22825383230E+03  0.56036163724E+03 -0.15229700208E+04  0.16387625394E+04  0.25500000920E-02 0. -1.
       -2    1    3    3    0  502  0.22825383230E+03 -0.56036163724E+03  0.15562294972E+04  0.16697171091E+04  0.25500000920E-02 0.  1.
</event>
<event>
 5   0  0.2705859E-06  0.3311454E+04  0.7818609E-02  0.8159987E-01
       -2   -1    0    0    0  501  0.00000000000E+00  0.00000000000E+00  0.16979430424E+04  0.16979430424E+04  0.25500000920E-02 0. -1.
        2   -1    0    0  501    0  0.00000000000E+00  0.00000000000E+00 -0.16145602051E+04  0.16145602051E+04  0.25500000920E-02 0.  1.
    10030    2    1    2    0    0  0.00000000000E+00  0.00000000000E+00  0.83382837269E+02  0.33125032475E+04  0.33114536185E+04 0.  0.
        1    1    3    3  502    0  0.11467448882E+04 -0.56293660980E+03 -0.10119751671E+04  0.16297285677E+04  0.50400001928E-02 0.  1.
       -1    1    3    3    0  502 -0.11467448882E+04  0.56293660980E+03  0.10953580044E+04  0.16827746799E+04  0.50400001928E-02 0. -1.
</event>
<event>
 5   0  0.9268670E-07  0.3328969E+04  0.7818609E-02  0.8155563E-01
       -1   -1    0    0    0  501  0.00000000000E+00  0.00000000000E+00  0.12127392844E+04  0.12127392844E+04  0.50400001928E-02 0. -1.
        1   -1    0    0  501    0  0.00000000000E+00  0.00000000000E+00 -0.22845042285E+04  0.22845042285E+04  0.50400001928E-02 0.  1.
    10030    2    1    2    0    0  0.00000000000E+00  0.00000000000E+00 -0.10717649441E+04  0.34972435129E+04  0.33289686230E+04 0.  0.
        3    1    3    3  502    0  0.13908177696E+04  0.27944242955E+03  0.37878643367E+03  0.14683124028E+04  0.10100000352E+00 0. -1.
       -3    1    3    3    0  502 -0.13908177696E+04 -0.27944242955E+03 -0.14505513778E+04  0.20289311101E+04  0.10100000352E+00 0.  1.
</event>
<event>
 5   0  0.9268670E-07  0.3278172E+04  0.7818609E-02  0.8168472E-01
       -1   -1    0    0    0  501  0.00000000000E+00  0.00000000000E+00  0.17008972037E+04  0.17008972037E+04  0.50400001928E-02 0.  1.
        1   -1    0    0  501    0  0.00000000000E+00  0.00000000000E+00 -0.15795206732E+04  0.15795206732E+04  0.50400001928E-02 0. -1.
    10030    2    1    2    0    0  0.00000000000E+00  0.00000000000E+00  0.12137653052E+03  0.32804178769E+04  0.32781716222E+04 0.  0.
        3    1    3    3  502    0 -0.31402034555E+03 -0.16087168081E+04  0.65563974143E+02  0.16403893413E+04  0.10100000352E+00 0. -1.
       -3    1    3    3    0  502  0.31402034555E+03  0.16087168081E+04  0.55812556377E+02  0.16400285356E+04  0.10100000352E+00 0.  1.
</event>
<event>
 5   0  0.9295663E-07  0.3304415E+04  0.7818609E-02  0.8161773E-01
        1   -1    0    0  501    0  0.00000000000E+00  0.00000000000E+00  0.18279227620E+04  0.18279227620E+04  0.50400001928E-02 0.  1.
       -1   -1    0    0    0  501  0.00000000000E+00  0.00000000000E+00 -0.14933836334E+04  0.14933836334E+04  0.50400001928E-02 0. -1.
    10030    2    1    2    0    0  0.00000000000E+00  0.00000000000E+00  0.33453912860E+03  0.33213063955E+04  0.33044151894E+04 0.  0.
        4    1    3    3  502    0 -0.17659449083E+03 -0.11842422161E+04  0.13115851973E+04  0.17759145766E+04  0.12699999809E+01 0.  1.
       -4    1    3    3    0  502  0.17659449083E+03  0.11842422161E+04 -0.97704606871E+03  0.15453918189E+04  0.12699999809E+01 0. -1.
</event>
<event>
 5   0  0.2574803E-06  0.4053416E+04  0.7818609E-02  0.7993857E-01
        2   -1    0    0  501    0  0.00000000000E+00  0.00000000000E+00  0.17476591587E+04  0.17476591587E+04  0.25500000920E-02 0. -1.
       -2   -1    0    0    0  501  0.00000000000E+00  0.00000000000E+00 -0.23503120483E+04  0.23503120483E+04  0.25500000920E-02 0.  1.
    10030    2    1    2    0    0  0.00000000000E+00  0.00000000000E+00 -0.60265288963E+03  0.40979712070E+04  0.40534155361E+04 0.  0.
        4    1    3    3  502    0 -0.14345896794E+04 -0.51103979578E+03 -0.16533119521E+04  0.22478103223E+04  0.12699999809E+01 0.  1.
       -4    1    3    3    0  502  0.14345896794E+04  0.51103979578E+03  0.10506590624E+04  0.18501608848E+04  0.12699999809E+01 0. -1.
</event>
<event>
 5   0  0.9268670E-07  0.3288404E+04  0.7818609E-02  0.8165852E-01
        1   -1    0    0  501    0  0.00000000000E+00  0.00000000000E+00  0.89060358267E+03  0.89060358268E+03  0.50400001928E-02 0. -1.
       -1   -1    0    0    0  501  0.00000000000E+00  0.00000000000E+00 -0.30354695067E+04  0.30354695067E+04  0.50400001928E-02 0.  1.
    10030    2    1    2    0    0  0.00000000000E+00  0.00000000000E+00 -0.21448659240E+04  0.39260730894E+04  0.32884038790E+04 0.  0.
        3    1    3    3  502    0  0.48017101230E+03 -0.64469522074E+03  0.63999336374E+03  0.10275152770E+04  0.10100000352E+00 0. -1.
       -3    1    3    3    0  502 -0.48017101230E+03  0.64469522074E+03 -0.27848592878E+04  0.28985578124E+04  0.10100000352E+00 0.  1.
</event>
<event>
 5   0  0.2658600E-06  0.3364869E+04  0.7818609E-02  0.8146583E-01
       -2   -1    0    0    0  501  0.00000000000E+00  0.00000000000E+00  0.21979047059E+04  0.21979047059E+04  0.25500000920E-02 0. -1.
        2   -1    0    0  501    0  0.00000000000E+00  0.00000000000E+00 -0.12878566331E+04  0.12878566331E+04  0.25500000920E-02 0.  1.
    10030    2    1    2    0    0  0.00000000000E+00  0.00000000000E+00  0.91004807283E+03  0.34857613390E+04  0.33648691829E+04 0.  0.
        5    1    3    3  502    0 -0.43513612350E+03  0.15200007591E+04  0.10508565992E+04  0.18984381569E+04  0.46999998093E+01 0. -1.
       -5    1    3    3    0  502  0.43513612350E+03 -0.15200007591E+04 -0.14080852632E+03  0.15873231821E+04  0.46999998093E+01 0.  1.
</event>
<event>
 5   0  0.9268670E-07  0.3307570E+04  0.7818609E-02  0.8160972E-01
       -1   -1    0    0    0  501  0.00000000000E+00  0.00000000000E+00  0.13692657724E+04  0.13692657724E+04  0.50400001928E-02 0. -1.
        1   -1    0    0  501    0  0.00000000000E+00  0.00000000000E+00 -0.19974245389E+04  0.19974245389E+04  0.50400001928E-02 0.  1.
    10030    2    1    2    0    0  0.00000000000E+00  0.00000000000E+00 -0.62815876648E+03  0.33666903113E+04  0.33075701378E+04 0.  0.
        3    1    3    3  502    0  0.20458716843E+03  0.22709948732E+03  0.13402636858E+04  0.13746769963E+04  0.10100000352E+00 0. -1.
       -3    1    3    3    0  502 -0.20458716843E+03 -0.22709948732E+03 -0.19684224522E+04  0.19920133150E+04  0.10100000352E+00 0.  1.
</event>
<event>
 5   0  0.2705859E-06  0.3614281E+04  0.7818609E-02  0.8087228E-01
        2   -1    0    0  501    0  0.00000000000E+00  0.00000000000E+00  0.23449641226E+04  0.23449641226E+04  0.25500000920E-02 0. -1.
       -2   -1    0    0    0  501  0.00000000000E+00  0.00000000000E+00 -0.13926680818E+04  0.13926680818E+04  0.25500000920E-02 0.  1.
    10030    2    1    2    0    0  0.00000000000E+00  0.00000000000E+00  0.95229604080E+03  0.37376322044E+04  0.36142809445E+04 0.  0.
        1    1    3    3  502    0 -0.11985346787E+04 -0.13030598163E+04  0.10141872669E+03  0.17733403562E+04  0.50400001928E-02 0.  1.
       -1    1    3    3    0  502  0.11985346787E+04  0.13030598163E+04  0.85087731411E+03  0.19642918481E+04  0.50400001928E-02 0. -1.
</event>
<event>
 5   0  0.9268670E-07  0.3434411E+04  0.7818609E-02  0.8129512E-01
       -1   -1    0    0    0  501  0.00000000000E+00  0.00000000000E+00  0.10574545977E+04  0.10574545977E+04  0.50400001928E-02 0.  1.
        1   -1    0    0  501    0  0.00000000000E+00  0.00000000000E+00 -0.27885781301E+04  0.27885781301E+04  0.50400001928E-02 0. -1.
    10030    2    1    2    0    0  0.00000000000E+00  0.00000000000E+00 -0.17311235324E+04  0.38460327278E+04  0.34344110207E+04 0.  0.
        3    1    3    3  502    0  0.80682526112E+03  0.89848811033E+03 -0.22327664095E+04  0.25384037771E+04  0.10100000352E+00 0. -1.
       -3    1    3    3    0  502 -0.80682526112E+03 -0.89848811033E+03  0.50164287704E+03  0.13076289507E+04  0.10100000352E+00 0.  1.
</event>
<event>
 5   0  0.2658600E-06  0.3317348E+04  0.7818609E-02  0.8158495E-01
        2   -1    0    0  501    0  0.00000000000E+00  0.00000000000E+00  0.80523631261E+03  0.80523631262E+03  0.25500000920E-02 0.  1.
       -2   -1    0    0    0  501  0.00000000000E+00  0.00000000000E+00 -0.34166358458E+04  0.34166358458E+04  0.25500000920E-02 0. -1.
    10030    2    1    2    0    0  0.00000000000E+00  0.00000000000E+00 -0.26113995332E+04  0.42218721584E+04  0.33173478865E+04 0.  0.
        5    1    3    3  502    0 -0.71474665090E+03  0.44086990702E+02  0.59835777498E+03  0.93319909698E+03  0.46999998093E+01 0.  1.
       -5    1    3    3    0  502  0.71474665090E+03 -0.44086990702E+02 -0.32097573082E+04  0.32886730615E+04  0.46999998093E+01 0. -1.
</event>
<event>
 5   0  0.2674551E-06  0.3176995E+04  0.7818609E-02  0.8194919E-01
        2   -1    0    0  501    0  0.00000000000E+00  0.00000000000E+00  0.13633650409E+04  0.13633650409E+04  0.25500000920E-02 0.  1.
       -2   -1    0    0    0  501  0.00000000000E+00  0.00000000000E+00 -0.18508056247E+04  0.18508056247E+04  0.25500000920E-02 0. -1.
    10030    2    1    2    0    0  0.00000000000E+00  0.00000000000E+00 -0.48744058380E+03  0.32141706656E+04  0.31769946089E+04 0.  0.
        3    1    3    3  502    0 -0.56200444860E+03  0.14490807319E+04  0.88203750725E+02  0.15567478536E+04  0.10100000352E+00 0.  1.
       -3    1    3    3    0  502  0.56200444860E+03 -0.14490807319E+04 -0.57564433452E+03  0.16574228120E+04  0.10100000352E+00 0. -1.
</event>
<event>
 5   0  0.2674551E-06  0.3315252E+04  0.7818609E-02  0.8159025E-01
       -2   -1    0    0    0  501  0.00000000000E+00  0.00000000000E+00  0.26078100153E+04  0.26078100153E+04  0.25500000920E-02 0.  1.
        2   -1    0    0  501    0  0.00000000000E+00  0.00000000000E+00 -0.10536521300E+04  0.10536521300E+04  0.25500000920E-02 0. -1.
    10030    2    1    2    0    0  0.00000000000E+00  0.00000000000E+00  0.15541578853E+04  0.36614621453E+04  0.33152523749E+04 0.  0.
        3    1    3    3  502    0 -0.30944494758E+03 -0.91947514166E+03 -0.70735544374E+03  0.12006425137E+04  0.10100000352E+00 0. -1.
       -3    1    3    3    0  502  0.30944494758E+03  0.91947514166E+03  0.22615133290E+04  0.24608196316E+04  0.10100000352E+00 0.  1.
</event>
<event>
 5   0  0.8845526E-07  0.3248852E+04  0.7818609E-02  0.8176033E-01
        1   -1    0    0  501    0  0.00000000000E+00  0.00000000000E+00  0.16359834062E+04  0.16359834062E+04  0.50400001928E-02 0. -1.
       -1   -1    0    0    0  501  0.00000000000E+00  0.00000000000E+00 -0.16129500857E+04  0.16129500857E+04  0.50400001928E-02 0.  1.
    10030    2    1    2    0    0  0.00000000000E+00  0.00000000000E+00  0.23033320553E+02  0.32489334919E+04  0.32488518435E+04 0.  0.
        1    1    3    3  502    0 -0.82975050611E+03  0.27719487120E+03  0.13802864882E+04  0.16341706424E+04  0.50400001928E-02 0. -1.
       -1    1    3    3    0  502  0.82975050611E+03 -0.27719487120E+03 -0.13572531676E+04  0.16147628495E+04  0.50400001928E-02 0.  1.
</event>
<event>
 5   0  0.9295663E-07  0.3343695E+04  0.7818609E-02  0.8151865E-01
       -1   -1    0    0    0  501  0.00000000000E+00  0.00000000000E+00  0.11535610960E+04  0.11535610960E+04  0.50400001928E-02 0. -1.
        1   -1    0    0  501    0  0.00000000000E+00  0.00000000000E+00 -0.24229967061E+04  0.24229967061E+04  0.50400001928E-02 0.  1.
    10030    2    1    2    0    0  0.00000000000E+00  0.00000000000E+00 -0.12694356101E+04  0.35765578021E+04  0.33436954024E+04 0.  0.
        4    1    3    3  502    0 -0.13373755911E+03 -0.14947805531E+04  0.15335411808E+03  0.15085667818E+04  0.12699999809E+01 0. -1.
       -4    1    3    3    0  502  0.13373755911E+03  0.14947805531E+04 -0.14227897281E+04  0.20679910203E+04  0.12699999809E+01 0.  1.
</event>
<event>
 5   0  0.8845526E-07  0.3374917E+04  0.7818609E-02  0.8144090E-01
        1   -1    0    0  501    0  0.00000000000E+00  0.00000000000E+00  0.17519927939E+04  0.17519927939E+04  0.50400001928E-02 0.  1.
       -1   -1    0    0    0  501  0.00000000000E+00  0.00000000000E+00 -0.16253016034E+04  0.16253016034E+04  0.50400001928E-02 0. -1.
    10030    2    1    2    0    0  0.00000000000E+00  0.00000000000E+00  0.12669119051E+03  0.33772943973E+04  0.33749173010E+04 0.  0.
        1    1    3    3  502    0  0.61117420678E+02  0.98781869034E+03 -0.13043634146E+04  0.16373408385E+04  0.50400001928E-02 0. -1.
       -1    1    3    3    0  502 -0.61117420678E+02 -0.98781869034E+03  0.14310546051E+04  0.17399535588E+04  0.50400001928E-02 0.  1.
</event>
<event>
 5   0  0.8520125E-07  0.3273658E+04  0.7818609E-02  0.8169631E-01
        3   -1    0    0  501    0  0.00000000000E+00  0.00000000000E+00  0.22448820205E+04  0.22448820228E+04  0.10100000352E+00 0. -1.
       -3   -1    0    0    0  501  0.00000000000E+00  0.00000000000E+00 -0.11934744271E+04  0.11934744314E+04  0.10100000352E+00 0.  1.
    10030    2    1    2    0    0  0.00000000000E+00  0.00000000000E+00  0.10514075934E+04  0.34383564541E+04  0.32736580729E+04 0.  0.
        5    1    3    3  502    0 -0.10888724949E+04  0.63412464952E+03  0.16229788108E+04  0.20547115836E+04  0.46999998093E+01 0. -1.
       -5    1    3    3    0  502  0.10888724949E+04 -0.63412464952E+03 -0.57157121735E+03  0.13836448706E+04  0.46999998093E+01 0.  1.
</event>
<event>
 5   0  0.9530268E-07  0.3298739E+04  0.7818609E-02  0.8163216E-01
       -1   -1    0    0    0  501  0.00000000000E+00  0.00000000000E+00  0.14221510520E+04  0.14221510520E+04  0.50400001928E-02 0. -1.
        1   -1    0    0  501    0  0.00000000000E+00  0.00000000000E+00 -0.19128903328E+04  0.19128903329E+04  0.50400001928E-02 0.  1.
    10030    2    1    2    0    0  0.00000000000E+00  0.00000000000E+00 -0.49073928087E+03  0.33350413848E+04  0.32987385463E+04 0.  0.
        5    1    3    3  502    0  0.12050110371E+04 -0.10360384705E+04  0.20104330440E+03  0.16018326417E+04  0.46999998093E+01 0. -1.
       -5    1    3    3    0  502 -0.12050110371E+04  0.10360384705E+04 -0.69178258526E+03  0.17332087431E+04  0.46999998093E+01 0.  1.
</event>
<event>
 5   0  0.9295663E-07  0.3321347E+04  0.7818609E-02  0.8157485E-01
        1   -1    0    0  501    0  0.00000000000E+00  0.00000000000E+00  0.13339414917E+04  0.13339414917E+04  0.50400001928E-02 0.  1.
       -1   -1    0    0    0  501  0.00000000000E+00  0.00000000000E+00 -0.20674338466E+04  0.20674338466E+04  0.50400001928E-02 0. -1.
    10030    2    1    2    0    0  0.00000000000E+00  0.00000000000E+00 -0.73349235489E+03  0.34013753383E+04  0.33213465880E+04 0.  0.
        4    1    3    3  502    0 -0.92187583213E+03 -0.42797809465E+03  0.97822036235E+03  0.14106512643E+04  0.12699999809E+01 0.  1.
       -4    1    3    3    0  502  0.92187583213E+03  0.42797809465E+03 -0.17117127172E+04  0.19907240740E+04  0.12699999809E+01 0. -1.
</event>
<event>
 5   0  0.8705956E-07  0.3291732E+04  0.7818609E-02  0.8165002E-01
        1   -1    0    0  501    0  0.00000000000E+00  0.00000000000E+00  0.27080469734E+04  0.27080469734E+04  0.50400001928E-02 0. -1.
       -1   -1    0    0    0  501  0.00000000000E+00  0.00000000000E+00 -0.10003057537E+04  0.10003057537E+04  0.50400001928E-02 0.  1.
    10030    2    1    2    0    0  0.00000000000E+00  0.00000000000E+00  0.17077412197E+04  0.37083527271E+04  0.32917320478E+04 0.  0.
        2    1    3    3  502    0  0.79510420339E+03  0.41469450687E+03 -0.70091783332E+03  0.11381775070E+04  0.25500000920E-02 0.  1.
       -2    1    3    3    0  502 -0.79510420339E+03 -0.41469450687E+03  0.24086590530E+04  0.25701752201E+04  0.25500000920E-02 0. -1.
</event>
<event>
 5   0  0.2614212E-06  0.3325868E+04  0.7818609E-02  0.8156344E-01
        2   -1    0    0  501    0  0.00000000000E+00  0.00000000000E+00  0.23263405225E+04  0.23263405225E+04  0.25500000920E-02 0.  1.
       -2   -1    0    0    0  501  0.00000000000E+00  0.00000000000E+00 -0.11887122251E+04  0.11887122251E+04  0.25500000920E-02 0. -1.
    10030    2    1    2    0    0  0.00000000000E+00  0.00000000000E+00  0.11376282974E+04  0.35150527476E+04  0.33258679582E+04 0.  0.
        2    1    3    3  502    0 -0.81585355688E+03  0.75548733989E+03 -0.73803815007E+03  0.13345705144E+04  0.25500000920E-02 0. -1.
       -2    1    3    3    0  502  0.81585355688E+03 -0.75548733989E+03  0.18756664474E+04  0.21804822331E+04  0.25500000920E-02 0.  1.
</event>
<event>
 5   0  0.9530268E-07  0.3283052E+04  0.7818609E-02  0.8167221E-01
        1   -1    0    0  501    0  0.00000000000E+00  0.00000000000E+00  0.20304042228E+04  0.20304042229E+04  0.50400001928E-02 0.  1.
       -1   -1    0    0    0  501  0.00000000000E+00  0.00000000000E+00 -0.13271288063E+04  0.13271288064E+04  0.50400001928E-02 0. -1.
    10030    2    1    2    0    0  0.00000000000E+00  0.00000000000E+00  0.70327541650E+03  0.33575330292E+04  0.32830521974E+04 0.  0.
        5    1    3    3  502    0  0.13107808773E+04  0.79574541468E+03  0.95078585598E+03  0.18042652541E+04  0.46999998093E+01 0.  1.
       -5    1    3    3    0  502 -0.13107808773E+04 -0.79574541468E+03 -0.24751043948E+03  0.15532677751E+04  0.46999998093E+01 0. -1.
</event>
<event>
 5   0  0.9268670E-07  0.3325814E+04  0.7818609E-02  0.8156358E-01
       -1   -1    0    0    0  501  0.00000000000E+00  0.00000000000E+00  0.17858712231E+04  0.17858712231E+04  0.50400001928E-02 0.  1.
        1   -1    0    0  501    0  0.00000000000E+00  0.00000000000E+00 -0.15484095058E+04  0.15484095058E+04  0.50400001928E-02 0. -1.
    10030    2    1    2    0    0  0.00000000000E+00  0.00000000000E+00  0.23746171733E+03  0.33342807290E+04  0.33258141729E+04 0.  0.
        3    1    3    3  502    0 -0.68034288399E+02  0.12241004164E+04  0.12450718775E+04  0.17473564274E+04  0.10100000352E+00 0.  1.
       -3    1    3    3    0  502  0.68034288399E+02 -0.12241004164E+04 -0.10076101602E+04  0.15869243016E+04  0.10100000352E+00 0. -1.
</event>
<event>
 5   0  0.2614212E-06  0.3328674E+04  0.7818609E-02  0.8155637E-01
       -2   -1    0    0    0  501  0.00000000000E+00  0.00000000000E+00  0.13462466291E+04  0.13462466291E+04  0.25500000920E-02 0. -1.
        2   -1    0    0  501    0  0.00000000000E+00  0.00000000000E+00 -0.20575859332E+04  0.20575859332E+04  0.25500000920E-02 0.  1.
    10030    2    1    2    0    0  0.00000000000E+00  0.00000000000E+00 -0.71133930416E+03  0.34038325623E+04  0.33286742866E+04 0.  0.
        2    1    3    3  502    0 -0.15851776445E+04 -0.31236082835E+03 -0.76426730532E+03  0.17873057840E+04  0.25500000920E-02 0.  1.
       -2    1    3    3    0  502  0.15851776445E+04  0.31236082835E+03  0.52928001159E+02  0.16165267783E+04  0.25500000920E-02 0. -1.
</event>
<event>
 5   0  0.8705956E-07  0.2903060E+04  0.7818609E-02  0.8271968E-01
       -1   -1    0    0    0  501  0.00000000000E+00  0.00000000000E+00  0.11507041357E+04  0.11507041357E+04  0.50400001928E-02 0.  1.
        1   -1    0    0  501    0  0.00000000000E+00  0.00000000000E+00 -0.18310000455E+04  0.18310000455E+04  0.50400001928E-02 0. -1.
    10030    2    1    2    0    0  0.00000000000E+00  0.00000000000E+00 -0.68029590978E+03  0.29817041813E+04  0.29030599890E+04 0.  0.
        2    1    3    3  502    0  0.17007951685E+03  0.28662749215E+03 -0.17911674618E+04  0.18219119730E+04  0.25500000920E-02 0. -1.
       -2    1    3    3    0  502 -0.17007951685E+03 -0.28662749215E+03  0.11108715520E+04  0.11597922083E+04  0.25500000920E-02 0.  1.
</event>
<event>
 5   0  0.9530268E-07  0.2450381E+04  0.7818609E-02  0.8420879E-01
        1   -1    0    0  501    0  0.00000000000E+00  0.00000000000E+00  0.15876039159E+04  0.15876039159E+04  0.50400001928E-02 0. -1.
       -1   -1    0    0    0  501  0.00000000000E+00  0.00000000000E+00 -0.94550766099E+03  0.94550766100E+03  0.50400001928E-02 0.  1.
    10030    2    1    2    0    0  0.00000000000E+00  0.00000000000E+00  0.64209625487E+03  0.25331115769E+04  0.24503809215E+04 0.  0.
        5    1    3    3  502    0 -0.67519598938E+03 -0.23350575357E+03 -0.70787265263E+03  0.10057436768E+04  0.46999998093E+01 0.  1.
       -5    1    3    3    0  502  0.67519598938E+03  0.23350575357E+03  0.13499689075E+04  0.15273679001E+04  0.46999998093E+01 0. -1.
</event>
<event>
 5   0  0.2705859E-06  0.2887546E+04  0.7818609E-02  0.8276593E-01
       -2   -1    0    0    0  501  0.00000000000E+00  0.00000000000E+00  0.23028298065E+04  0.23028298065E+04  0.25500000920E-02 0.  1.
        2   -1    0    0  501    0  0.00000000000E+00  0.00000000000E+00 -0.90518209297E+03  0.90518209297E+03  0.25500000920E-02 0. -1.
    10030    2    1    2    0    0  0.00000000000E+00  0.00000000000E+00  0.13976477135E+04  0.32080118995E+04  0.28875458812E+04 0.  0.
        1    1    3    3  502    0 -0.24131112248E+03 -0.97402770369E+03  0.18520636020E+04  0.21064426438E+04  0.50400001928E-02 0.  1.
       -1    1    3    3    0  502  0.24131112248E+03  0.97402770369E+03 -0.45441588851E+03  0.11015692557E+04  0.50400001928E-02 0. -1.
</event>
<event>
 5   0  0.2614212E-06  0.3270631E+04  0.7818609E-02  0.8170409E-01
        2   -1    0    0  501    0  0.00000000000E+00  0.00000000000E+00  0.11740924865E+04  0.11740924865E+04  0.25500000920E-02 0. -1.
       -2   -1    0    0    0  501  0.00000000000E+00  0.00000000000E+00 -0.22777223484E+04  0.22777223484E+04  0.25500000920E-02 0.  1.
    10030    2    1    2    0    0  0.00000000000E+00  0.00000000000E+00 -0.11036298619E+04  0.34518148348E+04  0.32706309455E+04 0.  0.
        2    1    3    3  502    0 -0.36030331798E+03  0.26873094573E+03 -0.22112477437E+04  0.22564687869E+04  0.25500000920E-02 0.  1.
       -2    1    3    3    0  502  0.36030331798E+03 -0.26873094573E+03  0.11076178818E+04  0.11953460479E+04  0.25500000920E-02 0. -1.
</event>
<event>
 5   0  0.2574803E-06  0.3438237E+04  0.7818609E-02  0.8128585E-01
       -2   -1    0    0    0  501  0.00000000000E+00  0.00000000000E+00  0.14245925691E+04  0.14245925691E+04  0.25500000920E-02 0.  1.
        2   -1    0    0  501    0  0.00000000000E+00  0.00000000000E+00 -0.20745362260E+04  0.20745362260E+04  0.25500000920E-02 0. -1.
    10030    2    1    2    0    0  0.00000000000E+00  0.00000000000E+00 -0.64994365696E+03  0.34991287951E+04  0.34382372762E+04 0.  0.
        4    1    3    3  502    0 -0.16544218673E+03 -0.58574263153E+02  0.14154508711E+04  0.14262905885E+04  0.12699999809E+01 0.  1.
       -4    1    3    3    0  502  0.16544218673E+03  0.58574263153E+02 -0.20653945280E+04  0.20728382066E+04  0.12699999809E+01 0. -1.
</event>
<event>
 5   0  0.2658600E-06  0.3240339E+04  0.7818609E-02  0.8178244E-01
        2   -1    0    0  501    0  0.00000000000E+00  0.00000000000E+00  0.24041647857E+04  0.24041647857E+04  0.25500000920E-02 0.  1.
       -2   -1    0    0    0  501  0.00000000000E+00  0.00000000000E+00 -0.10918342013E+04  0.10918342013E+04  0.25500000920E-02 0. -1.
    10030    2    1    2    0    0  0.00000000000E+00  0.00000000000E+00  0.13123305843E+04  0.34959989870E+04  0.32403390802E+04 0.  0.
        5    1    3    3  502    0  0.14380601480E+04 -0.30016862700E+03 -0.80975551261E+02  0.14712910398E+04  0.46999998093E+01 0. -1.
       -5    1    3    3    0  502 -0.14380601480E+04  0.30016862700E+03  0.13933061356E+04  0.20247079472E+04  0.46999998093E+01 0.  1.
</event>
<event>
 5   0  0.2574803E-06  0.2527291E+04  0.7818609E-02  0.8393327E-01
       -2   -1    0    0    0  501  0.00000000000E+00  0.00000000000E+00  0.55382375080E+03  0.55382375081E+03  0.25500000920E-02 0.  1.
        2   -1    0    0  501    0  0.00000000000E+00  0.00000000000E+00 -0.28832268986E+04  0.28832268986E+04  0.25500000920E-02 0. -1.
    10030    2    1    2    0    0  0.00000000000E+00  0.00000000000E+00 -0.23294031478E+04  0.34370506494E+04  0.25272906722E+04 0.  0.
        4    1    3    3  502    0 -0.32434790925E+03 -0.96380305051E+03 -0.14455754723E+03  0.10271399047E+04  0.12699999809E+01 0.  1.
       -4    1    3    3    0  502  0.32434790925E+03  0.96380305051E+03 -0.21848456005E+04  0.24099107447E+04  0.12699999809E+01 0. -1.
</event>
<event>
 5   0  0.2705859E-06  0.3286589E+04  0.7818609E-02  0.8166316E-01
        2   -1    0    0  501    0  0.00000000000E+00  0.00000000000E+00  0.20312605384E+04  0.20312605384E+04  0.25500000920E-02 0. -1.
       -2   -1    0    0    0  501  0.00000000000E+00  0.00000000000E+00 -0.13294294073E+04  0.13294294073E+04  0.25500000920E-02 0.  1.
    10030    2    1    2    0    0  0.00000000000E+00  0.00000000000E+00  0.70183113107E+03  0.33606899457E+04  0.32865894137E+04 0.  0.
        1    1    3    3  502    0  0.12629068057E+04  0.55274432158E+03 -0.56365344468E+03  0.14893505600E+04  0.50400001928E-02 0.  1.
       -1    1    3    3    0  502 -0.12629068057E+04 -0.55274432158E+03  0.12654845758E+04  0.18713393857E+04  0.50400001928E-02 0. -1.
</event>
<event>
 5   0  0.9295663E-07  0.3347645E+04  0.7818609E-02  0.8150877E-01
        1   -1    0    0  501    0  0.00000000000E+00  0.00000000000E+00  0.30790759172E+04  0.30790759172E+04  0.50400001928E-02 0. -1.
       -1   -1    0    0    0  501  0.00000000000E+00  0.00000000000E+00 -0.90990966496E+03  0.90990966497E+03  0.50400001928E-02 0.  1.
    10030    2    1    2    0    0  0.00000000000E+00  0.00000000000E+00  0.21691662522E+04  0.39889855822E+04  0.33476445069E+04 0.  0.
        4    1    3    3  502    0 -0.29364448459E+03 -0.30078124465E+03 -0.84599051061E+03  0.94466819434E+03  0.12699999809E+01 0.  1.
       -4    1    3    3    0  502  0.29364448459E+03  0.30078124465E+03  0.30151567628E+04  0.30443173878E+04  0.12699999809E+01 0. -1.
</event>
<event>
 5   0  0.2614212E-06  0.3208048E+04  0.7818609E-02  0.8186695E-01
        2   -1    0    0  501    0  0.00000000000E+00  0.00000000000E+00  0.32493575626E+04  0.32493575626E+04  0.25500000920E-02 0.  1.
       -2   -1    0    0    0  501  0.00000000000E+00  0.00000000000E+00 -0.79181600615E+03  0.79181600615E+03  0.25500000920E-02 0. -1.
    10030    2    1    2    0    0  0.00000000000E+00  0.00000000000E+00  0.24575415565E+04  0.40411735688E+04  0.32080482090E+04 0.  0.
        2    1    3    3  502    0  0.15648330849E+04  0.11150216647E+03  0.16498908577E+04  0.22766807329E+04  0.25500000920E-02 0. -1.
       -2    1    3    3    0  502 -0.15648330849E+04 -0.11150216647E+03  0.80765069874E+03  0.17644928359E+04  0.25500000920E-02 0.  1.
</event>
<event>
 5   0  0.2674551E-06  0.3298287E+04  0.7818609E-02  0.8163331E-01
       -2   -1    0    0    0  501  0.00000000000E+00  0.00000000000E+00  0.12519640347E+04  0.12519640347E+04  0.25500000920E-02 0. -1.
        2   -1    0    0  501    0  0.00000000000E+00  0.00000000000E+00 -0.21723261867E+04  0.21723261867E+04  0.25500000920E-02 0.  1.
    10030    2    1    2    0    0  0.00000000000E+00  0.00000000000E+00 -0.92036215199E+03  0.34242902214E+04  0.32982869841E+04 0.  0.
        3    1    3    3  502    0  0.11590422698E+04  0.11716946753E+04 -0.52095675164E+03  0.17284800671E+04  0.10100000352E+00 0. -1.
       -3    1    3    3    0  502 -0.11590422698E+04 -0.11716946753E+04 -0.39940540035E+03  0.16958101542E+04  0.10100000352E+00 0.  1.
</event>
<event>
 5   0  0.2658600E-06  0.3281041E+04  0.7818609E-02  0.8167736E-01
        2   -1    0    0  501    0  0.00000000000E+00  0.00000000000E+00  0.22364588019E+04  0.22364588019E+04  0.25500000920E-02 0. -1.
       -2   -1    0    0    0  501  0.00000000000E+00  0.00000000000E+00 -0.12033792606E+04  0.12033792606E+04  0.25500000920E-02 0.  1.
    10030    2    1    2    0    0  0.00000000000E+00  0.00000000000E+00  0.10330795413E+04  0.34398380625E+04  0.32810413831E+04 0.  0.
        5    1    3    3  502    0  0.11112859146E+04 -0.20118651362E+02  0.17815550679E+04  0.20998384924E+04  0.46999998093E+01 0. -1.
       -5    1    3    3    0  502 -0.11112859146E+04  0.20118651362E+02 -0.74847552661E+03  0.13399995701E+04  0.46999998093E+01 0.  1.
</event>
<event>
 5   0  0.2705859E-06  0.3252748E+04  0.7818609E-02  0.8175024E-01
        2   -1    0    0  501    0  0.00000000000E+00  0.00000000000E+00  0.16342661028E+04  0.16342661028E+04  0.25500000920E-02 0.  1.
       -2   -1    0    0    0  501  0.00000000000E+00  0.00000000000E+00 -0.16185199869E+04  0.16185199869E+04  0.25500000920E-02 0. -1.
    10030    2    1    2    0    0  0.00000000000E+00  0.00000000000E+00  0.15746115909E+02  0.32527860898E+04  0.32527479776E+04 0.  0.
        1    1    3    3  502    0 -0.19085405152E+02  0.43433866173E+03 -0.15593332403E+04  0.16188064987E+04  0.50400001928E-02 0. -1.
       -1    1    3    3    0  502  0.19085405152E+02 -0.43433866173E+03  0.15750793562E+04  0.16339795911E+04  0.50400001928E-02 0.  1.
</event>
<event>
 5   0  0.8845526E-07  0.3171193E+04  0.7818609E-02  0.8196467E-01
        1   -1    0    0  501    0  0.00000000000E+00  0.00000000000E+00  0.24715029637E+04  0.24715029637E+04  0.50400001928E-02 0. -1.
       -1   -1    0    0    0  501  0.00000000000E+00  0.00000000000E+00 -0.10172420422E+04  0.10172420422E+04  0.50400001928E-02 0.  1.
    10030    2    1    2    0    0  0.00000000000E+00  0.00000000000E+00  0.14542609215E+04  0.34887450059E+04  0.31711932909E+04 0.  0.
        1    1    3    3  502    0  0.98438378124E+03  0.51770186269E+03  0.19703770562E+04  0.22626118516E+04  0.50400001928E-02 0. -1.
       -1    1    3    3    0  502 -0.98438378124E+03 -0.51770186269E+03 -0.51611613476E+03  0.12261331543E+04  0.50400001928E-02 0.  1.
</event>
<event>
 5   0  0.2614212E-06  0.3309639E+04  0.7818609E-02  0.8160447E-01
        2   -1    0    0  501    0  0.00000000000E+00  0.00000000000E+00  0.10715102555E+04  0.10715102555E+04  0.25500000920E-02 0. -1.
       -2   -1    0    0    0  501  0.00000000000E+00  0.00000000000E+00 -0.25556710833E+04  0.25556710833E+04  0.25500000920E-02 0.  1.
    10030    2    1    2    0    0  0.00000000000E+00  0.00000000000E+00 -0.14841608277E+04  0.36271813388E+04  0.33096391196E+04 0.  0.
        2    1    3    3  502    0 -0.74326117564E+02  0.10728723422E+04 -0.21204670343E+04  0.23775953983E+04  0.25500000920E-02 0.  1.
       -2    1    3    3    0  502  0.74326117564E+02 -0.10728723422E+04  0.63630620653E+03  0.12495859406E+04  0.25500000920E-02 0. -1.
</event>
<event>
 5   0  0.9530268E-07  0.3294601E+04  0.7818609E-02  0.8164270E-01
       -1   -1    0    0    0  501  0.00000000000E+00  0.00000000000E+00  0.12469839390E+04  0.12469839390E+04  0.50400001928E-02 0. -1.
        1   -1    0    0  501    0  0.00000000000E+00  0.00000000000E+00 -0.21761301736E+04  0.21761301736E+04  0.50400001928E-02 0.  1.
    10030    2    1    2    0    0  0.00000000000E+00  0.00000000000E+00 -0.92914623464E+03  0.34231141126E+04  0.32946012661E+04 0.  0.
        5    1    3    3  502    0 -0.15626102092E+04  0.40520410317E+03 -0.12369603443E+03  0.16190317569E+04  0.46999998093E+01 0. -1.
       -5    1    3    3    0  502  0.15626102092E+04 -0.40520410317E+03 -0.80545020021E+03  0.18040823557E+04  0.46999998093E+01 0.  1.
</event>
<event>
 5   0  0.2658600E-06  0.3419828E+04  0.7818609E-02  0.8133057E-01
        2   -1    0    0  501    0  0.00000000000E+00  0.00000000000E+00  0.27067498774E+04  0.27067498774E+04  0.25500000920E-02 0. -1.
       -2   -1    0    0    0  501  0.00000000000E+00  0.00000000000E+00 -0.10801909001E+04  0.10801909001E+04  0.25500000920E-02 0.  1.
    10030    2    1    2    0    0  0.00000000000E+00  0.00000000000E+00  0.16265589773E+04  0.37869407775E+04  0.34198284088E+04 0.  0.
        5    1    3    3  502    0 -0.12059076083E+04 -0.11752068901E+04  0.48392930059E+03  0.17520085766E+04  0.46999998093E+01 0.  1.
       -5    1    3    3    0  502  0.12059076083E+04  0.11752068901E+04  0.11426296767E+04  0.20349322010E+04  0.46999998093E+01 0. -1.
</event>
<event>
 5   0  0.9295663E-07  0.3289499E+04  0.7818609E-02  0.8165572E-01
        1   -1    0    0  501    0  0.00000000000E+00  0.00000000000E+00  0.15202738885E+04  0.15202738885E+04  0.50400001928E-02 0. -1.
       -1   -1    0    0    0  501  0.00000000000E+00  0.00000000000E+00 -0.17794168551E+04  0.17794168551E+04  0.50400001928E-02 0.  1.
    10030    2    1    2    0    0  0.00000000000E+00  0.00000000000E+00 -0.25914296653E+03  0.32996907436E+04  0.32894990388E+04 0.  0.
        4    1    3    3  502    0 -0.46249647828E+03  0.14505136907E+04 -0.75383911403E+03  0.16988725620E+04  0.12699999809E+01 0.  1.
       -4    1    3    3    0  502  0.46249647828E+03 -0.14505136907E+04  0.49469614751E+03  0.16008181816E+04  0.12699999809E+01 0. -1.
</event>
<event>
 5   0  0.2574803E-06  0.3304614E+04  0.7818609E-02  0.8161722E-01
        2   -1    0    0  501    0  0.00000000000E+00  0.00000000000E+00  0.23120825301E+04  0.23120825301E+04  0.25500000920E-02 0.  1.
       -2   -1    0    0    0  501  0.00000000000E+00  0.00000000000E+00 -0.11808049782E+04  0.11808049782E+04  0.25500000920E-02 0. -1.
    10030    2    1    2    0    0  0.00000000000E+00  0.00000000000E+00  0.11312775519E+04  0.34928875083E+04  0.33046140843E+04 0.  0.
        4    1    3    3  502    0  0.42460040559E+03 -0.15895144367E+04  0.40438440690E+03  0.16942166362E+04  0.12699999809E+01 0.  1.
       -4    1    3    3    0  502 -0.42460040559E+03  0.15895144367E+04  0.72689314505E+03  0.17986708721E+04  0.12699999809E+01 0. -1.
</event>
<event>
 5   0  0.8845526E-07  0.3342771E+04  0.7818609E-02  0.8152097E-01
        1   -1    0    0  501    0  0.00000000000E+00  0.00000000000E+00  0.15868159925E+04  0.15868159925E+04  0.50400001928E-02 0.  1.
       -1   -1    0    0    0  501  0.00000000000E+00  0.00000000000E+00 -0.17604626646E+04  0.17604626646E+04  0.50400001928E-02 0. -1.
    10030    2    1    2    0    0  0.00000000000E+00  0.00000000000E+00 -0.17364667210E+03  0.33472786572E+04  0.33427714912E+04 0.  0.
        1    1    3    3  502    0 -0.10685685141E+04 -0.91603537142E+03  0.81581919976E+03  0.16268129695E+04  0.50400001928E-02 0.  1.
       -1    1    3    3    0  502  0.10685685141E+04  0.91603537142E+03 -0.98946587186E+03  0.17204656877E+04  0.50400001928E-02 0. -1.
</event>
<event>
 5   0  0.2705859E-06  0.3248887E+04  0.7818609E-02  0.8176024E-01
       -2   -1    0    0    0  501  0.00000000000E+00  0.00000000000E+00  0.12133890528E+04  0.12133890528E+04  0.25500000920E-02 0.  1.
        2   -1    0    0  501    0  0.00000000000E+00  0.00000000000E+00 -0.21747487693E+04  0.21747487693E+04  0.25500000920E-02 0. -1.
    10030    2    1    2    0    0  0.00000000000E+00  0.00000000000E+00 -0.96135971647E+03  0.33881378221E+04  0.32488867935E+04 0.  0.
        1    1    3    3  502    0  0.71075570695E+03 -0.10814520290E+04  0.54329306560E+03  0.14035239653E+04  0.50400001928E-02 0.  1.
       -1    1    3    3    0  502 -0.71075570695E+03  0.10814520290E+04 -0.15046527821E+04  0.19846138568E+04  0.50400001928E-02 0. -1.
</event>
<event>
 5   0  0.9295663E-07  0.3297809E+04  0.7818609E-02  0.8163453E-01
       -1   -1    0    0    0  501  0.00000000000E+00  0.00000000000E+00  0.19586508606E+04  0.19586508606E+04  0.50400001928E-02 0.  1.
        1   -1    0    0  501    0  0.00000000000E+00  0.00000000000E+00 -0.13881425960E+04  0.13881425961E+04  0.50400001928E-02 0. -1.
    10030    2    1    2    0    0  0.00000000000E+00  0.00000000000E+00  0.57050826456E+03  0.33467934567E+04  0.32978093883E+04 0.  0.
        4    1    3    3  502    0 -0.27727266134E+03  0.41358926072E+03  0.18805279624E+04  0.19453337080E+04  0.12699999809E+01 0.  1.
       -4    1    3    3    0  502  0.27727266134E+03 -0.41358926072E+03 -0.13100196979E+04  0.14014597486E+04  0.12699999809E+01 0. -1.
</event>
<event>
 5   0  0.2674551E-06  0.3299747E+04  0.7818609E-02  0.8162960E-01
        2   -1    0    0  501    0  0.00000000000E+00  0.00000000000E+00  0.20954216460E+04  0.20954216460E+04  0.25500000920E-02 0.  1.
       -2   -1    0    0    0  501  0.00000000000E+00  0.00000000000E+00 -0.12990620186E+04  0.12990620186E+04  0.25500000920E-02 0. -1.
    10030    2    1    2    0    0  0.00000000000E+00  0.00000000000E+00  0.79635962743E+03  0.33944836646E+04  0.32997470650E+04 0.  0.
        3    1    3    3  502    0 -0.45168924668E+03  0.23402470534E+03 -0.12163683810E+04  0.13184622812E+04  0.10100000352E+00 0. -1.
       -3    1    3    3    0  502  0.45168924668E+03 -0.23402470534E+03  0.20127280085E+04  0.20760213834E+04  0.10100000352E+00 0.  1.
</event>
<event>
 5   0  0.9268670E-07  0.3219105E+04  0.7818609E-02  0.8183790E-01
       -1   -1    0    0    0  501  0.00000000000E+00  0.00000000000E+00  0.10719823779E+04  0.10719823779E+04  0.50400001928E-02 0. -1.
        1   -1    0    0  501    0  0.00000000000E+00  0.00000000000E+00 -0.24166993766E+04  0.24166993766E+04  0.50400001928E-02 0.  1.
    10030    2    1    2    0    0  0.00000000000E+00  0.00000000000E+00 -0.13447169987E+04  0.34886817545E+04  0.32191049342E+04 0.  0.
        3    1    3    3  502    0 -0.11986729619E+03 -0.70758691793E+03  0.88898794007E+03  0.11425178261E+04  0.10100000352E+00 0. -1.
       -3    1    3    3    0  502  0.11986729619E+03  0.70758691793E+03 -0.22337049388E+04  0.23461639284E+04  0.10100000352E+00 0.  1.
</event>
<event>
 5   0  0.2705859E-06  0.3329846E+04  0.7818609E-02  0.8155342E-01
       -2   -1    0    0    0  501  0.00000000000E+00  0.00000000000E+00  0.13773896914E+04  0.13773896914E+04  0.25500000920E-02 0. -1.
        2   -1    0    0  501    0  0.00000000000E+00  0.00000000000E+00 -0.20124794030E+04  0.20124794030E+04  0.25500000920E-02 0.  1.
    10030    2    1    2    0    0  0.00000000000E+00  0.00000000000E+00 -0.63508971161E+03  0.33898690945E+04  0.33298458727E+04 0.  0.
        1    1    3    3  502    0  0.32272089779E+03 -0.75240467578E+02 -0.19785682465E+04  0.20061261705E+04  0.50400001928E-02 0.  1.
       -1    1    3    3    0  502 -0.32272089779E+03  0.75240467578E+02  0.13434785349E+04  0.13837429240E+04  0.50400001928E-02 0. -1.
</event>
<event>
 5   0  0.9295663E-07  0.3485658E+04  0.7818609E-02  0.8117197E-01
       -1   -1    0    0    0  501  0.00000000000E+00  0.00000000000E+00  0.17081474598E+04  0.17081474598E+04  0.50400001928E-02 0. -1.
        1   -1    0    0  501    0  0.00000000000E+00  0.00000000000E+00 -0.17782144131E+04  0.17782144131E+04  0.50400001928E-02 0.  1.
    10030    2    1    2    0    0  0.00000000000E+00  0.00000000000E+00 -0.70066953362E+02  0.34863618729E+04  0.34856577186E+04 0.  0.
        4    1    3    3  502    0  0.14886359879E+04 -0.89540941610E+03  0.10519360743E+03  0.17403627309E+04  0.12699999809E+01 0.  1.
       -4    1    3    3    0  502 -0.14886359879E+04  0.89540941610E+03 -0.17526056079E+03  0.17459991421E+04  0.12699999809E+01 0. -1.
</event>
<event>
 5   0  0.2674551E-06  0.3474497E+04  0.7818609E-02  0.8119860E-01
       -2   -1    0    0    0  501  0.00000000000E+00  0.00000000000E+00  0.12442540878E+04  0.12442540878E+04  0.25500000920E-02 0. -1.
        2   -1    0    0  501    0  0.00000000000E+00  0.00000000000E+00 -0.24255758927E+04  0.24255758927E+04  0.25500000920E-02 0.  1.
    10030    2    1    2    0    0  0.00000000000E+00  0.00000000000E+00 -0.11813218049E+04  0.36698299805E+04  0.34744972124E+04 0.  0.
        3    1    3    3  502    0 -0.16118012338E+04  0.63019515887E+03 -0.43053463826E+03  0.17833701916E+04  0.10100000352E+00 0.  1.
       -3    1    3    3    0  502  0.16118012338E+04 -0.63019515887E+03 -0.75078716662E+03  0.18864597889E+04  0.10100000352E+00 0. -1.
</event>
<event>
 5   0  0.9295663E-07  0.3309756E+04  0.7818609E-02  0.8160417E-01
       -1   -1    0    0    0  501  0.00000000000E+00  0.00000000000E+00  0.19689056979E+04  0.19689056979E+04  0.50400001928E-02 0. -1.
        1   -1    0    0  501    0  0.00000000000E+00  0.00000000000E+00 -0.13909357795E+04  0.13909357795E+04  0.50400001928E-02 0.  1.
    10030    2    1    2    0    0  0.00000000000E+00  0.00000000000E+00  0.57796991836E+03  0.33598414774E+04  0.33097561129E+04 0.  0.
        4    1    3    3  502    0 -0.46902428618E+03  0.60984035856E+03  0.17763294881E+04  0.19357781658E+04  0.12699999809E+01 0. -1.
       -4    1    3    3    0  502  0.46902428618E+03 -0.60984035856E+03 -0.11983595698E+04  0.14240633116E+04  0.12699999809E+01 0.  1.
</event>
<event>
 5   0  0.8520125E-07  0.3256947E+04  0.7818609E-02  0.8173937E-01
       -3   -1    0    0    0  501  0.00000000000E+00  0.00000000000E+00  0.16269978143E+04  0.16269978174E+04  0.10100000352E+00 0.  1.
        3   -1    0    0  501    0  0.00000000000E+00  0.00000000000E+00 -0.16299505029E+04  0.16299505060E+04  0.10100000352E+00 0. -1.
    10030    2    1    2    0    0  0.00000000000E+00  0.00000000000E+00 -0.29526885800E+01  0.32569483234E+04  0.32569469850E+04 0.  0.
        5    1    3    3  502    0  0.10569829267E+03  0.13953544673E+04  0.83142111490E+03  0.16277190724E+04  0.46999998093E+01 0.  1.
       -5    1    3    3    0  502 -0.10569829267E+03 -0.13953544673E+04 -0.83437380348E+03  0.16292292510E+04  0.46999998093E+01 0. -1.
</event>
<event>
 5   0  0.9295663E-07  0.3321744E+04  0.7818609E-02  0.8157385E-01
        1   -1    0    0  501    0  0.00000000000E+00  0.00000000000E+00  0.14798944250E+04  0.14798944251E+04  0.50400001928E-02 0.  1.
       -1   -1    0    0    0  501  0.00000000000E+00  0.00000000000E+00 -0.18639809377E+04  0.18639809377E+04  0.50400001928E-02 0. -1.
    10030    2    1    2    0    0  0.00000000000E+00  0.00000000000E+00 -0.38408651267E+03  0.33438753628E+04  0.33217435170E+04 0.  0.
        4    1    3    3  502    0 -0.13260574594E+04  0.97749563235E+03 -0.40455948014E+03  0.16963478661E+04  0.12699999809E+01 0. -1.
       -4    1    3    3    0  502  0.13260574594E+04 -0.97749563235E+03  0.20472967470E+02  0.16475274967E+04  0.12699999809E+01 0.  1.
</event>
<event>
 5   0  0.9530268E-07  0.3300856E+04  0.7818609E-02  0.8162678E-01
        1   -1    0    0  501    0  0.00000000000E+00  0.00000000000E+00  0.25779763008E+04  0.25779763008E+04  0.50400001928E-02 0.  1.
       -1   -1    0    0    0  501  0.00000000000E+00  0.00000000000E+00 -0.10566087816E+04  0.10566087816E+04  0.50400001928E-02 0. -1.
    10030    2    1    2    0    0  0.00000000000E+00  0.00000000000E+00  0.15213675192E+04  0.36345850824E+04  0.33008558879E+04 0.  0.
        5    1    3    3  502    0  0.16926726453E+03 -0.11516680682E+04  0.20489750424E+04  0.23565465326E+04  0.46999998093E+01 0.  1.
       -5    1    3    3    0  502 -0.16926726453E+03  0.11516680682E+04 -0.52760752315E+03  0.12780385497E+04  0.46999998093E+01 0. -1.
</event>
<event>
 5   0  0.2614212E-06  0.3331036E+04  0.7818609E-02  0.8155043E-01
       -2   -1    0    0    0  501  0.00000000000E+00  0.00000000000E+00  0.11019352708E+04  0.11019352708E+04  0.25500000920E-02 0. -1.
        2   -1    0    0  501    0  0.00000000000E+00  0.00000000000E+00 -0.25173441549E+04  0.25173441549E+04  0.25500000920E-02 0.  1.
    10030    2    1    2    0    0  0.00000000000E+00  0.00000000000E+00 -0.14154088841E+04  0.36192794256E+04  0.33310360628E+04 0.  0.
        2    1    3    3  502    0  0.16170924290E+04 -0.36937866804E+03 -0.54464565114E+03  0.17458715330E+04  0.25500000920E-02 0.  1.
       -2    1    3    3    0  502 -0.16170924290E+04  0.36937866804E+03 -0.87076323299E+03  0.18734078927E+04  0.25500000920E-02 0. -1.
</event>
<event>
 5   0  0.2574803E-06  0.2978836E+04  0.7818609E-02  0.8249800E-01
       -2   -1    0    0    0  501  0.00000000000E+00  0.00000000000E+00  0.13066112157E+04  0.13066112157E+04  0.25500000920E-02 0.  1.
        2   -1    0    0  501    0  0.00000000000E+00  0.00000000000E+00 -0.16978014442E+04  0.16978014442E+04  0.25500000920E-02 0. -1.
    10030    2    1    2    0    0  0.00000000000E+00  0.00000000000E+00 -0.39119022848E+03  0.30044126600E+04  0.29788362890E+04 0.  0.
        4    1    3    3  502    0  0.47383642408E+03  0.12054891601E+04  0.54600010924E+03  0.14056467565E+04  0.12699999809E+01 0. -1.
       -4    1    3    3    0  502 -0.47383642408E+03 -0.12054891601E+04 -0.93719033772E+03  0.15987659034E+04  0.12699999809E+01 0.  1.
</event>
<event>
 5   0  0.2658600E-06  0.3295940E+04  0.7818609E-02  0.8163929E-01
        2   -1    0    0  501    0  0.00000000000E+00  0.00000000000E+00  0.22796183190E+04  0.22796183190E+04  0.25500000920E-02 0.  1.
       -2   -1    0    0    0  501  0.00000000000E+00  0.00000000000E+00 -0.11913418715E+04  0.11913418715E+04  0.25500000920E-02 0. -1.
    10030    2    1    2    0    0  0.00000000000E+00  0.00000000000E+00  0.10882764475E+04  0.34709601905E+04  0.32959397776E+04 0.  0.
        5    1    3    3  502    0  0.66522900028E+03  0.78395376145E+03 -0.81214471834E+03  0.13102344280E+04  0.46999998093E+01 0. -1.
       -5    1    3    3    0  502 -0.66522900028E+03 -0.78395376145E+03  0.19004211659E+04  0.21607257625E+04  0.46999998093E+01 0.  1.
</event>
<event>
 5   0  0.2658600E-06  0.3269927E+04  0.7818609E-02  0.8170590E-01
        2   -1    0    0  501    0  0.00000000000E+00  0.00000000000E+00  0.23680528532E+04  0.23680528532E+04  0.25500000920E-02 0.  1.
       -2   -1    0    0    0  501  0.00000000000E+00  0.00000000000E+00 -0.11288203232E+04  0.11288203232E+04  0.25500000920E-02 0. -1.
    10030    2    1    2    0    0  0.00000000000E+00  0.00000000000E+00  0.12392325300E+04  0.34968731765E+04  0.32699273308E+04 0.  0.
        5    1    3    3  502    0  0.13803689223E+04  0.84132391313E+03  0.35801678351E+03  0.16557301700E+04  0.46999998093E+01 0. -1.
       -5    1    3    3    0  502 -0.13803689223E+04 -0.84132391313E+03  0.88121574651E+03  0.18411430065E+04  0.46999998093E+01 0.  1.
</event>
<event>
 5   0  0.9295663E-07  0.2994274E+04  0.7818609E-02  0.8245368E-01
        1   -1    0    0  501    0  0.00000000000E+00  0.00000000000E+00  0.14090558183E+04  0.14090558183E+04  0.50400001928E-02 0. -1.
       -1   -1    0    0    0  501  0.00000000000E+00  0.00000000000E+00 -0.15907244716E+04  0.15907244716E+04  0.50400001928E-02 0.  1.
    10030    2    1    2    0    0  0.00000000000E+00  0.00000000000E+00 -0.18166865331E+03  0.29997802900E+04  0.29942742507E+04 0.  0.
        4    1    3    3  502    0 -0.11800211303E+04  0.46636640668E+03 -0.88694673562E+03  0.15481032324E+04  0.12699999809E+01 0. -1.
       -4    1    3    3    0  502  0.11800211303E+04 -0.46636640668E+03  0.70527808230E+03  0.14516770576E+04  0.12699999809E+01 0.  1.
</event>
<event>
 5   0  0.8845526E-07  0.2832215E+04  0.7818609E-02  0.8293336E-01
        1   -1    0    0  501    0  0.00000000000E+00  0.00000000000E+00  0.82659520194E+03  0.82659520196E+03  0.50400001928E-02 0. -1.
       -1   -1    0    0    0  501  0.00000000000E+00  0.00000000000E+00 -0.24260482446E+04  0.24260482446E+04  0.50400001928E-02 0.  1.
    10030    2    1    2    0    0  0.00000000000E+00  0.00000000000E+00 -0.15994530427E+04  0.32526434466E+04  0.28322145672E+04 0.  0.
        1    1    3    3  502    0  0.33936194205E+03  0.54392065114E+03 -0.22498376077E+04  0.23393985260E+04  0.50400001928E-02 0.  1.
       -1    1    3    3    0  502 -0.33936194205E+03 -0.54392065114E+03  0.65038456504E+03  0.91324492055E+03  0.50400001928E-02 0. -1.
</event>
<event>
 5   0  0.2674551E-06  0.3300182E+04  0.7818609E-02  0.8162849E-01
       -2   -1    0    0    0  501  0.00000000000E+00  0.00000000000E+00  0.14695125613E+04  0.14695125613E+04  0.25500000920E-02 0.  1.
        2   -1    0    0  501    0  0.00000000000E+00  0.00000000000E+00 -0.18528595150E+04  0.18528595150E+04  0.25500000920E-02 0. -1.
    10030    2    1    2    0    0  0.00000000000E+00  0.00000000000E+00 -0.38334695371E+03  0.33223720763E+04  0.33001820142E+04 0.  0.
        3    1    3    3  502    0  0.74064936523E+03 -0.56198940600E+03  0.11807266883E+04  0.15028336892E+04  0.10100000352E+00 0.  1.
       -3    1    3    3    0  502 -0.74064936523E+03  0.56198940600E+03 -0.15640736420E+04  0.18195383872E+04  0.10100000352E+00 0. -1.
</event>
<event>
 5   0  0.2705859E-06  0.3167985E+04  0.7818609E-02  0.8197324E-01
       -2   -1    0    0    0  501  0.00000000000E+00  0.00000000000E+00  0.10732355234E+04  0.10732355234E+04  0.25500000920E-02 0.  1.
        2   -1    0    0  501    0  0.00000000000E+00  0.00000000000E+00 -0.23378206624E+04  0.23378206624E+04  0.25500000920E-02 0. -1.
    10030    2    1    2    0    0  0.00000000000E+00  0.00000000000E+00 -0.12645851391E+04  0.34110561858E+04  0.31679849635E+04 0.  0.
        1    1    3    3  502    0  0.10420078278E+03  0.35222442378E+02 -0.23337037093E+04  0.23362943792E+04  0.50400001928E-02 0. -1.
       -1    1    3    3    0  502 -0.10420078278E+03 -0.35222442378E+02  0.10691185702E+04  0.10747618066E+04  0.50400001928E-02 0.  1.
</event>
<event>
 5   0  0.2658600E-06  0.3291327E+04  0.7818609E-02  0.8165106E-01
        2   -1    0    0  501    0  0.00000000000E+00  0.00000000000E+00  0.20271283048E+04  0.20271283048E+04  0.25500000920E-02 0.  1.
       -2   -1    0    0    0  501  0.00000000000E+00  0.00000000000E+00 -0.13359823225E+04  0.13359823225E+04  0.25500000920E-02 0. -1.
    10030    2    1    2    0    0  0.00000000000E+00  0.00000000000E+00  0.69114598228E+03  0.33631106273E+04  0.32913265294E+04 0.  0.
        5    1    3    3  502    0  0.90437577721E+03 -0.50684293417E+03 -0.96034673841E+03  0.14131784227E+04  0.46999998093E+01 0. -1.
       -5    1    3    3    0  502 -0.90437577721E+03  0.50684293417E+03  0.16514927207E+04  0.19499322047E+04  0.46999998093E+01 0.  1.
</event>
<event>
 5   0  0.9268670E-07  0.3184992E+04  0.7818609E-02  0.8192792E-01
       -1   -1    0    0    0  501  0.00000000000E+00  0.00000000000E+00  0.85345238326E+03  0.85345238328E+03  0.50400001928E-02 0. -1.
        1   -1    0    0  501    0  0.00000000000E+00  0.00000000000E+00 -0.29715119835E+04  0.29715119835E+04  0.50400001928E-02 0.  1.
    10030    2    1    2    0    0  0.00000000000E+00  0.00000000000E+00 -0.21180596002E+04  0.38249643668E+04  0.31849922978E+04 0.  0.
        3    1    3    3  502    0 -0.11886360835E+04 -0.10161247600E+04 -0.69739379168E+03  0.17122276069E+04  0.10100000352E+00 0. -1.
       -3    1    3    3    0  502  0.11886360835E+04  0.10161247600E+04 -0.14206658085E+04  0.21127367599E+04  0.10100000352E+00 0.  1.
</event>
<event>
 5   0  0.2614212E-06  0.3064262E+04  0.7818609E-02  0.8225615E-01
       -2   -1    0    0    0  501  0.00000000000E+00  0.00000000000E+00  0.13193581934E+04  0.13193581934E+04  0.25500000920E-02 0.  1.
        2   -1    0    0  501    0  0.00000000000E+00  0.00000000000E+00 -0.17792174705E+04  0.17792174705E+04  0.25500000920E-02 0. -1.
    10030    2    1    2    0    0  0.00000000000E+00  0.00000000000E+00 -0.45985927707E+03  0.30985756639E+04  0.30642618344E+04 0.  0.
        2    1    3    3  502    0 -0.13543650138E+04  0.15378733427E+03 -0.93738538490E+03  0.16542812623E+04  0.25500000920E-02 0. -1.
       -2    1    3    3    0  502  0.13543650138E+04 -0.15378733427E+03  0.47752610783E+03  0.14442944016E+04  0.25500000920E-02 0.  1.
</event>
<event>
 5   0  0.8845526E-07  0.3329675E+04  0.7818609E-02  0.8155385E-01
       -1   -1    0    0    0  501  0.00000000000E+00  0.00000000000E+00  0.20627989585E+04  0.20627989585E+04  0.50400001928E-02 0. -1.
        1   -1    0    0  501    0  0.00000000000E+00  0.00000000000E+00 -0.13436520271E+04  0.13436520271E+04  0.50400001928E-02 0.  1.
    10030    2    1    2    0    0  0.00000000000E+00  0.00000000000E+00  0.71914693141E+03  0.34064509855E+04  0.33296750604E+04 0.  0.
        1    1    3    3  502    0  0.16386711369E+04 -0.22061256835E+03  0.55840238056E+03  0.17452009108E+04  0.50400001928E-02 0. -1.
       -1    1    3    3    0  502 -0.16386711369E+04  0.22061256835E+03  0.16074455086E+03  0.16612500748E+04  0.50400001928E-02 0.  1.
</event>
<event>
 5   0  0.2674551E-06  0.2406753E+04  0.7818609E-02  0.8436980E-01
        2   -1    0    0  501    0  0.00000000000E+00  0.00000000000E+00  0.16420436510E+04  0.16420436510E+04  0.25500000920E-02 0. -1.
       -2   -1    0    0    0  501  0.00000000000E+00  0.00000000000E+00 -0.88189781864E+03  0.88189781865E+03  0.25500000920E-02 0.  1.
    10030    2    1    2    0    0  0.00000000000E+00  0.00000000000E+00  0.76014583238E+03  0.25239414697E+04  0.24067527617E+04 0.  0.
        3    1    3    3  502    0  0.82798806738E+03 -0.73299696974E+03 -0.11765905045E+03  0.11120667515E+04  0.10100000352E+00 0.  1.
       -3    1    3    3    0  502 -0.82798806738E+03  0.73299696974E+03  0.87780488283E+03  0.14118747182E+04  0.10100000352E+00 0. -1.
</event>
<event>
 5   0  0.2614212E-06  0.3226250E+04  0.7818609E-02  0.8181919E-01
       -2   -1    0    0    0  501  0.00000000000E+00  0.00000000000E+00  0.13619750772E+04  0.13619750772E+04  0.25500000920E-02 0.  1.
        2   -1    0    0  501    0  0.00000000000E+00  0.00000000000E+00 -0.19105873143E+04  0.19105873143E+04  0.25500000920E-02 0. -1.
    10030    2    1    2    0    0  0.00000000000E+00  0.00000000000E+00 -0.54861223717E+03  0.32725623915E+04  0.32262500244E+04 0.  0.
        2    1    3    3  502    0 -0.75604106541E+03 -0.13239822847E+04  0.26017816351E+03  0.15466802707E+04  0.25500000920E-02 0.  1.
       -2    1    3    3    0  502  0.75604106541E+03  0.13239822847E+04 -0.80879040068E+03  0.17258821209E+04  0.25500000920E-02 0. -1.
</event>
<event>
 5   0  0.8845526E-07  0.3230427E+04  0.7818609E-02  0.8180827E-01
       -1   -1    0    0    0  501  0.00000000000E+00  0.00000000000E+00  0.22274926071E+04  0.22274926071E+04  0.50400001928E-02 0.  1.
        1   -1    0    0  501    0  0.00000000000E+00  0.00000000000E+00 -0.11712338844E+04  0.11712338844E+04  0.50400001928E-02 0. -1.
    10030    2    1    2    0    0  0.00000000000E+00  0.00000000000E+00  0.10562587227E+04  0.33987264916E+04  0.32304271042E+04 0.  0.
        1    1    3    3  502    0 -0.13841781598E+03  0.36710944952E+03 -0.11203396188E+04  0.11870508418E+04  0.50400001928E-02 0. -1.
       -1    1    3    3    0  502  0.13841781598E+03 -0.36710944952E+03  0.21765983415E+04  0.22116756498E+04  0.50400001928E-02 0.  1.
</event>
<event>
 5   0  0.2658600E-06  0.3252858E+04  0.7818609E-02  0.8174995E-01
       -2   -1    0    0    0  501  0.00000000000E+00  0.00000000000E+00  0.10982754282E+04  0.10982754282E+04  0.25500000920E-02 0. -1.
        2   -1    0    0  501    0  0.00000000000E+00  0.00000000000E+00 -0.24085686952E+04  0.24085686952E+04  0.25500000920E-02 0.  1.
    10030    2    1    2    0    0  0.00000000000E+00  0.00000000000E+00 -0.13102932670E+04  0.35068441235E+04  0.32528583217E+04 0.  0.
        5    1    3    3  502    0  0.26266190480E+03  0.42457625868E+03  0.10136143127E+04  0.11299081116E+04  0.46999998093E+01 0. -1.
       -5    1    3    3    0  502 -0.26266190480E+03 -0.42457625868E+03 -0.23239075797E+04  0.23769360119E+04  0.46999998093E+01 0.  1.
</event>
<event>
 5   0  0.2614212E-06  0.3303078E+04  0.7818609E-02  0.8162113E-01
        2   -1    0    0  501    0  0.00000000000E+00  0.00000000000E+00  0.18695658544E+04  0.18695658544E+04  0.25500000920E-02 0.  1.
       -2   -1    0    0    0  501  0.00000000000E+00  0.00000000000E+00 -0.14589377952E+04  0.14589377952E+04  0.25500000920E-02 0. -1.
    10030    2    1    2    0    0  0.00000000000E+00  0.00000000000E+00  0.41062805917E+03  0.33285036496E+04  0.33030775259E+04 0.  0.
        2    1    3    3  502    0  0.83104687188E+03 -0.94805459291E+03  0.12803597744E+04  0.17968771707E+04  0.25500000920E-02 0.  1.
       -2    1    3    3    0  502 -0.83104687188E+03  0.94805459291E+03 -0.86973171527E+03  0.15316264789E+04  0.25500000920E-02 0. -1.
</event>
<event>
 5   0  0.2658600E-06  0.3315794E+04  0.7818609E-02  0.8158888E-01
       -2   -1    0    0    0  501  0.00000000000E+00  0.00000000000E+00  0.13231773779E+04  0.13231773779E+04  0.25500000920E-02 0. -1.
        2   -1    0    0  501    0  0.00000000000E+00  0.00000000000E+00 -0.20772898227E+04  0.20772898227E+04  0.25500000920E-02 0.  1.
    10030    2    1    2    0    0  0.00000000000E+00  0.00000000000E+00 -0.75411244480E+03  0.34004672006E+04  0.33157942643E+04 0.  0.
        5    1    3    3  502    0 -0.27229429081E+03  0.16322901354E+04 -0.27406489053E+03  0.16773934903E+04  0.46999998093E+01 0. -1.
       -5    1    3    3    0  502  0.27229429081E+03 -0.16322901354E+04 -0.48004755427E+03  0.17230737104E+04  0.46999998093E+01 0.  1.
</event>
<event>
 5   0  0.8845526E-07  0.3276569E+04  0.7818609E-02  0.8168883E-01
       -1   -1    0    0    0  501  0.00000000000E+00  0.00000000000E+00  0.27315180061E+04  0.27315180061E+04  0.50400001928E-02 0. -1.
        1   -1    0    0  501    0  0.00000000000E+00  0.00000000000E+00 -0.98259495482E+03  0.98259495484E+03  0.50400001928E-02 0.  1.
    10030    2    1    2    0    0  0.00000000000E+00  0.00000000000E+00  0.17489230512E+04  0.37141129609E+04  0.32765688223E+04 0.  0.
        1    1    3    3  502    0  0.25289884678E+03 -0.12230274287E+04  0.20763435314E+04  0.24230056497E+04  0.50400001928E-02 0. -1.
       -1    1    3    3    0  502 -0.25289884678E+03  0.12230274287E+04 -0.32742048020E+03  0.12911073112E+04  0.50400001928E-02 0.  1.
</event>
<event>
 5   0  0.2574803E-06  0.3310132E+04  0.7818609E-02  0.8160322E-01
        2   -1    0    0  501    0  0.00000000000E+00  0.00000000000E+00  0.23747844579E+04  0.23747844579E+04  0.25500000920E-02 0. -1.
       -2   -1    0    0    0  501  0.00000000000E+00  0.00000000000E+00 -0.11534701982E+04  0.11534701982E+04  0.25500000920E-02 0.  1.
    10030    2    1    2    0    0  0.00000000000E+00  0.00000000000E+00  0.12213142597E+04  0.35282546561E+04  0.33101317794E+04 0.  0.
        4    1    3    3  502    0 -0.31878057106E+03 -0.15814057669E+04  0.10048601624E+04  0.19005817033E+04  0.12699999809E+01 0. -1.
       -4    1    3    3    0  502  0.31878057106E+03  0.15814057669E+04  0.21645409735E+03  0.16276729528E+04  0.12699999809E+01 0.  1.
</event>
<event>
 5   0  0.2674551E-06  0.3323368E+04  0.7818609E-02  0.8156975E-01
        2   -1    0    0  501    0  0.00000000000E+00  0.00000000000E+00  0.21643075485E+04  0.21643075485E+04  0.25500000920E-02 0.  1.
       -2   -1    0    0    0  501  0.00000000000E+00  0.00000000000E+00 -0.12757865442E+04  0.12757865442E+04  0.25500000920E-02 0. -1.
    10030    2    1    2    0    0  0.00000000000E+00  0.00000000000E+00  0.88852100435E+03  0.34400940927E+04  0.33233684405E+04 0.  0.
        3    1    3    3  502    0  0.88824866155E+03 -0.10556669981E+04  0.14029517460E+04  0.19676615836E+04  0.10100000352E+00 0.  1.
       -3    1    3    3    0  502 -0.88824866155E+03  0.10556669981E+04 -0.51443074169E+03  0.14724325091E+04  0.10100000352E+00 0. -1.
</event>
<event>
 5   0  0.2658600E-06  0.3285170E+04  0.7818609E-02  0.8166679E-01
       -2   -1    0    0    0  501  0.00000000000E+00  0.00000000000E+00  0.25402187503E+04  0.25402187503E+04  0.25500000920E-02 0.  1.
        2   -1    0    0  501    0  0.00000000000E+00  0.00000000000E+00 -0.10621469667E+04  0.10621469667E+04  0.25500000920E-02 0. -1.
    10030    2    1    2    0    0  0.00000000000E+00  0.00000000000E+00  0.14780717836E+04  0.36023657171E+04  0.32851700964E+04 0.  0.
        5    1    3    3  502    0  0.59365661433E+03 -0.13300846048E+04  0.15716302860E+04  0.21428012221E+04  0.46999998093E+01 0.  1.
       -5    1    3    3    0  502 -0.59365661433E+03  0.13300846048E+04 -0.93558502408E+02  0.14595644950E+04  0.46999998093E+01 0. -1.
</event>
<event>
 5   0  0.2674551E-06  0.2962144E+04  0.7818609E-02  0.8254624E-01
       -2   -1    0    0    0  501  0.00000000000E+00  0.00000000000E+00  0.14074388122E+04  0.14074388122E+04  0.25500000920E-02 0.  1.
        2   -1    0    0  501    0  0.00000000000E+00  0.00000000000E+00 -0.15585576490E+04  0.15585576490E+04  0.25500000920E-02 0. -1.
    10030    2    1    2    0    0  0.00000000000E+00  0.00000000000E+00 -0.15111883677E+03  0.29659964612E+04  0.29621441736E+04 0.  0.
        3    1    3    3  502    0  0.55443100099E+03 -0.70178455845E+03  0.11065177997E+04  0.14227708714E+04  0.10100000352E+00 0.  1.
       -3    1    3    3    0  502 -0.55443100099E+03  0.70178455845E+03 -0.12576366365E+04  0.15432255898E+04  0.10100000352E+00 0. -1.
</event>
<event>
 5   0  0.9268670E-07  0.3317187E+04  0.7818609E-02  0.8158536E-01
       -1   -1    0    0    0  501  0.00000000000E+00  0.00000000000E+00  0.14387281445E+04  0.14387281445E+04  0.50400001928E-02 0.  1.
        1   -1    0    0  501    0  0.00000000000E+00  0.00000000000E+00 -0.19120582796E+04  0.19120582796E+04  0.50400001928E-02 0. -1.
    10030    2    1    2    0    0  0.00000000000E+00  0.00000000000E+00 -0.47333013507E+03  0.33507864241E+04  0.33171867966E+04 0.  0.
        3    1    3    3  502    0  0.30255616175E+03 -0.62424065865E+03  0.12851522547E+04  0.14604221851E+04  0.10100000352E+00 0.  1.
       -3    1    3    3    0  502 -0.30255616175E+03  0.62424065865E+03 -0.17584823897E+04  0.18903642390E+04  0.10100000352E+00 0. -1.
</event>
<event>
 5   0  0.9268670E-07  0.3291272E+04  0.7818609E-02  0.8165120E-01
        1   -1    0    0  501    0  0.00000000000E+00  0.00000000000E+00  0.15444239497E+04  0.15444239497E+04  0.50400001928E-02 0. -1.
       -1   -1    0    0    0  501  0.00000000000E+00  0.00000000000E+00 -0.17534803455E+04  0.17534803455E+04  0.50400001928E-02 0.  1.
    10030    2    1    2    0    0  0.00000000000E+00  0.00000000000E+00 -0.20905639583E+03  0.32979042953E+04  0.32912715118E+04 0.  0.
        3    1    3    3  502    0  0.54038583949E+03  0.40422977408E+03 -0.16084521260E+04  0.17442869081E+04  0.10100000352E+00 0.  1.
       -3    1    3    3    0  502 -0.54038583949E+03 -0.40422977408E+03  0.13993957302E+04  0.15536173872E+04  0.10100000352E+00 0. -1.
</event>
<event>
 5   0  0.2574803E-06  0.3227506E+04  0.7818609E-02  0.8181590E-01
       -2   -1    0    0    0  501  0.00000000000E+00  0.00000000000E+00  0.12487643196E+04  0.12487643196E+04  0.25500000920E-02 0. -1.
        2   -1    0    0  501    0  0.00000000000E+00  0.00000000000E+00 -0.20854211312E+04  0.20854211312E+04  0.25500000920E-02 0.  1.
    10030    2    1    2    0    0  0.00000000000E+00  0.00000000000E+00 -0.83665681162E+03  0.33341854507E+04  0.32275064678E+04 0.  0.
        4    1    3    3  502    0 -0.12683360239E+04  0.24442106521E+03  0.58100291943E+03  0.14163276217E+04  0.12699999809E+01 0. -1.
       -4    1    3    3    0  502  0.12683360239E+04 -0.24442106521E+03 -0.14176597311E+04  0.19178578291E+04  0.12699999809E+01 0.  1.
</event>
<event>
 5   0  0.9530268E-07  0.3223839E+04  0.7818609E-02  0.8182550E-01
       -1   -1    0    0    0  501  0.00000000000E+00  0.00000000000E+00  0.11606025969E+04  0.11606025969E+04  0.50400001928E-02 0.  1.
        1   -1    0    0  501    0  0.00000000000E+00  0.00000000000E+00 -0.22387376215E+04  0.22387376216E+04  0.50400001928E-02 0. -1.
    10030    2    1    2    0    0  0.00000000000E+00  0.00000000000E+00 -0.10781350246E+04  0.33993402185E+04  0.32238391383E+04 0.  0.
        5    1    3    3  502    0 -0.60337082658E+03  0.11532862693E+04  0.46355718547E+03  0.13816775773E+04  0.46999998093E+01 0.  1.
       -5    1    3    3    0  502  0.60337082658E+03 -0.11532862693E+04 -0.15416922101E+04  0.20176626413E+04  0.46999998093E+01 0. -1.
</event>
<event>
 5   0  0.9530268E-07  0.3312799E+04  0.7818609E-02  0.8159646E-01
       -1   -1    0    0    0  501  0.00000000000E+00  0.00000000000E+00  0.25705977319E+04  0.25705977320E+04  0.50400001928E-02 0.  1.
        1   -1    0    0  501    0  0.00000000000E+00  0.00000000000E+00 -0.10673236297E+04  0.10673236297E+04  0.50400001928E-02 0. -1.
    10030    2    1    2    0    0  0.00000000000E+00  0.00000000000E+00  0.15032741022E+04  0.36379213617E+04  0.33127992404E+04 0.  0.
        5    1    3    3  502    0  0.15411595215E+04  0.60571658103E+03  0.70809239923E+03  0.18009670133E+04  0.46999998093E+01 0. -1.
       -5    1    3    3    0  502 -0.15411595215E+04 -0.60571658103E+03  0.79518170300E+03  0.18369543484E+04  0.46999998093E+01 0.  1.
</event>
<event>
 5   0  0.9268670E-07  0.2862773E+04  0.7818609E-02  0.8284041E-01
        1   -1    0    0  501    0  0.00000000000E+00  0.00000000000E+00  0.11412911822E+04  0.11412911822E+04  0.50400001928E-02 0.  1.
       -1   -1    0    0    0  501  0.00000000000E+00  0.00000000000E+00 -0.17952181169E+04  0.17952181169E+04  0.50400001928E-02 0. -1.
    10030    2    1    2    0    0  0.00000000000E+00  0.00000000000E+00 -0.65392693468E+03  0.29365092991E+04  0.28627725072E+04 0.  0.
        3    1    3    3  502    0  0.12685909879E+04  0.28832537905E+03  0.28541609507E+03  0.13318847459E+04  0.10100000352E+00 0.  1.
       -3    1    3    3    0  502 -0.12685909879E+04 -0.28832537905E+03 -0.93934302975E+03  0.16046245532E+04  0.10100000352E+00 0. -1.
</event>
<event>
 5   0  0.2705859E-06  0.3398825E+04  0.7818609E-02  0.8138195E-01
       -2   -1    0    0    0  501  0.00000000000E+00  0.00000000000E+00  0.14129496275E+04  0.14129496275E+04  0.25500000920E-02 0. -1.
        2   -1    0    0  501    0  0.00000000000E+00  0.00000000000E+00 -0.20439535361E+04  0.20439535361E+04  0.25500000920E-02 0.  1.
    10030    2    1    2    0    0  0.00000000000E+00  0.00000000000E+00 -0.63100390860E+03  0.34569031636E+04  0.33988253191E+04 0.  0.
        1    1    3    3  502    0 -0.10383588880E+04  0.89346826111E+03 -0.13384356116E+04  0.19151722117E+04  0.50400001928E-02 0.  1.
       -1    1    3    3    0  502  0.10383588880E+04 -0.89346826111E+03  0.70743170301E+03  0.15417309520E+04  0.50400001928E-02 0. -1.
</event>
<event>
 5   0  0.8705956E-07  0.3297700E+04  0.7818609E-02  0.8163481E-01
       -1   -1    0    0    0  501  0.00000000000E+00  0.00000000000E+00  0.14784558569E+04  0.14784558570E+04  0.50400001928E-02 0. -1.
        1   -1    0    0  501    0  0.00000000000E+00  0.00000000000E+00 -0.18388818279E+04  0.18388818279E+04  0.50400001928E-02 0.  1.
    10030    2    1    2    0    0  0.00000000000E+00  0.00000000000E+00 -0.36042597094E+03  0.33173376848E+04  0.32976995671E+04 0.  0.
        2    1    3    3  502    0  0.12233904261E+04 -0.95157285240E+03 -0.74617389024E+03  0.17201600224E+04  0.25500000920E-02 0. -1.
       -2    1    3    3    0  502 -0.12233904261E+04  0.95157285240E+03  0.38574791930E+03  0.15971776624E+04  0.25500000920E-02 0.  1.
</event>
<event>
 5   0  0.9268670E-07  0.3113773E+04  0.7818609E-02  0.8211968E-01
        1   -1    0    0  501    0  0.00000000000E+00  0.00000000000E+00  0.22771593174E+04  0.22771593174E+04  0.50400001928E-02 0.  1.
       -1   -1    0    0    0  501  0.00000000000E+00  0.00000000000E+00 -0.10644382536E+04  0.10644382536E+04  0.50400001928E-02 0. -1.
    10030    2    1    2    0    0  0.00000000000E+00  0.00000000000E+00  0.12127210638E+04  0.33415975710E+04  0.31137729441E+04 0.  0.
        3    1    3    3  502    0  0.47182013002E+03 -0.10715968324E+04  0.17075788978E+04  0.20704491562E+04  0.10100000352E+00 0.  1.
       -3    1    3    3    0  502 -0.47182013002E+03  0.10715968324E+04 -0.49485783393E+03  0.12711484147E+04  0.10100000352E+00 0. -1.
</event>
<event>
 5   0  0.8705956E-07  0.3318618E+04  0.7818609E-02  0.8158174E-01
        1   -1    0    0  501    0  0.00000000000E+00  0.00000000000E+00  0.20708496888E+04  0.20708496888E+04  0.50400001928E-02 0. -1.
       -1   -1    0    0    0  501  0.00000000000E+00  0.00000000000E+00 -0.13295538847E+04  0.13295538847E+04  0.50400001928E-02 0.  1.
    10030    2    1    2    0    0  0.00000000000E+00  0.00000000000E+00  0.74129580410E+03  0.34004035734E+04  0.33186179342E+04 0.  0.
        2    1    3    3  502    0  0.74866615574E+03 -0.14807694957E+04  0.38219215079E+03  0.17027184595E+04  0.25500000920E-02 0. -1.
       -2    1    3    3    0  502 -0.74866615574E+03  0.14807694957E+04  0.35910365331E+03  0.16976851139E+04  0.25500000920E-02 0.  1.
</event>
<event>
 5   0  0.9268670E-07  0.3279681E+04  0.7818609E-02  0.8168085E-01
       -1   -1    0    0    0  501  0.00000000000E+00  0.00000000000E+00  0.13369641333E+04  0.13369641333E+04  0.50400001928E-02 0. -1.
        1   -1    0    0  501    0  0.00000000000E+00  0.00000000000E+00 -0.20113307762E+04  0.20113307762E+04  0.50400001928E-02 0.  1.
    10030    2    1    2    0    0  0.00000000000E+00  0.00000000000E+00 -0.67436664289E+03  0.33482949096E+04  0.32796811480E+04 0.  0.
        3    1    3    3  502    0  0.93889834947E+03  0.75426547382E+03 -0.14734047575E+04  0.19029892552E+04  0.10100000352E+00 0.  1.
       -3    1    3    3    0  502 -0.93889834947E+03 -0.75426547382E+03  0.79903811465E+03  0.14453056544E+04  0.10100000352E+00 0. -1.
</event>
<event>
 5   0  0.2658600E-06  0.3288125E+04  0.7818609E-02  0.8165924E-01
       -2   -1    0    0    0  501  0.00000000000E+00  0.00000000000E+00  0.17685947258E+04  0.17685947258E+04  0.25500000920E-02 0.  1.
        2   -1    0    0  501    0  0.00000000000E+00  0.00000000000E+00 -0.15282985914E+04  0.15282985914E+04  0.25500000920E-02 0. -1.
    10030    2    1    2    0    0  0.00000000000E+00  0.00000000000E+00  0.24029613442E+03  0.32968933172E+04  0.32881245890E+04 0.  0.
        5    1    3    3  502    0 -0.83490218515E+03 -0.10126364852E+04  0.11129524625E+04  0.17208078288E+04  0.46999998093E+01 0.  1.
       -5    1    3    3    0  502  0.83490218515E+03  0.10126364852E+04 -0.87265632804E+03  0.15760854884E+04  0.46999998093E+01 0. -1.
</event>
<event>
 5   0  0.2705859E-06  0.3033801E+04  0.7818609E-02  0.8234144E-01
        2   -1    0    0  501    0  0.00000000000E+00  0.00000000000E+00  0.21056917591E+04  0.21056917591E+04  0.25500000920E-02 0.  1.
       -2   -1    0    0    0  501  0.00000000000E+00  0.00000000000E+00 -0.10927467423E+04  0.10927467423E+04  0.25500000920E-02 0. -1.
    10030    2    1    2    0    0  0.00000000000E+00  0.00000000000E+00  0.10129450168E+04  0.31984385015E+04  0.30338014504E+04 0.  0.
        1    1    3    3  502    0  0.45774548615E+03  0.11858312920E+04  0.13792004213E+04  0.18756120561E+04  0.50400001928E-02 0.  1.
       -1    1    3    3    0  502 -0.45774548615E+03 -0.11858312920E+04 -0.36625540447E+03  0.13228264453E+04  0.50400001928E-02 0. -1.
</event>
<event>
 5   0  0.8845526E-07  0.3249902E+04  0.7818609E-02  0.8175761E-01
        1   -1    0    0  501    0  0.00000000000E+00  0.00000000000E+00  0.21474592051E+04  0.21474592051E+04  0.50400001928E-02 0.  1.
       -1   -1    0    0    0  501  0.00000000000E+00  0.00000000000E+00 -0.12295769316E+04  0.12295769316E+04  0.50400001928E-02 0. -1.
    10030    2    1    2    0    0  0.00000000000E+00  0.00000000000E+00  0.91788227348E+03  0.33770361367E+04  0.32499023371E+04 0.  0.
        1    1    3    3  502    0 -0.14873393267E+03  0.10591707749E+04  0.17301122572E+04  0.20340238287E+04  0.50400001928E-02 0.  1.
       -1    1    3    3    0  502  0.14873393267E+03 -0.10591707749E+04 -0.81222998368E+03  0.13430123080E+04  0.50400001928E-02 0. -1.
</event>
<event>
 5   0  0.2614212E-06  0.3243995E+04  0.7818609E-02  0.8177294E-01
        2   -1    0    0  501    0  0.00000000000E+00  0.00000000000E+00  0.24224591334E+04  0.24224591334E+04  0.25500000920E-02 0.  1.
       -2   -1    0    0    0  501  0.00000000000E+00  0.00000000000E+00 -0.10860349389E+04  0.10860349389E+04  0.25500000920E-02 0. -1.
    10030    2    1    2    0    0  0.00000000000E+00  0.00000000000E+00  0.13364241945E+04  0.35084940722E+04  0.32439946096E+04 0.  0.
        2    1    3    3  502    0  0.11137545890E+04  0.22024709299E+03 -0.58465060763E+03  0.12770177757E+04  0.25500000920E-02 0. -1.
       -2    1    3    3    0  502 -0.11137545890E+04 -0.22024709299E+03  0.19210748021E+04  0.22314762965E+04  0.25500000920E-02 0.  1.
</event>
<event>
 5   0  0.2658600E-06  0.3289852E+04  0.7818609E-02  0.8165482E-01
        2   -1    0    0  501    0  0.00000000000E+00  0.00000000000E+00  0.25666907868E+04  0.25666907868E+04  0.25500000920E-02 0.  1.
       -2   -1    0    0    0  501  0.00000000000E+00  0.00000000000E+00 -0.10541906644E+04  0.10541906644E+04  0.25500000920E-02 0. -1.
    10030    2    1    2    0    0  0.00000000000E+00  0.00000000000E+00  0.15125001223E+04  0.36208814512E+04  0.32898519517E+04 0.  0.
        5    1    3    3  502    0 -0.19109493940E+03 -0.27233900452E+03  0.25292666077E+04  0.25510581083E+04  0.46999998093E+01 0.  1.
       -5    1    3    3    0  502  0.19109493940E+03  0.27233900452E+03 -0.10167664854E+04  0.10698233429E+04  0.46999998093E+01 0. -1.
</event>
<event>
 5   0  0.8705956E-07  0.3300300E+04  0.7818609E-02  0.8162819E-01
       -1   -1    0    0    0  501  0.00000000000E+00  0.00000000000E+00  0.12386039246E+04  0.12386039246E+04  0.50400001928E-02 0. -1.
        1   -1    0    0  501    0  0.00000000000E+00  0.00000000000E+00 -0.21984390554E+04  0.21984390554E+04  0.50400001928E-02 0.  1.
    10030    2    1    2    0    0  0.00000000000E+00  0.00000000000E+00 -0.95983513078E+03  0.34370429799E+04  0.33003001330E+04 0.  0.
        2    1    3    3  502    0 -0.15740288776E+04  0.40017250885E+03 -0.17577210345E+03  0.16335852524E+04  0.25500000920E-02 0. -1.
       -2    1    3    3    0  502  0.15740288776E+04 -0.40017250885E+03 -0.78406302733E+03  0.18034577276E+04  0.25500000920E-02 0.  1.
</event>
<event>
 5   0  0.2614212E-06  0.3598064E+04  0.7818609E-02  0.8090935E-01
        2   -1    0    0  501    0  0.00000000000E+00  0.00000000000E+00  0.31503764536E+04  0.31503764536E+04  0.25500000920E-02 0.  1.
       -2   -1    0    0    0  501  0.00000000000E+00  0.00000000000E+00 -0.10273424842E+04  0.10273424842E+04  0.25500000920E-02 0. -1.
    10030    2    1    2    0    0  0.00000000000E+00  0.00000000000E+00  0.21230339694E+04  0.41777189378E+04  0.35980636859E+04 0.  0.
        2    1    3    3  502    0  0.93882313066E+03  0.13549226915E+04  0.18982448218E+04  0.25140679733E+04  0.25500000920E-02 0.  1.
       -2    1    3    3    0  502 -0.93882313066E+03 -0.13549226915E+04  0.22478914759E+03  0.16636509645E+04  0.25500000920E-02 0. -1.
</event>
<event>
 5   0  0.2674551E-06  0.2893479E+04  0.7818609E-02  0.8274820E-01
        2   -1    0    0  501    0  0.00000000000E+00  0.00000000000E+00  0.17558361662E+04  0.17558361662E+04  0.25500000920E-02 0. -1.
       -2   -1    0    0    0  501  0.00000000000E+00  0.00000000000E+00 -0.11920559982E+04  0.11920559982E+04  0.25500000920E-02 0.  1.
    10030    2    1    2    0    0  0.00000000000E+00  0.00000000000E+00  0.56378016798E+03  0.29478921644E+04  0.28934788983E+04 0.  0.
        3    1    3    3  502    0 -0.11367530675E+04  0.84847811775E+03  0.57172613557E+03  0.15293768133E+04  0.10100000352E+00 0. -1.
       -3    1    3    3    0  502  0.11367530675E+04 -0.84847811775E+03 -0.79459675937E+01  0.14185153511E+04  0.10100000352E+00 0.  1.
</event>
<event>
 5   0  0.8520125E-07  0.3319550E+04  0.7818609E-02  0.8157939E-01
        3   -1    0    0  501    0  0.00000000000E+00  0.00000000000E+00  0.19645878161E+04  0.19645878187E+04  0.10100000352E+00 0.  1.
       -3   -1    0    0    0  501  0.00000000000E+00  0.00000000000E+00 -0.14022552491E+04  0.14022552527E+04  0.10100000352E+00 0. -1.
    10030    2    1    2    0    0  0.00000000000E+00  0.00000000000E+00  0.56233256704E+03  0.33668430715E+04  0.33195503238E+04 0.  0.
        5    1    3    3  502    0 -0.57274142305E+03 -0.48500463214E+03  0.17826520456E+04  0.19342007746E+04  0.46999998093E+01 0.  1.
       -5    1    3    3    0  502  0.57274142305E+03  0.48500463214E+03 -0.12203194786E+04  0.14326422968E+04  0.46999998093E+01 0. -1.
</event>
<event>
 5   0  0.9530268E-07  0.3287058E+04  0.7818609E-02  0.8166196E-01
       -1   -1    0    0    0  501  0.00000000000E+00  0.00000000000E+00  0.11649773991E+04  0.11649773991E+04  0.50400001928E-02 0. -1.
        1   -1    0    0  501    0  0.00000000000E+00  0.00000000000E+00 -0.23186602348E+04  0.23186602348E+04  0.50400001928E-02 0.  1.
    10030    2    1    2    0    0  0.00000000000E+00  0.00000000000E+00 -0.11536828358E+04  0.34836376339E+04  0.32870575107E+04 0.  0.
        5    1    3    3  502    0 -0.91658265655E+03 -0.13335386661E+04 -0.27203842684E+03  0.16408766364E+04  0.46999998093E+01 0.  1.
       -5    1    3    3    0  502  0.91658265655E+03  0.13335386661E+04 -0.88164440893E+03  0.18427609975E+04  0.46999998093E+01 0. -1.
</event>
<event>
 5   0  0.2705859E-06  0.2925946E+04  0.7818609E-02  0.8265199E-01
       -2   -1    0    0    0  501  0.00000000000E+00  0.00000000000E+00  0.10951450964E+04  0.10951450964E+04  0.25500000920E-02 0.  1.
        2   -1    0    0  501    0  0.00000000000E+00  0.00000000000E+00 -0.19543438054E+04  0.19543438054E+04  0.25500000920E-02 0. -1.
    10030    2    1    2    0    0  0.00000000000E+00  0.00000000000E+00 -0.85919870898E+03  0.30494889018E+04  0.29259460249E+04 0.  0.
        1    1    3    3  502    0  0.25815946364E+03 -0.24706396143E+03  0.10489635912E+04  0.11081568144E+04  0.50400001928E-02 0.  1.
       -1    1    3    3    0  502 -0.25815946364E+03  0.24706396143E+03 -0.19081623002E+04  0.19413320874E+04  0.50400001928E-02 0. -1.
</event>
<event>
 5   0  0.9295663E-07  0.3310963E+04  0.7818609E-02  0.8160111E-01
        1   -1    0    0  501    0  0.00000000000E+00  0.00000000000E+00  0.26903558380E+04  0.26903558380E+04  0.50400001928E-02 0. -1.
       -1   -1    0    0    0  501  0.00000000000E+00  0.00000000000E+00 -0.10186828437E+04  0.10186828437E+04  0.50400001928E-02 0.  1.
    10030    2    1    2    0    0  0.00000000000E+00  0.00000000000E+00  0.16716729943E+04  0.37090386817E+04  0.33109632047E+04 0.  0.
        4    1    3    3  502    0  0.56117993446E+03 -0.69155278588E+03 -0.72745554073E+03  0.11499397163E+04  0.12699999809E+01 0.  1.
       -4    1    3    3    0  502 -0.56117993446E+03  0.69155278588E+03  0.23991285350E+04  0.25590989654E+04  0.12699999809E+01 0. -1.
</event>
<event>
 5   0  0.8705956E-07  0.3322449E+04  0.7818609E-02  0.8157207E-01
        1   -1    0    0  501    0  0.00000000000E+00  0.00000000000E+00  0.16434140525E+04  0.16434140525E+04  0.50400001928E-02 0.  1.
       -1   -1    0    0    0  501  0.00000000000E+00  0.00000000000E+00 -0.16792274768E+04  0.16792274768E+04  0.50400001928E-02 0. -1.
    10030    2    1    2    0    0  0.00000000000E+00  0.00000000000E+00 -0.35813424259E+02  0.33226415293E+04  0.33224485144E+04 0.  0.
        2    1    3    3  502    0 -0.91194839847E+03 -0.10380146851E+04 -0.94020844724E+03  0.16712618862E+04  0.25500000920E-02 0. -1.
       -2    1    3    3    0  502  0.91194839847E+03  0.10380146851E+04  0.90439502298E+03  0.16513796431E+04  0.25500000920E-02 0.  1.
</event>
<event>
 5   0  0.2574803E-06  0.3330553E+04  0.7818609E-02  0.8155164E-01
       -2   -1    0    0    0  501  0.00000000000E+00  0.00000000000E+00  0.19563463840E+04  0.19563463840E+04  0.25500000920E-02 0.  1.
        2   -1    0    0  501    0  0.00000000000E+00  0.00000000000E+00 -0.14175130053E+04  0.14175130053E+04  0.25500000920E-02 0. -1.
    10030    2    1    2    0    0  0.00000000000E+00  0.00000000000E+00  0.53883337877E+03  0.33738593893E+04  0.33305533728E+04 0.  0.
        4    1    3    3  502    0 -0.96269348735E+03 -0.49914910402E+03  0.15496597815E+04  0.18913951543E+04  0.12699999809E+01 0.  1.
       -4    1    3    3    0  502  0.96269348735E+03  0.49914910402E+03 -0.10108264027E+04  0.14824642350E+04  0.12699999809E+01 0. -1.
</event>
<event>
 5   0  0.2614212E-06  0.2930662E+04  0.7818609E-02  0.8263813E-01
       -2   -1    0    0    0  501  0.00000000000E+00  0.00000000000E+00  0.98305713593E+03  0.98305713594E+03  0.25500000920E-02 0. -1.
        2   -1    0    0  501    0  0.00000000000E+00  0.00000000000E+00 -0.21842021558E+04  0.21842021558E+04  0.25500000920E-02 0.  1.
    10030    2    1    2    0    0  0.00000000000E+00  0.00000000000E+00 -0.12011450198E+04  0.31672592917E+04  0.29306623931E+04 0.  0.
        2    1    3    3  502    0 -0.82938566203E+03 -0.11971284302E+04 -0.42564596588E+03  0.15172908564E+04  0.25500000920E-02 0. -1.
       -2    1    3    3    0  502  0.82938566203E+03  0.11971284302E+04 -0.77549905395E+03  0.16499684353E+04  0.25500000920E-02 0.  1.
</event>
<event>
 5   0  0.2674551E-06  0.3174806E+04  0.7818609E-02  0.8195503E-01
        2   -1    0    0  501    0  0.00000000000E+00  0.00000000000E+00  0.22538159760E+04  0.22538159760E+04  0.25500000920E-02 0. -1.
       -2   -1    0    0    0  501  0.00000000000E+00  0.00000000000E+00 -0.11180365760E+04  0.11180365760E+04  0.25500000920E-02 0.  1.
    10030    2    1    2    0    0  0.00000000000E+00  0.00000000000E+00  0.11357794000E+04  0.33718525520E+04  0.31748062598E+04 0.  0.
        3    1    3    3  502    0 -0.12742879300E+04 -0.21038914047E+03  0.15480878656E+04  0.20160975594E+04  0.10100000352E+00 0. -1.
       -3    1    3    3    0  502  0.12742879300E+04  0.21038914047E+03 -0.41230846560E+03  0.13557549926E+04  0.10100000352E+00 0.  1.
</event>
<event>
 5   0  0.8705956E-07  0.3278351E+04  0.7818609E-02  0.8168426E-01
       -1   -1    0    0    0  501  0.00000000000E+00  0.00000000000E+00  0.29065168411E+04  0.29065168411E+04  0.50400001928E-02 0.  1.
        1   -1    0    0  501    0  0.00000000000E+00  0.00000000000E+00 -0.92443863372E+03  0.92443863373E+03  0.50400001928E-02 0. -1.
    10030    2    1    2    0    0  0.00000000000E+00  0.00000000000E+00  0.19820782073E+04  0.38309554748E+04  0.32783510840E+04 0.  0.
        2    1    3    3  502    0  0.17862210955E+03 -0.70071872951E+03 -0.72797188222E+03  0.10260875485E+04  0.25500000920E-02 0. -1.
       -2    1    3    3    0  502 -0.17862210955E+03  0.70071872951E+03  0.27100500896E+04  0.28048679263E+04  0.25500000920E-02 0.  1.
</event>
<event>
 5   0  0.2574803E-06  0.2900195E+04  0.7818609E-02  0.8272820E-01
        2   -1    0    0  501    0  0.00000000000E+00  0.00000000000E+00  0.13515181583E+04  0.13515181583E+04  0.25500000920E-02 0.  1.
       -2   -1    0    0    0  501  0.00000000000E+00  0.00000000000E+00 -0.15558667786E+04  0.15558667786E+04  0.25500000920E-02 0. -1.
    10030    2    1    2    0    0  0.00000000000E+00  0.00000000000E+00 -0.20434862032E+03  0.29073849369E+04  0.29001946163E+04 0.  0.
        4    1    3    3  502    0  0.47391683088E+03 -0.11120852596E+04 -0.90506557337E+03  0.15101245287E+04  0.12699999809E+01 0. -1.
       -4    1    3    3    0  502 -0.47391683088E+03  0.11120852596E+04  0.70071695304E+03  0.13972604082E+04  0.12699999809E+01 0.  1.
</event>
<event>
 5   0  0.2674551E-06  0.3214101E+04  0.7818609E-02  0.8185103E-01
        2   -1    0    0  501    0  0.00000000000E+00  0.00000000000E+00  0.23767294175E+04  0.23767294175E+04  0.25500000920E-02 0.  1.
       -2   -1    0    0    0  501  0.00000000000E+00  0.00000000000E+00 -0.10866238132E+04  0.10866238132E+04  0.25500000920E-02 0. -1.
    10030    2    1    2    0    0  0.00000000000E+00  0.00000000000E+00  0.12901056043E+04  0.34633532307E+04  0.32141006721E+04 0.  0.
        3    1    3    3  502    0 -0.14098550340E+04 -0.39793821605E+03 -0.66917102525E+02  0.14664664843E+04  0.10100000352E+00 0. -1.
       -3    1    3    3    0  502  0.14098550340E+04  0.39793821605E+03  0.13570227068E+04  0.19968867464E+04  0.10100000352E+00 0.  1.
</event>
<event>
 5   0  0.9268670E-07  0.2853708E+04  0.7818609E-02  0.8286785E-01
       -1   -1    0    0    0  501  0.00000000000E+00  0.00000000000E+00  0.13190088199E+04  0.13190088199E+04  0.50400001928E-02 0. -1.
        1   -1    0    0  501    0  0.00000000000E+00  0.00000000000E+00 -0.15435172708E+04  0.15435172708E+04  0.50400001928E-02 0.  1.
    10030    2    1    2    0    0  0.00000000000E+00  0.00000000000E+00 -0.22450845093E+03  0.28625260907E+04  0.28537083901E+04 0.  0.
        3    1    3    3  502    0  0.86682566630E+03 -0.52769230374E+03 -0.11183823971E+04  0.15101738640E+04  0.10100000352E+00 0.  1.
       -3    1    3    3    0  502 -0.86682566630E+03  0.52769230374E+03  0.89387394619E+03  0.13523522267E+04  0.10100000352E+00 0. -1.
</event>
<event>
 5   0  0.2674551E-06  0.3260768E+04  0.7818609E-02  0.8172950E-01
        2   -1    0    0  501    0  0.00000000000E+00  0.00000000000E+00  0.14507318392E+04  0.14507318392E+04  0.25500000920E-02 0.  1.
       -2   -1    0    0    0  501  0.00000000000E+00  0.00000000000E+00 -0.18322832346E+04  0.18322832346E+04  0.25500000920E-02 0. -1.
    10030    2    1    2    0    0  0.00000000000E+00  0.00000000000E+00 -0.38155139535E+03  0.32830150738E+04  0.32607677789E+04 0.  0.
        3    1    3    3  502    0 -0.32221153805E+03  0.12046601235E+04 -0.12482393148E+04  0.17644057599E+04  0.10100000352E+00 0. -1.
       -3    1    3    3    0  502  0.32221153805E+03 -0.12046601235E+04  0.86668791949E+03  0.15186093139E+04  0.10100000352E+00 0.  1.
</event>
<event>
 5   0  0.8705956E-07  0.3255493E+04  0.7818609E-02  0.8174313E-01
        1   -1    0    0  501    0  0.00000000000E+00  0.00000000000E+00  0.22906426439E+04  0.22906426439E+04  0.50400001928E-02 0. -1.
       -1   -1    0    0    0  501  0.00000000000E+00  0.00000000000E+00 -0.11566879898E+04  0.11566879898E+04  0.50400001928E-02 0.  1.
    10030    2    1    2    0    0  0.00000000000E+00  0.00000000000E+00  0.11339546541E+04  0.34473306337E+04  0.32554931025E+04 0.  0.
        2    1    3    3  502    0  0.13243924748E+04  0.45299469517E+02 -0.43397026490E+03  0.13944166021E+04  0.25500000920E-02 0.  1.
       -2    1    3    3    0  502 -0.13243924748E+04 -0.45299469517E+02  0.15679249190E+04  0.20529140316E+04  0.25500000920E-02 0. -1.
</event>
<event>
 5   0  0.8845526E-07  0.3299490E+04  0.7818609E-02  0.8163025E-01
        1   -1    0    0  501    0  0.00000000000E+00  0.00000000000E+00  0.31550392049E+04  0.31550392049E+04  0.50400001928E-02 0. -1.
       -1   -1    0    0    0  501  0.00000000000E+00  0.00000000000E+00 -0.86263872043E+03  0.86263872045E+03  0.50400001928E-02 0.  1.
    10030    2    1    2    0    0  0.00000000000E+00  0.00000000000E+00  0.22924004844E+04  0.40176779253E+04  0.32994902531E+04 0.  0.
        1    1    3    3  502    0 -0.94865905327E+03 -0.63803981079E+03 -0.30206016860E+03  0.11824927674E+04  0.50400001928E-02 0.  1.
       -1    1    3    3    0  502  0.94865905327E+03  0.63803981079E+03  0.25944606530E+04  0.28351851579E+04  0.50400001928E-02 0. -1.
</event>
<event>
 5   0  0.2574803E-06  0.2785701E+04  0.7818609E-02  0.8307721E-01
       -2   -1    0    0    0  501  0.00000000000E+00  0.00000000000E+00  0.79969168631E+03  0.79969168632E+03  0.25500000920E-02 0. -1.
        2   -1    0    0  501    0  0.00000000000E+00  0.00000000000E+00 -0.24259764110E+04  0.24259764110E+04  0.25500000920E-02 0.  1.
    10030    2    1    2    0    0  0.00000000000E+00  0.00000000000E+00 -0.16262847247E+04  0.32256680973E+04  0.27857014679E+04 0.  0.
        4    1    3    3  502    0 -0.58722861333E+03 -0.60657774255E+03 -0.20959246733E+04  0.22595742632E+04  0.12699999809E+01 0.  1.
       -4    1    3    3    0  502  0.58722861333E+03  0.60657774255E+03  0.46963994859E+03  0.96609383410E+03  0.12699999809E+01 0. -1.
</event>
<event>
 5   0  0.2574803E-06  0.3541635E+04  0.7818609E-02  0.8103993E-01
       -2   -1    0    0    0  501  0.00000000000E+00  0.00000000000E+00  0.12684703525E+04  0.12684703525E+04  0.25500000920E-02 0.  1.
        2   -1    0    0  501    0  0.00000000000E+00  0.00000000000E+00 -0.24721073274E+04  0.24721073274E+04  0.25500000920E-02 0. -1.
    10030    2    1    2    0    0  0.00000000000E+00  0.00000000000E+00 -0.12036369748E+04  0.37405776799E+04  0.35416351326E+04 0.  0.
        4    1    3    3  502    0 -0.37784497595E+03  0.70001758328E+03  0.10691391577E+04  0.13326108188E+04  0.12699999809E+01 0.  1.
       -4    1    3    3    0  502  0.37784497595E+03 -0.70001758328E+03 -0.22727761326E+04  0.24079668612E+04  0.12699999809E+01 0. -1.
</event>
<event>
 5   0  0.2574803E-06  0.2947510E+04  0.7818609E-02  0.8258881E-01
       -2   -1    0    0    0  501  0.00000000000E+00  0.00000000000E+00  0.13684957599E+04  0.13684957599E+04  0.25500000920E-02 0. -1.
        2   -1    0    0  501    0  0.00000000000E+00  0.00000000000E+00 -0.15871104198E+04  0.15871104198E+04  0.25500000920E-02 0.  1.
    10030    2    1    2    0    0  0.00000000000E+00  0.00000000000E+00 -0.21861465987E+03  0.29556061797E+04  0.29475100542E+04 0.  0.
        4    1    3    3  502    0  0.66239745344E+02  0.55886785143E+03  0.12565027095E+04  0.13767794490E+04  0.12699999809E+01 0. -1.
       -4    1    3    3    0  502 -0.66239745344E+02 -0.55886785143E+03 -0.14751173694E+04  0.15788267307E+04  0.12699999809E+01 0.  1.
</event>
<event>
 5   0  0.8845526E-07  0.3285407E+04  0.7818609E-02  0.8166619E-01
        1   -1    0    0  501    0  0.00000000000E+00  0.00000000000E+00  0.17108170930E+04  0.17108170930E+04  0.50400001928E-02 0. -1.
       -1   -1    0    0    0  501  0.00000000000E+00  0.00000000000E+00 -0.15773016311E+04  0.15773016311E+04  0.50400001928E-02 0.  1.
    10030    2    1    2    0    0  0.00000000000E+00  0.00000000000E+00  0.13351546196E+03  0.32881187241E+04  0.32854068797E+04 0.  0.
        1    1    3    3  502    0 -0.42674188808E+03 -0.13673334034E+04  0.87163875602E+03  0.16767418991E+04  0.50400001928E-02 0. -1.
       -1    1    3    3    0  502  0.42674188808E+03  0.13673334034E+04 -0.73812329406E+03  0.16113768251E+04  0.50400001928E-02 0.  1.
</event>
<event>
 5   0  0.2674551E-06  0.3265090E+04  0.7818609E-02  0.8171836E-01
        2   -1    0    0  501    0  0.00000000000E+00  0.00000000000E+00  0.16930383804E+04  0.16930383804E+04  0.25500000920E-02 0.  1.
       -2   -1    0    0    0  501  0.00000000000E+00  0.00000000000E+00 -0.15742127014E+04  0.15742127014E+04  0.25500000920E-02 0. -1.
    10030    2    1    2    0    0  0.00000000000E+00  0.00000000000E+00  0.11882567904E+03  0.32672510818E+04  0.32650895990E+04 0.  0.
        3    1    3    3  502    0  0.50769044417E+03  0.97631689355E+02 -0.14901344708E+04  0.15772705174E+04  0.10100000352E+00 0. -1.
       -3    1    3    3    0  502 -0.50769044417E+03 -0.97631689355E+02  0.16089601499E+04  0.16899805644E+04  0.10100000352E+00 0.  1.
</event>
<event>
 5   0  0.2705859E-06  0.3253461E+04  0.7818609E-02  0.8174839E-01
       -2   -1    0    0    0  501  0.00000000000E+00  0.00000000000E+00  0.19555268537E+04  0.19555268537E+04  0.25500000920E-02 0.  1.
        2   -1    0    0  501    0  0.00000000000E+00  0.00000000000E+00 -0.13532168525E+04  0.13532168525E+04  0.25500000920E-02 0. -1.
    10030    2    1    2    0    0  0.00000000000E+00  0.00000000000E+00  0.60231000116E+03  0.33087437062E+04  0.32534608613E+04 0.  0.
        1    1    3    3  502    0  0.86689750403E+03  0.13465202110E+04  0.59170862672E+03  0.17072630319E+04  0.50400001928E-02 0.  1.
       -1    1    3    3    0  502 -0.86689750403E+03 -0.13465202110E+04  0.10601374442E+02  0.16014806743E+04  0.50400001928E-02 0. -1.
</event>
<event>
 5   0  0.8705956E-07  0.3301061E+04  0.7818609E-02  0.8162625E-01
        1   -1    0    0  501    0  0.00000000000E+00  0.00000000000E+00  0.21683086498E+04  0.21683086498E+04  0.50400001928E-02 0. -1.
       -1   -1    0    0    0  501  0.00000000000E+00  0.00000000000E+00 -0.12563946451E+04  0.12563946451E+04  0.50400001928E-02 0.  1.
    10030    2    1    2    0    0  0.00000000000E+00  0.00000000000E+00  0.91191400474E+03  0.34247032949E+04  0.33010612697E+04 0.  0.
        2    1    3    3  502    0  0.12264131772E+04 -0.38135208746E+03 -0.61956572982E+03  0.14259664755E+04  0.25500000920E-02 0.  1.
       -2    1    3    3    0  502 -0.12264131772E+04  0.38135208746E+03  0.15314797346E+04  0.19987368194E+04  0.25500000920E-02 0. -1.
</event>
<event>
 5   0  0.8845526E-07  0.3038831E+04  0.7818609E-02  0.8232729E-01
        1   -1    0    0  501    0  0.00000000000E+00  0.00000000000E+00  0.22129910286E+04  0.22129910286E+04  0.50400001928E-02 0. -1.
       -1   -1    0    0    0  501  0.00000000000E+00  0.00000000000E+00 -0.10432138309E+04  0.10432138310E+04  0.50400001928E-02 0.  1.
    10030    2    1    2    0    0  0.00000000000E+00  0.00000000000E+00  0.11697771976E+04  0.32562048595E+04  0.30388305967E+04 0.  0.
        1    1    3    3  502    0  0.33026839409E+03 -0.14114306378E+04  0.10728879320E+04  0.18034140324E+04  0.50400001928E-02 0. -1.
       -1    1    3    3    0  502 -0.33026839409E+03  0.14114306378E+04  0.96889265605E+02  0.14527908271E+04  0.50400001928E-02 0.  1.
</event>
<event>
 5   0  0.8705956E-07  0.3272797E+04  0.7818609E-02  0.8169852E-01
       -1   -1    0    0    0  501  0.00000000000E+00  0.00000000000E+00  0.20761351697E+04  0.20761351698E+04  0.50400001928E-02 0. -1.
        1   -1    0    0  501    0  0.00000000000E+00  0.00000000000E+00 -0.12898001724E+04  0.12898001724E+04  0.50400001928E-02 0.  1.
    10030    2    1    2    0    0  0.00000000000E+00  0.00000000000E+00  0.78633499734E+03  0.33659353422E+04  0.32727966633E+04 0.  0.
        2    1    3    3  502    0  0.98193522339E+03  0.53454723355E+03  0.16221051756E+04  0.19700666812E+04  0.25500000920E-02 0.  1.
       -2    1    3    3    0  502 -0.98193522339E+03 -0.53454723355E+03 -0.83577017822E+03  0.13958686610E+04  0.25500000920E-02 0. -1.
</event>
<event>
 5   0  0.2674551E-06  0.3305840E+04  0.7818609E-02  0.8161411E-01
        2   -1    0    0  501    0  0.00000000000E+00  0.00000000000E+00  0.27482246343E+04  0.27482246343E+04  0.25500000920E-02 0.  1.
       -2   -1    0    0    0  501  0.00000000000E+00  0.00000000000E+00 -0.99414870505E+03  0.99414870505E+03  0.25500000920E-02 0. -1.
    10030    2    1    2    0    0  0.00000000000E+00  0.00000000000E+00  0.17540759292E+04  0.37423733393E+04  0.33058396581E+04 0.  0.
        3    1    3    3  502    0  0.87539936567E+03  0.87202390467E+03  0.21199199005E+04  0.24537339168E+04  0.10100000352E+00 0.  1.
       -3    1    3    3    0  502 -0.87539936567E+03 -0.87202390467E+03 -0.36584397128E+03  0.12886394225E+04  0.10100000352E+00 0. -1.
</event>
<event>
 5   0  0.8705956E-07  0.2930949E+04  0.7818609E-02  0.8263728E-01
        1   -1    0    0  501    0  0.00000000000E+00  0.00000000000E+00  0.16152262546E+04  0.16152262546E+04  0.50400001928E-02 0.  1.
       -1   -1    0    0    0  501  0.00000000000E+00  0.00000000000E+00 -0.13296064344E+04  0.13296064344E+04  0.50400001928E-02 0. -1.
    10030    2    1    2    0    0  0.00000000000E+00  0.00000000000E+00  0.28561982016E+03  0.29448326890E+04  0.29309488028E+04 0.  0.
        2    1    3    3  502    0 -0.11741359478E+04 -0.17199078827E+03  0.10067897685E+04  0.15562138970E+04  0.25500000920E-02 0.  1.
       -2    1    3    3    0  502  0.11741359478E+04  0.17199078827E+03 -0.72116994834E+03  0.13886187920E+04  0.25500000920E-02 0. -1.
</event>
<event>
 5   0  0.2614212E-06  0.2694966E+04  0.7818609E-02  0.8336640E-01
        2   -1    0    0  501    0  0.00000000000E+00  0.00000000000E+00  0.19286017414E+04  0.19286017414E+04  0.25500000920E-02 0.  1.
       -2   -1    0    0    0  501  0.00000000000E+00  0.00000000000E+00 -0.94146443831E+03  0.94146443832E+03  0.25500000920E-02 0. -1.
    10030    2    1    2    0    0  0.00000000000E+00  0.00000000000E+00  0.98713730313E+03  0.28700661798E+04  0.26949656437E+04 0.  0.
        2    1    3    3  502    0  0.19233719843E+02  0.65236836005E+03 -0.76190581714E+03  0.10032222522E+04  0.25500000920E-02 0. -1.
       -2    1    3    3    0  502 -0.19233719843E+02 -0.65236836005E+03  0.17490431203E+04  0.18668439275E+04  0.25500000920E-02 0.  1.
</event>
<event>
 5   0  0.9268670E-07  0.3310404E+04  0.7818609E-02  0.8160253E-01
       -1   -1    0    0    0  501  0.00000000000E+00  0.00000000000E+00  0.14454490392E+04  0.14454490392E+04  0.50400001928E-02 0.  1.
        1   -1    0    0  501    0  0.00000000000E+00  0.00000000000E+00 -0.18953928198E+04  0.18953928198E+04  0.50400001928E-02 0. -1.
    10030    2    1    2    0    0  0.00000000000E+00  0.00000000000E+00 -0.44994378056E+03  0.33408418590E+04  0.33104040420E+04 0.  0.
        3    1    3    3  502    0 -0.14872683151E+04 -0.50225868983E+03 -0.75464321620E+03  0.17417569367E+04  0.10100000352E+00 0. -1.
       -3    1    3    3    0  502  0.14872683151E+04  0.50225868983E+03  0.30469943564E+03  0.15990849223E+04  0.10100000352E+00 0.  1.
</event>
<event>
 5   0  0.8845526E-07  0.2734303E+04  0.7818609E-02  0.8323960E-01
        1   -1    0    0  501    0  0.00000000000E+00  0.00000000000E+00  0.16014369583E+04  0.16014369583E+04  0.50400001928E-02 0.  1.
       -1   -1    0    0    0  501  0.00000000000E+00  0.00000000000E+00 -0.11671415028E+04  0.11671415028E+04  0.50400001928E-02 0. -1.
    10030    2    1    2    0    0  0.00000000000E+00  0.00000000000E+00  0.43429545553E+03  0.27685784612E+04  0.27343032299E+04 0.  0.
        1    1    3    3  502    0 -0.61663350635E+03  0.66986851454E+03 -0.81551059667E+03  0.12223003891E+04  0.50400001928E-02 0. -1.
       -1    1    3    3    0  502  0.61663350635E+03 -0.66986851454E+03  0.12498060522E+04  0.15462780720E+04  0.50400001928E-02 0.  1.
</event>
<event>
 5   0  0.2574803E-06  0.3304679E+04  0.7818609E-02  0.8161706E-01
        2   -1    0    0  501    0  0.00000000000E+00  0.00000000000E+00  0.22384415689E+04  0.22384415689E+04  0.25500000920E-02 0.  1.
       -2   -1    0    0    0  501  0.00000000000E+00  0.00000000000E+00 -0.12196994508E+04  0.12196994508E+04  0.25500000920E-02 0. -1.
    10030    2    1    2    0    0  0.00000000000E+00  0.00000000000E+00  0.10187421180E+04  0.34581410197E+04  0.33046790780E+04 0.  0.
        4    1    3    3  502    0 -0.14329438954E+03  0.13934089513E+04  0.14264844029E+04  0.19992451456E+04  0.12699999809E+01 0.  1.
       -4    1    3    3    0  502  0.14329438954E+03 -0.13934089513E+04 -0.40774228481E+03  0.14588958741E+04  0.12699999809E+01 0. -1.
</event>
<event>
 5   0  0.2658600E-06  0.3320747E+04  0.7818609E-02  0.8157636E-01
        2   -1    0    0  501    0  0.00000000000E+00  0.00000000000E+00  0.25704357149E+04  0.25704357149E+04  0.25500000920E-02 0.  1.
       -2   -1    0    0    0  501  0.00000000000E+00  0.00000000000E+00 -0.10725186047E+04  0.10725186047E+04  0.25500000920E-02 0. -1.
    10030    2    1    2    0    0  0.00000000000E+00  0.00000000000E+00  0.14979171102E+04  0.36429543196E+04  0.33207469800E+04 0.  0.
        5    1    3    3  502    0  0.79299963473E+03  0.51705393332E+03 -0.74744023066E+03  0.12061849688E+04  0.46999998093E+01 0. -1.
       -5    1    3    3    0  502 -0.79299963473E+03 -0.51705393332E+03  0.22453573408E+04  0.24367693507E+04  0.46999998093E+01 0.  1.
</event>
<event>
 5   0  0.8705956E-07  0.3361525E+04  0.7818609E-02  0.8147414E-01
        1   -1    0    0  501    0  0.00000000000E+00  0.00000000000E+00  0.18952635900E+04  0.18952635900E+04  0.50400001928E-02 0.  1.
       -1   -1    0    0    0  501  0.00000000000E+00  0.00000000000E+00 -0.14905379289E+04  0.14905379290E+04  0.50400001928E-02 0. -1.
    10030    2    1    2    0    0  0.00000000000E+00  0.00000000000E+00  0.40472566109E+03  0.33858015190E+04  0.33615248125E+04 0.  0.
        2    1    3    3  502    0  0.49793362249E+03  0.13276495702E+04 -0.70657948479E+03  0.15842492992E+04  0.25500000920E-02 0. -1.
       -2    1    3    3    0  502 -0.49793362249E+03 -0.13276495702E+04  0.11113051459E+04  0.18015522198E+04  0.25500000920E-02 0.  1.
</event>
<event>
 5   0  0.8705956E-07  0.2719139E+04  0.7818609E-02  0.8328822E-01
        1   -1    0    0  501    0  0.00000000000E+00  0.00000000000E+00  0.20866989865E+04  0.20866989865E+04  0.50400001928E-02 0. -1.
       -1   -1    0    0    0  501  0.00000000000E+00  0.00000000000E+00 -0.88581469208E+03  0.88581469210E+03  0.50400001928E-02 0.  1.
    10030    2    1    2    0    0  0.00000000000E+00  0.00000000000E+00  0.12008842944E+04  0.29725136786E+04  0.27191385549E+04 0.  0.
        2    1    3    3  502    0  0.89417096649E+03 -0.93864920711E+03  0.10482794795E+04  0.16671814294E+04  0.25500000920E-02 0. -1.
       -2    1    3    3    0  502 -0.89417096649E+03  0.93864920711E+03  0.15260481494E+03  0.13053322492E+04  0.25500000920E-02 0.  1.
</event>
<event>
 5   0  0.8845526E-07  0.3269647E+04  0.7818609E-02  0.8170662E-01
        1   -1    0    0  501    0  0.00000000000E+00  0.00000000000E+00  0.21556467454E+04  0.21556467454E+04  0.50400001928E-02 0.  1.
       -1   -1    0    0    0  501  0.00000000000E+00  0.00000000000E+00 -0.12398355666E+04  0.12398355666E+04  0.50400001928E-02 0. -1.
    10030    2    1    2    0    0  0.00000000000E+00  0.00000000000E+00  0.91581117880E+03  0.33954823121E+04  0.32696467724E+04 0.  0.
        1    1    3    3  502    0  0.48787185117E+02 -0.15273681606E+04  0.10611343872E+04  0.18604407744E+04  0.50400001928E-02 0.  1.
       -1    1    3    3    0  502 -0.48787185117E+02  0.15273681606E+04 -0.14532320840E+03  0.15350415377E+04  0.50400001928E-02 0. -1.
</event>
<event>
 5   0  0.9530268E-07  0.3272623E+04  0.7818609E-02  0.8169897E-01
        1   -1    0    0  501    0  0.00000000000E+00  0.00000000000E+00  0.14409601316E+04  0.14409601316E+04  0.50400001928E-02 0. -1.
       -1   -1    0    0    0  501  0.00000000000E+00  0.00000000000E+00 -0.18581466175E+04  0.18581466175E+04  0.50400001928E-02 0.  1.
    10030    2    1    2    0    0  0.00000000000E+00  0.00000000000E+00 -0.41718648587E+03  0.32991067492E+04  0.32726229203E+04 0.  0.
        5    1    3    3  502    0  0.70986082359E+03 -0.13399662936E+04 -0.82845216166E+03  0.17279372475E+04  0.46999998093E+01 0.  1.
       -5    1    3    3    0  502 -0.70986082359E+03  0.13399662936E+04  0.41126567580E+03  0.15711695017E+04  0.46999998093E+01 0. -1.
</event>
<event>
 5   0  0.9268670E-07  0.3382979E+04  0.7818609E-02  0.8142097E-01
       -1   -1    0    0    0  501  0.00000000000E+00  0.00000000000E+00  0.13939100024E+04  0.13939100024E+04  0.50400001928E-02 0. -1.
        1   -1    0    0  501    0  0.00000000000E+00  0.00000000000E+00 -0.20525973885E+04  0.20525973885E+04  0.50400001928E-02 0.  1.
    10030    2    1    2    0    0  0.00000000000E+00  0.00000000000E+00 -0.65868738612E+03  0.34465073910E+04  0.33829785875E+04 0.  0.
        3    1    3    3  502    0  0.12709550797E+03 -0.89397013228E+03 -0.17865182138E+04  0.20017450397E+04  0.10100000352E+00 0.  1.
       -3    1    3    3    0  502 -0.12709550797E+03  0.89397013228E+03  0.11278308277E+04  0.14447623513E+04  0.10100000352E+00 0. -1.
</event>
<event>
 5   0  0.2705859E-06  0.3075839E+04  0.7818609E-02  0.8222400E-01
        2   -1    0    0  501    0  0.00000000000E+00  0.00000000000E+00  0.13671895939E+04  0.13671895939E+04  0.25500000920E-02 0.  1.
       -2   -1    0    0    0  501  0.00000000000E+00  0.00000000000E+00 -0.17299700150E+04  0.17299700150E+04  0.25500000920E-02 0. -1.
    10030    2    1    2    0    0  0.00000000000E+00  0.00000000000E+00 -0.36278042114E+03  0.30971596089E+04  0.30758393991E+04 0.  0.
        1    1    3    3  502    0 -0.48933515186E+03  0.89352734856E+03 -0.13414858695E+04  0.16844655982E+04  0.50400001928E-02 0. -1.
       -1    1    3    3    0  502  0.48933515186E+03 -0.89352734856E+03  0.97870544831E+03  0.14126940108E+04  0.50400001928E-02 0.  1.
</event>
<event>
 5   0  0.9530268E-07  0.3257238E+04  0.7818609E-02  0.8173862E-01
        1   -1    0    0  501    0  0.00000000000E+00  0.00000000000E+00  0.81658410359E+03  0.81658410360E+03  0.50400001928E-02 0. -1.
       -1   -1    0    0    0  501  0.00000000000E+00  0.00000000000E+00 -0.32481640830E+04  0.32481640830E+04  0.50400001928E-02 0.  1.
    10030    2    1    2    0    0  0.00000000000E+00  0.00000000000E+00 -0.24315799794E+04  0.40647481866E+04  0.32572375757E+04 0.  0.
        5    1    3    3  502    0  0.12003721397E+04 -0.28219608251E+03 -0.25434243594E+04  0.28265805251E+04  0.46999998093E+01 0.  1.
       -5    1    3    3    0  502 -0.12003721397E+04  0.28219608251E+03  0.11184438001E+03  0.12381676615E+04  0.46999998093E+01 0. -1.
</event>
<event>
 5   0  0.8845526E-07  0.2730988E+04  0.7818609E-02  0.8325020E-01
        1   -1    0    0  501    0  0.00000000000E+00  0.00000000000E+00  0.10925532156E+04  0.10925532156E+04  0.50400001928E-02 0.  1.
       -1   -1    0    0    0  501  0.00000000000E+00  0.00000000000E+00 -0.17066210303E+04  0.17066210304E+04  0.50400001928E-02 0. -1.
    10030    2    1    2    0    0  0.00000000000E+00  0.00000000000E+00 -0.61406781476E+03  0.27991742460E+04  0.27309883153E+04 0.  0.
        1    1    3    3  502    0 -0.58952087846E+03 -0.72699178938E+03  0.71203450897E+03  0.11760293661E+04  0.50400001928E-02 0.  1.
       -1    1    3    3    0  502  0.58952087846E+03  0.72699178938E+03 -0.13261023237E+04  0.16231448798E+04  0.50400001928E-02 0. -1.
</event>
<event>
 5   0  0.9268670E-07  0.3042763E+04  0.7818609E-02  0.8231624E-01
       -1   -1    0    0    0  501  0.00000000000E+00  0.00000000000E+00  0.84426857664E+03  0.84426857666E+03  0.50400001928E-02 0.  1.
        1   -1    0    0  501    0  0.00000000000E+00  0.00000000000E+00 -0.27415474801E+04  0.27415474801E+04  0.50400001928E-02 0. -1.
    10030    2    1    2    0    0  0.00000000000E+00  0.00000000000E+00 -0.18972789035E+04  0.35858160568E+04  0.30427634735E+04 0.  0.
        3    1    3    3  502    0  0.87795622264E+03  0.22982621022E+03 -0.23876203134E+04  0.25542822841E+04  0.10100000352E+00 0. -1.
       -3    1    3    3    0  502 -0.87795622264E+03 -0.22982621022E+03  0.49034140989E+03  0.10315337727E+04  0.10100000352E+00 0.  1.
</event>
<event>
 5   0  0.9295663E-07  0.3238686E+04  0.7818609E-02  0.8178674E-01
        1   -1    0    0  501    0  0.00000000000E+00  0.00000000000E+00  0.17994594871E+04  0.17994594871E+04  0.50400001928E-02 0.  1.
       -1   -1    0    0    0  501  0.00000000000E+00  0.00000000000E+00 -0.14572549609E+04  0.14572549609E+04  0.50400001928E-02 0. -1.
    10030    2    1    2    0    0  0.00000000000E+00  0.00000000000E+00  0.34220452615E+03  0.32567144480E+04  0.32386856992E+04 0.  0.
        4    1    3    3  502    0 -0.10296605710E+03  0.16085364109E+04  0.14420072149E+02  0.16118935900E+04  0.12699999809E+01 0.  1.
       -4    1    3    3    0  502  0.10296605710E+03 -0.16085364109E+04  0.32778445401E+03  0.16448208581E+04  0.12699999809E+01 0. -1.
</event>
<event>
 5   0  0.9268670E-07  0.3286898E+04  0.7818609E-02  0.8166237E-01
       -1   -1    0    0    0  501  0.00000000000E+00  0.00000000000E+00  0.14792808272E+04  0.14792808273E+04  0.50400001928E-02 0. -1.
        1   -1    0    0  501    0  0.00000000000E+00  0.00000000000E+00 -0.18258364494E+04  0.18258364494E+04  0.50400001928E-02 0.  1.
    10030    2    1    2    0    0  0.00000000000E+00  0.00000000000E+00 -0.34655562211E+03  0.33051172766E+04  0.32868981446E+04 0.  0.
        3    1    3    3  502    0  0.98113866043E+03  0.32012958453E+03  0.11127989803E+04  0.15177080097E+04  0.10100000352E+00 0. -1.
       -3    1    3    3    0  502 -0.98113866043E+03 -0.32012958453E+03 -0.14593546024E+04  0.17874092670E+04  0.10100000352E+00 0.  1.
</event>
<event>
 5   0  0.2705859E-06  0.2402446E+04  0.7818609E-02  0.8438588E-01
        2   -1    0    0  501    0  0.00000000000E+00  0.00000000000E+00  0.10634215281E+04  0.10634215281E+04  0.25500000920E-02 0.  1.
       -2   -1    0    0    0  501  0.00000000000E+00  0.00000000000E+00 -0.13568809884E+04  0.13568809884E+04  0.25500000920E-02 0. -1.
    10030    2    1    2    0    0  0.00000000000E+00  0.00000000000E+00 -0.29345946030E+03  0.24203025164E+04  0.24024457988E+04 0.  0.
        1    1    3    3  502    0 -0.98377127257E+03 -0.64180568321E+03 -0.40002645122E+03  0.12408632533E+04  0.50400001928E-02 0.  1.
       -1    1    3    3    0  502  0.98377127257E+03  0.64180568321E+03  0.10656699092E+03  0.11794392631E+04  0.50400001928E-02 0. -1.
</event>
<event>
 5   0  0.2674551E-06  0.3260968E+04  0.7818609E-02  0.8172899E-01
        2   -1    0    0  501    0  0.00000000000E+00  0.00000000000E+00  0.18087309517E+04  0.18087309517E+04  0.25500000920E-02 0. -1.
       -2   -1    0    0    0  501  0.00000000000E+00  0.00000000000E+00 -0.14698025397E+04  0.14698025397E+04  0.25500000920E-02 0.  1.
    10030    2    1    2    0    0  0.00000000000E+00  0.00000000000E+00  0.33892841201E+03  0.32785334914E+04  0.32609675536E+04 0.  0.
        3    1    3    3  502    0  0.12666889166E+04 -0.28756705304E+03  0.11603092770E+04  0.17416983808E+04  0.10100000352E+00 0. -1.
       -3    1    3    3    0  502 -0.12666889166E+04  0.28756705304E+03 -0.82138086497E+03  0.15368351105E+04  0.10100000352E+00 0.  1.
</event>
<event>
 5   0  0.9268670E-07  0.3261304E+04  0.7818609E-02  0.8172812E-01
        1   -1    0    0  501    0  0.00000000000E+00  0.00000000000E+00  0.14042498099E+04  0.14042498099E+04  0.50400001928E-02 0. -1.
       -1   -1    0    0    0  501  0.00000000000E+00  0.00000000000E+00 -0.18935565287E+04  0.18935565287E+04  0.50400001928E-02 0.  1.
    10030    2    1    2    0    0  0.00000000000E+00  0.00000000000E+00 -0.48930671880E+03  0.32978063386E+04  0.32613042762E+04 0.  0.
        3    1    3    3  502    0 -0.98218229204E+03 -0.10823826788E+04 -0.97578961957E+03  0.17573843376E+04  0.10100000352E+00 0.  1.
       -3    1    3    3    0  502  0.98218229204E+03  0.10823826788E+04  0.48648290077E+03  0.15404220010E+04  0.10100000352E+00 0. -1.
</event>
<event>
 5   0  0.8520125E-07  0.3311366E+04  0.7818609E-02  0.8160009E-01
        4   -1    0    0  501    0  0.00000000000E+00  0.00000000000E+00  0.15447343037E+04  0.15447348257E+04  0.12699999809E+01 0. -1.
       -4   -1    0    0    0  501  0.00000000000E+00  0.00000000000E+00 -0.17745996897E+04  0.17746001442E+04  0.12699999809E+01 0.  1.
    10030    2    1    2    0    0  0.00000000000E+00  0.00000000000E+00 -0.22986538605E+03  0.33193349699E+04  0.33113662658E+04 0.  0.
        1    1    3    3  502    0 -0.10935970130E+03  0.11612674226E+04 -0.12928285704E+04  0.17412372852E+04  0.50400001928E-02 0.  1.
       -1    1    3    3    0  502  0.10935970130E+03 -0.11612674226E+04  0.10629631844E+04  0.15780976847E+04  0.50400001928E-02 0. -1.
</event>
<event>
 5   0  0.9295663E-07  0.3408767E+04  0.7818609E-02  0.8135758E-01
        1   -1    0    0  501    0  0.00000000000E+00  0.00000000000E+00  0.28840256742E+04  0.28840256742E+04  0.50400001928E-02 0. -1.
       -1   -1    0    0    0  501  0.00000000000E+00  0.00000000000E+00 -0.10072462073E+04  0.10072462074E+04  0.50400001928E-02 0.  1.
    10030    2    1    2    0    0  0.00000000000E+00  0.00000000000E+00  0.18767794668E+04  0.38912718815E+04  0.34087674736E+04 0.  0.
        4    1    3    3  502    0  0.77959473259E+03  0.11628498912E+04  0.20480628118E+04  0.24808366956E+04  0.12699999809E+01 0. -1.
       -4    1    3    3    0  502 -0.77959473259E+03 -0.11628498912E+04 -0.17128334494E+03  0.14104351859E+04  0.12699999809E+01 0.  1.
</event>
<event>
 5   0  0.8705956E-07  0.3264767E+04  0.7818609E-02  0.8171919E-01
        1   -1    0    0  501    0  0.00000000000E+00  0.00000000000E+00  0.26444152494E+04  0.26444152494E+04  0.50400001928E-02 0.  1.
       -1   -1    0    0    0  501  0.00000000000E+00  0.00000000000E+00 -0.10076614530E+04  0.10076614530E+04  0.50400001928E-02 0. -1.
    10030    2    1    2    0    0  0.00000000000E+00  0.00000000000E+00  0.16367537964E+04  0.36520767024E+04  0.32647666456E+04 0.  0.
        2    1    3    3  502    0  0.60807718693E+03  0.12634265542E+04 -0.11664985784E+03  0.14069867492E+04  0.25500000920E-02 0. -1.
       -2    1    3    3    0  502 -0.60807718693E+03 -0.12634265542E+04  0.17534036543E+04  0.22450899532E+04  0.25500000920E-02 0.  1.
</event>
<event>
 5   0  0.8845526E-07  0.3289031E+04  0.7818609E-02  0.8165692E-01
        1   -1    0    0  501    0  0.00000000000E+00  0.00000000000E+00  0.21722826869E+04  0.21722826869E+04  0.50400001928E-02 0.  1.
       -1   -1    0    0    0  501  0.00000000000E+00  0.00000000000E+00 -0.12449723850E+04  0.12449723850E+04  0.50400001928E-02 0. -1.
    10030    2    1    2    0    0  0.00000000000E+00  0.00000000000E+00  0.92731030188E+03  0.34172550719E+04  0.32890314426E+04 0.  0.
        1    1    3    3  502    0  0.11998335502E+04  0.59537968899E+03  0.14549768846E+04  0.19776337520E+04  0.50400001928E-02 0.  1.
       -1    1    3    3    0  502 -0.11998335502E+04 -0.59537968899E+03 -0.52766658272E+03  0.14396213199E+04  0.50400001928E-02 0. -1.
</event>
<event>
 5   0  0.9530268E-07  0.3217107E+04  0.7818609E-02  0.8184314E-01
       -1   -1    0    0    0  501  0.00000000000E+00  0.00000000000E+00  0.11629180665E+04  0.11629180665E+04  0.50400001928E-02 0. -1.
        1   -1    0    0  501    0  0.00000000000E+00  0.00000000000E+00 -0.22249587139E+04  0.22249587139E+04  0.50400001928E-02 0.  1.
    10030    2    1    2    0    0  0.00000000000E+00  0.00000000000E+00 -0.10620406475E+04  0.33878767804E+04  0.32171072009E+04 0.  0.
        5    1    3    3  502    0 -0.13560727814E+04 -0.83092531946E+03 -0.78475035087E+03  0.17734783557E+04  0.46999998093E+01 0.  1.
       -5    1    3    3    0  502  0.13560727814E+04  0.83092531946E+03 -0.27729029661E+03  0.16143984247E+04  0.46999998093E+01 0. -1.
</event>
<event>
 5   0  0.2658600E-06  0.3307144E+04  0.7818609E-02  0.8161080E-01
       -2   -1    0    0    0  501  0.00000000000E+00  0.00000000000E+00  0.10351624731E+04  0.10351624731E+04  0.25500000920E-02 0. -1.
        2   -1    0    0  501    0  0.00000000000E+00  0.00000000000E+00 -0.26414206523E+04  0.26414206523E+04  0.25500000920E-02 0.  1.
    10030    2    1    2    0    0  0.00000000000E+00  0.00000000000E+00 -0.16062581792E+04  0.36765831254E+04  0.33071435015E+04 0.  0.
        5    1    3    3  502    0 -0.74920315998E+03 -0.13048558944E+02  0.83557827799E+03  0.11223585828E+04  0.46999998093E+01 0. -1.
       -5    1    3    3    0  502  0.74920315998E+03  0.13048558944E+02 -0.24418364572E+04  0.25542245425E+04  0.46999998093E+01 0.  1.
</event>
<event>
 5   0  0.2574803E-06  0.2879058E+04  0.7818609E-02  0.8279136E-01
        2   -1    0    0  501    0  0.00000000000E+00  0.00000000000E+00  0.23614118761E+04  0.23614118761E+04  0.25500000920E-02 0. -1.
       -2   -1    0    0    0  501  0.00000000000E+00  0.00000000000E+00 -0.87754442580E+03  0.87754442580E+03  0.25500000920E-02 0.  1.
    10030    2    1    2    0    0  0.00000000000E+00  0.00000000000E+00  0.14838674503E+04  0.32389563019E+04  0.28790580605E+04 0.  0.
        4    1    3    3  502    0  0.27952144053E+03 -0.13168271077E+04  0.16820698041E+03  0.13566359380E+04  0.12699999809E+01 0. -1.
       -4    1    3    3    0  502 -0.27952144053E+03  0.13168271077E+04  0.13156604699E+04  0.18823203639E+04  0.12699999809E+01 0.  1.
</event>
<event>
 5   0  0.9530268E-07  0.3265348E+04  0.7818609E-02  0.8171769E-01
        1   -1    0    0  501    0  0.00000000000E+00  0.00000000000E+00  0.15414725646E+04  0.15414725646E+04  0.50400001928E-02 0.  1.
       -1   -1    0    0    0  501  0.00000000000E+00  0.00000000000E+00 -0.17292711111E+04  0.17292711111E+04  0.50400001928E-02 0. -1.
    10030    2    1    2    0    0  0.00000000000E+00  0.00000000000E+00 -0.18779854646E+03  0.32707436757E+04  0.32653477454E+04 0.  0.
        5    1    3    3  502    0 -0.14100719026E+04  0.74988501324E+03  0.24573563646E+03  0.16158707859E+04  0.46999998093E+01 0. -1.
       -5    1    3    3    0  502  0.14100719026E+04 -0.74988501324E+03 -0.43353418292E+03  0.16548728898E+04  0.46999998093E+01 0.  1.
</event>
<event>
 5   0  0.2705859E-06  0.3292081E+04  0.7818609E-02  0.8164913E-01
       -2   -1    0    0    0  501  0.00000000000E+00  0.00000000000E+00  0.18820759243E+04  0.18820759243E+04  0.25500000920E-02 0.  1.
        2   -1    0    0  501    0  0.00000000000E+00  0.00000000000E+00 -0.14396068624E+04  0.14396068624E+04  0.25500000920E-02 0. -1.
    10030    2    1    2    0    0  0.00000000000E+00  0.00000000000E+00  0.44246906190E+03  0.33216827866E+04  0.32920810537E+04 0.  0.
        1    1    3    3  502    0  0.15812683128E+04  0.96587302088E+02 -0.22967399480E+03  0.16007775386E+04  0.50400001928E-02 0.  1.
       -1    1    3    3    0  502 -0.15812683128E+04 -0.96587302088E+02  0.67214305671E+03  0.17209052481E+04  0.50400001928E-02 0. -1.
</event>
<event>
 5   0  0.2574803E-06  0.3214571E+04  0.7818609E-02  0.8184980E-01
        2   -1    0    0  501    0  0.00000000000E+00  0.00000000000E+00  0.14866409125E+04  0.14866409125E+04  0.25500000920E-02 0. -1.
       -2   -1    0    0    0  501  0.00000000000E+00  0.00000000000E+00 -0.17377208870E+04  0.17377208870E+04  0.25500000920E-02 0.  1.
    10030    2    1    2    0    0  0.00000000000E+00  0.00000000000E+00 -0.25107997455E+03  0.32243617995E+04  0.32145711783E+04 0.  0.
        4    1    3    3  502    0 -0.15865597266E+04  0.22276616127E+03  0.35719971615E+01  0.16021269927E+04  0.12699999809E+01 0.  1.
       -4    1    3    3    0  502  0.15865597266E+04 -0.22276616127E+03 -0.25465197171E+03  0.16222348068E+04  0.12699999809E+01 0. -1.
</event>
<event>
 5   0  0.2574803E-06  0.3305825E+04  0.7818609E-02  0.8161415E-01
        2   -1    0    0  501    0  0.00000000000E+00  0.00000000000E+00  0.25259583750E+04  0.25259583750E+04  0.25500000920E-02 0.  1.
       -2   -1    0    0    0  501  0.00000000000E+00  0.00000000000E+00 -0.10816170707E+04  0.10816170707E+04  0.25500000920E-02 0. -1.
    10030    2    1    2    0    0  0.00000000000E+00  0.00000000000E+00  0.14443413043E+04  0.36075754457E+04  0.33058249792E+04 0.  0.
        4    1    3    3  502    0 -0.10559817014E+04 -0.10304668000E+04  0.15352711387E+04  0.21293234282E+04  0.12699999809E+01 0.  1.
       -4    1    3    3    0  502  0.10559817014E+04  0.10304668000E+04 -0.90929834371E+02  0.14782520175E+04  0.12699999809E+01 0. -1.
</event>
<event>
 5   0  0.8845526E-07  0.3308850E+04  0.7818609E-02  0.8160647E-01
       -1   -1    0    0    0  501  0.00000000000E+00  0.00000000000E+00  0.11889851135E+04  0.11889851135E+04  0.50400001928E-02 0.  1.
        1   -1    0    0  501    0  0.00000000000E+00  0.00000000000E+00 -0.23020657471E+04  0.23020657471E+04  0.50400001928E-02 0. -1.
    10030    2    1    2    0    0  0.00000000000E+00  0.00000000000E+00 -0.11130806335E+04  0.34910508606E+04  0.33088498930E+04 0.  0.
        1    1    3    3  502    0  0.13021589679E+04 -0.35210402451E+02 -0.16326360936E+04  0.20886259513E+04  0.50400001928E-02 0. -1.
       -1    1    3    3    0  502 -0.13021589679E+04  0.35210402451E+02  0.51955546008E+03  0.14024249093E+04  0.50400001928E-02 0.  1.
</event>
<event>
 5   0  0.9268670E-07  0.2694308E+04  0.7818609E-02  0.8336854E-01
       -1   -1    0    0    0  501  0.00000000000E+00  0.00000000000E+00  0.13929998324E+04  0.13929998324E+04  0.50400001928E-02 0. -1.
        1   -1    0    0  501    0  0.00000000000E+00  0.00000000000E+00 -0.13028174604E+04  0.13028174604E+04  0.50400001928E-02 0.  1.
    10030    2    1    2    0    0  0.00000000000E+00  0.00000000000E+00  0.90182371997E+02  0.26958172928E+04  0.26943084486E+04 0.  0.
        3    1    3    3  502    0  0.91358424083E+03 -0.58554578253E+03 -0.75368192539E+03  0.13211875277E+04  0.10100000352E+00 0. -1.
       -3    1    3    3    0  502 -0.91358424083E+03  0.58554578253E+03  0.84386429739E+03  0.13746297651E+04  0.10100000352E+00 0.  1.
</event>
<event>
 5   0  0.9268670E-07  0.3363768E+04  0.7818609E-02  0.8146856E-01
        1   -1    0    0  501    0  0.00000000000E+00  0.00000000000E+00  0.18677957770E+04  0.18677957770E+04  0.50400001928E-02 0. -1.
       -1   -1    0    0    0  501  0.00000000000E+00  0.00000000000E+00 -0.15144773143E+04  0.15144773143E+04  0.50400001928E-02 0.  1.
    10030    2    1    2    0    0  0.00000000000E+00  0.00000000000E+00  0.35331846266E+03  0.33822730913E+04  0.33637683226E+04 0.  0.
        3    1    3    3  502    0  0.10498275792E+04 -0.54642827498E+03 -0.10249094529E+04  0.15656184728E+04  0.10100000352E+00 0.  1.
       -3    1    3    3    0  502 -0.10498275792E+04  0.54642827498E+03  0.13782279155E+04  0.18166546185E+04  0.10100000352E+00 0. -1.
</event>
<event>
 5   0  0.2574803E-06  0.3314110E+04  0.7818609E-02  0.8159314E-01
        2   -1    0    0  501    0  0.00000000000E+00  0.00000000000E+00  0.23184162183E+04  0.23184162183E+04  0.25500000920E-02 0.  1.
       -2   -1    0    0    0  501  0.00000000000E+00  0.00000000000E+00 -0.11843567095E+04  0.11843567095E+04  0.25500000920E-02 0. -1.
    10030    2    1    2    0    0  0.00000000000E+00  0.00000000000E+00  0.11340595088E+04  0.35027729278E+04  0.33141103201E+04 0.  0.
        4    1    3    3  502    0  0.49444897306E+03 -0.13848277693E+04 -0.24039782147E+03  0.14899733095E+04  0.12699999809E+01 0. -1.
       -4    1    3    3    0  502 -0.49444897306E+03  0.13848277693E+04  0.13744573303E+04  0.20127996183E+04  0.12699999809E+01 0.  1.
</event>
<event>
 5   0  0.9295663E-07  0.3300928E+04  0.7818609E-02  0.8162659E-01
       -1   -1    0    0    0  501  0.00000000000E+00  0.00000000000E+00  0.16562743265E+04  0.16562743265E+04  0.50400001928E-02 0. -1.
        1   -1    0    0  501    0  0.00000000000E+00  0.00000000000E+00 -0.16446736092E+04  0.16446736092E+04  0.50400001928E-02 0.  1.
    10030    2    1    2    0    0  0.00000000000E+00  0.00000000000E+00  0.11600717264E+02  0.33009479357E+04  0.33009275511E+04 0.  0.
        4    1    3    3  502    0 -0.53025748248E+03  0.91857923444E+03  0.12703508732E+04  0.16549180528E+04  0.12699999809E+01 0. -1.
       -4    1    3    3    0  502  0.53025748248E+03 -0.91857923444E+03 -0.12587501559E+04  0.16460298829E+04  0.12699999809E+01 0.  1.
</event>
<event>
 5   0  0.2705859E-06  0.3053384E+04  0.7818609E-02  0.8228649E-01
        2   -1    0    0  501    0  0.00000000000E+00  0.00000000000E+00  0.23298200994E+04  0.23298200994E+04  0.25500000920E-02 0. -1.
       -2   -1    0    0    0  501  0.00000000000E+00  0.00000000000E+00 -0.10004155707E+04  0.10004155707E+04  0.25500000920E-02 0.  1.
    10030    2    1    2    0    0  0.00000000000E+00  0.00000000000E+00  0.13294045287E+04  0.33302356701E+04  0.30533838962E+04 0.  0.
        1    1    3    3  502    0  0.55340529354E+03  0.11391911575E+04 -0.26510592244E+03  0.12939455407E+04  0.50400001928E-02 0.  1.
       -1    1    3    3    0  502 -0.55340529354E+03 -0.11391911575E+04  0.15945104511E+04  0.20362901294E+04  0.50400001928E-02 0. -1.
</event>
<event>
 5   0  0.9530268E-07  0.3220917E+04  0.7818609E-02  0.8183315E-01
       -1   -1    0    0    0  501  0.00000000000E+00  0.00000000000E+00  0.94910840248E+03  0.94910840249E+03  0.50400001928E-02 0.  1.
        1   -1    0    0  501    0  0.00000000000E+00  0.00000000000E+00 -0.27326447383E+04  0.27326447383E+04  0.50400001928E-02 0. -1.
    10030    2    1    2    0    0  0.00000000000E+00  0.00000000000E+00 -0.17835363358E+04  0.36817531408E+04  0.32209166907E+04 0.  0.
        5    1    3    3  502    0  0.15737511304E+04 -0.28423939797E+03 -0.67467595279E+03  0.17357114930E+04  0.46999998093E+01 0.  1.
       -5    1    3    3    0  502 -0.15737511304E+04  0.28423939797E+03 -0.11088603830E+04  0.19460416477E+04  0.46999998093E+01 0. -1.
</event>
<event>
 5   0  0.2674551E-06  0.3346923E+04  0.7818609E-02  0.8151057E-01
       -2   -1    0    0    0  501  0.00000000000E+00  0.00000000000E+00  0.15464773983E+04  0.15464773983E+04  0.25500000920E-02 0.  1.
        2   -1    0    0  501    0  0.00000000000E+00  0.00000000000E+00 -0.18108727582E+04  0.18108727582E+04  0.25500000920E-02 0. -1.
    10030    2    1    2    0    0  0.00000000000E+00  0.00000000000E+00 -0.26439535993E+03  0.33573501565E+04  0.33469232389E+04 0.  0.
        3    1    3    3  502    0  0.35690020623E+02  0.90607669328E+03 -0.15430733128E+04  0.17897832300E+04  0.10100000352E+00 0. -1.
       -3    1    3    3    0  502 -0.35690020623E+02 -0.90607669328E+03  0.12786779528E+04  0.15675669265E+04  0.10100000352E+00 0.  1.
</event>
<event>
 5   0  0.2705859E-06  0.3300059E+04  0.7818609E-02  0.8162880E-01
       -2   -1    0    0    0  501  0.00000000000E+00  0.00000000000E+00  0.13292377820E+04  0.13292377820E+04  0.25500000920E-02 0. -1.
        2   -1    0    0  501    0  0.00000000000E+00  0.00000000000E+00 -0.20482399164E+04  0.20482399164E+04  0.25500000920E-02 0.  1.
    10030    2    1    2    0    0  0.00000000000E+00  0.00000000000E+00 -0.71900213442E+03  0.33774776984E+04  0.33000593228E+04 0.  0.
        1    1    3    3  502    0 -0.97622084074E+03  0.50161071570E+03  0.90146500688E+03  0.14203026433E+04  0.50400001928E-02 0. -1.
       -1    1    3    3    0  502  0.97622084074E+03 -0.50161071570E+03 -0.16204671413E+04  0.19571750550E+04  0.50400001928E-02 0.  1.
</event>
<event>
 5   0  0.9530268E-07  0.3264802E+04  0.7818609E-02  0.8171910E-01
        1   -1    0    0  501    0  0.00000000000E+00  0.00000000000E+00  0.16614758856E+04  0.16614758857E+04  0.50400001928E-02 0.  1.
       -1   -1    0    0    0  501  0.00000000000E+00  0.00000000000E+00 -0.16038346961E+04  0.16038346961E+04  0.50400001928E-02 0. -1.
    10030    2    1    2    0    0  0.00000000000E+00  0.00000000000E+00  0.57641189585E+02  0.32653105817E+04  0.32648017839E+04 0.  0.
        5    1    3    3  502    0  0.55750976632E+03 -0.78559615013E+03  0.13468773045E+04  0.16559224058E+04  0.46999998093E+01 0.  1.
       -5    1    3    3    0  502 -0.55750976632E+03  0.78559615013E+03 -0.12892361149E+04  0.16093881759E+04  0.46999998093E+01 0. -1.
</event>
<event>
 5   0  0.8705956E-07  0.3178057E+04  0.7818609E-02  0.8194636E-01
        1   -1    0    0  501    0  0.00000000000E+00  0.00000000000E+00  0.13254199730E+04  0.13254199730E+04  0.50400001928E-02 0.  1.
       -1   -1    0    0    0  501  0.00000000000E+00  0.00000000000E+00 -0.19050654525E+04  0.19050654525E+04  0.50400001928E-02 0. -1.
    10030    2    1    2    0    0  0.00000000000E+00  0.00000000000E+00 -0.57964547946E+03  0.32304854255E+04  0.31780571427E+04 0.  0.
        2    1    3    3  502    0 -0.62801013149E+03 -0.13621155871E+04  0.24348101504E+03  0.15195521059E+04  0.25500000920E-02 0.  1.
       -2    1    3    3    0  502  0.62801013149E+03  0.13621155871E+04 -0.82312649450E+03  0.17109333195E+04  0.25500000920E-02 0. -1.
</event>
<event>
 5   0  0.2614212E-06  0.3347251E+04  0.7818609E-02  0.8150975E-01
        2   -1    0    0  501    0  0.00000000000E+00  0.00000000000E+00  0.20655999893E+04  0.20655999893E+04  0.25500000920E-02 0.  1.
       -2   -1    0    0    0  501  0.00000000000E+00  0.00000000000E+00 -0.13560329275E+04  0.13560329275E+04  0.25500000920E-02 0. -1.
    10030    2    1    2    0    0  0.00000000000E+00  0.00000000000E+00  0.70956706179E+03  0.34216329168E+04  0.33472505735E+04 0.  0.
        2    1    3    3  502    0  0.82939507934E+03  0.10618531385E+04 -0.66004826382E+03  0.15003639545E+04  0.25500000920E-02 0. -1.
       -2    1    3    3    0  502 -0.82939507934E+03 -0.10618531385E+04  0.13696153256E+04  0.19212689623E+04  0.25500000920E-02 0.  1.
</event>
<event>
 5   0  0.2614212E-06  0.3192764E+04  0.7818609E-02  0.8190731E-01
       -2   -1    0    0    0  501  0.00000000000E+00  0.00000000000E+00  0.12395382417E+04  0.12395382417E+04  0.25500000920E-02 0.  1.
        2   -1    0    0  501    0  0.00000000000E+00  0.00000000000E+00 -0.20559549990E+04  0.20559549990E+04  0.25500000920E-02 0. -1.
    10030    2    1    2    0    0  0.00000000000E+00  0.00000000000E+00 -0.81641675730E+03  0.32954932406E+04  0.31927635956E+04 0.  0.
        2    1    3    3  502    0 -0.10639273203E+04 -0.46645517968E+03 -0.15383880962E+04  0.19277343468E+04  0.25500000920E-02 0. -1.
       -2    1    3    3    0  502  0.10639273203E+04  0.46645517968E+03  0.72197133888E+03  0.13677588938E+04  0.25500000920E-02 0.  1.
</event>
<event>
 5   0  0.9268670E-07  0.3384413E+04  0.7818609E-02  0.8141742E-01
       -1   -1    0    0    0  501  0.00000000000E+00  0.00000000000E+00  0.12019962575E+04  0.12019962576E+04  0.50400001928E-02 0. -1.
        1   -1    0    0  501    0  0.00000000000E+00  0.00000000000E+00 -0.23823397541E+04  0.23823397541E+04  0.50400001928E-02 0.  1.
    10030    2    1    2    0    0  0.00000000000E+00  0.00000000000E+00 -0.11803434966E+04  0.35843360117E+04  0.33844133723E+04 0.  0.
        3    1    3    3  502    0 -0.65884417413E+03  0.26396835528E+03  0.10367388775E+04  0.12564165109E+04  0.10100000352E+00 0. -1.
       -3    1    3    3    0  502  0.65884417413E+03 -0.26396835528E+03 -0.22170823742E+04  0.23279195008E+04  0.10100000352E+00 0.  1.
</event>
<event>
 5   0  0.8705956E-07  0.3311954E+04  0.7818609E-02  0.8159860E-01
        1   -1    0    0  501    0  0.00000000000E+00  0.00000000000E+00  0.16805481193E+04  0.16805481194E+04  0.50400001928E-02 0.  1.
       -1   -1    0    0    0  501  0.00000000000E+00  0.00000000000E+00 -0.16317655799E+04  0.16317655799E+04  0.50400001928E-02 0. -1.
    10030    2    1    2    0    0  0.00000000000E+00  0.00000000000E+00  0.48782539450E+02  0.33123136993E+04  0.33119544541E+04 0.  0.
        2    1    3    3  502    0  0.77143497907E+03 -0.54777011286E+03  0.13836179915E+04  0.16761750415E+04  0.25500000920E-02 0.  1.
       -2    1    3    3    0  502 -0.77143497907E+03  0.54777011286E+03 -0.13348354520E+04  0.16361386578E+04  0.25500000920E-02 0. -1.
</event>
<event>
 5   0  0.2705859E-06  0.2425620E+04  0.7818609E-02  0.8429974E-01
       -2   -1    0    0    0  501  0.00000000000E+00  0.00000000000E+00  0.15573496342E+04  0.15573496342E+04  0.25500000920E-02 0. -1.
        2   -1    0    0  501    0  0.00000000000E+00  0.00000000000E+00 -0.94449437231E+03  0.94449437231E+03  0.25500000920E-02 0.  1.
    10030    2    1    2    0    0  0.00000000000E+00  0.00000000000E+00  0.61285526192E+03  0.25018440065E+04  0.24256198921E+04 0.  0.
        1    1    3    3  502    0 -0.42031347243E+03 -0.11253730347E+03 -0.86121603136E+03  0.96489435301E+03  0.50400001928E-02 0.  1.
       -1    1    3    3    0  502  0.42031347243E+03  0.11253730347E+03  0.14740712933E+04  0.15369496535E+04  0.50400001928E-02 0. -1.
</event>
<event>
 5   0  0.9295663E-07  0.3304815E+04  0.7818609E-02  0.8161671E-01
       -1   -1    0    0    0  501  0.00000000000E+00  0.00000000000E+00  0.16565929205E+04  0.16565929205E+04  0.50400001928E-02 0. -1.
        1   -1    0    0  501    0  0.00000000000E+00  0.00000000000E+00 -0.16482327313E+04  0.16482327314E+04  0.50400001928E-02 0.  1.
    10030    2    1    2    0    0  0.00000000000E+00  0.00000000000E+00  0.83601891090E+01  0.33048256518E+04  0.33048150775E+04 0.  0.
        4    1    3    3  502    0  0.41723056944E+03  0.13342424551E+04 -0.87682487200E+03  0.16501841552E+04  0.12699999809E+01 0.  1.
       -4    1    3    3    0  502 -0.41723056944E+03 -0.13342424551E+04  0.88518506111E+03  0.16546414966E+04  0.12699999809E+01 0. -1.
</event>
<event>
 5   0  0.2705859E-06  0.2384392E+04  0.7818609E-02  0.8445370E-01
       -2   -1    0    0    0  501  0.00000000000E+00  0.00000000000E+00  0.13275283886E+04  0.13275283886E+04  0.25500000920E-02 0. -1.
        2   -1    0    0  501    0  0.00000000000E+00  0.00000000000E+00 -0.10706596336E+04  0.10706596336E+04  0.25500000920E-02 0.  1.
    10030    2    1    2    0    0  0.00000000000E+00  0.00000000000E+00  0.25686875498E+03  0.23981880223E+04  0.23843917952E+04 0.  0.
        1    1    3    3  502    0 -0.47931884224E+03  0.95945014814E+03  0.65206162832E+03  0.12551794718E+04  0.50400001928E-02 0. -1.
       -1    1    3    3    0  502  0.47931884224E+03 -0.95945014814E+03 -0.39519287334E+03  0.11430085505E+04  0.50400001928E-02 0.  1.
</event>
<event>
 5   0  0.8845526E-07  0.3182426E+04  0.7818609E-02  0.8193474E-01
        1   -1    0    0  501    0  0.00000000000E+00  0.00000000000E+00  0.21629044790E+04  0.21629044790E+04  0.50400001928E-02 0.  1.
       -1   -1    0    0    0  501  0.00000000000E+00  0.00000000000E+00 -0.11706292039E+04  0.11706292040E+04  0.50400001928E-02 0. -1.
    10030    2    1    2    0    0  0.00000000000E+00  0.00000000000E+00  0.99227527504E+03  0.33335336829E+04  0.31824262118E+04 0.  0.
        1    1    3    3  502    0  0.73326428464E+03  0.41974911464E+03 -0.91625222006E+03  0.12463482504E+04  0.50400001928E-02 0. -1.
       -1    1    3    3    0  502 -0.73326428464E+03 -0.41974911464E+03  0.19085274951E+04  0.20871854326E+04  0.50400001928E-02 0.  1.
</event>
<event>
 5   0  0.2574803E-06  0.2927444E+04  0.7818609E-02  0.8264759E-01
       -2   -1    0    0    0  501  0.00000000000E+00  0.00000000000E+00  0.95738293906E+03  0.95738293907E+03  0.25500000920E-02 0. -1.
        2   -1    0    0  501    0  0.00000000000E+00  0.00000000000E+00 -0.22378521886E+04  0.22378521886E+04  0.25500000920E-02 0.  1.
    10030    2    1    2    0    0  0.00000000000E+00  0.00000000000E+00 -0.12804692496E+04  0.31952351277E+04  0.29274435985E+04 0.  0.
        4    1    3    3  502    0 -0.62173174115E+03 -0.30627216519E+03 -0.20474039977E+04  0.21615313414E+04  0.12699999809E+01 0.  1.
       -4    1    3    3    0  502  0.62173174115E+03  0.30627216519E+03  0.76693474811E+03  0.10337037863E+04  0.12699999809E+01 0. -1.
</event>
<event>
 5   0  0.2674551E-06  0.3282916E+04  0.7818609E-02  0.8167256E-01
       -2   -1    0    0    0  501  0.00000000000E+00  0.00000000000E+00  0.16029389543E+04  0.16029389543E+04  0.25500000920E-02 0. -1.
        2   -1    0    0  501    0  0.00000000000E+00  0.00000000000E+00 -0.16809021643E+04  0.16809021643E+04  0.25500000920E-02 0.  1.
    10030    2    1    2    0    0  0.00000000000E+00  0.00000000000E+00 -0.77963210018E+02  0.32838411186E+04  0.32829155076E+04 0.  0.
        3    1    3    3  502    0  0.28548198207E+03 -0.10797131037E+04 -0.12422768013E+04  0.16704885541E+04  0.10100000352E+00 0.  1.
       -3    1    3    3    0  502 -0.28548198207E+03  0.10797131037E+04  0.11643135913E+04  0.16133525645E+04  0.10100000352E+00 0. -1.
</event>
<event>
 5   0  0.2614212E-06  0.3300035E+04  0.7818609E-02  0.8162886E-01
       -2   -1    0    0    0  501  0.00000000000E+00  0.00000000000E+00  0.13661517304E+04  0.13661517304E+04  0.25500000920E-02 0.  1.
        2   -1    0    0  501    0  0.00000000000E+00  0.00000000000E+00 -0.19928667311E+04  0.19928667311E+04  0.25500000920E-02 0. -1.
    10030    2    1    2    0    0  0.00000000000E+00  0.00000000000E+00 -0.62671500079E+03  0.33590184615E+04  0.33000353532E+04 0.  0.
        2    1    3    3  502    0 -0.11397197475E+04 -0.19823438188E+02  0.90094647281E+03  0.14529482504E+04  0.25500000920E-02 0.  1.
       -2    1    3    3    0  502  0.11397197475E+04  0.19823438188E+02 -0.15276614736E+04  0.19060702111E+04  0.25500000920E-02 0. -1.
</event>
<event>
 5   0  0.2705859E-06  0.3334997E+04  0.7818609E-02  0.8154047E-01
       -2   -1    0    0    0  501  0.00000000000E+00  0.00000000000E+00  0.17988654523E+04  0.17988654523E+04  0.25500000920E-02 0. -1.
        2   -1    0    0  501    0  0.00000000000E+00  0.00000000000E+00 -0.15457249392E+04  0.15457249392E+04  0.25500000920E-02 0.  1.
    10030    2    1    2    0    0  0.00000000000E+00  0.00000000000E+00  0.25314051306E+03  0.33445903915E+04  0.33349969666E+04 0.  0.
        1    1    3    3  502    0  0.15054833189E+04 -0.14108168645E+03  0.83156263187E+03  0.17256536375E+04  0.50400001928E-02 0.  1.
       -1    1    3    3    0  502 -0.15054833189E+04  0.14108168645E+03 -0.57842211881E+03  0.16189367540E+04  0.50400001928E-02 0. -1.
</event>
<event>
 5   0  0.9295663E-07  0.3216708E+04  0.7818609E-02  0.8184419E-01
        1   -1    0    0  501    0  0.00000000000E+00  0.00000000000E+00  0.22153593904E+04  0.22153593904E+04  0.50400001928E-02 0. -1.
       -1   -1    0    0    0  501  0.00000000000E+00  0.00000000000E+00 -0.11676668846E+04  0.11676668846E+04  0.50400001928E-02 0.  1.
    10030    2    1    2    0    0  0.00000000000E+00  0.00000000000E+00  0.10476925058E+04  0.33830262750E+04  0.32167075078E+04 0.  0.
        4    1    3    3  502    0 -0.32629558122E+03  0.93423354522E+03 -0.80959708356E+03  0.12785578493E+04  0.12699999809E+01 0.  1.
       -4    1    3    3    0  502  0.32629558122E+03 -0.93423354522E+03  0.18572895894E+04  0.21044684258E+04  0.12699999809E+01 0. -1.
</event>
<event>
 5   0  0.2614212E-06  0.3320528E+04  0.7818609E-02  0.8157692E-01
        2   -1    0    0  501    0  0.00000000000E+00  0.00000000000E+00  0.18096749027E+04  0.18096749027E+04  0.25500000920E-02 0.  1.
       -2   -1    0    0    0  501  0.00000000000E+00  0.00000000000E+00 -0.15231890623E+04  0.15231890623E+04  0.25500000920E-02 0. -1.
    10030    2    1    2    0    0  0.00000000000E+00  0.00000000000E+00  0.28648584045E+03  0.33328639650E+04  0.33205282821E+04 0.  0.
        2    1    3    3  502    0 -0.10385841339E+04 -0.15665197792E+03 -0.11473332232E+04  0.15554968243E+04  0.25500000920E-02 0. -1.
       -2    1    3    3    0  502  0.10385841339E+04  0.15665197792E+03  0.14338190636E+04  0.17773671407E+04  0.25500000920E-02 0.  1.
</event>
<event>
 5   0  0.9530268E-07  0.3315443E+04  0.7818609E-02  0.8158977E-01
       -1   -1    0    0    0  501  0.00000000000E+00  0.00000000000E+00  0.29751471735E+04  0.29751471735E+04  0.50400001928E-02 0. -1.
        1   -1    0    0  501    0  0.00000000000E+00  0.00000000000E+00 -0.92366528570E+03  0.92366528571E+03  0.50400001928E-02 0.  1.
    10030    2    1    2    0    0  0.00000000000E+00  0.00000000000E+00  0.20514818878E+04  0.38988124592E+04  0.33154427541E+04 0.  0.
        5    1    3    3  502    0 -0.13210438247E+04  0.94107458868E+03  0.62309016635E+03  0.17375389531E+04  0.46999998093E+01 0.  1.
       -5    1    3    3    0  502  0.13210438247E+04 -0.94107458868E+03  0.14283917214E+04  0.21612735061E+04  0.46999998093E+01 0. -1.
</event>
<event>
 5   0  0.9295663E-07  0.3352537E+04  0.7818609E-02  0.8149655E-01
        1   -1    0    0  501    0  0.00000000000E+00  0.00000000000E+00  0.14733779989E+04  0.14733779989E+04  0.50400001928E-02 0. -1.
       -1   -1    0    0    0  501  0.00000000000E+00  0.00000000000E+00 -0.19070979195E+04  0.19070979195E+04  0.50400001928E-02 0.  1.
    10030    2    1    2    0    0  0.00000000000E+00  0.00000000000E+00 -0.43371992063E+03  0.33804759184E+04  0.33525370192E+04 0.  0.
        4    1    3    3  502    0  0.15874292597E+04  0.17215959540E+03  0.29759175638E+03  0.16242330643E+04  0.12699999809E+01 0. -1.
       -4    1    3    3    0  502 -0.15874292597E+04 -0.17215959540E+03 -0.73131167701E+03  0.17562428541E+04  0.12699999809E+01 0.  1.
</event>
<event>
 5   0  0.8705956E-07  0.3207668E+04  0.7818609E-02  0.8186795E-01
        1   -1    0    0  501    0  0.00000000000E+00  0.00000000000E+00  0.18239987971E+04  0.18239987971E+04  0.50400001928E-02 0.  1.
       -1   -1    0    0    0  501  0.00000000000E+00  0.00000000000E+00 -0.14102441197E+04  0.14102441197E+04  0.50400001928E-02 0. -1.
    10030    2    1    2    0    0  0.00000000000E+00  0.00000000000E+00  0.41375467740E+03  0.32342429169E+04  0.32076680490E+04 0.  0.
        2    1    3    3  502    0 -0.40626431134E+01 -0.17908881317E+03  0.18138803238E+04  0.18227043472E+04  0.25500000920E-02 0.  1.
       -2    1    3    3    0  502  0.40626431134E+01  0.17908881317E+03 -0.14001256464E+04  0.14115385697E+04  0.25500000920E-02 0. -1.
</event>
<event>
 5   0  0.9530268E-07  0.3327173E+04  0.7818609E-02  0.8156015E-01
       -1   -1    0    0    0  501  0.00000000000E+00  0.00000000000E+00  0.11298596378E+04  0.11298596378E+04  0.50400001928E-02 0.  1.
        1   -1    0    0  501    0  0.00000000000E+00  0.00000000000E+00 -0.24494373029E+04  0.24494373029E+04  0.50400001928E-02 0. -1.
    10030    2    1    2    0    0  0.00000000000E+00  0.00000000000E+00 -0.13195776652E+04  0.35792969407E+04  0.33271731808E+04 0.  0.
        5    1    3    3  502    0 -0.10396658628E+04 -0.49098551823E+02 -0.20558900157E+04  0.23043484156E+04  0.46999998093E+01 0. -1.
       -5    1    3    3    0  502  0.10396658628E+04  0.49098551823E+02  0.73631235050E+03  0.12749485251E+04  0.46999998093E+01 0.  1.
</event>
<event>
 5   0  0.2705859E-06  0.3338079E+04  0.7818609E-02  0.8153273E-01
       -2   -1    0    0    0  501  0.00000000000E+00  0.00000000000E+00  0.15238252493E+04  0.15238252493E+04  0.25500000920E-02 0. -1.
        2   -1    0    0  501    0  0.00000000000E+00  0.00000000000E+00 -0.18280916877E+04  0.18280916877E+04  0.25500000920E-02 0.  1.
    10030    2    1    2    0    0  0.00000000000E+00  0.00000000000E+00 -0.30426643840E+03  0.33519169370E+04  0.33380786520E+04 0.  0.
        1    1    3    3  502    0  0.11504807953E+03 -0.53444852053E+02  0.15189773917E+04  0.15242653080E+04  0.50400001928E-02 0. -1.
       -1    1    3    3    0  502 -0.11504807953E+03  0.53444852053E+02 -0.18232438301E+04  0.18276516289E+04  0.50400001928E-02 0.  1.
</event>
<event>
 5   0  0.2574803E-06  0.3316324E+04  0.7818609E-02  0.8158754E-01
       -2   -1    0    0    0  501  0.00000000000E+00  0.00000000000E+00  0.17510123395E+04  0.17510123395E+04  0.25500000920E-02 0.  1.
        2   -1    0    0  501    0  0.00000000000E+00  0.00000000000E+00 -0.15702347775E+04  0.15702347775E+04  0.25500000920E-02 0. -1.
    10030    2    1    2    0    0  0.00000000000E+00  0.00000000000E+00  0.18077756205E+03  0.33212471170E+04  0.33163235495E+04 0.  0.
        4    1    3    3  502    0 -0.75312493387E+03  0.37373035013E+03  0.15217157801E+04  0.17385315841E+04  0.12699999809E+01 0.  1.
       -4    1    3    3    0  502  0.75312493387E+03 -0.37373035013E+03 -0.13409382180E+04  0.15827155329E+04  0.12699999809E+01 0. -1.
</event>
<event>
 5   0  0.2674551E-06  0.2749924E+04  0.7818609E-02  0.8318986E-01
        2   -1    0    0  501    0  0.00000000000E+00  0.00000000000E+00  0.27212064464E+04  0.27212064464E+04  0.25500000920E-02 0. -1.
       -2   -1    0    0    0  501  0.00000000000E+00  0.00000000000E+00 -0.69473617426E+03  0.69473617427E+03  0.25500000920E-02 0.  1.
    10030    2    1    2    0    0  0.00000000000E+00  0.00000000000E+00  0.20264702721E+04  0.34159426206E+04  0.27499240396E+04 0.  0.
        3    1    3    3  502    0  0.96162685475E+03 -0.92555383694E+03  0.60285090598E+03  0.14645153935E+04  0.10100000352E+00 0.  1.
       -3    1    3    3    0  502 -0.96162685475E+03  0.92555383694E+03  0.14236193661E+04  0.19514272271E+04  0.10100000352E+00 0. -1.
</event>
<event>
 5   0  0.8705956E-07  0.3334002E+04  0.7818609E-02  0.8154297E-01
        1   -1    0    0  501    0  0.00000000000E+00  0.00000000000E+00  0.20326200431E+04  0.20326200431E+04  0.50400001928E-02 0. -1.
       -1   -1    0    0    0  501  0.00000000000E+00  0.00000000000E+00 -0.13671478048E+04  0.13671478048E+04  0.50400001928E-02 0.  1.
    10030    2    1    2    0    0  0.00000000000E+00  0.00000000000E+00  0.66547223832E+03  0.33997678479E+04  0.33340018176E+04 0.  0.
        2    1    3    3  502    0 -0.16470864438E+04  0.18362320117E+02  0.71437260192E+02  0.16487371562E+04  0.25500000920E-02 0. -1.
       -2    1    3    3    0  502  0.16470864438E+04 -0.18362320117E+02  0.59403497812E+03  0.17510306917E+04  0.25500000920E-02 0.  1.
</event>
<event>
 5   0  0.8705956E-07  0.3275065E+04  0.7818609E-02  0.8169269E-01
        1   -1    0    0  501    0  0.00000000000E+00  0.00000000000E+00  0.15613539530E+04  0.15613539531E+04  0.50400001928E-02 0.  1.
       -1   -1    0    0    0  501  0.00000000000E+00  0.00000000000E+00 -0.17174273837E+04  0.17174273837E+04  0.50400001928E-02 0. -1.
    10030    2    1    2    0    0  0.00000000000E+00  0.00000000000E+00 -0.15607343065E+03  0.32787813368E+04  0.32750646007E+04 0.  0.
        2    1    3    3  502    0 -0.56011962570E+02  0.71546233908E+02  0.15588282181E+04  0.15614741807E+04  0.25500000920E-02 0.  1.
       -2    1    3    3    0  502  0.56011962570E+02 -0.71546233908E+02 -0.17149016487E+04  0.17173071561E+04  0.25500000920E-02 0. -1.
</event>
<event>
 5   0  0.9295663E-07  0.2966009E+04  0.7818609E-02  0.8253504E-01
        1   -1    0    0  501    0  0.00000000000E+00  0.00000000000E+00  0.16498306717E+04  0.16498306717E+04  0.50400001928E-02 0. -1.
       -1   -1    0    0    0  501  0.00000000000E+00  0.00000000000E+00 -0.13330475321E+04  0.13330475321E+04  0.50400001928E-02 0.  1.
    10030    2    1    2    0    0  0.00000000000E+00  0.00000000000E+00  0.31678313963E+03  0.29828782038E+04  0.29660092416E+04 0.  0.
        4    1    3    3  502    0  0.64843559281E+03  0.26424794451E+03 -0.11563328756E+04  0.13518147160E+04  0.12699999809E+01 0.  1.
       -4    1    3    3    0  502 -0.64843559281E+03 -0.26424794451E+03  0.14731160152E+04  0.16310634878E+04  0.12699999809E+01 0. -1.
</event>
<event>
 5   0  0.8845526E-07  0.3267758E+04  0.7818609E-02  0.8171148E-01
       -1   -1    0    0    0  501  0.00000000000E+00  0.00000000000E+00  0.21156941047E+04  0.21156941047E+04  0.50400001928E-02 0. -1.
        1   -1    0    0  501    0  0.00000000000E+00  0.00000000000E+00 -0.12617896269E+04  0.12617896269E+04  0.50400001928E-02 0.  1.
    10030    2    1    2    0    0  0.00000000000E+00  0.00000000000E+00  0.85390447774E+03  0.33774837316E+04  0.32677581765E+04 0.  0.
        1    1    3    3  502    0  0.83302238121E+03 -0.12776249264E+04 -0.17864799678E+03  0.15356323932E+04  0.50400001928E-02 0.  1.
       -1    1    3    3    0  502 -0.83302238121E+03  0.12776249264E+04  0.10325524745E+04  0.18418513384E+04  0.50400001928E-02 0. -1.
</event>
<event>
 5   0  0.2574803E-06  0.3294065E+04  0.7818609E-02  0.8164407E-01
       -2   -1    0    0    0  501  0.00000000000E+00  0.00000000000E+00  0.16296459974E+04  0.16296459974E+04  0.25500000920E-02 0. -1.
        2   -1    0    0  501    0  0.00000000000E+00  0.00000000000E+00 -0.16646046793E+04  0.16646046793E+04  0.25500000920E-02 0.  1.
    10030    2    1    2    0    0  0.00000000000E+00  0.00000000000E+00 -0.34958681889E+02  0.32942506767E+04  0.32940651802E+04 0.  0.
        4    1    3    3  502    0 -0.90045501897E+03 -0.86730559767E+03 -0.10897694064E+04  0.16585045110E+04  0.12699999809E+01 0.  1.
       -4    1    3    3    0  502  0.90045501897E+03  0.86730559767E+03  0.10548107245E+04  0.16357461657E+04  0.12699999809E+01 0. -1.
</event>
<event>
 5   0  0.2658600E-06  0.2730529E+04  0.7818609E-02  0.8325167E-01
        2   -1    0    0  501    0  0.00000000000E+00  0.00000000000E+00  0.17941585261E+04  0.17941585261E+04  0.25500000920E-02 0. -1.
       -2   -1    0    0    0  501  0.00000000000E+00  0.00000000000E+00 -0.10388980739E+04  0.10388980739E+04  0.25500000920E-02 0.  1.
    10030    2    1    2    0    0  0.00000000000E+00  0.00000000000E+00  0.75526045219E+03  0.28330566000E+04  0.27305294996E+04 0.  0.
        5    1    3    3  502    0  0.13067045781E+04 -0.28386641230E+03  0.66341550218E+03  0.14927153825E+04  0.46999998093E+01 0.  1.
       -5    1    3    3    0  502 -0.13067045781E+04  0.28386641230E+03  0.91844950010E+02  0.13403412175E+04  0.46999998093E+01 0. -1.
</event>
<event>
 5   0  0.9530268E-07  0.3294036E+04  0.7818609E-02  0.8164415E-01
        1   -1    0    0  501    0  0.00000000000E+00  0.00000000000E+00  0.19311429916E+04  0.19311429916E+04  0.50400001928E-02 0. -1.
       -1   -1    0    0    0  501  0.00000000000E+00  0.00000000000E+00 -0.14046957217E+04  0.14046957217E+04  0.50400001928E-02 0.  1.
    10030    2    1    2    0    0  0.00000000000E+00  0.00000000000E+00  0.52644726989E+03  0.33358387133E+04  0.32940360037E+04 0.  0.
        5    1    3    3  502    0 -0.13242077543E+04  0.93263523507E+03 -0.39419283773E+02  0.16201575936E+04  0.46999998093E+01 0.  1.
       -5    1    3    3    0  502  0.13242077543E+04 -0.93263523507E+03  0.56586655367E+03  0.17156811198E+04  0.46999998093E+01 0. -1.
</event>
<event>
 5   0  0.2705859E-06  0.2484330E+04  0.7818609E-02  0.8408589E-01
       -2   -1    0    0    0  501  0.00000000000E+00  0.00000000000E+00  0.95768967324E+03  0.95768967324E+03  0.25500000920E-02 0.  1.
        2   -1    0    0  501    0  0.00000000000E+00  0.00000000000E+00 -0.16111424131E+04  0.16111424131E+04  0.25500000920E-02 0. -1.
    10030    2    1    2    0    0  0.00000000000E+00  0.00000000000E+00 -0.65345273989E+03  0.25688320864E+04  0.24843304540E+04 0.  0.
        1    1    3    3  502    0  0.95852987426E+03 -0.28395225129E+03 -0.10890730548E+04  0.14783397849E+04  0.50400001928E-02 0. -1.
       -1    1    3    3    0  502 -0.95852987426E+03  0.28395225129E+03  0.43562031488E+03  0.10904923015E+04  0.50400001928E-02 0.  1.
</event>
<event>
 5   0  0.2614212E-06  0.3339814E+04  0.7818609E-02  0.8152838E-01
       -2   -1    0    0    0  501  0.00000000000E+00  0.00000000000E+00  0.14361487775E+04  0.14361487775E+04  0.25500000920E-02 0.  1.
        2   -1    0    0  501    0  0.00000000000E+00  0.00000000000E+00 -0.19417133582E+04  0.19417133582E+04  0.25500000920E-02 0. -1.
    10030    2    1    2    0    0  0.00000000000E+00  0.00000000000E+00 -0.50556458067E+03  0.33778621357E+04  0.33398139264E+04 0.  0.
        2    1    3    3  502    0  0.13472118646E+04  0.66877430637E+03 -0.98654750805E+03  0.17987536982E+04  0.25500000920E-02 0. -1.
       -2    1    3    3    0  502 -0.13472118646E+04 -0.66877430637E+03  0.48098292739E+03  0.15791084375E+04  0.25500000920E-02 0.  1.
</event>
<event>
 5   0  0.2614212E-06  0.3358745E+04  0.7818609E-02  0.8148107E-01
       -2   -1    0    0    0  501  0.00000000000E+00  0.00000000000E+00  0.21564859753E+04  0.21564859753E+04  0.25500000920E-02 0.  1.
        2   -1    0    0  501    0  0.00000000000E+00  0.00000000000E+00 -0.13078180633E+04  0.13078180633E+04  0.25500000920E-02 0. -1.
    10030    2    1    2    0    0  0.00000000000E+00  0.00000000000E+00  0.84866791199E+03  0.34643040385E+04  0.33587445938E+04 0.  0.
        2    1    3    3  502    0 -0.50837553325E+03 -0.44337205202E+03  0.20106111940E+04  0.21207502994E+04  0.25500000920E-02 0.  1.
       -2    1    3    3    0  502  0.50837553325E+03  0.44337205202E+03 -0.11619432820E+04  0.13435537391E+04  0.25500000920E-02 0. -1.
</event>
<event>
 5   0  0.9295663E-07  0.3381340E+04  0.7818609E-02  0.8142501E-01
        1   -1    0    0  501    0  0.00000000000E+00  0.00000000000E+00  0.22891909574E+04  0.22891909574E+04  0.50400001928E-02 0. -1.
       -1   -1    0    0    0  501  0.00000000000E+00  0.00000000000E+00 -0.12486356957E+04  0.12486356957E+04  0.50400001928E-02 0.  1.
    10030    2    1    2    0    0  0.00000000000E+00  0.00000000000E+00  0.10405552618E+04  0.35378266531E+04  0.33813402926E+04 0.  0.
        4    1    3    3  502    0  0.28367433322E+03  0.12647527562E+04 -0.61545046151E+03  0.14348698704E+04  0.12699999809E+01 0.  1.
       -4    1    3    3    0  502 -0.28367433322E+03 -0.12647527562E+04  0.16560057233E+04  0.21029567827E+04  0.12699999809E+01 0. -1.
</event>
<event>
 5   0  0.8845526E-07  0.3272862E+04  0.7818609E-02  0.8169835E-01
        1   -1    0    0  501    0  0.00000000000E+00  0.00000000000E+00  0.20401683310E+04  0.20401683310E+04  0.50400001928E-02 0.  1.
       -1   -1    0    0    0  501  0.00000000000E+00  0.00000000000E+00 -0.13125909878E+04  0.13125909878E+04  0.50400001928E-02 0. -1.
    10030    2    1    2    0    0  0.00000000000E+00  0.00000000000E+00  0.72757734319E+03  0.33527593188E+04  0.32728620899E+04 0.  0.
        1    1    3    3  502    0 -0.12378392983E+04 -0.38318023546E+03 -0.66002562210E+03  0.14542032331E+04  0.50400001928E-02 0. -1.
       -1    1    3    3    0  502  0.12378392983E+04  0.38318023546E+03  0.13876029653E+04  0.18985560857E+04  0.50400001928E-02 0.  1.
</event>
<event>
 5   0  0.2658600E-06  0.3222663E+04  0.7818609E-02  0.8182857E-01
        2   -1    0    0  501    0  0.00000000000E+00  0.00000000000E+00  0.16457216484E+04  0.16457216484E+04  0.25500000920E-02 0. -1.
       -2   -1    0    0    0  501  0.00000000000E+00  0.00000000000E+00 -0.15776599577E+04  0.15776599577E+04  0.25500000920E-02 0.  1.
    10030    2    1    2    0    0  0.00000000000E+00  0.00000000000E+00  0.68061690718E+02  0.32233816060E+04  0.32226629648E+04 0.  0.
        5    1    3    3  502    0  0.10119878175E+03  0.14621248573E+04  0.70374476380E+03  0.16258318099E+04  0.46999998093E+01 0. -1.
       -5    1    3    3    0  502 -0.10119878175E+03 -0.14621248573E+04 -0.63568307308E+03  0.15975497961E+04  0.46999998093E+01 0.  1.
</event>
<event>
 5   0  0.9530268E-07  0.3276481E+04  0.7818609E-02  0.8168906E-01
       -1   -1    0    0    0  501  0.00000000000E+00  0.00000000000E+00  0.22703503191E+04  0.22703503191E+04  0.50400001928E-02 0. -1.
        1   -1    0    0  501    0  0.00000000000E+00  0.00000000000E+00 -0.11821223390E+04  0.11821223391E+04  0.50400001928E-02 0.  1.
    10030    2    1    2    0    0  0.00000000000E+00  0.00000000000E+00  0.10882279800E+04  0.34524726581E+04  0.32764809352E+04 0.  0.
        5    1    3    3  502    0  0.10605118529E+04  0.37226834898E+03 -0.71176973334E+03  0.13303786518E+04  0.46999998093E+01 0.  1.
       -5    1    3    3    0  502 -0.10605118529E+04 -0.37226834898E+03  0.17999977133E+04  0.21220940064E+04  0.46999998093E+01 0. -1.
</event>
<event>
 5   0  0.2614212E-06  0.3465796E+04  0.7818609E-02  0.8121944E-01
       -2   -1    0    0    0  501  0.00000000000E+00  0.00000000000E+00  0.13609964676E+04  0.13609964676E+04  0.25500000920E-02 0.  1.
        2   -1    0    0  501    0  0.00000000000E+00  0.00000000000E+00 -0.22064246288E+04  0.22064246288E+04  0.25500000920E-02 0. -1.
    10030    2    1    2    0    0  0.00000000000E+00  0.00000000000E+00 -0.84542816123E+03  0.35674210964E+04  0.34657963736E+04 0.  0.
        2    1    3    3  502    0 -0.23928710250E+03 -0.60472649663E+03 -0.20760450928E+04  0.21755265295E+04  0.25500000920E-02 0. -1.
       -2    1    3    3    0  502  0.23928710250E+03  0.60472649663E+03  0.12306169316E+04  0.13918945669E+04  0.25500000920E-02 0.  1.
</event>
<event>
 5   0  0.2574803E-06  0.3147541E+04  0.7818609E-02  0.8202810E-01
       -2   -1    0    0    0  501  0.00000000000E+00  0.00000000000E+00  0.13887496519E+04  0.13887496519E+04  0.25500000920E-02 0. -1.
        2   -1    0    0  501    0  0.00000000000E+00  0.00000000000E+00 -0.17834415532E+04  0.17834415532E+04  0.25500000920E-02 0.  1.
    10030    2    1    2    0    0  0.00000000000E+00  0.00000000000E+00 -0.39469190129E+03  0.31721912050E+04  0.31475411585E+04 0.  0.
        4    1    3    3  502    0  0.73686485930E+03 -0.89070270871E+02  0.12012718218E+04  0.14120761087E+04  0.12699999809E+01 0. -1.
       -4    1    3    3    0  502 -0.73686485930E+03  0.89070270871E+02 -0.15959637231E+04  0.17601150963E+04  0.12699999809E+01 0.  1.
</event>
<event>
 5   0  0.9295663E-07  0.3237956E+04  0.7818609E-02  0.8178864E-01
        1   -1    0    0  501    0  0.00000000000E+00  0.00000000000E+00  0.94094106951E+03  0.94094106952E+03  0.50400001928E-02 0.  1.
       -1   -1    0    0    0  501  0.00000000000E+00  0.00000000000E+00 -0.27856043582E+04  0.27856043582E+04  0.50400001928E-02 0. -1.
    10030    2    1    2    0    0  0.00000000000E+00  0.00000000000E+00 -0.18446632886E+04  0.37265454277E+04  0.32379558638E+04 0.  0.
        4    1    3    3  502    0  0.15746071429E+04  0.30096160849E+03 -0.11825518746E+04  0.19920833550E+04  0.12699999809E+01 0. -1.
       -4    1    3    3    0  502 -0.15746071429E+04 -0.30096160849E+03 -0.66211141409E+03  0.17344620727E+04  0.12699999809E+01 0.  1.
</event>
<event>
 5   0  0.2658600E-06  0.2433148E+04  0.7818609E-02  0.8427197E-01
        2   -1    0    0  501    0  0.00000000000E+00  0.00000000000E+00  0.18266409568E+04  0.18266409568E+04  0.25500000920E-02 0. -1.
       -2   -1    0    0    0  501  0.00000000000E+00  0.00000000000E+00 -0.81025930484E+03  0.81025930484E+03  0.25500000920E-02 0.  1.
    10030    2    1    2    0    0  0.00000000000E+00  0.00000000000E+00  0.10163816520E+04  0.26369002617E+04  0.24331484393E+04 0.  0.
        5    1    3    3  502    0  0.11374276128E+04  0.42127586186E+03  0.40643568700E+03  0.12792290584E+04  0.46999998093E+01 0.  1.
       -5    1    3    3    0  502 -0.11374276128E+04 -0.42127586186E+03  0.60994596499E+03  0.13576712033E+04  0.46999998093E+01 0. -1.
</event>
<event>
 5   0  0.2674551E-06  0.3274769E+04  0.7818609E-02  0.8169345E-01
        2   -1    0    0  501    0  0.00000000000E+00  0.00000000000E+00  0.19232232228E+04  0.19232232228E+04  0.25500000920E-02 0.  1.
       -2   -1    0    0    0  501  0.00000000000E+00  0.00000000000E+00 -0.13940284890E+04  0.13940284890E+04  0.25500000920E-02 0. -1.
    10030    2    1    2    0    0  0.00000000000E+00  0.00000000000E+00  0.52919473381E+03  0.33172517117E+04  0.32747689770E+04 0.  0.
        3    1    3    3  502    0 -0.63954389052E+03 -0.73949314385E+03  0.15950904849E+04  0.18708768433E+04  0.10100000352E+00 0.  1.
       -3    1    3    3    0  502  0.63954389052E+03  0.73949314385E+03 -0.10658957510E+04  0.14463748684E+04  0.10100000352E+00 0. -1.
</event>
<event>
 5   0  0.2574803E-06  0.2885177E+04  0.7818609E-02  0.8277301E-01
       -2   -1    0    0    0  501  0.00000000000E+00  0.00000000000E+00  0.12660130217E+04  0.12660130217E+04  0.25500000920E-02 0. -1.
        2   -1    0    0  501    0  0.00000000000E+00  0.00000000000E+00 -0.16437917541E+04  0.16437917541E+04  0.25500000920E-02 0.  1.
    10030    2    1    2    0    0  0.00000000000E+00  0.00000000000E+00 -0.37777873243E+03  0.29098047757E+04  0.28851771284E+04 0.  0.
        4    1    3    3  502    0  0.65046521763E+03  0.62060879401E+03  0.94892505545E+03  0.13071804192E+04  0.12699999809E+01 0. -1.
       -4    1    3    3    0  502 -0.65046521763E+03 -0.62060879401E+03 -0.13267037879E+04  0.16026243566E+04  0.12699999809E+01 0.  1.
</event>
<event>
 5   0  0.8705956E-07  0.3298804E+04  0.7818609E-02  0.8163200E-01
        1   -1    0    0  501    0  0.00000000000E+00  0.00000000000E+00  0.15491570222E+04  0.15491570222E+04  0.50400001928E-02 0. -1.
       -1   -1    0    0    0  501  0.00000000000E+00  0.00000000000E+00 -0.17561338609E+04  0.17561338609E+04  0.50400001928E-02 0.  1.
    10030    2    1    2    0    0  0.00000000000E+00  0.00000000000E+00 -0.20697683873E+03  0.33052908830E+04  0.32988040878E+04 0.  0.
        2    1    3    3  502    0 -0.89970459654E+02 -0.69518733337E+03  0.13924803088E+04  0.15589680954E+04  0.25500000920E-02 0. -1.
       -2    1    3    3    0  502  0.89970459654E+02  0.69518733337E+03 -0.15994571475E+04  0.17463227877E+04  0.25500000920E-02 0.  1.
</event>
<event>
 5   0  0.2658600E-06  0.3323273E+04  0.7818609E-02  0.8156999E-01
       -2   -1    0    0    0  501  0.00000000000E+00  0.00000000000E+00  0.12698854182E+04  0.12698854182E+04  0.25500000920E-02 0. -1.
        2   -1    0    0  501    0  0.00000000000E+00  0.00000000000E+00 -0.21742404779E+04  0.21742404779E+04  0.25500000920E-02 0.  1.
    10030    2    1    2    0    0  0.00000000000E+00  0.00000000000E+00 -0.90435505969E+03  0.34441258962E+04  0.33232732531E+04 0.  0.
        5    1    3    3  502    0  0.98382499486E+03 -0.20503747397E+03  0.91922123140E+03  0.13619624622E+04  0.46999998093E+01 0. -1.
       -5    1    3    3    0  502 -0.98382499486E+03  0.20503747397E+03 -0.18235762911E+04  0.20821634339E+04  0.46999998093E+01 0.  1.
</event>
<event>
 5   0  0.9530268E-07  0.3373764E+04  0.7818609E-02  0.8144376E-01
        1   -1    0    0  501    0  0.00000000000E+00  0.00000000000E+00  0.29898162430E+04  0.29898162430E+04  0.50400001928E-02 0.  1.
       -1   -1    0    0    0  501  0.00000000000E+00  0.00000000000E+00 -0.95175442275E+03  0.95175442276E+03  0.50400001928E-02 0. -1.
    10030    2    1    2    0    0  0.00000000000E+00  0.00000000000E+00  0.20380618202E+04  0.39415706657E+04  0.33737639707E+04 0.  0.
        5    1    3    3  502    0  0.70658762497E+03 -0.19693800604E+03 -0.75567050872E+03  0.10531432275E+04  0.46999998093E+01 0. -1.
       -5    1    3    3    0  502 -0.70658762497E+03  0.19693800604E+03  0.27937323289E+04  0.28884274382E+04  0.46999998093E+01 0.  1.
</event>
<event>
 5   0  0.2574803E-06  0.3329452E+04  0.7818609E-02  0.8155442E-01
        2   -1    0    0  501    0  0.00000000000E+00  0.00000000000E+00  0.18401412656E+04  0.18401412656E+04  0.25500000920E-02 0.  1.
       -2   -1    0    0    0  501  0.00000000000E+00  0.00000000000E+00 -0.15060322562E+04  0.15060322562E+04  0.25500000920E-02 0. -1.
    10030    2    1    2    0    0  0.00000000000E+00  0.00000000000E+00  0.33410900938E+03  0.33461735218E+04  0.33294516677E+04 0.  0.
        4    1    3    3  502    0 -0.36366149811E+03 -0.55983293300E+02 -0.14646533571E+04  0.15101638599E+04  0.12699999809E+01 0. -1.
       -4    1    3    3    0  502  0.36366149811E+03  0.55983293300E+02  0.17987623665E+04  0.18360096618E+04  0.12699999809E+01 0.  1.
</event>
<event>
 5   0  0.8845526E-07  0.3295249E+04  0.7818609E-02  0.8164105E-01
        1   -1    0    0  501    0  0.00000000000E+00  0.00000000000E+00  0.25140382638E+04  0.25140382638E+04  0.50400001928E-02 0. -1.
       -1   -1    0    0    0  501  0.00000000000E+00  0.00000000000E+00 -0.10798030886E+04  0.10798030887E+04  0.50400001928E-02 0.  1.
    10030    2    1    2    0    0  0.00000000000E+00  0.00000000000E+00  0.14342351751E+04  0.35938413524E+04  0.32952488721E+04 0.  0.
        1    1    3    3  502    0 -0.92921257174E+03 -0.11353544459E+04 -0.10062444011E+03  0.14705750573E+04  0.50400001928E-02 0.  1.
       -1    1    3    3    0  502  0.92921257174E+03  0.11353544459E+04  0.15348596152E+04  0.21232662951E+04  0.50400001928E-02 0. -1.
</event>
<event>
 5   0  0.2658600E-06  0.3262614E+04  0.7818609E-02  0.8172474E-01
        2   -1    0    0  501    0  0.00000000000E+00  0.00000000000E+00  0.18649983415E+04  0.18649983415E+04  0.25500000920E-02 0. -1.
       -2   -1    0    0    0  501  0.00000000000E+00  0.00000000000E+00 -0.14268983312E+04  0.14268983312E+04  0.25500000920E-02 0.  1.
    10030    2    1    2    0    0  0.00000000000E+00  0.00000000000E+00  0.43810001033E+03  0.32918966727E+04  0.32626143022E+04 0.  0.
        5    1    3    3  502    0 -0.13248848814E+04 -0.25034879768E+03  0.11455213048E+04  0.17692471900E+04  0.46999998093E+01 0. -1.
       -5    1    3    3    0  502  0.13248848814E+04  0.25034879768E+03 -0.70742129452E+03  0.15226494828E+04  0.46999998093E+01 0.  1.
</event>
<event>
 5   0  0.9530268E-07  0.3294455E+04  0.7818609E-02  0.8164308E-01
       -1   -1    0    0    0  501  0.00000000000E+00  0.00000000000E+00  0.10247248355E+04  0.10247248355E+04  0.50400001928E-02 0. -1.
        1   -1    0    0  501    0  0.00000000000E+00  0.00000000000E+00 -0.26478899946E+04  0.26478899946E+04  0.50400001928E-02 0.  1.
    10030    2    1    2    0    0  0.00000000000E+00  0.00000000000E+00 -0.16231651591E+04  0.36726148302E+04  0.32944551230E+04 0.  0.
        5    1    3    3  502    0 -0.93246025513E+03  0.58384517558E+03 -0.21782671065E+04  0.24403333776E+04  0.46999998093E+01 0.  1.
       -5    1    3    3    0  502  0.93246025513E+03 -0.58384517558E+03  0.55510194739E+03  0.12322814526E+04  0.46999998093E+01 0. -1.
</event>
<event>
 5   0  0.9530268E-07  0.3577763E+04  0.7818609E-02  0.8095604E-01
        1   -1    0    0  501    0  0.00000000000E+00  0.00000000000E+00  0.17844971585E+04  0.17844971585E+04  0.50400001928E-02 0.  1.
       -1   -1    0    0    0  501  0.00000000000E+00  0.00000000000E+00 -0.17932770037E+04  0.17932770038E+04  0.50400001928E-02 0. -1.
    10030    2    1    2    0    0  0.00000000000E+00  0.00000000000E+00 -0.87798452375E+01  0.35777741623E+04  0.35777633894E+04 0.  0.
        5    1    3    3  502    0  0.12715630872E+04 -0.11733194735E+04 -0.45884079984E+03  0.17900023020E+04  0.46999998093E+01 0.  1.
       -5    1    3    3    0  502 -0.12715630872E+04  0.11733194735E+04  0.45006095460E+03  0.17877718603E+04  0.46999998093E+01 0. -1.
</event>
<event>
 5   0  0.2658600E-06  0.3312439E+04  0.7818609E-02  0.8159737E-01
       -2   -1    0    0    0  501  0.00000000000E+00  0.00000000000E+00  0.11454730698E+04  0.11454730698E+04  0.25500000920E-02 0. -1.
        2   -1    0    0  501    0  0.00000000000E+00  0.00000000000E+00 -0.23946991907E+04  0.23946991907E+04  0.25500000920E-02 0.  1.
    10030    2    1    2    0    0  0.00000000000E+00  0.00000000000E+00 -0.12492261209E+04  0.35401722605E+04  0.33124392421E+04 0.  0.
        5    1    3    3  502    0 -0.67063487492E+03 -0.79959413594E+03  0.74986013126E+03  0.12850736260E+04  0.46999998093E+01 0. -1.
       -5    1    3    3    0  502  0.67063487492E+03  0.79959413594E+03 -0.19990862522E+04  0.22550986345E+04  0.46999998093E+01 0.  1.
</event>
<event>
 5   0  0.9295663E-07  0.2366891E+04  0.7818609E-02  0.8452004E-01
       -1   -1    0    0    0  501  0.00000000000E+00  0.00000000000E+00  0.97291715354E+03  0.97291715355E+03  0.50400001928E-02 0. -1.
        1   -1    0    0  501    0  0.00000000000E+00  0.00000000000E+00 -0.14395300368E+04  0.14395300368E+04  0.50400001928E-02 0.  1.
    10030    2    1    2    0    0  0.00000000000E+00  0.00000000000E+00 -0.46661288329E+03  0.24124471904E+04  0.23668911812E+04 0.  0.
        4    1    3    3  502    0  0.10419413332E+04 -0.53266290114E+03 -0.53357072679E+02  0.11714179861E+04  0.12699999809E+01 0.  1.
       -4    1    3    3    0  502 -0.10419413332E+04  0.53266290114E+03 -0.41325581061E+03  0.12410292043E+04  0.12699999809E+01 0. -1.
</event>
<event>
 5   0  0.9295663E-07  0.3350859E+04  0.7818609E-02  0.8150074E-01
       -1   -1    0    0    0  501  0.00000000000E+00  0.00000000000E+00  0.18933061282E+04  0.18933061282E+04  0.50400001928E-02 0.  1.
        1   -1    0    0  501    0  0.00000000000E+00  0.00000000000E+00 -0.14826251236E+04  0.14826251236E+04  0.50400001928E-02 0. -1.
    10030    2    1    2    0    0  0.00000000000E+00  0.00000000000E+00  0.41068100457E+03  0.33759312518E+04  0.33508585361E+04 0.  0.
        4    1    3    3  502    0  0.96870546029E+03  0.21941988288E+03 -0.11540241571E+04  0.15225993307E+04  0.12699999809E+01 0. -1.
       -4    1    3    3    0  502 -0.96870546029E+03 -0.21941988288E+03  0.15647051617E+04  0.18533319211E+04  0.12699999809E+01 0.  1.
</event>
<event>
 5   0  0.9530268E-07  0.2623940E+04  0.7818609E-02  0.8360115E-01
       -1   -1    0    0    0  501  0.00000000000E+00  0.00000000000E+00  0.11617868688E+04  0.11617868688E+04  0.50400001928E-02 0. -1.
        1   -1    0    0  501    0  0.00000000000E+00  0.00000000000E+00 -0.14815669490E+04  0.14815669491E+04  0.50400001928E-02 0.  1.
    10030    2    1    2    0    0  0.00000000000E+00  0.00000000000E+00 -0.31978008029E+03  0.26433538178E+04  0.26239398062E+04 0.  0.
        5    1    3    3  502    0 -0.13401517206E+03 -0.34311466876E+03  0.11086147528E+04  0.11682193726E+04  0.46999998093E+01 0. -1.
       -5    1    3    3    0  502  0.13401517206E+03  0.34311466876E+03 -0.14283948331E+04  0.14751344452E+04  0.46999998093E+01 0.  1.
</event>
<event>
 5   0  0.9295663E-07  0.3287374E+04  0.7818609E-02  0.8166115E-01
       -1   -1    0    0    0  501  0.00000000000E+00  0.00000000000E+00  0.12101469517E+04  0.12101469517E+04  0.50400001928E-02 0.  1.
        1   -1    0    0  501    0  0.00000000000E+00  0.00000000000E+00 -0.22325446821E+04  0.22325446821E+04  0.50400001928E-02 0. -1.
    10030    2    1    2    0    0  0.00000000000E+00  0.00000000000E+00 -0.10223977303E+04  0.34426916338E+04  0.32873741142E+04 0.  0.
        4    1    3    3  502    0  0.73907276712E+03  0.40174825848E+03  0.96763630735E+03  0.12821668591E+04  0.12699999809E+01 0.  1.
       -4    1    3    3    0  502 -0.73907276712E+03 -0.40174825848E+03 -0.19900340377E+04  0.21605247747E+04  0.12699999809E+01 0. -1.
</event>
<event>
 5   0  0.9295663E-07  0.3285702E+04  0.7818609E-02  0.8166543E-01
       -1   -1    0    0    0  501  0.00000000000E+00  0.00000000000E+00  0.21614427987E+04  0.21614427987E+04  0.50400001928E-02 0.  1.
        1   -1    0    0  501    0  0.00000000000E+00  0.00000000000E+00 -0.12486843958E+04  0.12486843958E+04  0.50400001928E-02 0. -1.
    10030    2    1    2    0    0  0.00000000000E+00  0.00000000000E+00  0.91275840290E+03  0.34101271944E+04  0.32857022963E+04 0.  0.
        4    1    3    3  502    0  0.62266343444E+03  0.41563814599E+03 -0.10613571291E+04  0.12988246184E+04  0.12699999809E+01 0. -1.
       -4    1    3    3    0  502 -0.62266343444E+03 -0.41563814599E+03  0.19741155320E+04  0.21113025760E+04  0.12699999809E+01 0.  1.
</event>
<event>
 5   0  0.9295663E-07  0.3225840E+04  0.7818609E-02  0.8182026E-01
        1   -1    0    0  501    0  0.00000000000E+00  0.00000000000E+00  0.15438494578E+04  0.15438494578E+04  0.50400001928E-02 0. -1.
       -1   -1    0    0    0  501  0.00000000000E+00  0.00000000000E+00 -0.16850809006E+04  0.16850809006E+04  0.50400001928E-02 0.  1.
    10030    2    1    2    0    0  0.00000000000E+00  0.00000000000E+00 -0.14123144275E+03  0.32289303584E+04  0.32258401912E+04 0.  0.
        4    1    3    3  502    0  0.79135803340E+03 -0.12899569340E+04  0.48783735828E+03  0.15900387824E+04  0.12699999809E+01 0.  1.
       -4    1    3    3    0  502 -0.79135803340E+03  0.12899569340E+04 -0.62906880104E+03  0.16388915760E+04  0.12699999809E+01 0. -1.
</event>
<event>
 5   0  0.8845526E-07  0.3200045E+04  0.7818609E-02  0.8188805E-01
        1   -1    0    0  501    0  0.00000000000E+00  0.00000000000E+00  0.16979610191E+04  0.16979610191E+04  0.50400001928E-02 0. -1.
       -1   -1    0    0    0  501  0.00000000000E+00  0.00000000000E+00 -0.15077326587E+04  0.15077326587E+04  0.50400001928E-02 0.  1.
    10030    2    1    2    0    0  0.00000000000E+00  0.00000000000E+00  0.19022836040E+03  0.32056936778E+04  0.32000445508E+04 0.  0.
        1    1    3    3  502    0 -0.13488737436E+04  0.57284067162E+03 -0.54825354184E+03  0.15646688970E+04  0.50400001928E-02 0.  1.
       -1    1    3    3    0  502  0.13488737436E+04 -0.57284067162E+03  0.73848190224E+03  0.16410247808E+04  0.50400001928E-02 0. -1.
</event>
<event>
 5   0  0.2614212E-06  0.3307914E+04  0.7818609E-02  0.8160885E-01
       -2   -1    0    0    0  501  0.00000000000E+00  0.00000000000E+00  0.12687018343E+04  0.12687018343E+04  0.25500000920E-02 0. -1.
        2   -1    0    0  501    0  0.00000000000E+00  0.00000000000E+00 -0.21561992668E+04  0.21561992668E+04  0.25500000920E-02 0.  1.
    10030    2    1    2    0    0  0.00000000000E+00  0.00000000000E+00 -0.88749743250E+03  0.34249011011E+04  0.33079141252E+04 0.  0.
        2    1    3    3  502    0  0.86694072853E+03  0.91886495493E+03 -0.15490592441E+04  0.19988705745E+04  0.25500000920E-02 0.  1.
       -2    1    3    3    0  502 -0.86694072853E+03 -0.91886495493E+03  0.66156181156E+03  0.14260305266E+04  0.25500000920E-02 0. -1.
</event>
<event>
 5   0  0.8845526E-07  0.2943095E+04  0.7818609E-02  0.8260170E-01
       -1   -1    0    0    0  501  0.00000000000E+00  0.00000000000E+00  0.15390952508E+04  0.15390952508E+04  0.50400001928E-02 0. -1.
        1   -1    0    0  501    0  0.00000000000E+00  0.00000000000E+00 -0.14069646769E+04  0.14069646769E+04  0.50400001928E-02 0.  1.
    10030    2    1    2    0    0  0.00000000000E+00  0.00000000000E+00  0.13213057390E+03  0.29460599278E+04  0.29430954129E+04 0.  0.
        1    1    3    3  502    0 -0.18571758433E+03  0.86376790362E+03  0.12440542241E+04  0.15258626822E+04  0.50400001928E-02 0. -1.
       -1    1    3    3    0  502  0.18571758433E+03 -0.86376790362E+03 -0.11119236502E+04  0.14201972456E+04  0.50400001928E-02 0.  1.
</event>
<event>
 5   0  0.8845526E-07  0.3331599E+04  0.7818609E-02  0.8154901E-01
        1   -1    0    0  501    0  0.00000000000E+00  0.00000000000E+00  0.13301059954E+04  0.13301059954E+04  0.50400001928E-02 0. -1.
       -1   -1    0    0    0  501  0.00000000000E+00  0.00000000000E+00 -0.20862162647E+04  0.20862162647E+04  0.50400001928E-02 0.  1.
    10030    2    1    2    0    0  0.00000000000E+00  0.00000000000E+00 -0.75611026934E+03  0.34163222602E+04  0.33315994726E+04 0.  0.
        1    1    3    3  502    0  0.13949875348E+04 -0.90500646196E+03 -0.47988732524E+03  0.17306989234E+04  0.50400001928E-02 0. -1.
       -1    1    3    3    0  502 -0.13949875348E+04  0.90500646196E+03 -0.27622294410E+03  0.16856233368E+04  0.50400001928E-02 0.  1.
</event>
<event>
 5   0  0.2658600E-06  0.3266327E+04  0.7818609E-02  0.8171517E-01
        2   -1    0    0  501    0  0.00000000000E+00  0.00000000000E+00  0.15826583083E+04  0.15826583083E+04  0.25500000920E-02 0.  1.
       -2   -1    0    0    0  501  0.00000000000E+00  0.00000000000E+00 -0.16852803495E+04  0.16852803495E+04  0.25500000920E-02 0. -1.
    10030    2    1    2    0    0  0.00000000000E+00  0.00000000000E+00 -0.10262204116E+03  0.32679386578E+04  0.32663269567E+04 0.  0.
        5    1    3    3  502    0  0.51911693682E+03 -0.15129227142E+04 -0.38129693553E+03  0.16443317719E+04  0.46999998093E+01 0. -1.
       -5    1    3    3    0  502 -0.51911693682E+03  0.15129227142E+04  0.27867489436E+03  0.16236068859E+04  0.46999998093E+01 0.  1.
</event>
<event>
 5   0  0.8705956E-07  0.3255733E+04  0.7818609E-02  0.8174251E-01
       -1   -1    0    0    0  501  0.00000000000E+00  0.00000000000E+00  0.12790280116E+04  0.12790280116E+04  0.50400001928E-02 0. -1.
        1   -1    0    0  501    0  0.00000000000E+00  0.00000000000E+00 -0.20718466902E+04  0.20718466902E+04  0.50400001928E-02 0.  1.
    10030    2    1    2    0    0  0.00000000000E+00  0.00000000000E+00 -0.79281867859E+03  0.33508747018E+04  0.32557333751E+04 0.  0.
        2    1    3    3  502    0  0.44999699463E+03  0.15302545133E+04 -0.73114221833E+03  0.17546353223E+04  0.25500000920E-02 0.  1.
       -2    1    3    3    0  502 -0.44999699463E+03 -0.15302545133E+04 -0.61676460256E+02  0.15962393795E+04  0.25500000920E-02 0. -1.
</event>
<event>
 5   0  0.9268670E-07  0.3269296E+04  0.7818609E-02  0.8170752E-01
       -1   -1    0    0    0  501  0.00000000000E+00  0.00000000000E+00  0.18064777744E+04  0.18064777744E+04  0.50400001928E-02 0.  1.
        1   -1    0    0  501    0  0.00000000000E+00  0.00000000000E+00 -0.14791622663E+04  0.14791622663E+04  0.50400001928E-02 0. -1.
    10030    2    1    2    0    0  0.00000000000E+00  0.00000000000E+00  0.32731550818E+03  0.32856400407E+04  0.32692958011E+04 0.  0.
        3    1    3    3  502    0 -0.10661235352E+04  0.11530845206E+03 -0.10762679931E+04  0.15192985996E+04  0.10100000352E+00 0. -1.
       -3    1    3    3    0  502  0.10661235352E+04 -0.11530845206E+03  0.14035835013E+04  0.17663414412E+04  0.10100000352E+00 0.  1.
</event>
<event>
 5   0  0.9295663E-07  0.3291590E+04  0.7818609E-02  0.8165039E-01
       -1   -1    0    0    0  501  0.00000000000E+00  0.00000000000E+00  0.17781081340E+04  0.17781081340E+04  0.50400001928E-02 0. -1.
        1   -1    0    0  501    0  0.00000000000E+00  0.00000000000E+00 -0.15233271790E+04  0.15233271790E+04  0.50400001928E-02 0.  1.
    10030    2    1    2    0    0  0.00000000000E+00  0.00000000000E+00  0.25478095508E+03  0.33014353130E+04  0.32915895538E+04 0.  0.
        4    1    3    3  502    0 -0.44168119817E+02  0.48933032085E+03  0.17028351444E+04  0.17722991079E+04  0.12699999809E+01 0. -1.
       -4    1    3    3    0  502  0.44168119817E+02 -0.48933032085E+03 -0.14480541894E+04  0.15291362052E+04  0.12699999809E+01 0.  1.
</event>
<event>
 5   0  0.9295663E-07  0.3291813E+04  0.7818609E-02  0.8164982E-01
        1   -1    0    0  501    0  0.00000000000E+00  0.00000000000E+00  0.31560233244E+04  0.31560233245E+04  0.50400001928E-02 0.  1.
       -1   -1    0    0    0  501  0.00000000000E+00  0.00000000000E+00 -0.85836115365E+03  0.85836115366E+03  0.50400001928E-02 0. -1.
    10030    2    1    2    0    0  0.00000000000E+00  0.00000000000E+00  0.22976621708E+04  0.40143844781E+04  0.32918127661E+04 0.  0.
        4    1    3    3  502    0 -0.98400149742E+03  0.95715051368E+03  0.22562404183E+04  0.26410260299E+04  0.12699999809E+01 0.  1.
       -4    1    3    3    0  502  0.98400149742E+03 -0.95715051368E+03  0.41421752531E+02  0.13733584482E+04  0.12699999809E+01 0. -1.
</event>
<event>
 5   0  0.2574803E-06  0.2989449E+04  0.7818609E-02  0.8246750E-01
        2   -1    0    0  501    0  0.00000000000E+00  0.00000000000E+00  0.12530048315E+04  0.12530048315E+04  0.25500000920E-02 0.  1.
       -2   -1    0    0    0  501  0.00000000000E+00  0.00000000000E+00 -0.17830748659E+04  0.17830748659E+04  0.25500000920E-02 0. -1.
    10030    2    1    2    0    0  0.00000000000E+00  0.00000000000E+00 -0.53007003436E+03  0.30360796974E+04  0.29894490609E+04 0.  0.
        4    1    3    3  502    0  0.26429509179E+03 -0.39187162492E+03  0.11751052017E+04  0.12666053505E+04  0.12699999809E+01 0.  1.
       -4    1    3    3    0  502 -0.26429509179E+03  0.39187162492E+03 -0.17051752360E+04  0.17694743469E+04  0.12699999809E+01 0. -1.
</event>
<event>
 5   0  0.9268670E-07  0.3182724E+04  0.7818609E-02  0.8193395E-01
        1   -1    0    0  501    0  0.00000000000E+00  0.00000000000E+00  0.23753534631E+04  0.23753534631E+04  0.50400001928E-02 0. -1.
       -1   -1    0    0    0  501  0.00000000000E+00  0.00000000000E+00 -0.10661286504E+04  0.10661286504E+04  0.50400001928E-02 0.  1.
    10030    2    1    2    0    0  0.00000000000E+00  0.00000000000E+00  0.13092248127E+04  0.34414821136E+04  0.31827236022E+04 0.  0.
        3    1    3    3  502    0  0.43150690398E+03 -0.12351406999E+04 -0.32494220232E+03  0.13480942852E+04  0.10100000352E+00 0. -1.
       -3    1    3    3    0  502 -0.43150690398E+03  0.12351406999E+04  0.16341670150E+04  0.20933878284E+04  0.10100000352E+00 0.  1.
</event>
<event>
 5   0  0.2614212E-06  0.2652501E+04  0.7818609E-02  0.8350583E-01
        2   -1    0    0  501    0  0.00000000000E+00  0.00000000000E+00  0.13969707429E+04  0.13969707430E+04  0.25500000920E-02 0. -1.
       -2   -1    0    0    0  501  0.00000000000E+00  0.00000000000E+00 -0.12591100212E+04  0.12591100212E+04  0.25500000920E-02 0.  1.
    10030    2    1    2    0    0  0.00000000000E+00  0.00000000000E+00  0.13786072176E+03  0.26560807641E+04  0.26525006026E+04 0.  0.
        2    1    3    3  502    0 -0.93372879347E+03  0.82266872326E+03  0.52814128340E+03  0.13518751803E+04  0.25500000920E-02 0. -1.
       -2    1    3    3    0  502  0.93372879347E+03 -0.82266872326E+03 -0.39028056164E+03  0.13042055838E+04  0.25500000920E-02 0.  1.
</event>
<event>
 5   0  0.2658600E-06  0.3175737E+04  0.7818609E-02  0.8195255E-01
       -2   -1    0    0    0  501  0.00000000000E+00  0.00000000000E+00  0.10253428176E+04  0.10253428176E+04  0.25500000920E-02 0.  1.
        2   -1    0    0  501    0  0.00000000000E+00  0.00000000000E+00 -0.24590079785E+04  0.24590079785E+04  0.25500000920E-02 0. -1.
    10030    2    1    2    0    0  0.00000000000E+00  0.00000000000E+00 -0.14336651608E+04  0.34843507961E+04  0.31757368715E+04 0.  0.
        5    1    3    3  502    0  0.52723690744E+03  0.14815040021E+04 -0.95838940454E+03  0.18415659656E+04  0.46999998093E+01 0. -1.
       -5    1    3    3    0  502 -0.52723690744E+03 -0.14815040021E+04 -0.47527575629E+03  0.16427848305E+04  0.46999998093E+01 0.  1.
</event>
<event>
 5   0  0.2674551E-06  0.3310597E+04  0.7818609E-02  0.8160204E-01
       -2   -1    0    0    0  501  0.00000000000E+00  0.00000000000E+00  0.12916419495E+04  0.12916419495E+04  0.25500000920E-02 0. -1.
        2   -1    0    0  501    0  0.00000000000E+00  0.00000000000E+00 -0.21213415091E+04  0.21213415091E+04  0.25500000920E-02 0.  1.
    10030    2    1    2    0    0  0.00000000000E+00  0.00000000000E+00 -0.82969955967E+03  0.34129834586E+04  0.33105973373E+04 0.  0.
        3    1    3    3  502    0 -0.15253550312E+04  0.50849790049E+03 -0.82037972079E+03  0.18050764478E+04  0.10100000352E+00 0.  1.
       -3    1    3    3    0  502  0.15253550312E+04 -0.50849790049E+03 -0.93198388742E+01  0.16079070108E+04  0.10100000352E+00 0. -1.
</event>
<event>
 5   0  0.8705956E-07  0.3315581E+04  0.7818609E-02  0.8158942E-01
       -1   -1    0    0    0  501  0.00000000000E+00  0.00000000000E+00  0.18469463190E+04  0.18469463190E+04  0.50400001928E-02 0.  1.
        1   -1    0    0  501    0  0.00000000000E+00  0.00000000000E+00 -0.14880067430E+04  0.14880067430E+04  0.50400001928E-02 0. -1.
    10030    2    1    2    0    0  0.00000000000E+00  0.00000000000E+00  0.35893957605E+03  0.33349530621E+04  0.33155805384E+04 0.  0.
        2    1    3    3  502    0  0.12377301140E+04 -0.10909209867E+04  0.34223040245E+03  0.16849943866E+04  0.25500000920E-02 0.  1.
       -2    1    3    3    0  502 -0.12377301140E+04  0.10909209867E+04  0.16709173601E+02  0.16499586755E+04  0.25500000920E-02 0. -1.
</event>
<event>
 5   0  0.2674551E-06  0.3286419E+04  0.7818609E-02  0.8166360E-01
       -2   -1    0    0    0  501  0.00000000000E+00  0.00000000000E+00  0.15047885656E+04  0.15047885656E+04  0.25500000920E-02 0.  1.
        2   -1    0    0  501    0  0.00000000000E+00  0.00000000000E+00 -0.17943633218E+04  0.17943633218E+04  0.25500000920E-02 0. -1.
    10030    2    1    2    0    0  0.00000000000E+00  0.00000000000E+00 -0.28957475628E+03  0.32991518874E+04  0.32864189685E+04 0.  0.
        3    1    3    3  502    0  0.61368684621E+03  0.76564640008E+03 -0.14679652270E+04  0.17657145503E+04  0.10100000352E+00 0. -1.
       -3    1    3    3    0  502 -0.61368684621E+03 -0.76564640008E+03  0.11783904707E+04  0.15334373371E+04  0.10100000352E+00 0.  1.
</event>
<event>
 5   0  0.9530268E-07  0.2465386E+04  0.7818609E-02  0.8415422E-01
        1   -1    0    0  501    0  0.00000000000E+00  0.00000000000E+00  0.10642175371E+04  0.10642175371E+04  0.50400001928E-02 0.  1.
       -1   -1    0    0    0  501  0.00000000000E+00  0.00000000000E+00 -0.14278397638E+04  0.14278397638E+04  0.50400001928E-02 0. -1.
    10030    2    1    2    0    0  0.00000000000E+00  0.00000000000E+00 -0.36362222669E+03  0.24920573009E+04  0.24653860686E+04 0.  0.
        5    1    3    3  502    0 -0.30442489108E+03  0.89472302389E+03  0.61814553096E+03  0.11293050036E+04  0.46999998093E+01 0.  1.
       -5    1    3    3    0  502  0.30442489108E+03 -0.89472302389E+03 -0.98176775766E+03  0.13627522973E+04  0.46999998093E+01 0. -1.
</event>
<event>
 5   0  0.9268670E-07  0.3035976E+04  0.7818609E-02  0.8233532E-01
       -1   -1    0    0    0  501  0.00000000000E+00  0.00000000000E+00  0.15078726124E+04  0.15078726124E+04  0.50400001928E-02 0.  1.
        1   -1    0    0  501    0  0.00000000000E+00  0.00000000000E+00 -0.15281715760E+04  0.15281715760E+04  0.50400001928E-02 0. -1.
    10030    2    1    2    0    0  0.00000000000E+00  0.00000000000E+00 -0.20298963600E+02  0.30360441883E+04  0.30359763282E+04 0.  0.
        3    1    3    3  502    0 -0.42584063764E+03 -0.10355867855E+03  0.14432320350E+04  0.15083047987E+04  0.10100000352E+00 0.  1.
       -3    1    3    3    0  502  0.42584063764E+03  0.10355867855E+03 -0.14635309986E+04  0.15277393897E+04  0.10100000352E+00 0. -1.
</event>
<event>
 5   0  0.8845526E-07  0.3307134E+04  0.7818609E-02  0.8161083E-01
        1   -1    0    0  501    0  0.00000000000E+00  0.00000000000E+00  0.85010669786E+03  0.85010669788E+03  0.50400001928E-02 0.  1.
       -1   -1    0    0    0  501  0.00000000000E+00  0.00000000000E+00 -0.32164001974E+04  0.32164001974E+04  0.50400001928E-02 0. -1.
    10030    2    1    2    0    0  0.00000000000E+00  0.00000000000E+00 -0.23662934995E+04  0.40665068953E+04  0.33071337142E+04 0.  0.
        1    1    3    3  502    0 -0.31029935188E+03  0.15441343340E+04 -0.56387043410E+03  0.16728976047E+04  0.50400001928E-02 0.  1.
       -1    1    3    3    0  502  0.31029935188E+03 -0.15441343340E+04 -0.18024230655E+04  0.23936092906E+04  0.50400001928E-02 0. -1.
</event>
<event>
 5   0  0.2574803E-06  0.3287352E+04  0.7818609E-02  0.8166121E-01
       -2   -1    0    0    0  501  0.00000000000E+00  0.00000000000E+00  0.14121322554E+04  0.14121322554E+04  0.25500000920E-02 0. -1.
        2   -1    0    0  501    0  0.00000000000E+00  0.00000000000E+00 -0.19131857941E+04  0.19131857941E+04  0.25500000920E-02 0.  1.
    10030    2    1    2    0    0  0.00000000000E+00  0.00000000000E+00 -0.50105353879E+03  0.33253180495E+04  0.32873523513E+04 0.  0.
        4    1    3    3  502    0 -0.10661873335E+03  0.93655352660E+02 -0.19069767831E+04  0.19122502304E+04  0.12699999809E+01 0.  1.
       -4    1    3    3    0  502  0.10661873335E+03 -0.93655352660E+02  0.14059232444E+04  0.14130678191E+04  0.12699999809E+01 0. -1.
</event>
<event>
 5   0  0.9295663E-07  0.3255675E+04  0.7818609E-02  0.8174266E-01
       -1   -1    0    0    0  501  0.00000000000E+00  0.00000000000E+00  0.11450667421E+04  0.11450667421E+04  0.50400001928E-02 0.  1.
        1   -1    0    0  501    0  0.00000000000E+00  0.00000000000E+00 -0.23141487212E+04  0.23141487212E+04  0.50400001928E-02 0. -1.
    10030    2    1    2    0    0  0.00000000000E+00  0.00000000000E+00 -0.11690819791E+04  0.34592154633E+04  0.32556748836E+04 0.  0.
        4    1    3    3  502    0 -0.23038834175E+03  0.12415258509E+04  0.50700651073E+03  0.13607065963E+04  0.12699999809E+01 0.  1.
       -4    1    3    3    0  502  0.23038834175E+03 -0.12415258509E+04 -0.16760884898E+04  0.20985088670E+04  0.12699999809E+01 0. -1.
</event>
<event>
 5   0  0.2658600E-06  0.3328853E+04  0.7818609E-02  0.8155592E-01
       -2   -1    0    0    0  501  0.00000000000E+00  0.00000000000E+00  0.19058181353E+04  0.19058181353E+04  0.25500000920E-02 0. -1.
        2   -1    0    0  501    0  0.00000000000E+00  0.00000000000E+00 -0.14536096607E+04  0.14536096607E+04  0.25500000920E-02 0.  1.
    10030    2    1    2    0    0  0.00000000000E+00  0.00000000000E+00  0.45220847454E+03  0.33594277960E+04  0.33288530475E+04 0.  0.
        5    1    3    3  502    0  0.51534765729E+03 -0.11203373368E+04  0.13542060774E+04  0.18315663096E+04  0.46999998093E+01 0. -1.
       -5    1    3    3    0  502 -0.51534765729E+03  0.11203373368E+04 -0.90199760289E+03  0.15278614865E+04  0.46999998093E+01 0.  1.
</event>
<event>
 5   0  0.9268670E-07  0.3371980E+04  0.7818609E-02  0.8144818E-01
       -1   -1    0    0    0  501  0.00000000000E+00  0.00000000000E+00  0.17348067693E+04  0.17348067693E+04  0.50400001928E-02 0.  1.
        1   -1    0    0  501    0  0.00000000000E+00  0.00000000000E+00 -0.16385467800E+04  0.16385467800E+04  0.50400001928E-02 0. -1.
    10030    2    1    2    0    0  0.00000000000E+00  0.00000000000E+00  0.96259989279E+02  0.33733535493E+04  0.33719798610E+04 0.  0.
        3    1    3    3  502    0 -0.12269477379E+04  0.16781561583E+03  0.11927111186E+04  0.17193378536E+04  0.10100000352E+00 0.  1.
       -3    1    3    3    0  502  0.12269477379E+04 -0.16781561583E+03 -0.10964511293E+04  0.16540156957E+04  0.10100000352E+00 0. -1.
</event>
<event>
 5   0  0.2614212E-06  0.3261051E+04  0.7818609E-02  0.8172877E-01
       -2   -1    0    0    0  501  0.00000000000E+00  0.00000000000E+00  0.14005305860E+04  0.14005305860E+04  0.25500000920E-02 0. -1.
        2   -1    0    0  501    0  0.00000000000E+00  0.00000000000E+00 -0.18982906916E+04  0.18982906916E+04  0.25500000920E-02 0.  1.
    10030    2    1    2    0    0  0.00000000000E+00  0.00000000000E+00 -0.49776010556E+03  0.32988212776E+04  0.32610514713E+04 0.  0.
        2    1    3    3  502    0 -0.77548193948E+03  0.80787681947E+03  0.94999495498E+03  0.14685120389E+04  0.25500000920E-02 0. -1.
       -2    1    3    3    0  502  0.77548193948E+03 -0.80787681947E+03 -0.14477550605E+04  0.18303092387E+04  0.25500000920E-02 0.  1.
</event>
<event>
 5   0  0.2574803E-06  0.2739107E+04  0.7818609E-02  0.8322426E-01
       -2   -1    0    0    0  501  0.00000000000E+00  0.00000000000E+00  0.14070492363E+04  0.14070492363E+04  0.25500000920E-02 0. -1.
        2   -1    0    0  501    0  0.00000000000E+00  0.00000000000E+00 -0.13330572660E+04  0.13330572660E+04  0.25500000920E-02 0.  1.
    10030    2    1    2    0    0  0.00000000000E+00  0.00000000000E+00  0.73991970361E+02  0.27401065023E+04  0.27391073057E+04 0.  0.
        4    1    3    3  502    0 -0.42859816224E+03 -0.10124962864E+04  0.85389076067E+03  0.13921121215E+04  0.12699999809E+01 0. -1.
       -4    1    3    3    0  502  0.42859816224E+03  0.10124962864E+04 -0.77989879031E+03  0.13479943808E+04  0.12699999809E+01 0.  1.
</event>
<event>
 5   0  0.2614212E-06  0.3334277E+04  0.7818609E-02  0.8154228E-01
        2   -1    0    0  501    0  0.00000000000E+00  0.00000000000E+00  0.87294410213E+03  0.87294410213E+03  0.25500000920E-02 0. -1.
       -2   -1    0    0    0  501  0.00000000000E+00  0.00000000000E+00 -0.31838811026E+04  0.31838811026E+04  0.25500000920E-02 0.  1.
    10030    2    1    2    0    0  0.00000000000E+00  0.00000000000E+00 -0.23109370005E+04  0.40568252048E+04  0.33342766714E+04 0.  0.
        2    1    3    3  502    0 -0.88132308085E+03 -0.12407287853E+04 -0.32738423191E+03  0.15567012324E+04  0.25500000920E-02 0. -1.
       -2    1    3    3    0  502  0.88132308085E+03  0.12407287853E+04 -0.19835527686E+04  0.25001239724E+04  0.25500000920E-02 0.  1.
</event>
<event>
 5   0  0.9295663E-07  0.3286519E+04  0.7818609E-02  0.8166334E-01
        1   -1    0    0  501    0  0.00000000000E+00  0.00000000000E+00  0.24909017677E+04  0.24909017677E+04  0.50400001928E-02 0.  1.
       -1   -1    0    0    0  501  0.00000000000E+00  0.00000000000E+00 -0.10840661244E+04  0.10840661244E+04  0.50400001928E-02 0. -1.
    10030    2    1    2    0    0  0.00000000000E+00  0.00000000000E+00  0.14068356433E+04  0.35749678921E+04  0.32865192685E+04 0.  0.
        4    1    3    3  502    0  0.14536503720E+04 -0.50523717148E+03  0.13301233698E+04  0.20341076164E+04  0.12699999809E+01 0.  1.
       -4    1    3    3    0  502 -0.14536503720E+04  0.50523717148E+03  0.76712273501E+02  0.15408602757E+04  0.12699999809E+01 0. -1.
</event>
<event>
 5   0  0.2658600E-06  0.2666387E+04  0.7818609E-02  0.8345994E-01
       -2   -1    0    0    0  501  0.00000000000E+00  0.00000000000E+00  0.89026081164E+03  0.89026081165E+03  0.25500000920E-02 0. -1.
        2   -1    0    0  501    0  0.00000000000E+00  0.00000000000E+00 -0.19964995231E+04  0.19964995231E+04  0.25500000920E-02 0.  1.
    10030    2    1    2    0    0  0.00000000000E+00  0.00000000000E+00 -0.11062387115E+04  0.28867603348E+04  0.26663872831E+04 0.  0.
        5    1    3    3  502    0 -0.73094414144E+03  0.43537546641E+02  0.65305431035E+03  0.98116098482E+03  0.46999998093E+01 0. -1.
       -5    1    3    3    0  502  0.73094414144E+03 -0.43537546641E+02 -0.17592930218E+04  0.19055993500E+04  0.46999998093E+01 0.  1.
</event>
<event>
 5   0  0.8705956E-07  0.3369271E+04  0.7818609E-02  0.8145490E-01
       -1   -1    0    0    0  501  0.00000000000E+00  0.00000000000E+00  0.10924794796E+04  0.10924794796E+04  0.50400001928E-02 0. -1.
        1   -1    0    0  501    0  0.00000000000E+00  0.00000000000E+00 -0.25977579178E+04  0.25977579178E+04  0.50400001928E-02 0.  1.
    10030    2    1    2    0    0  0.00000000000E+00  0.00000000000E+00 -0.15052784383E+04  0.36902373974E+04  0.33692712673E+04 0.  0.
        2    1    3    3  502    0 -0.11916948576E+03  0.10887824101E+04 -0.21545536292E+04  0.24169712129E+04  0.25500000920E-02 0.  1.
       -2    1    3    3    0  502  0.11916948576E+03 -0.10887824101E+04  0.64927519094E+03  0.12732661845E+04  0.25500000920E-02 0. -1.
</event>
<event>
 5   0  0.8845526E-07  0.2996200E+04  0.7818609E-02  0.8244817E-01
       -1   -1    0    0    0  501  0.00000000000E+00  0.00000000000E+00  0.97882848166E+03  0.97882848167E+03  0.50400001928E-02 0. -1.
        1   -1    0    0  501    0  0.00000000000E+00  0.00000000000E+00 -0.22928471668E+04  0.22928471668E+04  0.50400001928E-02 0.  1.
    10030    2    1    2    0    0  0.00000000000E+00  0.00000000000E+00 -0.13140186851E+04  0.32716756484E+04  0.29962003344E+04 0.  0.
        1    1    3    3  502    0  0.61751824682E+03  0.66880557538E+03 -0.19562245249E+04  0.21576478106E+04  0.50400001928E-02 0.  1.
       -1    1    3    3    0  502 -0.61751824682E+03 -0.66880557538E+03  0.64220583978E+03  0.11140278378E+04  0.50400001928E-02 0. -1.
</event>
<event>
 5   0  0.9530268E-07  0.3291815E+04  0.7818609E-02  0.8164981E-01
       -1   -1    0    0    0  501  0.00000000000E+00  0.00000000000E+00  0.14147776304E+04  0.14147776305E+04  0.50400001928E-02 0.  1.
        1   -1    0    0  501    0  0.00000000000E+00  0.00000000000E+00 -0.19147971182E+04  0.19147971182E+04  0.50400001928E-02 0. -1.
    10030    2    1    2    0    0  0.00000000000E+00  0.00000000000E+00 -0.50001948771E+03  0.33295747486E+04  0.32918153834E+04 0.  0.
        5    1    3    3  502    0 -0.12170636190E+03  0.21557887348E+03 -0.18958510633E+04  0.19119518910E+04  0.46999998093E+01 0. -1.
       -5    1    3    3    0  502  0.12170636190E+03 -0.21557887348E+03  0.13958315756E+04  0.14176228577E+04  0.46999998093E+01 0.  1.
</event>
<event>
 5   0  0.9295663E-07  0.2953258E+04  0.7818609E-02  0.8257206E-01
       -1   -1    0    0    0  501  0.00000000000E+00  0.00000000000E+00  0.93151673426E+03  0.93151673427E+03  0.50400001928E-02 0.  1.
        1   -1    0    0  501    0  0.00000000000E+00  0.00000000000E+00 -0.23407347349E+04  0.23407347349E+04  0.50400001928E-02 0. -1.
    10030    2    1    2    0    0  0.00000000000E+00  0.00000000000E+00 -0.14092180007E+04  0.32722514692E+04  0.29532582522E+04 0.  0.
        4    1    3    3  502    0  0.10667377075E+04 -0.35589581415E+03  0.35575564193E+03  0.11794722790E+04  0.12699999809E+01 0.  1.
       -4    1    3    3    0  502 -0.10667377075E+04  0.35589581415E+03 -0.17649736426E+04  0.20927791902E+04  0.12699999809E+01 0. -1.
</event>
<event>
 5   0  0.2705859E-06  0.3327677E+04  0.7818609E-02  0.8155888E-01
       -2   -1    0    0    0  501  0.00000000000E+00  0.00000000000E+00  0.11561453329E+04  0.11561453329E+04  0.25500000920E-02 0. -1.
        2   -1    0    0  501    0  0.00000000000E+00  0.00000000000E+00 -0.23944731189E+04  0.23944731189E+04  0.25500000920E-02 0.  1.
    10030    2    1    2    0    0  0.00000000000E+00  0.00000000000E+00 -0.12383277860E+04  0.35506184517E+04  0.33276772206E+04 0.  0.
        1    1    3    3  502    0 -0.25645842642E+03  0.10225454953E+04 -0.19926446720E+04  0.22543298346E+04  0.50400001928E-02 0.  1.
       -1    1    3    3    0  502  0.25645842642E+03 -0.10225454953E+04  0.75431688599E+03  0.12962886171E+04  0.50400001928E-02 0. -1.
</event>
<event>
 5   0  0.8845526E-07  0.3313997E+04  0.7818609E-02  0.8159343E-01
        1   -1    0    0  501    0  0.00000000000E+00  0.00000000000E+00  0.22918405334E+04  0.22918405334E+04  0.50400001928E-02 0. -1.
       -1   -1    0    0    0  501  0.00000000000E+00  0.00000000000E+00 -0.11980082422E+04  0.11980082422E+04  0.50400001928E-02 0.  1.
    10030    2    1    2    0    0  0.00000000000E+00  0.00000000000E+00  0.10938322912E+04  0.34898487756E+04  0.33139968912E+04 0.  0.
        1    1    3    3  502    0 -0.21700984653E+03 -0.13616054394E+04 -0.42086067764E+03  0.14415916052E+04  0.50400001928E-02 0.  1.
       -1    1    3    3    0  502  0.21700984653E+03  0.13616054394E+04  0.15146929688E+04  0.20482571704E+04  0.50400001928E-02 0. -1.
</event>
<event>
 5   0  0.2674551E-06  0.3304257E+04  0.7818609E-02  0.8161813E-01
        2   -1    0    0  501    0  0.00000000000E+00  0.00000000000E+00  0.23472634497E+04  0.23472634497E+04  0.25500000920E-02 0. -1.
       -2   -1    0    0    0  501  0.00000000000E+00  0.00000000000E+00 -0.11628559921E+04  0.11628559921E+04  0.25500000920E-02 0.  1.
    10030    2    1    2    0    0  0.00000000000E+00  0.00000000000E+00  0.11844074576E+04  0.35101194418E+04  0.33042574763E+04 0.  0.
        3    1    3    3  502    0  0.93475529574E+03 -0.63329036745E+03 -0.68905108433E+03  0.13227303427E+04  0.10100000352E+00 0.  1.
       -3    1    3    3    0  502 -0.93475529574E+03  0.63329036745E+03  0.18734585419E+04  0.21873890991E+04  0.10100000352E+00 0. -1.
</event>
<event>
 5   0  0.2705859E-06  0.3319384E+04  0.7818609E-02  0.8157981E-01
        2   -1    0    0  501    0  0.00000000000E+00  0.00000000000E+00  0.15547312157E+04  0.15547312157E+04  0.25500000920E-02 0.  1.
       -2   -1    0    0    0  501  0.00000000000E+00  0.00000000000E+00 -0.17717387425E+04  0.17717387425E+04  0.25500000920E-02 0. -1.
    10030    2    1    2    0    0  0.00000000000E+00  0.00000000000E+00 -0.21700752674E+03  0.33264699582E+04  0.33193839965E+04 0.  0.
        1    1    3    3  502    0  0.63661369372E+03 -0.14989429994E+04 -0.42929711918E+03  0.16841624408E+04  0.50400001928E-02 0. -1.
       -1    1    3    3    0  502 -0.63661369372E+03  0.14989429994E+04  0.21228959243E+03  0.16423075174E+04  0.50400001928E-02 0.  1.
</event>
<event>
 5   0  0.2705859E-06  0.3161169E+04  0.7818609E-02  0.8199148E-01
       -2   -1    0    0    0  501  0.00000000000E+00  0.00000000000E+00  0.14481586360E+04  0.14481586360E+04  0.25500000920E-02 0. -1.
        2   -1    0    0  501    0  0.00000000000E+00  0.00000000000E+00 -0.17251194237E+04  0.17251194237E+04  0.25500000920E-02 0.  1.
    10030    2    1    2    0    0  0.00000000000E+00  0.00000000000E+00 -0.27696078770E+03  0.31732780597E+04  0.31611685127E+04 0.  0.
        1    1    3    3  502    0  0.62541384300E+02 -0.13830856333E+04  0.62694253520E+03  0.15198336212E+04  0.50400001928E-02 0. -1.
       -1    1    3    3    0  502 -0.62541384300E+02  0.13830856333E+04 -0.90390332290E+03  0.16534444384E+04  0.50400001928E-02 0.  1.
</event>
<event>
 5   0  0.2658600E-06  0.3193039E+04  0.7818609E-02  0.8190658E-01
       -2   -1    0    0    0  501  0.00000000000E+00  0.00000000000E+00  0.16216863647E+04  0.16216863647E+04  0.25500000920E-02 0. -1.
        2   -1    0    0  501    0  0.00000000000E+00  0.00000000000E+00 -0.15717427313E+04  0.15717427313E+04  0.25500000920E-02 0.  1.
    10030    2    1    2    0    0  0.00000000000E+00  0.00000000000E+00  0.49943633405E+02  0.31934290959E+04  0.31930385253E+04 0.  0.
        5    1    3    3  502    0  0.14680013410E+04  0.39403596813E+03  0.51345697433E+03  0.16043542115E+04  0.46999998093E+01 0. -1.
       -5    1    3    3    0  502 -0.14680013410E+04 -0.39403596813E+03 -0.46351334092E+03  0.15890748845E+04  0.46999998093E+01 0.  1.
</event>
<event>
 5   0  0.9530268E-07  0.3352498E+04  0.7818609E-02  0.8149664E-01
       -1   -1    0    0    0  501  0.00000000000E+00  0.00000000000E+00  0.11331288821E+04  0.11331288821E+04  0.50400001928E-02 0. -1.
        1   -1    0    0  501    0  0.00000000000E+00  0.00000000000E+00 -0.24796927010E+04  0.24796927010E+04  0.50400001928E-02 0.  1.
    10030    2    1    2    0    0  0.00000000000E+00  0.00000000000E+00 -0.13465638189E+04  0.36128215831E+04  0.33524984225E+04 0.  0.
        5    1    3    3  502    0 -0.23282613572E+03 -0.16192581898E+04 -0.27940952316E+03  0.16596074434E+04  0.46999998093E+01 0.  1.
       -5    1    3    3    0  502  0.23282613572E+03  0.16192581898E+04 -0.10671542957E+04  0.19532141397E+04  0.46999998093E+01 0. -1.
</event>
<event>
 5   0  0.2674551E-06  0.2987076E+04  0.7818609E-02  0.8247431E-01
       -2   -1    0    0    0  501  0.00000000000E+00  0.00000000000E+00  0.14378879437E+04  0.14378879437E+04  0.25500000920E-02 0.  1.
        2   -1    0    0  501    0  0.00000000000E+00  0.00000000000E+00 -0.15513415833E+04  0.15513415833E+04  0.25500000920E-02 0. -1.
    10030    2    1    2    0    0  0.00000000000E+00  0.00000000000E+00 -0.11345363965E+03  0.29892295270E+04  0.29870757333E+04 0.  0.
        3    1    3    3  502    0  0.46014644328E+02  0.11537679384E+04  0.89124579016E+03  0.14586352772E+04  0.10100000352E+00 0. -1.
       -3    1    3    3    0  502 -0.46014644328E+02 -0.11537679384E+04 -0.10046994298E+04  0.15305942498E+04  0.10100000352E+00 0.  1.
</event>
<event>
 5   0  0.8705956E-07  0.3310225E+04  0.7818609E-02  0.8160298E-01
       -1   -1    0    0    0  501  0.00000000000E+00  0.00000000000E+00  0.19753439949E+04  0.19753439949E+04  0.50400001928E-02 0.  1.
        1   -1    0    0  501    0  0.00000000000E+00  0.00000000000E+00 -0.13867955145E+04  0.13867955145E+04  0.50400001928E-02 0. -1.
    10030    2    1    2    0    0  0.00000000000E+00  0.00000000000E+00  0.58854848045E+03  0.33621395094E+04  0.33102254858E+04 0.  0.
        2    1    3    3  502    0 -0.88760857426E+03  0.11041972213E+04 -0.57489027895E+03  0.15289209651E+04  0.25500000920E-02 0. -1.
       -2    1    3    3    0  502  0.88760857426E+03 -0.11041972213E+04  0.11634387594E+04  0.18332185444E+04  0.25500000920E-02 0.  1.
</event>
<event>
 5   0  0.8845526E-07  0.3306013E+04  0.7818609E-02  0.8161367E-01
       -1   -1    0    0    0  501  0.00000000000E+00  0.00000000000E+00  0.13458588088E+04  0.13458588088E+04  0.50400001928E-02 0. -1.
        1   -1    0    0  501    0  0.00000000000E+00  0.00000000000E+00 -0.20302504238E+04  0.20302504238E+04  0.50400001928E-02 0.  1.
    10030    2    1    2    0    0  0.00000000000E+00  0.00000000000E+00 -0.68439161498E+03  0.33761092326E+04  0.33060129564E+04 0.  0.
        1    1    3    3  502    0  0.14986482377E+04  0.34866129203E+03  0.27469781933E+03  0.15630003611E+04  0.50400001928E-02 0. -1.
       -1    1    3    3    0  502 -0.14986482377E+04 -0.34866129203E+03 -0.95908943431E+03  0.18131088715E+04  0.50400001928E-02 0.  1.
</event>
<event>
 5   0  0.9268670E-07  0.3286676E+04  0.7818609E-02  0.8166294E-01
        1   -1    0    0  501    0  0.00000000000E+00  0.00000000000E+00  0.17939531945E+04  0.17939531945E+04  0.50400001928E-02 0. -1.
       -1   -1    0    0    0  501  0.00000000000E+00  0.00000000000E+00 -0.15053677235E+04  0.15053677235E+04  0.50400001928E-02 0.  1.
    10030    2    1    2    0    0  0.00000000000E+00  0.00000000000E+00  0.28858547103E+03  0.32993209180E+04  0.32866756679E+04 0.  0.
        3    1    3    3  502    0  0.13869499854E+04 -0.37426343630E+03 -0.65681012100E+03  0.15795894805E+04  0.10100000352E+00 0. -1.
       -3    1    3    3    0  502 -0.13869499854E+04  0.37426343630E+03  0.94539559202E+03  0.17197314375E+04  0.10100000352E+00 0.  1.
</event>
<event>
 5   0  0.9268670E-07  0.2461362E+04  0.7818609E-02  0.8416881E-01
       -1   -1    0    0    0  501  0.00000000000E+00  0.00000000000E+00  0.93139685261E+03  0.93139685263E+03  0.50400001928E-02 0.  1.
        1   -1    0    0  501    0  0.00000000000E+00  0.00000000000E+00 -0.16261329983E+04  0.16261329983E+04  0.50400001928E-02 0. -1.
    10030    2    1    2    0    0  0.00000000000E+00  0.00000000000E+00 -0.69473614572E+03  0.25575298510E+04  0.24613615392E+04 0.  0.
        3    1    3    3  502    0 -0.54742743495E+03 -0.36699485692E+03  0.73257291894E+03  0.98540606519E+03  0.10100000352E+00 0.  1.
       -3    1    3    3    0  502  0.54742743495E+03  0.36699485692E+03 -0.14273090647E+04  0.15721237858E+04  0.10100000352E+00 0. -1.
</event>
<event>
 5   0  0.2614212E-06  0.3163976E+04  0.7818609E-02  0.8198396E-01
        2   -1    0    0  501    0  0.00000000000E+00  0.00000000000E+00  0.18939639861E+04  0.18939639861E+04  0.25500000920E-02 0. -1.
       -2   -1    0    0    0  501  0.00000000000E+00  0.00000000000E+00 -0.13214010120E+04  0.13214010120E+04  0.25500000920E-02 0.  1.
    10030    2    1    2    0    0  0.00000000000E+00  0.00000000000E+00  0.57256297408E+03  0.32153649980E+04  0.31639759341E+04 0.  0.
        2    1    3    3  502    0  0.12706651857E+03  0.74323896640E+03 -0.11270388151E+04  0.13560112654E+04  0.25500000920E-02 0.  1.
       -2    1    3    3    0  502 -0.12706651857E+03 -0.74323896640E+03  0.16996017891E+04  0.18593537326E+04  0.25500000920E-02 0. -1.
</event>
<event>
 5   0  0.9530268E-07  0.3293130E+04  0.7818609E-02  0.8164646E-01
       -1   -1    0    0    0  501  0.00000000000E+00  0.00000000000E+00  0.15447223629E+04  0.15447223629E+04  0.50400001928E-02 0.  1.
        1   -1    0    0  501    0  0.00000000000E+00  0.00000000000E+00 -0.17551220063E+04  0.17551220063E+04  0.50400001928E-02 0. -1.
    10030    2    1    2    0    0  0.00000000000E+00  0.00000000000E+00 -0.21039964340E+03  0.32998443691E+04  0.32931299474E+04 0.  0.
        5    1    3    3  502    0 -0.12184513492E+04 -0.10460255791E+04 -0.46975601310E+03  0.16731664604E+04  0.46999998093E+01 0.  1.
       -5    1    3    3    0  502  0.12184513492E+04  0.10460255791E+04  0.25935636970E+03  0.16266779088E+04  0.46999998093E+01 0. -1.
</event>
<event>
 5   0  0.2658600E-06  0.3360743E+04  0.7818609E-02  0.8147609E-01
       -2   -1    0    0    0  501  0.00000000000E+00  0.00000000000E+00  0.20755955603E+04  0.20755955603E+04  0.25500000920E-02 0. -1.
        2   -1    0    0  501    0  0.00000000000E+00  0.00000000000E+00 -0.13604039067E+04  0.13604039067E+04  0.25500000920E-02 0.  1.
    10030    2    1    2    0    0  0.00000000000E+00  0.00000000000E+00  0.71519165352E+03  0.34359994670E+04  0.33607429589E+04 0.  0.
        5    1    3    3  502    0 -0.37520563130E+03 -0.13917134761E+04  0.12406381993E+04  0.19018020130E+04  0.46999998093E+01 0.  1.
       -5    1    3    3    0  502  0.37520563130E+03  0.13917134761E+04 -0.52544654575E+03  0.15341974540E+04  0.46999998093E+01 0. -1.
</event>
<event>
 5   0  0.8705956E-07  0.3262847E+04  0.7818609E-02  0.8172414E-01
       -1   -1    0    0    0  501  0.00000000000E+00  0.00000000000E+00  0.13371743859E+04  0.13371743859E+04  0.50400001928E-02 0. -1.
        1   -1    0    0  501    0  0.00000000000E+00  0.00000000000E+00 -0.19904233582E+04  0.19904233582E+04  0.50400001928E-02 0.  1.
    10030    2    1    2    0    0  0.00000000000E+00  0.00000000000E+00 -0.65324897226E+03  0.33275977441E+04  0.32628473037E+04 0.  0.
        2    1    3    3  502    0  0.19188292922E+03  0.13224862307E+04  0.62776401103E+03  0.14764404974E+04  0.25500000920E-02 0. -1.
       -2    1    3    3    0  502 -0.19188292922E+03 -0.13224862307E+04 -0.12810129833E+04  0.18511572467E+04  0.25500000920E-02 0.  1.
</event>
<event>
 5   0  0.8705956E-07  0.3304541E+04  0.7818609E-02  0.8161741E-01
        1   -1    0    0  501    0  0.00000000000E+00  0.00000000000E+00  0.23202322366E+04  0.23202322366E+04  0.50400001928E-02 0.  1.
       -1   -1    0    0    0  501  0.00000000000E+00  0.00000000000E+00 -0.11766055737E+04  0.11766055737E+04  0.50400001928E-02 0. -1.
    10030    2    1    2    0    0  0.00000000000E+00  0.00000000000E+00  0.11436266628E+04  0.34968378103E+04  0.33045412280E+04 0.  0.
        2    1    3    3  502    0 -0.82908327487E+03  0.89519889136E+03 -0.60712708121E+03  0.13628512114E+04  0.25500000920E-02 0. -1.
       -2    1    3    3    0  502  0.82908327487E+03 -0.89519889136E+03  0.17507537440E+04  0.21339865989E+04  0.25500000920E-02 0.  1.
</event>
<event>
 5   0  0.8845526E-07  0.3314532E+04  0.7818609E-02  0.8159208E-01
       -1   -1    0    0    0  501  0.00000000000E+00  0.00000000000E+00  0.16247639780E+04  0.16247639780E+04  0.50400001928E-02 0. -1.
        1   -1    0    0  501    0  0.00000000000E+00  0.00000000000E+00 -0.16904182946E+04  0.16904182946E+04  0.50400001928E-02 0.  1.
    10030    2    1    2    0    0  0.00000000000E+00  0.00000000000E+00 -0.65654316628E+02  0.33151822726E+04  0.33145320954E+04 0.  0.
        1    1    3    3  502    0  0.23713812794E+03 -0.34775071142E+03  0.15704113810E+04  0.16258403841E+04  0.50400001928E-02 0. -1.
       -1    1    3    3    0  502 -0.23713812794E+03  0.34775071142E+03 -0.16360656977E+04  0.16893418885E+04  0.50400001928E-02 0.  1.
</event>
<event>
 5   0  0.8705956E-07  0.3384423E+04  0.7818609E-02  0.8141740E-01
       -1   -1    0    0    0  501  0.00000000000E+00  0.00000000000E+00  0.15759825910E+04  0.15759825910E+04  0.50400001928E-02 0.  1.
        1   -1    0    0  501    0  0.00000000000E+00  0.00000000000E+00 -0.18170125338E+04  0.18170125338E+04  0.50400001928E-02 0. -1.
    10030    2    1    2    0    0  0.00000000000E+00  0.00000000000E+00 -0.24102994280E+03  0.33929951248E+04  0.33844232129E+04 0.  0.
        2    1    3    3  502    0  0.12993230940E+04  0.54833250839E+03 -0.10581222149E+04  0.17631028512E+04  0.25500000920E-02 0. -1.
       -2    1    3    3    0  502 -0.12993230940E+04 -0.54833250839E+03  0.81709227215E+03  0.16298922736E+04  0.25500000920E-02 0.  1.
</event>
<event>
 5   0  0.2705859E-06  0.3190261E+04  0.7818609E-02  0.8191394E-01
        2   -1    0    0  501    0  0.00000000000E+00  0.00000000000E+00  0.11292052252E+04  0.11292052252E+04  0.25500000920E-02 0.  1.
       -2   -1    0    0    0  501  0.00000000000E+00  0.00000000000E+00 -0.22533033700E+04  0.22533033700E+04  0.25500000920E-02 0. -1.
    10030    2    1    2    0    0  0.00000000000E+00  0.00000000000E+00 -0.11240981448E+04  0.33825085952E+04  0.31902613932E+04 0.  0.
        1    1    3    3  502    0 -0.51769674995E+03 -0.14791681341E+04 -0.87745415225E+03  0.17960718480E+04  0.50400001928E-02 0. -1.
       -1    1    3    3    0  502  0.51769674995E+03  0.14791681341E+04 -0.24664399254E+03  0.15864367472E+04  0.50400001928E-02 0.  1.
</event>
<event>
 5   0  0.2705859E-06  0.3265726E+04  0.7818609E-02  0.8171671E-01
        2   -1    0    0  501    0  0.00000000000E+00  0.00000000000E+00  0.16337510460E+04  0.16337510460E+04  0.25500000920E-02 0. -1.
       -2   -1    0    0    0  501  0.00000000000E+00  0.00000000000E+00 -0.16319758858E+04  0.16319758858E+04  0.25500000920E-02 0.  1.
    10030    2    1    2    0    0  0.00000000000E+00  0.00000000000E+00  0.17751602015E+01  0.32657269317E+04  0.32657264493E+04 0.  0.
        1    1    3    3  502    0 -0.98778399948E+03  0.12703427151E+04  0.27793358630E+03  0.16330140605E+04  0.50400001928E-02 0.  1.
       -1    1    3    3    0  502  0.98778399948E+03 -0.12703427151E+04 -0.27615842610E+03  0.16327128712E+04  0.50400001928E-02 0. -1.
</event>
<event>
 5   0  0.9295663E-07  0.3292839E+04  0.7818609E-02  0.8164720E-01
       -1   -1    0    0    0  501  0.00000000000E+00  0.00000000000E+00  0.11688549049E+04  0.11688549049E+04  0.50400001928E-02 0.  1.
        1   -1    0    0  501    0  0.00000000000E+00  0.00000000000E+00 -0.23191042249E+04  0.23191042249E+04  0.50400001928E-02 0. -1.
    10030    2    1    2    0    0  0.00000000000E+00  0.00000000000E+00 -0.11502493200E+04  0.34879591298E+04  0.32928385009E+04 0.  0.
        4    1    3    3  502    0  0.10484630133E+04  0.49503998793E+03  0.66305254406E+03  0.13356569803E+04  0.12699999809E+01 0.  1.
       -4    1    3    3    0  502 -0.10484630133E+04 -0.49503998793E+03 -0.18133018640E+04  0.21523021495E+04  0.12699999809E+01 0. -1.
</event>
<event>
 5   0  0.2658600E-06  0.3283486E+04  0.7818609E-02  0.8167110E-01
       -2   -1    0    0    0  501  0.00000000000E+00  0.00000000000E+00  0.14698943390E+04  0.14698943390E+04  0.25500000920E-02 0. -1.
        2   -1    0    0  501    0  0.00000000000E+00  0.00000000000E+00 -0.18336828325E+04  0.18336828325E+04  0.25500000920E-02 0.  1.
    10030    2    1    2    0    0  0.00000000000E+00  0.00000000000E+00 -0.36378849343E+03  0.33035771715E+04  0.32834859616E+04 0.  0.
        5    1    3    3  502    0 -0.15330818649E+04  0.58387377567E+03 -0.24591800055E+03  0.16588388539E+04  0.46999998093E+01 0.  1.
       -5    1    3    3    0  502  0.15330818649E+04 -0.58387377567E+03 -0.11787049288E+03  0.16447383176E+04  0.46999998093E+01 0. -1.
</event>
<event>
 5   0  0.9530268E-07  0.3288313E+04  0.7818609E-02  0.8165876E-01
       -1   -1    0    0    0  501  0.00000000000E+00  0.00000000000E+00  0.16553376701E+04  0.16553376701E+04  0.50400001928E-02 0.  1.
        1   -1    0    0  501    0  0.00000000000E+00  0.00000000000E+00 -0.16330507620E+04  0.16330507620E+04  0.50400001928E-02 0. -1.
    10030    2    1    2    0    0  0.00000000000E+00  0.00000000000E+00  0.22286908163E+02  0.32883884321E+04  0.32883129070E+04 0.  0.
        5    1    3    3  502    0 -0.12380900363E+04 -0.73798988072E+03  0.80219408160E+03  0.16495555269E+04  0.46999998093E+01 0.  1.
       -5    1    3    3    0  502  0.12380900363E+04  0.73798988072E+03 -0.77990717344E+03  0.16388329052E+04  0.46999998093E+01 0. -1.
</event>
<event>
 5   0  0.8705956E-07  0.3306363E+04  0.7818609E-02  0.8161278E-01
        1   -1    0    0  501    0  0.00000000000E+00  0.00000000000E+00  0.18300407265E+04  0.18300407265E+04  0.50400001928E-02 0.  1.
       -1   -1    0    0    0  501  0.00000000000E+00  0.00000000000E+00 -0.14934139072E+04  0.14934139072E+04  0.50400001928E-02 0. -1.
    10030    2    1    2    0    0  0.00000000000E+00  0.00000000000E+00  0.33662681933E+03  0.33234546337E+04  0.33063625159E+04 0.  0.
        2    1    3    3  502    0 -0.55611789750E+03 -0.19482323472E+03  0.17208968287E+04  0.18189857349E+04  0.25500000920E-02 0.  1.
       -2    1    3    3    0  502  0.55611789750E+03  0.19482323472E+03 -0.13842700093E+04  0.15044688988E+04  0.25500000920E-02 0. -1.
</event>
<event>
 5   0  0.2658600E-06  0.3330839E+04  0.7818609E-02  0.8155092E-01
       -2   -1    0    0    0  501  0.00000000000E+00  0.00000000000E+00  0.95295541428E+03  0.95295541428E+03  0.25500000920E-02 0. -1.
        2   -1    0    0  501    0  0.00000000000E+00  0.00000000000E+00 -0.29105474072E+04  0.29105474072E+04  0.25500000920E-02 0.  1.
    10030    2    1    2    0    0  0.00000000000E+00  0.00000000000E+00 -0.19575919929E+04  0.38635028215E+04  0.33308388794E+04 0.  0.
        5    1    3    3  502    0 -0.14430045509E+04  0.34137421905E+03 -0.18581960549E+04  0.23773332033E+04  0.46999998093E+01 0.  1.
       -5    1    3    3    0  502  0.14430045509E+04 -0.34137421905E+03 -0.99395938034E+02  0.14861696181E+04  0.46999998093E+01 0. -1.
</event>
<event>
 5   0  0.2705859E-06  0.3338362E+04  0.7818609E-02  0.8153202E-01
        2   -1    0    0  501    0  0.00000000000E+00  0.00000000000E+00  0.22246499877E+04  0.22246499877E+04  0.25500000920E-02 0. -1.
       -2   -1    0    0    0  501  0.00000000000E+00  0.00000000000E+00 -0.12524061039E+04  0.12524061039E+04  0.25500000920E-02 0.  1.
    10030    2    1    2    0    0  0.00000000000E+00  0.00000000000E+00  0.97224388377E+03  0.34770560916E+04  0.33383620077E+04 0.  0.
        1    1    3    3  502    0 -0.88498239473E+03 -0.87637371457E+03 -0.67132551165E+03  0.14148860976E+04  0.50400001928E-02 0.  1.
       -1    1    3    3    0  502  0.88498239473E+03  0.87637371457E+03  0.16435693954E+04  0.20621699940E+04  0.50400001928E-02 0. -1.
</event>
<event>
 5   0  0.8705956E-07  0.3378745E+04  0.7818609E-02  0.8143143E-01
        1   -1    0    0  501    0  0.00000000000E+00  0.00000000000E+00  0.24209553588E+04  0.24209553588E+04  0.50400001928E-02 0.  1.
       -1   -1    0    0    0  501  0.00000000000E+00  0.00000000000E+00 -0.11788648273E+04  0.11788648273E+04  0.50400001928E-02 0. -1.
    10030    2    1    2    0    0  0.00000000000E+00  0.00000000000E+00  0.12420905315E+04  0.35998201861E+04  0.33787448089E+04 0.  0.
        2    1    3    3  502    0  0.11731428471E+03  0.16846799138E+04  0.57257028269E+03  0.17831841694E+04  0.25500000920E-02 0.  1.
       -2    1    3    3    0  502 -0.11731428471E+03 -0.16846799138E+04  0.66952024883E+03  0.18166360167E+04  0.25500000920E-02 0. -1.
</event>
<event>
 5   0  0.8520125E-07  0.2796794E+04  0.7818609E-02  0.8304264E-01
       -3   -1    0    0    0  501  0.00000000000E+00  0.00000000000E+00  0.15162492216E+04  0.15162492249E+04  0.10100000352E+00 0. -1.
        3   -1    0    0  501    0  0.00000000000E+00  0.00000000000E+00 -0.12897051530E+04  0.12897051570E+04  0.10100000352E+00 0.  1.
    10030    2    1    2    0    0  0.00000000000E+00  0.00000000000E+00  0.22654406854E+03  0.28059543819E+04  0.27967941967E+04 0.  0.
        4    1    3    3  502    0 -0.11451612497E+04  0.79847896808E+03  0.19446844245E+03  0.14095327375E+04  0.12699999809E+01 0. -1.
       -4    1    3    3    0  502  0.11451612497E+04 -0.79847896808E+03  0.32075626093E+02  0.13964216444E+04  0.12699999809E+01 0.  1.
</event>
<event>
 5   0  0.9268670E-07  0.3006569E+04  0.7818609E-02  0.8241858E-01
       -1   -1    0    0    0  501  0.00000000000E+00  0.00000000000E+00  0.15122974166E+04  0.15122974166E+04  0.50400001928E-02 0. -1.
        1   -1    0    0  501    0  0.00000000000E+00  0.00000000000E+00 -0.14943250552E+04  0.14943250552E+04  0.50400001928E-02 0.  1.
    10030    2    1    2    0    0  0.00000000000E+00  0.00000000000E+00  0.17972361439E+02  0.30066224718E+04  0.30065687556E+04 0.  0.
        3    1    3    3  502    0  0.15407641512E+02  0.38974640215E+03 -0.14428401078E+04  0.14946328112E+04  0.10100000352E+00 0.  1.
       -3    1    3    3    0  502 -0.15407641512E+02 -0.38974640215E+03  0.14608124692E+04  0.15119896606E+04  0.10100000352E+00 0. -1.
</event>
<event>
 5   0  0.9268670E-07  0.2907144E+04  0.7818609E-02  0.8270755E-01
        1   -1    0    0  501    0  0.00000000000E+00  0.00000000000E+00  0.21164830649E+04  0.21164830649E+04  0.50400001928E-02 0.  1.
       -1   -1    0    0    0  501  0.00000000000E+00  0.00000000000E+00 -0.99829354666E+03  0.99829354668E+03  0.50400001928E-02 0. -1.
    10030    2    1    2    0    0  0.00000000000E+00  0.00000000000E+00  0.11181895182E+04  0.31147766116E+04  0.29071438804E+04 0.  0.
        3    1    3    3  502    0 -0.13606818457E+04 -0.42014693828E+03  0.87126817072E+03  0.16694570286E+04  0.10100000352E+00 0.  1.
       -3    1    3    3    0  502  0.13606818457E+04  0.42014693828E+03  0.24692134752E+03  0.14453195830E+04  0.10100000352E+00 0. -1.
</event>
<event>
 5   0  0.9530268E-07  0.3319120E+04  0.7818609E-02  0.8158047E-01
       -1   -1    0    0    0  501  0.00000000000E+00  0.00000000000E+00  0.16163835657E+04  0.16163835657E+04  0.50400001928E-02 0.  1.
        1   -1    0    0  501    0  0.00000000000E+00  0.00000000000E+00 -0.17038898826E+04  0.17038898826E+04  0.50400001928E-02 0. -1.
    10030    2    1    2    0    0  0.00000000000E+00  0.00000000000E+00 -0.87506316875E+02  0.33202734483E+04  0.33191201268E+04 0.  0.
        5    1    3    3  502    0  0.12417474249E+04  0.31018029731E+03 -0.11005145857E+04  0.16879878339E+04  0.46999998093E+01 0. -1.
       -5    1    3    3    0  502 -0.12417474249E+04 -0.31018029731E+03  0.10130082688E+04  0.16322856144E+04  0.46999998093E+01 0.  1.
</event>
<event>
 5   0  0.9295663E-07  0.3307613E+04  0.7818609E-02  0.8160961E-01
        1   -1    0    0  501    0  0.00000000000E+00  0.00000000000E+00  0.16694078455E+04  0.16694078455E+04  0.50400001928E-02 0. -1.
       -1   -1    0    0    0  501  0.00000000000E+00  0.00000000000E+00 -0.16383509015E+04  0.16383509015E+04  0.50400001928E-02 0.  1.
    10030    2    1    2    0    0  0.00000000000E+00  0.00000000000E+00  0.31056943950E+02  0.33077587470E+04  0.33076129451E+04 0.  0.
        4    1    3    3  502    0  0.13602249482E+04 -0.93830516449E+03 -0.51150882073E+02  0.16532533131E+04  0.12699999809E+01 0.  1.
       -4    1    3    3    0  502 -0.13602249482E+04  0.93830516449E+03  0.82207826023E+02  0.16545054340E+04  0.12699999809E+01 0. -1.
</event>
<event>
 5   0  0.9530268E-07  0.3263188E+04  0.7818609E-02  0.8172326E-01
        1   -1    0    0  501    0  0.00000000000E+00  0.00000000000E+00  0.15247515150E+04  0.15247515150E+04  0.50400001928E-02 0. -1.
       -1   -1    0    0    0  501  0.00000000000E+00  0.00000000000E+00 -0.17459229935E+04  0.17459229935E+04  0.50400001928E-02 0.  1.
    10030    2    1    2    0    0  0.00000000000E+00  0.00000000000E+00 -0.22117147849E+03  0.32706745084E+04  0.32631878458E+04 0.  0.
        5    1    3    3  502    0 -0.11833891921E+04 -0.72147821390E+03  0.75228185877E+03  0.15769879132E+04  0.46999998093E+01 0. -1.
       -5    1    3    3    0  502  0.11833891921E+04  0.72147821390E+03 -0.97345333726E+03  0.16936865953E+04  0.46999998093E+01 0.  1.
</event>
<event>
 5   0  0.2574803E-06  0.3279410E+04  0.7818609E-02  0.8168154E-01
       -2   -1    0    0    0  501  0.00000000000E+00  0.00000000000E+00  0.26123508745E+04  0.26123508745E+04  0.25500000920E-02 0. -1.
        2   -1    0    0  501    0  0.00000000000E+00  0.00000000000E+00 -0.10292002381E+04  0.10292002381E+04  0.25500000920E-02 0.  1.
    10030    2    1    2    0    0  0.00000000000E+00  0.00000000000E+00  0.15831506364E+04  0.36415511125E+04  0.32794097895E+04 0.  0.
        4    1    3    3  502    0 -0.11050055150E+04  0.78046111704E+03 -0.23727984247E+03  0.13734846486E+04  0.12699999809E+01 0.  1.
       -4    1    3    3    0  502  0.11050055150E+04 -0.78046111704E+03  0.18204304789E+04  0.22680664639E+04  0.12699999809E+01 0. -1.
</event>
<event>
 5   0  0.9530268E-07  0.3323139E+04  0.7818609E-02  0.8157033E-01
       -1   -1    0    0    0  501  0.00000000000E+00  0.00000000000E+00  0.15355003893E+04  0.15355003893E+04  0.50400001928E-02 0. -1.
        1   -1    0    0  501    0  0.00000000000E+00  0.00000000000E+00 -0.17979888207E+04  0.17979888208E+04  0.50400001928E-02 0.  1.
    10030    2    1    2    0    0  0.00000000000E+00  0.00000000000E+00 -0.26248843143E+03  0.33334892101E+04  0.33231385973E+04 0.  0.
        5    1    3    3  502    0  0.10060383187E+04  0.14625618346E+03  0.11871120427E+04  0.15629334797E+04  0.46999998093E+01 0. -1.
       -5    1    3    3    0  502 -0.10060383187E+04 -0.14625618346E+03 -0.14496004742E+04  0.17705557304E+04  0.46999998093E+01 0.  1.
</event>
<event>
 5   0  0.2674551E-06  0.3198022E+04  0.7818609E-02  0.8189340E-01
       -2   -1    0    0    0  501  0.00000000000E+00  0.00000000000E+00  0.18151419675E+04  0.18151419675E+04  0.25500000920E-02 0. -1.
        2   -1    0    0  501    0  0.00000000000E+00  0.00000000000E+00 -0.14086149841E+04  0.14086149841E+04  0.25500000920E-02 0.  1.
    10030    2    1    2    0    0  0.00000000000E+00  0.00000000000E+00  0.40652698341E+03  0.32237569516E+04  0.31980219973E+04 0.  0.
        3    1    3    3  502    0 -0.15156384812E+04  0.64558368518E+02 -0.30628252965E+03  0.15476229472E+04  0.10100000352E+00 0.  1.
       -3    1    3    3    0  502  0.15156384812E+04 -0.64558368518E+02  0.71280951306E+03  0.16761340044E+04  0.10100000352E+00 0. -1.
</event>
<event>
 5   0  0.2674551E-06  0.3168770E+04  0.7818609E-02  0.8197114E-01
        2   -1    0    0  501    0  0.00000000000E+00  0.00000000000E+00  0.22207607379E+04  0.22207607379E+04  0.25500000920E-02 0.  1.
       -2   -1    0    0    0  501  0.00000000000E+00  0.00000000000E+00 -0.11303676517E+04  0.11303676517E+04  0.25500000920E-02 0. -1.
    10030    2    1    2    0    0  0.00000000000E+00  0.00000000000E+00  0.10903930862E+04  0.33511283895E+04  0.31687701717E+04 0.  0.
        3    1    3    3  502    0 -0.51719811611E+03  0.13792019002E+03 -0.10318492498E+04  0.11624236554E+04  0.10100000352E+00 0. -1.
       -3    1    3    3    0  502  0.51719811611E+03 -0.13792019002E+03  0.21222423360E+04  0.21887047341E+04  0.10100000352E+00 0.  1.
</event>
<event>
 5   0  0.8705956E-07  0.3165694E+04  0.7818609E-02  0.8197937E-01
       -1   -1    0    0    0  501  0.00000000000E+00  0.00000000000E+00  0.13605773477E+04  0.13605773477E+04  0.50400001928E-02 0.  1.
        1   -1    0    0  501    0  0.00000000000E+00  0.00000000000E+00 -0.18414270546E+04  0.18414270546E+04  0.50400001928E-02 0. -1.
    10030    2    1    2    0    0  0.00000000000E+00  0.00000000000E+00 -0.48084970689E+03  0.32020044023E+04  0.31656935657E+04 0.  0.
        2    1    3    3  502    0  0.57981022248E+03 -0.17771480102E+03  0.12384127549E+04  0.13789229841E+04  0.25500000920E-02 0.  1.
       -2    1    3    3    0  502 -0.57981022248E+03  0.17771480102E+03 -0.17192624618E+04  0.18230814182E+04  0.25500000920E-02 0. -1.
</event>
<event>
 5   0  0.2658600E-06  0.3320054E+04  0.7818609E-02  0.8157811E-01
        2   -1    0    0  501    0  0.00000000000E+00  0.00000000000E+00  0.17784447673E+04  0.17784447673E+04  0.25500000920E-02 0. -1.
       -2   -1    0    0    0  501  0.00000000000E+00  0.00000000000E+00 -0.15494944383E+04  0.15494944383E+04  0.25500000920E-02 0.  1.
    10030    2    1    2    0    0  0.00000000000E+00  0.00000000000E+00  0.22895032900E+03  0.33279392057E+04  0.33200543826E+04 0.  0.
        5    1    3    3  502    0  0.78816359901E+03 -0.11305745676E+04 -0.81306966801E+03  0.16001578318E+04  0.46999998093E+01 0.  1.
       -5    1    3    3    0  502 -0.78816359901E+03  0.11305745676E+04  0.10420199970E+04  0.17277813739E+04  0.46999998093E+01 0. -1.
</event>
<event>
 5   0  0.9530268E-07  0.3271023E+04  0.7818609E-02  0.8170308E-01
       -1   -1    0    0    0  501  0.00000000000E+00  0.00000000000E+00  0.14104999532E+04  0.14104999532E+04  0.50400001928E-02 0.  1.
        1   -1    0    0  501    0  0.00000000000E+00  0.00000000000E+00 -0.18964187728E+04  0.18964187728E+04  0.50400001928E-02 0. -1.
    10030    2    1    2    0    0  0.00000000000E+00  0.00000000000E+00 -0.48591881958E+03  0.33069187260E+04  0.32710234424E+04 0.  0.
        5    1    3    3  502    0  0.57953083869E+03 -0.14684527116E+04 -0.67504529611E+03  0.17169500869E+04  0.46999998093E+01 0. -1.
       -5    1    3    3    0  502 -0.57953083869E+03  0.14684527116E+04  0.18912647654E+03  0.15899686391E+04  0.46999998093E+01 0.  1.
</event>
<event>
 5   0  0.8705956E-07  0.3307981E+04  0.7818609E-02  0.8160867E-01
        1   -1    0    0  501    0  0.00000000000E+00  0.00000000000E+00  0.22563872155E+04  0.22563872155E+04  0.50400001928E-02 0.  1.
       -1   -1    0    0    0  501  0.00000000000E+00  0.00000000000E+00 -0.12124183695E+04  0.12124183695E+04  0.50400001928E-02 0. -1.
    10030    2    1    2    0    0  0.00000000000E+00  0.00000000000E+00  0.10439688460E+04  0.34688055850E+04  0.33079814441E+04 0.  0.
        2    1    3    3  502    0 -0.12940468412E+04 -0.13450263533E+03  0.15929284620E+04  0.20567132204E+04  0.25500000920E-02 0.  1.
       -2    1    3    3    0  502  0.12940468412E+04  0.13450263533E+03 -0.54895961595E+03  0.14120923645E+04  0.25500000920E-02 0. -1.
</event>
<event>
 5   0  0.2658600E-06  0.3273758E+04  0.7818609E-02  0.8169605E-01
        2   -1    0    0  501    0  0.00000000000E+00  0.00000000000E+00  0.21648338077E+04  0.21648338077E+04  0.25500000920E-02 0.  1.
       -2   -1    0    0    0  501  0.00000000000E+00  0.00000000000E+00 -0.12376805794E+04  0.12376805794E+04  0.25500000920E-02 0. -1.
    10030    2    1    2    0    0  0.00000000000E+00  0.00000000000E+00  0.92715322825E+03  0.34025143871E+04  0.32737579393E+04 0.  0.
        5    1    3    3  502    0 -0.38168226709E+03  0.97830361661E+03  0.17685840179E+04  0.20568594599E+04  0.46999998093E+01 0.  1.
       -5    1    3    3    0  502  0.38168226709E+03 -0.97830361661E+03 -0.84143078965E+03  0.13456549272E+04  0.46999998093E+01 0. -1.
</event>
<event>
 5   0  0.2705859E-06  0.3305235E+04  0.7818609E-02  0.8161565E-01
       -2   -1    0    0    0  501  0.00000000000E+00  0.00000000000E+00  0.24324697188E+04  0.24324697188E+04  0.25500000920E-02 0. -1.
        2   -1    0    0  501    0  0.00000000000E+00  0.00000000000E+00 -0.11227868136E+04  0.11227868136E+04  0.25500000920E-02 0.  1.
    10030    2    1    2    0    0  0.00000000000E+00  0.00000000000E+00  0.13096829052E+04  0.35552565324E+04  0.33052351957E+04 0.  0.
        1    1    3    3  502    0  0.12236574225E+04  0.10630656444E+03 -0.53446598939E+03  0.13395120258E+04  0.50400001928E-02 0.  1.
       -1    1    3    3    0  502 -0.12236574225E+04 -0.10630656444E+03  0.18441488946E+04  0.22157445067E+04  0.50400001928E-02 0. -1.
</event>
<event>
 5   0  0.8705956E-07  0.3274376E+04  0.7818609E-02  0.8169446E-01
        1   -1    0    0  501    0  0.00000000000E+00  0.00000000000E+00  0.12547245389E+04  0.12547245389E+04  0.50400001928E-02 0.  1.
       -1   -1    0    0    0  501  0.00000000000E+00  0.00000000000E+00 -0.21362338758E+04  0.21362338758E+04  0.50400001928E-02 0. -1.
    10030    2    1    2    0    0  0.00000000000E+00  0.00000000000E+00 -0.88150933693E+03  0.33909584147E+04  0.32743763160E+04 0.  0.
        2    1    3    3  502    0 -0.14538275131E+03  0.98912466337E+03  0.90189404162E+03  0.13464459166E+04  0.25500000920E-02 0.  1.
       -2    1    3    3    0  502  0.14538275131E+03 -0.98912466337E+03 -0.17834033785E+04  0.20445124980E+04  0.25500000920E-02 0. -1.
</event>
<event>
 5   0  0.2705859E-06  0.3311323E+04  0.7818609E-02  0.8160020E-01
       -2   -1    0    0    0  501  0.00000000000E+00  0.00000000000E+00  0.15884101841E+04  0.15884101841E+04  0.25500000920E-02 0.  1.
        2   -1    0    0  501    0  0.00000000000E+00  0.00000000000E+00 -0.17257599764E+04  0.17257599764E+04  0.25500000920E-02 0. -1.
    10030    2    1    2    0    0  0.00000000000E+00  0.00000000000E+00 -0.13734979224E+03  0.33141701605E+04  0.33113228305E+04 0.  0.
        1    1    3    3  502    0  0.68419825206E+03 -0.14101426863E+04 -0.60259877145E+03  0.16792125903E+04  0.50400001928E-02 0.  1.
       -1    1    3    3    0  502 -0.68419825206E+03  0.14101426863E+04  0.46524897921E+03  0.16349575703E+04  0.50400001928E-02 0. -1.
</event>
<event>
 5   0  0.9295663E-07  0.3317946E+04  0.7818609E-02  0.8158344E-01
       -1   -1    0    0    0  501  0.00000000000E+00  0.00000000000E+00  0.15997152028E+04  0.15997152028E+04  0.50400001928E-02 0. -1.
        1   -1    0    0  501    0  0.00000000000E+00  0.00000000000E+00 -0.17204254938E+04  0.17204254938E+04  0.50400001928E-02 0.  1.
    10030    2    1    2    0    0  0.00000000000E+00  0.00000000000E+00 -0.12071029106E+03  0.33201406966E+04  0.33179456402E+04 0.  0.
        4    1    3    3  502    0  0.65931738363E+03 -0.13524075500E+04 -0.75973355395E+03  0.16854976356E+04  0.12699999809E+01 0.  1.
       -4    1    3    3    0  502 -0.65931738363E+03  0.13524075500E+04  0.63902326288E+03  0.16346430610E+04  0.12699999809E+01 0. -1.
</event>
<event>
 5   0  0.2674551E-06  0.3147935E+04  0.7818609E-02  0.8202704E-01
       -2   -1    0    0    0  501  0.00000000000E+00  0.00000000000E+00  0.20892526345E+04  0.20892526345E+04  0.25500000920E-02 0. -1.
        2   -1    0    0  501    0  0.00000000000E+00  0.00000000000E+00 -0.11857704594E+04  0.11857704594E+04  0.25500000920E-02 0.  1.
    10030    2    1    2    0    0  0.00000000000E+00  0.00000000000E+00  0.90348217513E+03  0.32750230939E+04  0.31479352320E+04 0.  0.
        3    1    3    3  502    0 -0.13851798169E+03 -0.11573195571E+04 -0.64869410046E+03  0.13339339694E+04  0.10100000352E+00 0.  1.
       -3    1    3    3    0  502  0.13851798169E+03  0.11573195571E+04  0.15521762756E+04  0.19410891245E+04  0.10100000352E+00 0. -1.
</event>
<event>
 5   0  0.9295663E-07  0.3290282E+04  0.7818609E-02  0.8165373E-01
       -1   -1    0    0    0  501  0.00000000000E+00  0.00000000000E+00  0.17700737409E+04  0.17700737409E+04  0.50400001928E-02 0.  1.
        1   -1    0    0  501    0  0.00000000000E+00  0.00000000000E+00 -0.15290260768E+04  0.15290260768E+04  0.50400001928E-02 0. -1.
    10030    2    1    2    0    0  0.00000000000E+00  0.00000000000E+00  0.24104766417E+03  0.32990998177E+04  0.32902819987E+04 0.  0.
        4    1    3    3  502    0 -0.92162923085E+03  0.60000559134E+03  0.13473551667E+04  0.17391879446E+04  0.12699999809E+01 0.  1.
       -4    1    3    3    0  502  0.92162923085E+03 -0.60000559134E+03 -0.11063075025E+04  0.15599118731E+04  0.12699999809E+01 0. -1.
</event>
<event>
 5   0  0.2674551E-06  0.2536734E+04  0.7818609E-02  0.8390014E-01
        2   -1    0    0  501    0  0.00000000000E+00  0.00000000000E+00  0.16377868720E+04  0.16377868720E+04  0.25500000920E-02 0.  1.
       -2   -1    0    0    0  501  0.00000000000E+00  0.00000000000E+00 -0.98227378813E+03  0.98227378813E+03  0.25500000920E-02 0. -1.
    10030    2    1    2    0    0  0.00000000000E+00  0.00000000000E+00  0.65551308386E+03  0.26200606601E+04  0.25367342115E+04 0.  0.
        3    1    3    3  502    0  0.54650964545E+03 -0.77081809551E+03  0.12016714870E+04  0.15286751460E+04  0.10100000352E+00 0. -1.
       -3    1    3    3    0  502 -0.54650964545E+03  0.77081809551E+03 -0.54615840319E+03  0.10913855142E+04  0.10100000352E+00 0.  1.
</event>
<event>
 5   0  0.2574803E-06  0.3296854E+04  0.7818609E-02  0.8163696E-01
       -2   -1    0    0    0  501  0.00000000000E+00  0.00000000000E+00  0.12254697348E+04  0.12254697348E+04  0.25500000920E-02 0. -1.
        2   -1    0    0  501    0  0.00000000000E+00  0.00000000000E+00 -0.22173635441E+04  0.22173635442E+04  0.25500000920E-02 0.  1.
    10030    2    1    2    0    0  0.00000000000E+00  0.00000000000E+00 -0.99189380939E+03  0.34428332789E+04  0.32968542062E+04 0.  0.
        4    1    3    3  502    0 -0.64610277304E+03 -0.14475904009E+04 -0.96800636509E+03  0.18574188267E+04  0.12699999809E+01 0.  1.
       -4    1    3    3    0  502  0.64610277304E+03  0.14475904009E+04 -0.23887444309E+02  0.15854144522E+04  0.12699999809E+01 0. -1.
</event>
<event>
 5   0  0.2614212E-06  0.3298372E+04  0.7818609E-02  0.8163310E-01
       -2   -1    0    0    0  501  0.00000000000E+00  0.00000000000E+00  0.14001990972E+04  0.14001990972E+04  0.25500000920E-02 0. -1.
        2   -1    0    0  501    0  0.00000000000E+00  0.00000000000E+00 -0.19424484236E+04  0.19424484236E+04  0.25500000920E-02 0.  1.
    10030    2    1    2    0    0  0.00000000000E+00  0.00000000000E+00 -0.54224932648E+03  0.33426475208E+04  0.32983720403E+04 0.  0.
        2    1    3    3  502    0  0.11548769664E+04 -0.65473479964E+03  0.72047589241E+03  0.15104648215E+04  0.25500000920E-02 0. -1.
       -2    1    3    3    0  502 -0.11548769664E+04  0.65473479964E+03 -0.12627252189E+04  0.18321826993E+04  0.25500000920E-02 0.  1.
</event>
<event>
 5   0  0.2614212E-06  0.3209247E+04  0.7818609E-02  0.8186379E-01
        2   -1    0    0  501    0  0.00000000000E+00  0.00000000000E+00  0.26244761022E+04  0.26244761022E+04  0.25500000920E-02 0. -1.
       -2   -1    0    0    0  501  0.00000000000E+00  0.00000000000E+00 -0.98107814743E+03  0.98107814743E+03  0.25500000920E-02 0.  1.
    10030    2    1    2    0    0  0.00000000000E+00  0.00000000000E+00  0.16433979547E+04  0.36055542496E+04  0.32092467355E+04 0.  0.
        2    1    3    3  502    0  0.13254138013E+04 -0.30606776889E+03  0.17779308639E+04  0.22386239926E+04  0.25500000920E-02 0. -1.
       -2    1    3    3    0  502 -0.13254138013E+04  0.30606776889E+03 -0.13453290916E+03  0.13669302569E+04  0.25500000920E-02 0.  1.
</event>
<event>
 5   0  0.9295663E-07  0.3266189E+04  0.7818609E-02  0.8171552E-01
       -1   -1    0    0    0  501  0.00000000000E+00  0.00000000000E+00  0.21782098879E+04  0.21782098879E+04  0.50400001928E-02 0. -1.
        1   -1    0    0  501    0  0.00000000000E+00  0.00000000000E+00 -0.12243985274E+04  0.12243985274E+04  0.50400001928E-02 0.  1.
    10030    2    1    2    0    0  0.00000000000E+00  0.00000000000E+00  0.95381136053E+03  0.34026084153E+04  0.32661885917E+04 0.  0.
        4    1    3    3  502    0 -0.13913885173E+04 -0.26401165836E+03 -0.37028315114E+03  0.14638221841E+04  0.12699999809E+01 0.  1.
       -4    1    3    3    0  502  0.13913885173E+04  0.26401165836E+03  0.13240945117E+04  0.19387862312E+04  0.12699999809E+01 0. -1.
</event>
<event>
 5   0  0.2614212E-06  0.3293282E+04  0.7818609E-02  0.8164607E-01
       -2   -1    0    0    0  501  0.00000000000E+00  0.00000000000E+00  0.10744934159E+04  0.10744934159E+04  0.25500000920E-02 0.  1.
        2   -1    0    0  501    0  0.00000000000E+00  0.00000000000E+00 -0.25234462197E+04  0.25234462197E+04  0.25500000920E-02 0. -1.
    10030    2    1    2    0    0  0.00000000000E+00  0.00000000000E+00 -0.14489528038E+04  0.35979396356E+04  0.32932818576E+04 0.  0.
        2    1    3    3  502    0 -0.42920282824E+03  0.15857836940E+04 -0.84662923440E+03  0.18481628858E+04  0.25500000920E-02 0. -1.
       -2    1    3    3    0  502  0.42920282824E+03 -0.15857836940E+04 -0.60232356943E+03  0.17497767498E+04  0.25500000920E-02 0.  1.
</event>
<event>
 5   0  0.2658600E-06  0.3204042E+04  0.7818609E-02  0.8187751E-01
        2   -1    0    0  501    0  0.00000000000E+00  0.00000000000E+00  0.16998546722E+04  0.16998546722E+04  0.25500000920E-02 0.  1.
       -2   -1    0    0    0  501  0.00000000000E+00  0.00000000000E+00 -0.15098179407E+04  0.15098179407E+04  0.25500000920E-02 0. -1.
    10030    2    1    2    0    0  0.00000000000E+00  0.00000000000E+00  0.19003673155E+03  0.32096726129E+04  0.32040418728E+04 0.  0.
        5    1    3    3  502    0  0.15498073245E+03  0.15940882195E+04  0.58723329057E+02  0.16026873676E+04  0.46999998093E+01 0. -1.
       -5    1    3    3    0  502 -0.15498073245E+03 -0.15940882195E+04  0.13131340249E+03  0.16069852453E+04  0.46999998093E+01 0.  1.
</event>
<event>
 5   0  0.2658600E-06  0.3257707E+04  0.7818609E-02  0.8173741E-01
       -2   -1    0    0    0  501  0.00000000000E+00  0.00000000000E+00  0.20866615014E+04  0.20866615014E+04  0.25500000920E-02 0. -1.
        2   -1    0    0  501    0  0.00000000000E+00  0.00000000000E+00 -0.12714871050E+04  0.12714871050E+04  0.25500000920E-02 0.  1.
    10030    2    1    2    0    0  0.00000000000E+00  0.00000000000E+00  0.81517439638E+03  0.33581486064E+04  0.32577066728E+04 0.  0.
        5    1    3    3  502    0  0.33913530348E+03  0.12511590311E+04  0.14242664495E+04  0.19258682936E+04  0.46999998093E+01 0. -1.
       -5    1    3    3    0  502 -0.33913530348E+03 -0.12511590311E+04 -0.60909205316E+03  0.14322803127E+04  0.46999998093E+01 0.  1.
</event>
<event>
 5   0  0.2674551E-06  0.3292256E+04  0.7818609E-02  0.8164869E-01
        2   -1    0    0  501    0  0.00000000000E+00  0.00000000000E+00  0.18083891826E+04  0.18083891826E+04  0.25500000920E-02 0.  1.
       -2   -1    0    0    0  501  0.00000000000E+00  0.00000000000E+00 -0.14984260632E+04  0.14984260632E+04  0.25500000920E-02 0. -1.
    10030    2    1    2    0    0  0.00000000000E+00  0.00000000000E+00  0.30996311940E+03  0.33068152458E+04  0.32922560554E+04 0.  0.
        3    1    3    3  502    0  0.31710506605E+02  0.13945228094E+04  0.10329397207E+04  0.17357027105E+04  0.10100000352E+00 0.  1.
       -3    1    3    3    0  502 -0.31710506605E+02 -0.13945228094E+04 -0.72297660132E+03  0.15711125353E+04  0.10100000352E+00 0. -1.
</event>
<event>
 5   0  0.9530268E-07  0.3313269E+04  0.7818609E-02  0.8159527E-01
        1   -1    0    0  501    0  0.00000000000E+00  0.00000000000E+00  0.11027991280E+04  0.11027991281E+04  0.50400001928E-02 0. -1.
       -1   -1    0    0    0  501  0.00000000000E+00  0.00000000000E+00 -0.24886109509E+04  0.24886109509E+04  0.50400001928E-02 0.  1.
    10030    2    1    2    0    0  0.00000000000E+00  0.00000000000E+00 -0.13858118228E+04  0.35914100789E+04  0.33132690725E+04 0.  0.
        5    1    3    3  502    0  0.67503895001E+03  0.13213223255E+04  0.10572563555E+03  0.14875383262E+04  0.46999998093E+01 0. -1.
       -5    1    3    3    0  502 -0.67503895001E+03 -0.13213223255E+04 -0.14915374584E+04  0.21038717527E+04  0.46999998093E+01 0.  1.
</event>
<event>
 5   0  0.8845526E-07  0.3343084E+04  0.7818609E-02  0.8152018E-01
        1   -1    0    0  501    0  0.00000000000E+00  0.00000000000E+00  0.22207020466E+04  0.22207020466E+04  0.50400001928E-02 0.  1.
       -1   -1    0    0    0  501  0.00000000000E+00  0.00000000000E+00 -0.12581843968E+04  0.12581843968E+04  0.50400001928E-02 0. -1.
    10030    2    1    2    0    0  0.00000000000E+00  0.00000000000E+00  0.96251764980E+03  0.34788864434E+04  0.33430840043E+04 0.  0.
        1    1    3    3  502    0  0.35957106666E+03 -0.13085244235E+04 -0.53436104299E+03  0.14584475456E+04  0.50400001928E-02 0. -1.
       -1    1    3    3    0  502 -0.35957106666E+03  0.13085244235E+04  0.14968786928E+04  0.20204388978E+04  0.50400001928E-02 0.  1.
</event>
<event>
 5   0  0.2674551E-06  0.3285963E+04  0.7818609E-02  0.8166476E-01
       -2   -1    0    0    0  501  0.00000000000E+00  0.00000000000E+00  0.22253601875E+04  0.22253601875E+04  0.25500000920E-02 0. -1.
        2   -1    0    0  501    0  0.00000000000E+00  0.00000000000E+00 -0.12130115488E+04  0.12130115488E+04  0.25500000920E-02 0.  1.
    10030    2    1    2    0    0  0.00000000000E+00  0.00000000000E+00  0.10123486387E+04  0.34383717363E+04  0.32859626338E+04 0.  0.
        3    1    3    3  502    0  0.93368686230E+03  0.12132293934E+04  0.11302346435E+04  0.19029259254E+04  0.10100000352E+00 0.  1.
       -3    1    3    3    0  502 -0.93368686230E+03 -0.12132293934E+04 -0.11788600481E+03  0.15354458109E+04  0.10100000352E+00 0. -1.
</event>
<event>
 5   0  0.8705956E-07  0.3320025E+04  0.7818609E-02  0.8157819E-01
       -1   -1    0    0    0  501  0.00000000000E+00  0.00000000000E+00  0.12325761348E+04  0.12325761348E+04  0.50400001928E-02 0.  1.
        1   -1    0    0  501    0  0.00000000000E+00  0.00000000000E+00 -0.22356763823E+04  0.22356763823E+04  0.50400001928E-02 0. -1.
    10030    2    1    2    0    0  0.00000000000E+00  0.00000000000E+00 -0.10031002475E+04  0.34682525171E+04  0.33200249120E+04 0.  0.
        2    1    3    3  502    0 -0.10649980038E+03  0.16502487775E+04 -0.65285490069E+03  0.17778871608E+04  0.25500000920E-02 0. -1.
       -2    1    3    3    0  502  0.10649980038E+03 -0.16502487775E+04 -0.35024534678E+03  0.16903653564E+04  0.25500000920E-02 0.  1.
</event>
<event>
 5   0  0.2574803E-06  0.3291793E+04  0.7818609E-02  0.8164987E-01
        2   -1    0    0  501    0  0.00000000000E+00  0.00000000000E+00  0.23046673636E+04  0.23046673636E+04  0.25500000920E-02 0. -1.
       -2   -1    0    0    0  501  0.00000000000E+00  0.00000000000E+00 -0.11754299370E+04  0.11754299370E+04  0.25500000920E-02 0.  1.
    10030    2    1    2    0    0  0.00000000000E+00  0.00000000000E+00  0.11292374266E+04  0.34800973005E+04  0.32917928330E+04 0.  0.
        4    1    3    3  502    0  0.13784412163E+04 -0.71388076192E+03 -0.13709176212E+02  0.15523902484E+04  0.12699999809E+01 0.  1.
       -4    1    3    3    0  502 -0.13784412163E+04  0.71388076192E+03  0.11429466028E+04  0.19277070521E+04  0.12699999809E+01 0. -1.
</event>
<event>
 5   0  0.9295663E-07  0.3282024E+04  0.7818609E-02  0.8167485E-01
       -1   -1    0    0    0  501  0.00000000000E+00  0.00000000000E+00  0.12801074557E+04  0.12801074557E+04  0.50400001928E-02 0. -1.
        1   -1    0    0  501    0  0.00000000000E+00  0.00000000000E+00 -0.21036673168E+04  0.21036673168E+04  0.50400001928E-02 0.  1.
    10030    2    1    2    0    0  0.00000000000E+00  0.00000000000E+00 -0.82355986110E+03  0.33837747725E+04  0.32820238979E+04 0.  0.
        4    1    3    3  502    0 -0.68893804836E+03 -0.66281509062E+03 -0.17869065652E+04  0.20265725164E+04  0.12699999809E+01 0.  1.
       -4    1    3    3    0  502  0.68893804836E+03  0.66281509062E+03  0.96334670407E+03  0.13572022561E+04  0.12699999809E+01 0. -1.
</event>
<event>
 5   0  0.2574803E-06  0.3249333E+04  0.7818609E-02  0.8175908E-01
       -2   -1    0    0    0  501  0.00000000000E+00  0.00000000000E+00  0.18851005303E+04  0.18851005303E+04  0.25500000920E-02 0. -1.
        2   -1    0    0  501    0  0.00000000000E+00  0.00000000000E+00 -0.14002128567E+04  0.14002128567E+04  0.25500000920E-02 0.  1.
    10030    2    1    2    0    0  0.00000000000E+00  0.00000000000E+00  0.48488767365E+03  0.32853133870E+04  0.32493334693E+04 0.  0.
        4    1    3    3  502    0 -0.27233301369E+03 -0.14889809783E+04 -0.35426980398E+03  0.15545862250E+04  0.12699999809E+01 0.  1.
       -4    1    3    3    0  502  0.27233301369E+03  0.14889809783E+04  0.83915747763E+03  0.17307271620E+04  0.12699999809E+01 0. -1.
</event>
<event>
 5   0  0.2705859E-06  0.3264530E+04  0.7818609E-02  0.8171980E-01
        2   -1    0    0  501    0  0.00000000000E+00  0.00000000000E+00  0.16973497028E+04  0.16973497028E+04  0.25500000920E-02 0.  1.
       -2   -1    0    0    0  501  0.00000000000E+00  0.00000000000E+00 -0.15696756998E+04  0.15696756998E+04  0.25500000920E-02 0. -1.
    10030    2    1    2    0    0  0.00000000000E+00  0.00000000000E+00  0.12767400303E+03  0.32670254027E+04  0.32645297258E+04 0.  0.
        1    1    3    3  502    0 -0.77968507579E+02 -0.12591098876E+02  0.16954363950E+04  0.16972749316E+04  0.50400001928E-02 0.  1.
       -1    1    3    3    0  502  0.77968507579E+02  0.12591098876E+02 -0.15677623919E+04  0.15697504711E+04  0.50400001928E-02 0. -1.
</event>
<event>
 5   0  0.2614212E-06  0.3337628E+04  0.7818609E-02  0.8153387E-01
        2   -1    0    0  501    0  0.00000000000E+00  0.00000000000E+00  0.26465267507E+04  0.26465267507E+04  0.25500000920E-02 0.  1.
       -2   -1    0    0    0  501  0.00000000000E+00  0.00000000000E+00 -0.10522997209E+04  0.10522997209E+04  0.25500000920E-02 0. -1.
    10030    2    1    2    0    0  0.00000000000E+00  0.00000000000E+00  0.15942270298E+04  0.36988264716E+04  0.33376275173E+04 0.  0.
        2    1    3    3  502    0 -0.14846847797E+04  0.34012170041E+03  0.41434295185E+02  0.15237087868E+04  0.25500000920E-02 0. -1.
       -2    1    3    3    0  502  0.14846847797E+04 -0.34012170041E+03  0.15527927346E+04  0.21751176848E+04  0.25500000920E-02 0.  1.
</event>
<event>
 5   0  0.9268670E-07  0.3244618E+04  0.7818609E-02  0.8177132E-01
       -1   -1    0    0    0  501  0.00000000000E+00  0.00000000000E+00  0.15066289039E+04  0.15066289039E+04  0.50400001928E-02 0.  1.
        1   -1    0    0  501    0  0.00000000000E+00  0.00000000000E+00 -0.17468713151E+04  0.17468713151E+04  0.50400001928E-02 0. -1.
    10030    2    1    2    0    0  0.00000000000E+00  0.00000000000E+00 -0.24024241125E+03  0.32535002190E+04  0.32446181993E+04 0.  0.
        3    1    3    3  502    0 -0.44459312282E+03  0.38533712093E+03 -0.16361259682E+04  0.17386937441E+04  0.10100000352E+00 0. -1.
       -3    1    3    3    0  502  0.44459312282E+03 -0.38533712093E+03  0.13958835570E+04  0.15148064749E+04  0.10100000352E+00 0.  1.
</event>
<event>
 5   0  0.8845526E-07  0.3373970E+04  0.7818609E-02  0.8144325E-01
       -1   -1    0    0    0  501  0.00000000000E+00  0.00000000000E+00  0.22714620177E+04  0.22714620177E+04  0.50400001928E-02 0. -1.
        1   -1    0    0  501    0  0.00000000000E+00  0.00000000000E+00 -0.12529015580E+04  0.12529015580E+04  0.50400001928E-02 0.  1.
    10030    2    1    2    0    0  0.00000000000E+00  0.00000000000E+00  0.10185604597E+04  0.35243635757E+04  0.33739699470E+04 0.  0.
        1    1    3    3  502    0  0.10618018350E+04 -0.52952880556E+03  0.17619401818E+04  0.21242074044E+04  0.50400001928E-02 0. -1.
       -1    1    3    3    0  502 -0.10618018350E+04  0.52952880556E+03 -0.74337972207E+03  0.14001561713E+04  0.50400001928E-02 0.  1.
</event>
<event>
 5   0  0.8705956E-07  0.3314943E+04  0.7818609E-02  0.8159103E-01
        1   -1    0    0  501    0  0.00000000000E+00  0.00000000000E+00  0.14278895529E+04  0.14278895529E+04  0.50400001928E-02 0. -1.
       -1   -1    0    0    0  501  0.00000000000E+00  0.00000000000E+00 -0.19239669659E+04  0.19239669659E+04  0.50400001928E-02 0.  1.
    10030    2    1    2    0    0  0.00000000000E+00  0.00000000000E+00 -0.49607741301E+03  0.33518565189E+04  0.33149433364E+04 0.  0.
        2    1    3    3  502    0 -0.13676163459E+04  0.81385230811E+03 -0.71631807204E+03  0.17452339755E+04  0.25500000920E-02 0.  1.
       -2    1    3    3    0  502  0.13676163459E+04 -0.81385230811E+03  0.22024065903E+03  0.16066225434E+04  0.25500000920E-02 0. -1.
</event>
<event>
 5   0  0.2614212E-06  0.3290977E+04  0.7818609E-02  0.8165195E-01
       -2   -1    0    0    0  501  0.00000000000E+00  0.00000000000E+00  0.11897600967E+04  0.11897600967E+04  0.25500000920E-02 0. -1.
        2   -1    0    0  501    0  0.00000000000E+00  0.00000000000E+00 -0.22757799755E+04  0.22757799755E+04  0.25500000920E-02 0.  1.
    10030    2    1    2    0    0  0.00000000000E+00  0.00000000000E+00 -0.10860198788E+04  0.34655400723E+04  0.32909768786E+04 0.  0.
        2    1    3    3  502    0  0.49865449772E+03 -0.13564668535E+04 -0.13714901648E+04  0.19923965230E+04  0.25500000920E-02 0.  1.
       -2    1    3    3    0  502 -0.49865449772E+03  0.13564668535E+04  0.28547028599E+03  0.14731435493E+04  0.25500000920E-02 0. -1.
</event>
<event>
 5   0  0.2658600E-06  0.3296063E+04  0.7818609E-02  0.8163898E-01
        2   -1    0    0  501    0  0.00000000000E+00  0.00000000000E+00  0.12741509761E+04  0.12741509761E+04  0.25500000920E-02 0.  1.
       -2   -1    0    0    0  501  0.00000000000E+00  0.00000000000E+00 -0.21316218909E+04  0.21316218910E+04  0.25500000920E-02 0. -1.
    10030    2    1    2    0    0  0.00000000000E+00  0.00000000000E+00 -0.85747091480E+03  0.34057728671E+04  0.32960631748E+04 0.  0.
        5    1    3    3  502    0  0.12707778174E+04 -0.69317949390E+03  0.38527544461E+03  0.14979430330E+04  0.46999998093E+01 0.  1.
       -5    1    3    3    0  502 -0.12707778174E+04  0.69317949390E+03 -0.12427463594E+04  0.19078298341E+04  0.46999998093E+01 0. -1.
</event>
<event>
 5   0  0.8845526E-07  0.3233891E+04  0.7818609E-02  0.8179924E-01
        1   -1    0    0  501    0  0.00000000000E+00  0.00000000000E+00  0.12669295064E+04  0.12669295064E+04  0.50400001928E-02 0.  1.
       -1   -1    0    0    0  501  0.00000000000E+00  0.00000000000E+00 -0.20636603744E+04  0.20636603744E+04  0.50400001928E-02 0. -1.
    10030    2    1    2    0    0  0.00000000000E+00  0.00000000000E+00 -0.79673086802E+03  0.33305898808E+04  0.32338906720E+04 0.  0.
        1    1    3    3  502    0  0.11396012413E+04  0.76719590003E+03 -0.12766438699E+04  0.18753933211E+04  0.50400001928E-02 0. -1.
       -1    1    3    3    0  502 -0.11396012413E+04 -0.76719590003E+03  0.47991300190E+03  0.14551965598E+04  0.50400001928E-02 0.  1.
</event>
<event>
 5   0  0.2705859E-06  0.3275674E+04  0.7818609E-02  0.8169113E-01
       -2   -1    0    0    0  501  0.00000000000E+00  0.00000000000E+00  0.15789849133E+04  0.15789849133E+04  0.25500000920E-02 0. -1.
        2   -1    0    0  501    0  0.00000000000E+00  0.00000000000E+00 -0.16988824199E+04  0.16988824199E+04  0.25500000920E-02 0.  1.
    10030    2    1    2    0    0  0.00000000000E+00  0.00000000000E+00 -0.11989750664E+03  0.32778673333E+04  0.32756737997E+04 0.  0.
        1    1    3    3  502    0 -0.14432022594E+04  0.57276822466E+01 -0.83483423334E+03  0.16672773510E+04  0.50400001928E-02 0.  1.
       -1    1    3    3    0  502  0.14432022594E+04 -0.57276822466E+01  0.71493672671E+03  0.16105899823E+04  0.50400001928E-02 0. -1.
</event>
<event>
 5   0  0.8845526E-07  0.3309256E+04  0.7818609E-02  0.8160544E-01
       -1   -1    0    0    0  501  0.00000000000E+00  0.00000000000E+00  0.13432742545E+04  0.13432742545E+04  0.50400001928E-02 0.  1.
        1   -1    0    0  501    0  0.00000000000E+00  0.00000000000E+00 -0.20381498223E+04  0.20381498223E+04  0.50400001928E-02 0. -1.
    10030    2    1    2    0    0  0.00000000000E+00  0.00000000000E+00 -0.69487556781E+03  0.33814240769E+04  0.33092562205E+04 0.  0.
        1    1    3    3  502    0 -0.38583511545E+03  0.94826063378E+03 -0.16756808167E+04  0.19636632006E+04  0.50400001928E-02 0. -1.
       -1    1    3    3    0  502  0.38583511545E+03 -0.94826063378E+03  0.98080524891E+03  0.14177608762E+04  0.50400001928E-02 0.  1.
</event>
<event>
 5   0  0.2658600E-06  0.3316980E+04  0.7818609E-02  0.8158588E-01
        2   -1    0    0  501    0  0.00000000000E+00  0.00000000000E+00  0.13702022577E+04  0.13702022577E+04  0.25500000920E-02 0.  1.
       -2   -1    0    0    0  501  0.00000000000E+00  0.00000000000E+00 -0.20074325156E+04  0.20074325156E+04  0.25500000920E-02 0. -1.
    10030    2    1    2    0    0  0.00000000000E+00  0.00000000000E+00 -0.63723025787E+03  0.33776347733E+04  0.33169796895E+04 0.  0.
        5    1    3    3  502    0 -0.21772060772E+03  0.11579824384E+04  0.86987842368E+03  0.14645941939E+04  0.46999998093E+01 0.  1.
       -5    1    3    3    0  502  0.21772060772E+03 -0.11579824384E+04 -0.15071086816E+04  0.19130405795E+04  0.46999998093E+01 0. -1.
</event>
<event>
 5   0  0.2574803E-06  0.3284601E+04  0.7818609E-02  0.8166825E-01
        2   -1    0    0  501    0  0.00000000000E+00  0.00000000000E+00  0.19208649433E+04  0.19208649433E+04  0.25500000920E-02 0. -1.
       -2   -1    0    0    0  501  0.00000000000E+00  0.00000000000E+00 -0.14041332736E+04  0.14041332736E+04  0.25500000920E-02 0.  1.
    10030    2    1    2    0    0  0.00000000000E+00  0.00000000000E+00  0.51673166970E+03  0.33249982170E+04  0.32846006644E+04 0.  0.
        4    1    3    3  502    0 -0.14828302009E+03 -0.16190247712E+04  0.49342792374E+03  0.16990296621E+04  0.12699999809E+01 0.  1.
       -4    1    3    3    0  502  0.14828302009E+03  0.16190247712E+04  0.23303745955E+02  0.16259685549E+04  0.12699999809E+01 0. -1.
</event>
<event>
 5   0  0.2658600E-06  0.3296273E+04  0.7818609E-02  0.8163844E-01
        2   -1    0    0  501    0  0.00000000000E+00  0.00000000000E+00  0.23234085919E+04  0.23234085919E+04  0.25500000920E-02 0. -1.
       -2   -1    0    0    0  501  0.00000000000E+00  0.00000000000E+00 -0.11691243052E+04  0.11691243053E+04  0.25500000920E-02 0.  1.
    10030    2    1    2    0    0  0.00000000000E+00  0.00000000000E+00  0.11542842866E+04  0.34925328971E+04  0.32962727167E+04 0.  0.
        5    1    3    3  502    0  0.60950278420E+03  0.28617817644E+03 -0.10167314209E+04  0.12194902480E+04  0.46999998093E+01 0.  1.
       -5    1    3    3    0  502 -0.60950278420E+03 -0.28617817644E+03  0.21710157075E+04  0.22730426492E+04  0.46999998093E+01 0. -1.
</event>
<event>
 5   0  0.2658600E-06  0.3232841E+04  0.7818609E-02  0.8180197E-01
       -2   -1    0    0    0  501  0.00000000000E+00  0.00000000000E+00  0.13632373266E+04  0.13632373266E+04  0.25500000920E-02 0. -1.
        2   -1    0    0  501    0  0.00000000000E+00  0.00000000000E+00 -0.19166253395E+04  0.19166253395E+04  0.25500000920E-02 0.  1.
    10030    2    1    2    0    0  0.00000000000E+00  0.00000000000E+00 -0.55338801291E+03  0.32798626660E+04  0.32328409821E+04 0.  0.
        5    1    3    3  502    0 -0.10616753325E+04 -0.58260398977E+03 -0.13628786015E+04  0.18231955718E+04  0.46999998093E+01 0.  1.
       -5    1    3    3    0  502  0.10616753325E+04  0.58260398977E+03  0.80949058861E+03  0.14566670943E+04  0.46999998093E+01 0. -1.
</event>
<event>
 5   0  0.8705956E-07  0.3486328E+04  0.7818609E-02  0.8117038E-01
       -1   -1    0    0    0  501  0.00000000000E+00  0.00000000000E+00  0.15554271981E+04  0.15554271982E+04  0.50400001928E-02 0. -1.
        1   -1    0    0  501    0  0.00000000000E+00  0.00000000000E+00 -0.19535606134E+04  0.19535606134E+04  0.50400001928E-02 0.  1.
    10030    2    1    2    0    0  0.00000000000E+00  0.00000000000E+00 -0.39813341523E+03  0.35089878115E+04  0.34863283330E+04 0.  0.
        2    1    3    3  502    0 -0.12676535179E+04 -0.85426229968E+03  0.64418036843E+03  0.16588182134E+04  0.25500000920E-02 0. -1.
       -2    1    3    3    0  502  0.12676535179E+04  0.85426229968E+03 -0.10423137837E+04  0.18501695981E+04  0.25500000920E-02 0.  1.
</event>
<event>
 5   0  0.2705859E-06  0.3288775E+04  0.7818609E-02  0.8165757E-01
        2   -1    0    0  501    0  0.00000000000E+00  0.00000000000E+00  0.13031514906E+04  0.13031514906E+04  0.25500000920E-02 0.  1.
       -2   -1    0    0    0  501  0.00000000000E+00  0.00000000000E+00 -0.20749777977E+04  0.20749777977E+04  0.25500000920E-02 0. -1.
    10030    2    1    2    0    0  0.00000000000E+00  0.00000000000E+00 -0.77182630704E+03  0.33781292883E+04  0.32887750972E+04 0.  0.
        1    1    3    3  502    0 -0.16126292344E+04  0.21297076806E+03 -0.13836571349E+03  0.16325056406E+04  0.50400001928E-02 0. -1.
       -1    1    3    3    0  502  0.16126292344E+04 -0.21297076806E+03 -0.63346059355E+03  0.17456236477E+04  0.50400001928E-02 0.  1.
</event>
<event>
 5   0  0.8705956E-07  0.3370760E+04  0.7818609E-02  0.8145120E-01
       -1   -1    0    0    0  501  0.00000000000E+00  0.00000000000E+00  0.15322408034E+04  0.15322408034E+04  0.50400001928E-02 0.  1.
        1   -1    0    0  501    0  0.00000000000E+00  0.00000000000E+00 -0.18538247947E+04  0.18538247947E+04  0.50400001928E-02 0. -1.
    10030    2    1    2    0    0  0.00000000000E+00  0.00000000000E+00 -0.32158399134E+03  0.33860655981E+04  0.33707601474E+04 0.  0.
        2    1    3    3  502    0  0.76937595063E+03 -0.14707544162E+04  0.13285035211E+03  0.16651447752E+04  0.25500000920E-02 0.  1.
       -2    1    3    3    0  502 -0.76937595063E+03  0.14707544162E+04 -0.45443434345E+03  0.17209208229E+04  0.25500000920E-02 0. -1.
</event>
<event>
 5   0  0.2574803E-06  0.3301180E+04  0.7818609E-02  0.8162595E-01
        2   -1    0    0  501    0  0.00000000000E+00  0.00000000000E+00  0.23083507508E+04  0.23083507508E+04  0.25500000920E-02 0.  1.
       -2   -1    0    0    0  501  0.00000000000E+00  0.00000000000E+00 -0.11802573740E+04  0.11802573740E+04  0.25500000920E-02 0. -1.
    10030    2    1    2    0    0  0.00000000000E+00  0.00000000000E+00  0.11280933768E+04  0.34886081248E+04  0.33011803921E+04 0.  0.
        4    1    3    3  502    0  0.10414156101E+04 -0.55457021984E+03  0.17838572361E+04  0.21387479640E+04  0.12699999809E+01 0.  1.
       -4    1    3    3    0  502 -0.10414156101E+04  0.55457021984E+03 -0.65576385928E+03  0.13498601608E+04  0.12699999809E+01 0. -1.
</event>
<event>
 5   0  0.9268670E-07  0.3306547E+04  0.7818609E-02  0.8161231E-01
       -1   -1    0    0    0  501  0.00000000000E+00  0.00000000000E+00  0.10265789632E+04  0.10265789632E+04  0.50400001928E-02 0. -1.
        1   -1    0    0  501    0  0.00000000000E+00  0.00000000000E+00 -0.26625460484E+04  0.26625460484E+04  0.50400001928E-02 0.  1.
    10030    2    1    2    0    0  0.00000000000E+00  0.00000000000E+00 -0.16359670852E+04  0.36891250116E+04  0.33065473000E+04 0.  0.
        3    1    3    3  502    0  0.86952536646E+03 -0.12670952818E+04 -0.13776238944E+03  0.15429138998E+04  0.10100000352E+00 0. -1.
       -3    1    3    3    0  502 -0.86952536646E+03  0.12670952818E+04 -0.14982046957E+04  0.21462111118E+04  0.10100000352E+00 0.  1.
</event>
<event>
 5   0  0.2674551E-06  0.3543544E+04  0.7818609E-02  0.8103547E-01
       -2   -1    0    0    0  501  0.00000000000E+00  0.00000000000E+00  0.14220779834E+04  0.14220779834E+04  0.25500000920E-02 0.  1.
        2   -1    0    0  501    0  0.00000000000E+00  0.00000000000E+00 -0.22074568519E+04  0.22074568519E+04  0.25500000920E-02 0. -1.
    10030    2    1    2    0    0  0.00000000000E+00  0.00000000000E+00 -0.78537886849E+03  0.36295348352E+04  0.35435438692E+04 0.  0.
        3    1    3    3  502    0 -0.14375083035E+04 -0.76622474054E+03 -0.11064832014E+04  0.19692220700E+04  0.10100000352E+00 0.  1.
       -3    1    3    3    0  502  0.14375083035E+04  0.76622474054E+03  0.32110433286E+03  0.16603127653E+04  0.10100000352E+00 0. -1.
</event>
<event>
 5   0  0.9295663E-07  0.3461070E+04  0.7818609E-02  0.8123078E-01
       -1   -1    0    0    0  501  0.00000000000E+00  0.00000000000E+00  0.17428205684E+04  0.17428205684E+04  0.50400001928E-02 0. -1.
        1   -1    0    0  501    0  0.00000000000E+00  0.00000000000E+00 -0.17183362243E+04  0.17183362243E+04  0.50400001928E-02 0.  1.
    10030    2    1    2    0    0  0.00000000000E+00  0.00000000000E+00  0.24484344095E+02  0.34611567928E+04  0.34610701901E+04 0.  0.
        4    1    3    3  502    0 -0.10476224136E+04  0.10655025180E+04 -0.86067242632E+03  0.17244033680E+04  0.12699999809E+01 0.  1.
       -4    1    3    3    0  502  0.10476224136E+04 -0.10655025180E+04  0.88515677041E+03  0.17367534248E+04  0.12699999809E+01 0. -1.
</event>
<event>
 5   0  0.2705859E-06  0.3236567E+04  0.7818609E-02  0.8179226E-01
        2   -1    0    0  501    0  0.00000000000E+00  0.00000000000E+00  0.25190678129E+04  0.25190678129E+04  0.25500000920E-02 0. -1.
       -2   -1    0    0    0  501  0.00000000000E+00  0.00000000000E+00 -0.10396073328E+04  0.10396073328E+04  0.25500000920E-02 0.  1.
    10030    2    1    2    0    0  0.00000000000E+00  0.00000000000E+00  0.14794604800E+04  0.35586751457E+04  0.32365669282E+04 0.  0.
        1    1    3    3  502    0 -0.11809711804E+04 -0.60321415963E+03  0.17595512354E+04  0.22033113265E+04  0.50400001928E-02 0. -1.
       -1    1    3    3    0  502  0.11809711804E+04  0.60321415963E+03 -0.28009075536E+03  0.13553638193E+04  0.50400001928E-02 0.  1.
</event>
<event>
 5   0  0.9530268E-07  0.3139389E+04  0.7818609E-02  0.8205010E-01
        1   -1    0    0  501    0  0.00000000000E+00  0.00000000000E+00  0.18634457963E+04  0.18634457963E+04  0.50400001928E-02 0.  1.
       -1   -1    0    0    0  501  0.00000000000E+00  0.00000000000E+00 -0.13222499088E+04  0.13222499088E+04  0.50400001928E-02 0. -1.
    10030    2    1    2    0    0  0.00000000000E+00  0.00000000000E+00  0.54119588752E+03  0.31856957052E+04  0.31393891344E+04 0.  0.
        5    1    3    3  502    0  0.62048190701E+03  0.14023858151E+04  0.61055466296E+03  0.16506007566E+04  0.46999998093E+01 0. -1.
       -5    1    3    3    0  502 -0.62048190701E+03 -0.14023858151E+04 -0.69358775438E+02  0.15350949485E+04  0.46999998093E+01 0.  1.
</event>
<event>
 5   0  0.9295663E-07  0.3292384E+04  0.7818609E-02  0.8164836E-01
        1   -1    0    0  501    0  0.00000000000E+00  0.00000000000E+00  0.23828167216E+04  0.23828167216E+04  0.50400001928E-02 0.  1.
       -1   -1    0    0    0  501  0.00000000000E+00  0.00000000000E+00 -0.11372874192E+04  0.11372874192E+04  0.50400001928E-02 0. -1.
    10030    2    1    2    0    0  0.00000000000E+00  0.00000000000E+00  0.12455293024E+04  0.35201041408E+04  0.32923836227E+04 0.  0.
        4    1    3    3  502    0  0.15920047296E+04  0.58920738700E+02  0.17935699747E+03  0.16031597730E+04  0.12699999809E+01 0. -1.
       -4    1    3    3    0  502 -0.15920047296E+04 -0.58920738700E+02  0.10661723049E+04  0.19169443677E+04  0.12699999809E+01 0.  1.
</event>
<event>
 5   0  0.2674551E-06  0.3215117E+04  0.7818609E-02  0.8184836E-01
       -2   -1    0    0    0  501  0.00000000000E+00  0.00000000000E+00  0.10064318651E+04  0.10064318651E+04  0.25500000920E-02 0.  1.
        2   -1    0    0  501    0  0.00000000000E+00  0.00000000000E+00 -0.25677286357E+04  0.25677286357E+04  0.25500000920E-02 0. -1.
    10030    2    1    2    0    0  0.00000000000E+00  0.00000000000E+00 -0.15612967706E+04  0.35741605008E+04  0.32151167443E+04 0.  0.
        3    1    3    3  502    0  0.10744699565E+04  0.10953751909E+04 -0.13136856472E+04  0.20199263566E+04  0.10100000352E+00 0. -1.
       -3    1    3    3    0  502 -0.10744699565E+04 -0.10953751909E+04 -0.24761112340E+03  0.15542341442E+04  0.10100000352E+00 0.  1.
</event>
<event>
 5   0  0.9530268E-07  0.3279911E+04  0.7818609E-02  0.8168026E-01
       -1   -1    0    0    0  501  0.00000000000E+00  0.00000000000E+00  0.11436451935E+04  0.11436451935E+04  0.50400001928E-02 0.  1.
        1   -1    0    0  501    0  0.00000000000E+00  0.00000000000E+00 -0.23516508300E+04  0.23516508300E+04  0.50400001928E-02 0. -1.
    10030    2    1    2    0    0  0.00000000000E+00  0.00000000000E+00 -0.12080056364E+04  0.34952960235E+04  0.32799110772E+04 0.  0.
        5    1    3    3  502    0  0.28430855723E+03  0.14186158844E+04  0.21879337065E+03  0.14632822736E+04  0.46999998093E+01 0.  1.
       -5    1    3    3    0  502 -0.28430855723E+03 -0.14186158844E+04 -0.14267990071E+04  0.20320137499E+04  0.46999998093E+01 0. -1.
</event>
<event>
 5   0  0.9268670E-07  0.3085819E+04  0.7818609E-02  0.8219640E-01
       -1   -1    0    0    0  501  0.00000000000E+00  0.00000000000E+00  0.13191637409E+04  0.13191637409E+04  0.50400001928E-02 0.  1.
        1   -1    0    0  501    0  0.00000000000E+00  0.00000000000E+00 -0.18046056411E+04  0.18046056412E+04  0.50400001928E-02 0. -1.
    10030    2    1    2    0    0  0.00000000000E+00  0.00000000000E+00 -0.48544190025E+03  0.31237693821E+04  0.30858193910E+04 0.  0.
        3    1    3    3  502    0 -0.12360401873E+04 -0.10865367010E+03 -0.11710427408E+04  0.17061483158E+04  0.10100000352E+00 0. -1.
       -3    1    3    3    0  502  0.12360401873E+04  0.10865367010E+03  0.68560084056E+03  0.14176210662E+04  0.10100000352E+00 0.  1.
</event>
<event>
 5   0  0.8705956E-07  0.3271286E+04  0.7818609E-02  0.8170240E-01
       -1   -1    0    0    0  501  0.00000000000E+00  0.00000000000E+00  0.15188972211E+04  0.15188972211E+04  0.50400001928E-02 0. -1.
        1   -1    0    0  501    0  0.00000000000E+00  0.00000000000E+00 -0.17613621544E+04  0.17613621544E+04  0.50400001928E-02 0.  1.
    10030    2    1    2    0    0  0.00000000000E+00  0.00000000000E+00 -0.24246493327E+03  0.32802593755E+04  0.32712860356E+04 0.  0.
        2    1    3    3  502    0 -0.14732985229E+04  0.39301411954E+03  0.47221816155E+03  0.15962639593E+04  0.25500000920E-02 0. -1.
       -2    1    3    3    0  502  0.14732985229E+04 -0.39301411954E+03 -0.71468309482E+03  0.16839954162E+04  0.25500000920E-02 0.  1.
</event>
<event>
 5   0  0.2614212E-06  0.3004246E+04  0.7818609E-02  0.8242519E-01
       -2   -1    0    0    0  501  0.00000000000E+00  0.00000000000E+00  0.19862605110E+04  0.19862605110E+04  0.25500000920E-02 0. -1.
        2   -1    0    0  501    0  0.00000000000E+00  0.00000000000E+00 -0.11359907366E+04  0.11359907366E+04  0.25500000920E-02 0.  1.
    10030    2    1    2    0    0  0.00000000000E+00  0.00000000000E+00  0.85026977443E+03  0.31222512476E+04  0.30042460226E+04 0.  0.
        2    1    3    3  502    0  0.89122832211E+03 -0.16185092201E+03  0.16704891825E+04  0.19002678106E+04  0.25500000920E-02 0. -1.
       -2    1    3    3    0  502 -0.89122832211E+03  0.16185092201E+03 -0.82021940805E+03  0.12219834371E+04  0.25500000920E-02 0.  1.
</event>
<event>
 5   0  0.8705956E-07  0.3263843E+04  0.7818609E-02  0.8172157E-01
       -1   -1    0    0    0  501  0.00000000000E+00  0.00000000000E+00  0.13735174292E+04  0.13735174292E+04  0.50400001928E-02 0.  1.
        1   -1    0    0  501    0  0.00000000000E+00  0.00000000000E+00 -0.19389401080E+04  0.19389401080E+04  0.50400001928E-02 0. -1.
    10030    2    1    2    0    0  0.00000000000E+00  0.00000000000E+00 -0.56542267875E+03  0.33124575372E+04  0.32638431534E+04 0.  0.
        2    1    3    3  502    0 -0.86983990641E+03  0.22860284015E+03  0.10992934647E+04  0.14203263156E+04  0.25500000920E-02 0.  1.
       -2    1    3    3    0  502  0.86983990641E+03 -0.22860284015E+03 -0.16647161435E+04  0.18921312216E+04  0.25500000920E-02 0. -1.
</event>
<event>
 5   0  0.8705956E-07  0.3184149E+04  0.7818609E-02  0.8193016E-01
       -1   -1    0    0    0  501  0.00000000000E+00  0.00000000000E+00  0.11181373870E+04  0.11181373870E+04  0.50400001928E-02 0. -1.
        1   -1    0    0  501    0  0.00000000000E+00  0.00000000000E+00 -0.22668966829E+04  0.22668966829E+04  0.50400001928E-02 0.  1.
    10030    2    1    2    0    0  0.00000000000E+00  0.00000000000E+00 -0.11487592959E+04  0.33850340699E+04  0.31841494523E+04 0.  0.
        2    1    3    3  502    0 -0.26590807546E+03 -0.10233849357E+04 -0.18397136862E+04  0.21219260775E+04  0.25500000920E-02 0.  1.
       -2    1    3    3    0  502  0.26590807546E+03  0.10233849357E+04  0.69095439026E+03  0.12631079924E+04  0.25500000920E-02 0. -1.
</event>
<event>
 5   0  0.9268670E-07  0.3311823E+04  0.7818609E-02  0.8159894E-01
       -1   -1    0    0    0  501  0.00000000000E+00  0.00000000000E+00  0.14373224446E+04  0.14373224446E+04  0.50400001928E-02 0. -1.
        1   -1    0    0  501    0  0.00000000000E+00  0.00000000000E+00 -0.19077433531E+04  0.19077433531E+04  0.50400001928E-02 0.  1.
    10030    2    1    2    0    0  0.00000000000E+00  0.00000000000E+00 -0.47042090855E+03  0.33450657977E+04  0.33118226643E+04 0.  0.
        3    1    3    3  502    0  0.86385603487E+03  0.12596400378E+04  0.41082064041E+03  0.15816807145E+04  0.10100000352E+00 0. -1.
       -3    1    3    3    0  502 -0.86385603487E+03 -0.12596400378E+04 -0.88124154896E+03  0.17633850832E+04  0.10100000352E+00 0.  1.
</event>
<event>
 5   0  0.2705859E-06  0.3274707E+04  0.7818609E-02  0.8169361E-01
        2   -1    0    0  501    0  0.00000000000E+00  0.00000000000E+00  0.19175816113E+04  0.19175816113E+04  0.25500000920E-02 0. -1.
       -2   -1    0    0    0  501  0.00000000000E+00  0.00000000000E+00 -0.13980767295E+04  0.13980767296E+04  0.25500000920E-02 0.  1.
    10030    2    1    2    0    0  0.00000000000E+00  0.00000000000E+00  0.51950488172E+03  0.33156583408E+04  0.32747068435E+04 0.  0.
        1    1    3    3  502    0 -0.81753172324E+03 -0.89116220466E+03  0.13773667154E+04  0.18329395141E+04  0.50400001928E-02 0. -1.
       -1    1    3    3    0  502  0.81753172324E+03  0.89116220466E+03 -0.85786183368E+03  0.14827188268E+04  0.50400001928E-02 0.  1.
</event>
<event>
 5   0  0.2574803E-06  0.3295643E+04  0.7818609E-02  0.8164005E-01
        2   -1    0    0  501    0  0.00000000000E+00  0.00000000000E+00  0.16207082897E+04  0.16207082897E+04  0.25500000920E-02 0. -1.
       -2   -1    0    0    0  501  0.00000000000E+00  0.00000000000E+00 -0.16753878923E+04  0.16753878923E+04  0.25500000920E-02 0.  1.
    10030    2    1    2    0    0  0.00000000000E+00  0.00000000000E+00 -0.54679602631E+02  0.32960961820E+04  0.32956426054E+04 0.  0.
        4    1    3    3  502    0  0.37324439482E+02 -0.11215818379E+04  0.11794639510E+04  0.16280281808E+04  0.12699999809E+01 0. -1.
       -4    1    3    3    0  502 -0.37324439482E+02  0.11215818379E+04 -0.12341435536E+04  0.16680680012E+04  0.12699999809E+01 0.  1.
</event>
<event>
 5   0  0.8845526E-07  0.3338124E+04  0.7818609E-02  0.8153262E-01
       -1   -1    0    0    0  501  0.00000000000E+00  0.00000000000E+00  0.17675202323E+04  0.17675202323E+04  0.50400001928E-02 0.  1.
        1   -1    0    0  501    0  0.00000000000E+00  0.00000000000E+00 -0.15760878445E+04  0.15760878445E+04  0.50400001928E-02 0. -1.
    10030    2    1    2    0    0  0.00000000000E+00  0.00000000000E+00  0.19143238781E+03  0.33436080767E+04  0.33381235165E+04 0.  0.
        1    1    3    3  502    0  0.15703504358E+04 -0.50651023651E+03 -0.15612092605E+03  0.16573855479E+04  0.50400001928E-02 0. -1.
       -1    1    3    3    0  502 -0.15703504358E+04  0.50651023651E+03  0.34755331386E+03  0.16862225288E+04  0.50400001928E-02 0.  1.
</event>
<event>
 5   0  0.2705859E-06  0.3321660E+04  0.7818609E-02  0.8157406E-01
        2   -1    0    0  501    0  0.00000000000E+00  0.00000000000E+00  0.17779587353E+04  0.17779587353E+04  0.25500000920E-02 0. -1.
       -2   -1    0    0    0  501  0.00000000000E+00  0.00000000000E+00 -0.15514179494E+04  0.15514179494E+04  0.25500000920E-02 0.  1.
    10030    2    1    2    0    0  0.00000000000E+00  0.00000000000E+00  0.22654078595E+03  0.33293766847E+04  0.33216604855E+04 0.  0.
        1    1    3    3  502    0 -0.86022547446E+02 -0.73976308519E+03  0.16012079214E+04  0.17659320792E+04  0.50400001928E-02 0. -1.
       -1    1    3    3    0  502  0.86022547446E+02  0.73976308519E+03 -0.13746671355E+04  0.15634446054E+04  0.50400001928E-02 0.  1.
</event>
<event>
 5   0  0.2574803E-06  0.3274348E+04  0.7818609E-02  0.8169453E-01
       -2   -1    0    0    0  501  0.00000000000E+00  0.00000000000E+00  0.10727897643E+04  0.10727897643E+04  0.25500000920E-02 0.  1.
        2   -1    0    0  501    0  0.00000000000E+00  0.00000000000E+00 -0.24984760320E+04  0.24984760320E+04  0.25500000920E-02 0. -1.
    10030    2    1    2    0    0  0.00000000000E+00  0.00000000000E+00 -0.14256862678E+04  0.35712657963E+04  0.32743484931E+04 0.  0.
        4    1    3    3  502    0 -0.89563360922E+03  0.11590902345E+04  0.84687843509E+02  0.14672502777E+04  0.12699999809E+01 0.  1.
       -4    1    3    3    0  502  0.89563360922E+03 -0.11590902345E+04 -0.15103741113E+04  0.21040155186E+04  0.12699999809E+01 0. -1.
</event>
<event>
 5   0  0.2658600E-06  0.3307971E+04  0.7818609E-02  0.8160870E-01
       -2   -1    0    0    0  501  0.00000000000E+00  0.00000000000E+00  0.24764399305E+04  0.24764399305E+04  0.25500000920E-02 0.  1.
        2   -1    0    0  501    0  0.00000000000E+00  0.00000000000E+00 -0.11046779870E+04  0.11046779870E+04  0.25500000920E-02 0. -1.
    10030    2    1    2    0    0  0.00000000000E+00  0.00000000000E+00  0.13717619435E+04  0.35811179175E+04  0.33079713889E+04 0.  0.
        5    1    3    3  502    0 -0.11209201140E+04 -0.53412290678E+03  0.18687601337E+04  0.22436656856E+04  0.46999998093E+01 0.  1.
       -5    1    3    3    0  502  0.11209201140E+04  0.53412290678E+03 -0.49699819028E+03  0.13374522319E+04  0.46999998093E+01 0. -1.
</event>
<event>
 5   0  0.2705859E-06  0.3290686E+04  0.7818609E-02  0.8165269E-01
       -2   -1    0    0    0  501  0.00000000000E+00  0.00000000000E+00  0.14066302070E+04  0.14066302070E+04  0.25500000920E-02 0. -1.
        2   -1    0    0  501    0  0.00000000000E+00  0.00000000000E+00 -0.19245671218E+04  0.19245671218E+04  0.25500000920E-02 0.  1.
    10030    2    1    2    0    0  0.00000000000E+00  0.00000000000E+00 -0.51793691477E+03  0.33311973288E+04  0.32906864019E+04 0.  0.
        1    1    3    3  502    0 -0.26041702278E+03  0.16245480397E+04 -0.27258355872E+03  0.16677155500E+04  0.50400001928E-02 0.  1.
       -1    1    3    3    0  502  0.26041702278E+03 -0.16245480397E+04 -0.24535335605E+03  0.16634817788E+04  0.50400001928E-02 0. -1.
</event>
<event>
 5   0  0.2658600E-06  0.3335010E+04  0.7818609E-02  0.8154044E-01
       -2   -1    0    0    0  501  0.00000000000E+00  0.00000000000E+00  0.15536010247E+04  0.15536010247E+04  0.25500000920E-02 0.  1.
        2   -1    0    0  501    0  0.00000000000E+00  0.00000000000E+00 -0.17897600818E+04  0.17897600819E+04  0.25500000920E-02 0. -1.
    10030    2    1    2    0    0  0.00000000000E+00  0.00000000000E+00 -0.23615905717E+03  0.33433611065E+04  0.33350101032E+04 0.  0.
        5    1    3    3  502    0 -0.99238277653E+03  0.94988704065E+03  0.82950797435E+03  0.16047474987E+04  0.46999998093E+01 0.  1.
       -5    1    3    3    0  502  0.99238277653E+03 -0.94988704065E+03 -0.10656670315E+04  0.17386136078E+04  0.46999998093E+01 0. -1.
</event>
<event>
 5   0  0.2705859E-06  0.3065898E+04  0.7818609E-02  0.8225160E-01
        2   -1    0    0  501    0  0.00000000000E+00  0.00000000000E+00  0.16168276805E+04  0.16168276805E+04  0.25500000920E-02 0. -1.
       -2   -1    0    0    0  501  0.00000000000E+00  0.00000000000E+00 -0.14534218861E+04  0.14534218861E+04  0.25500000920E-02 0.  1.
    10030    2    1    2    0    0  0.00000000000E+00  0.00000000000E+00  0.16340579442E+03  0.30702495665E+04  0.30658980654E+04 0.  0.
        1    1    3    3  502    0 -0.14073829122E+04  0.15661819870E+03 -0.50622220453E+03  0.15038340474E+04  0.50400001928E-02 0.  1.
       -1    1    3    3    0  502  0.14073829122E+04 -0.15661819870E+03  0.66962799896E+03  0.15664155192E+04  0.50400001928E-02 0. -1.
</event>
<event>
 5   0  0.9295663E-07  0.3254614E+04  0.7818609E-02  0.8174541E-01
       -1   -1    0    0    0  501  0.00000000000E+00  0.00000000000E+00  0.12365421425E+04  0.12365421425E+04  0.50400001928E-02 0. -1.
        1   -1    0    0  501    0  0.00000000000E+00  0.00000000000E+00 -0.21415595374E+04  0.21415595374E+04  0.50400001928E-02 0.  1.
    10030    2    1    2    0    0  0.00000000000E+00  0.00000000000E+00 -0.90501739486E+03  0.33781016799E+04  0.32546143358E+04 0.  0.
        4    1    3    3  502    0  0.11154154092E+04 -0.79266944168E+03  0.46161771702E+03  0.14441498913E+04  0.12699999809E+01 0. -1.
       -4    1    3    3    0  502 -0.11154154092E+04  0.79266944168E+03 -0.13666351119E+04  0.19339517886E+04  0.12699999809E+01 0.  1.
</event>
<event>
 5   0  0.9268670E-07  0.3224979E+04  0.7818609E-02  0.8182251E-01
        1   -1    0    0  501    0  0.00000000000E+00  0.00000000000E+00  0.27116014717E+04  0.27116014717E+04  0.50400001928E-02 0. -1.
       -1   -1    0    0    0  501  0.00000000000E+00  0.00000000000E+00 -0.95888788247E+03  0.95888788248E+03  0.50400001928E-02 0.  1.
    10030    2    1    2    0    0  0.00000000000E+00  0.00000000000E+00  0.17527135892E+04  0.36704893542E+04  0.32249786314E+04 0.  0.
        3    1    3    3  502    0 -0.21803938420E+03  0.15598531052E+04  0.48301506300E+03  0.16474181146E+04  0.10100000352E+00 0.  1.
       -3    1    3    3    0  502  0.21803938420E+03 -0.15598531052E+04  0.12696985262E+04  0.20230712396E+04  0.10100000352E+00 0. -1.
</event>
<event>
 5   0  0.2705859E-06  0.3290063E+04  0.7818609E-02  0.8165429E-01
        2   -1    0    0  501    0  0.00000000000E+00  0.00000000000E+00  0.19212498861E+04  0.19212498861E+04  0.25500000920E-02 0.  1.
       -2   -1    0    0    0  501  0.00000000000E+00  0.00000000000E+00 -0.14085246989E+04  0.14085246989E+04  0.25500000920E-02 0. -1.
    10030    2    1    2    0    0  0.00000000000E+00  0.00000000000E+00  0.51272518712E+03  0.33297745850E+04  0.32900625632E+04 0.  0.
        1    1    3    3  502    0 -0.92536141874E+03 -0.60270651245E+03 -0.97760762317E+03  0.14748781510E+04  0.50400001928E-02 0. -1.
       -1    1    3    3    0  502  0.92536141874E+03  0.60270651245E+03  0.14903328103E+04  0.18548964340E+04  0.50400001928E-02 0.  1.
</event>
<event>
 5   0  0.8705956E-07  0.2549325E+04  0.7818609E-02  0.8385621E-01
        1   -1    0    0  501    0  0.00000000000E+00  0.00000000000E+00  0.10414530356E+04  0.10414530356E+04  0.50400001928E-02 0. -1.
       -1   -1    0    0    0  501  0.00000000000E+00  0.00000000000E+00 -0.15600941045E+04  0.15600941045E+04  0.50400001928E-02 0.  1.
    10030    2    1    2    0    0  0.00000000000E+00  0.00000000000E+00 -0.51864106893E+03  0.26015471402E+04  0.25493251978E+04 0.  0.
        2    1    3    3  502    0 -0.21132297348E+03  0.38924107283E+03  0.96040352598E+03  0.10576109609E+04  0.25500000920E-02 0. -1.
       -2    1    3    3    0  502  0.21132297348E+03 -0.38924107283E+03 -0.14790445949E+04  0.15439361793E+04  0.25500000920E-02 0.  1.
</event>
<event>
 5   0  0.2614212E-06  0.3346652E+04  0.7818609E-02  0.8151125E-01
        2   -1    0    0  501    0  0.00000000000E+00  0.00000000000E+00  0.19871475788E+04  0.19871475788E+04  0.25500000920E-02 0. -1.
       -2   -1    0    0    0  501  0.00000000000E+00  0.00000000000E+00 -0.14090646704E+04  0.14090646704E+04  0.25500000920E-02 0.  1.
    10030    2    1    2    0    0  0.00000000000E+00  0.00000000000E+00  0.57808290845E+03  0.33962122492E+04  0.33466517286E+04 0.  0.
        2    1    3    3  502    0 -0.82444489053E+03  0.14535367998E+04  0.20091744791E+03  0.16831061841E+04  0.25500000920E-02 0.  1.
       -2    1    3    3    0  502  0.82444489053E+03 -0.14535367998E+04  0.37716546054E+03  0.17131060652E+04  0.25500000920E-02 0. -1.
</event>
<event>
 5   0  0.9295663E-07  0.3337880E+04  0.7818609E-02  0.8153323E-01
       -1   -1    0    0    0  501  0.00000000000E+00  0.00000000000E+00  0.13212302462E+04  0.13212302462E+04  0.50400001928E-02 0.  1.
        1   -1    0    0  501    0  0.00000000000E+00  0.00000000000E+00 -0.21081568836E+04  0.21081568836E+04  0.50400001928E-02 0. -1.
    10030    2    1    2    0    0  0.00000000000E+00  0.00000000000E+00 -0.78692663733E+03  0.34293871298E+04  0.33378799489E+04 0.  0.
        4    1    3    3  502    0  0.39677971188E+03  0.10981912040E+04 -0.16185885254E+04  0.19958177491E+04  0.12699999809E+01 0. -1.
       -4    1    3    3    0  502 -0.39677971188E+03 -0.10981912040E+04  0.83166188803E+03  0.14335693807E+04  0.12699999809E+01 0.  1.
</event>
<event>
 5   0  0.2658600E-06  0.2636152E+04  0.7818609E-02  0.8356024E-01
       -2   -1    0    0    0  501  0.00000000000E+00  0.00000000000E+00  0.13893112636E+04  0.13893112636E+04  0.25500000920E-02 0. -1.
        2   -1    0    0  501    0  0.00000000000E+00  0.00000000000E+00 -0.12504935101E+04  0.12504935101E+04  0.25500000920E-02 0.  1.
    10030    2    1    2    0    0  0.00000000000E+00  0.00000000000E+00  0.13881775350E+03  0.26398047738E+04  0.26361522860E+04 0.  0.
        5    1    3    3  502    0  0.20218671586E+03  0.78841848296E+03 -0.96876255660E+03  0.12653087186E+04  0.46999998093E+01 0.  1.
       -5    1    3    3    0  502 -0.20218671586E+03 -0.78841848296E+03  0.11075803101E+04  0.13744960552E+04  0.46999998093E+01 0. -1.
</event>
<event>
 5   0  0.8845526E-07  0.2672134E+04  0.7818609E-02  0.8344104E-01
        1   -1    0    0  501    0  0.00000000000E+00  0.00000000000E+00  0.16482329835E+04  0.16482329835E+04  0.50400001928E-02 0.  1.
       -1   -1    0    0    0  501  0.00000000000E+00  0.00000000000E+00 -0.10830231372E+04  0.10830231372E+04  0.50400001928E-02 0. -1.
    10030    2    1    2    0    0  0.00000000000E+00  0.00000000000E+00  0.56520984633E+03  0.27312561207E+04  0.26721335719E+04 0.  0.
        1    1    3    3  502    0  0.13000185675E+04 -0.30777979920E+03  0.30024291495E+03  0.13692780903E+04  0.50400001928E-02 0.  1.
       -1    1    3    3    0  502 -0.13000185675E+04  0.30777979920E+03  0.26496693138E+03  0.13619780304E+04  0.50400001928E-02 0. -1.
</event>
<event>
 5   0  0.2705859E-06  0.3305912E+04  0.7818609E-02  0.8161393E-01
        2   -1    0    0  501    0  0.00000000000E+00  0.00000000000E+00  0.11817936494E+04  0.11817936494E+04  0.25500000920E-02 0.  1.
       -2   -1    0    0    0  501  0.00000000000E+00  0.00000000000E+00 -0.23119628876E+04  0.23119628876E+04  0.25500000920E-02 0. -1.
    10030    2    1    2    0    0  0.00000000000E+00  0.00000000000E+00 -0.11301692382E+04  0.34937565370E+04  0.33059117098E+04 0.  0.
        1    1    3    3  502    0 -0.15364247965E+04  0.18750751141E+03 -0.11781344140E+04  0.19451891732E+04  0.50400001928E-02 0. -1.
       -1    1    3    3    0  502  0.15364247965E+04 -0.18750751141E+03  0.47965175829E+02  0.15485673638E+04  0.50400001928E-02 0.  1.
</event>
<event>
 5   0  0.8705956E-07  0.2954686E+04  0.7818609E-02  0.8256790E-01
       -1   -1    0    0    0  501  0.00000000000E+00  0.00000000000E+00  0.98890745690E+03  0.98890745692E+03  0.50400001928E-02 0. -1.
        1   -1    0    0  501    0  0.00000000000E+00  0.00000000000E+00 -0.22070237791E+04  0.22070237791E+04  0.50400001928E-02 0.  1.
    10030    2    1    2    0    0  0.00000000000E+00  0.00000000000E+00 -0.12181163222E+04  0.31959312360E+04  0.29546859547E+04 0.  0.
        2    1    3    3  502    0  0.25750965542E+03  0.51355956238E+01  0.96443526751E+03  0.99823493337E+03  0.25500000920E-02 0. -1.
       -2    1    3    3    0  502 -0.25750965542E+03 -0.51355956238E+01 -0.21825515897E+04  0.21976963026E+04  0.25500000920E-02 0.  1.
</event>
<event>
 5   0  0.8705956E-07  0.3321961E+04  0.7818609E-02  0.8157330E-01
        1   -1    0    0  501    0  0.00000000000E+00  0.00000000000E+00  0.13906847190E+04  0.13906847190E+04  0.50400001928E-02 0. -1.
       -1   -1    0    0    0  501  0.00000000000E+00  0.00000000000E+00 -0.19838112172E+04  0.19838112172E+04  0.50400001928E-02 0.  1.
    10030    2    1    2    0    0  0.00000000000E+00  0.00000000000E+00 -0.59312649815E+03  0.33744959362E+04  0.33219608337E+04 0.  0.
        2    1    3    3  502    0 -0.10994133101E+04  0.26704021035E+03 -0.15318687804E+04  0.19043744539E+04  0.25500000920E-02 0.  1.
       -2    1    3    3    0  502  0.10994133101E+04 -0.26704021035E+03  0.93874228220E+03  0.14701214823E+04  0.25500000920E-02 0. -1.
</event>
<event>
 5   0  0.9530268E-07  0.3308051E+04  0.7818609E-02  0.8160850E-01
       -1   -1    0    0    0  501  0.00000000000E+00  0.00000000000E+00  0.12423142832E+04  0.12423142832E+04  0.50400001928E-02 0. -1.
        1   -1    0    0  501    0  0.00000000000E+00  0.00000000000E+00 -0.22021806553E+04  0.22021806553E+04  0.50400001928E-02 0.  1.
    10030    2    1    2    0    0  0.00000000000E+00  0.00000000000E+00 -0.95986637207E+03  0.34444949385E+04  0.33080510772E+04 0.  0.
        5    1    3    3  502    0  0.10359039839E+04 -0.92805794307E+03  0.45219415101E+03  0.14624945298E+04  0.46999998093E+01 0. -1.
       -5    1    3    3    0  502 -0.10359039839E+04  0.92805794307E+03 -0.14120605231E+04  0.19820004088E+04  0.46999998093E+01 0.  1.
</event>
<event>
 5   0  0.9530268E-07  0.3260853E+04  0.7818609E-02  0.8172928E-01
        1   -1    0    0  501    0  0.00000000000E+00  0.00000000000E+00  0.22025251761E+04  0.22025251761E+04  0.50400001928E-02 0. -1.
       -1   -1    0    0    0  501  0.00000000000E+00  0.00000000000E+00 -0.12069283393E+04  0.12069283393E+04  0.50400001928E-02 0.  1.
    10030    2    1    2    0    0  0.00000000000E+00  0.00000000000E+00  0.99559683675E+03  0.34094535154E+04  0.32608526818E+04 0.  0.
        5    1    3    3  502    0  0.12590457427E+04 -0.97008576616E+03  0.87768103652E+03  0.18156565391E+04  0.46999998093E+01 0. -1.
       -5    1    3    3    0  502 -0.12590457427E+04  0.97008576616E+03  0.11791580023E+03  0.15937969764E+04  0.46999998093E+01 0.  1.
</event>
<event>
 5   0  0.9295663E-07  0.3301803E+04  0.7818609E-02  0.8162437E-01
       -1   -1    0    0    0  501  0.00000000000E+00  0.00000000000E+00  0.10226943693E+04  0.10226943693E+04  0.50400001928E-02 0. -1.
        1   -1    0    0  501    0  0.00000000000E+00  0.00000000000E+00 -0.26649953608E+04  0.26649953608E+04  0.50400001928E-02 0.  1.
    10030    2    1    2    0    0  0.00000000000E+00  0.00000000000E+00 -0.16423009915E+04  0.36876897301E+04  0.33018029922E+04 0.  0.
        4    1    3    3  502    0 -0.61725133215E+03  0.25935793316E+03  0.86425577298E+03  0.10932544985E+04  0.12699999809E+01 0. -1.
       -4    1    3    3    0  502  0.61725133215E+03 -0.25935793316E+03 -0.25065567645E+04  0.25944352316E+04  0.12699999809E+01 0.  1.
</event>
<event>
 5   0  0.2574803E-06  0.3254627E+04  0.7818609E-02  0.8174537E-01
        2   -1    0    0  501    0  0.00000000000E+00  0.00000000000E+00  0.21570365633E+04  0.21570365633E+04  0.25500000920E-02 0.  1.
       -2   -1    0    0    0  501  0.00000000000E+00  0.00000000000E+00 -0.12276795179E+04  0.12276795179E+04  0.25500000920E-02 0. -1.
    10030    2    1    2    0    0  0.00000000000E+00  0.00000000000E+00  0.92935704539E+03  0.33847160812E+04  0.32546272340E+04 0.  0.
        4    1    3    3  502    0  0.49407174371E+03 -0.15438939299E+04  0.61333479461E+03  0.17331752762E+04  0.12699999809E+01 0.  1.
       -4    1    3    3    0  502 -0.49407174371E+03  0.15438939299E+04  0.31602225078E+03  0.16515408050E+04  0.12699999809E+01 0. -1.
</event>
<event>
 5   0  0.2705859E-06  0.3276909E+04  0.7818609E-02  0.8168796E-01
       -2   -1    0    0    0  501  0.00000000000E+00  0.00000000000E+00  0.95919192143E+03  0.95919192144E+03  0.25500000920E-02 0. -1.
        2   -1    0    0  501    0  0.00000000000E+00  0.00000000000E+00 -0.27987445160E+04  0.27987445160E+04  0.25500000920E-02 0.  1.
    10030    2    1    2    0    0  0.00000000000E+00  0.00000000000E+00 -0.18395525946E+04  0.37579364375E+04  0.32769089886E+04 0.  0.
        1    1    3    3  502    0  0.88739828274E+03 -0.12277173739E+04 -0.16357347884E+04  0.22294380369E+04  0.50400001928E-02 0.  1.
       -1    1    3    3    0  502 -0.88739828274E+03  0.12277173739E+04 -0.20381780623E+03  0.15284984006E+04  0.50400001928E-02 0. -1.
</event>
<event>
 5   0  0.2658600E-06  0.3196269E+04  0.7818609E-02  0.8189803E-01
       -2   -1    0    0    0  501  0.00000000000E+00  0.00000000000E+00  0.16547355263E+04  0.16547355263E+04  0.25500000920E-02 0.  1.
        2   -1    0    0  501    0  0.00000000000E+00  0.00000000000E+00 -0.15434695544E+04  0.15434695544E+04  0.25500000920E-02 0. -1.
    10030    2    1    2    0    0  0.00000000000E+00  0.00000000000E+00  0.11126597193E+03  0.31982050807E+04  0.31962690159E+04 0.  0.
        5    1    3    3  502    0 -0.28932794023E+03  0.15356876954E+04  0.39044657814E+03  0.16107507489E+04  0.46999998093E+01 0. -1.
       -5    1    3    3    0  502  0.28932794023E+03 -0.15356876954E+04 -0.27918060621E+03  0.15874543318E+04  0.46999998093E+01 0.  1.
</event>
<event>
 5   0  0.2614212E-06  0.3308362E+04  0.7818609E-02  0.8160771E-01
       -2   -1    0    0    0  501  0.00000000000E+00  0.00000000000E+00  0.15698138933E+04  0.15698138933E+04  0.25500000920E-02 0.  1.
        2   -1    0    0  501    0  0.00000000000E+00  0.00000000000E+00 -0.17430826270E+04  0.17430826270E+04  0.25500000920E-02 0. -1.
    10030    2    1    2    0    0  0.00000000000E+00  0.00000000000E+00 -0.17326873378E+03  0.33128965203E+04  0.33083623290E+04 0.  0.
        2    1    3    3  502    0  0.10310402795E+04 -0.10325734568E+04  0.69357615199E+03  0.16156422501E+04  0.25500000920E-02 0.  1.
       -2    1    3    3    0  502 -0.10310402795E+04  0.10325734568E+04 -0.86684488577E+03  0.16972542702E+04  0.25500000920E-02 0. -1.
</event>
<event>
 5   0  0.8705956E-07  0.3461949E+04  0.7818609E-02  0.8122867E-01
        1   -1    0    0  501    0  0.00000000000E+00  0.00000000000E+00  0.98360396705E+03  0.98360396707E+03  0.50400001928E-02 0.  1.
       -1   -1    0    0    0  501  0.00000000000E+00  0.00000000000E+00 -0.30462193073E+04  0.30462193073E+04  0.50400001928E-02 0. -1.
    10030    2    1    2    0    0  0.00000000000E+00  0.00000000000E+00 -0.20626153403E+04  0.40298232744E+04  0.34619493903E+04 0.  0.
        2    1    3    3  502    0  0.53857233816E+03 -0.15079293724E+04 -0.26590642398E+03  0.16231504496E+04  0.25500000920E-02 0.  1.
       -2    1    3    3    0  502 -0.53857233816E+03  0.15079293724E+04 -0.17967089163E+04  0.24066728248E+04  0.25500000920E-02 0. -1.
</event>
<event>
 5   0  0.8845526E-07  0.3380786E+04  0.7818609E-02  0.8142638E-01
        1   -1    0    0  501    0  0.00000000000E+00  0.00000000000E+00  0.27895345632E+04  0.27895345632E+04  0.50400001928E-02 0. -1.
       -1   -1    0    0    0  501  0.00000000000E+00  0.00000000000E+00 -0.10243387984E+04  0.10243387984E+04  0.50400001928E-02 0.  1.
    10030    2    1    2    0    0  0.00000000000E+00  0.00000000000E+00  0.17651957648E+04  0.38138733615E+04  0.33807859929E+04 0.  0.
        1    1    3    3  502    0 -0.13248881034E+04 -0.74892757979E+03  0.52688868502E+02  0.15228253751E+04  0.50400001928E-02 0.  1.
       -1    1    3    3    0  502  0.13248881034E+04  0.74892757979E+03  0.17125068963E+04  0.22910479864E+04  0.50400001928E-02 0. -1.
</event>
<event>
 5   0  0.2658600E-06  0.3301533E+04  0.7818609E-02  0.8162505E-01
        2   -1    0    0  501    0  0.00000000000E+00  0.00000000000E+00  0.11369089495E+04  0.11369089495E+04  0.25500000920E-02 0. -1.
       -2   -1    0    0    0  501  0.00000000000E+00  0.00000000000E+00 -0.23968759017E+04  0.23968759018E+04  0.25500000920E-02 0.  1.
    10030    2    1    2    0    0  0.00000000000E+00  0.00000000000E+00 -0.12599669523E+04  0.35337848512E+04  0.33015327734E+04 0.  0.
        5    1    3    3  502    0 -0.10126535016E+04 -0.12344361157E+04 -0.10786463974E+04  0.19268626777E+04  0.46999998093E+01 0.  1.
       -5    1    3    3    0  502  0.10126535016E+04  0.12344361157E+04 -0.18132055488E+03  0.16069221735E+04  0.46999998093E+01 0. -1.
</event>
<event>
 5   0  0.2705859E-06  0.3239206E+04  0.7818609E-02  0.8178539E-01
        2   -1    0    0  501    0  0.00000000000E+00  0.00000000000E+00  0.21022308229E+04  0.21022308229E+04  0.25500000920E-02 0.  1.
       -2   -1    0    0    0  501  0.00000000000E+00  0.00000000000E+00 -0.12477763923E+04  0.12477763923E+04  0.25500000920E-02 0. -1.
    10030    2    1    2    0    0  0.00000000000E+00  0.00000000000E+00  0.85445443060E+03  0.33500072152E+04  0.32392060706E+04 0.  0.
        1    1    3    3  502    0 -0.11178876112E+04  0.10085243689E+04 -0.19011672588E+03  0.15175435689E+04  0.50400001928E-02 0. -1.
       -1    1    3    3    0  502  0.11178876112E+04 -0.10085243689E+04  0.10445711565E+04  0.18324636463E+04  0.50400001928E-02 0.  1.
</event>
<event>
 5   0  0.8520125E-07  0.2447011E+04  0.7818609E-02  0.8422110E-01
       -3   -1    0    0    0  501  0.00000000000E+00  0.00000000000E+00  0.19714475061E+04  0.19714475087E+04  0.10100000352E+00 0.  1.
        3   -1    0    0  501    0  0.00000000000E+00  0.00000000000E+00 -0.75932308452E+03  0.75932309124E+03  0.10100000352E+00 0. -1.
    10030    2    1    2    0    0  0.00000000000E+00  0.00000000000E+00  0.12121244216E+04  0.27307705999E+04  0.24470109227E+04 0.  0.
        2    1    3    3  502    0  0.15066522266E+03 -0.14787649400E+03 -0.73884447851E+03  0.76841305964E+03  0.25500000920E-02 0. -1.
       -2    1    3    3    0  502 -0.15066522266E+03  0.14787649400E+03  0.19509689001E+04  0.19623575403E+04  0.25500000920E-02 0.  1.
</event>
<event>
 5   0  0.9268670E-07  0.3356847E+04  0.7818609E-02  0.8148579E-01
       -1   -1    0    0    0  501  0.00000000000E+00  0.00000000000E+00  0.14735215434E+04  0.14735215434E+04  0.50400001928E-02 0.  1.
        1   -1    0    0  501    0  0.00000000000E+00  0.00000000000E+00 -0.19118184290E+04  0.19118184290E+04  0.50400001928E-02 0. -1.
    10030    2    1    2    0    0  0.00000000000E+00  0.00000000000E+00 -0.43829688558E+03  0.33853399724E+04  0.33568471173E+04 0.  0.
        3    1    3    3  502    0 -0.10138372484E+04  0.69296362730E+03  0.93469626945E+03  0.15432827613E+04  0.10100000352E+00 0.  1.
       -3    1    3    3    0  502  0.10138372484E+04 -0.69296362730E+03 -0.13729931550E+04  0.18420572111E+04  0.10100000352E+00 0. -1.
</event>
<event>
 5   0  0.2658600E-06  0.3259101E+04  0.7818609E-02  0.8173381E-01
       -2   -1    0    0    0  501  0.00000000000E+00  0.00000000000E+00  0.11123304183E+04  0.11123304183E+04  0.25500000920E-02 0.  1.
        2   -1    0    0  501    0  0.00000000000E+00  0.00000000000E+00 -0.23872713373E+04  0.23872713373E+04  0.25500000920E-02 0. -1.
    10030    2    1    2    0    0  0.00000000000E+00  0.00000000000E+00 -0.12749409190E+04  0.34996017557E+04  0.32591008118E+04 0.  0.
        5    1    3    3  502    0 -0.93264069802E+02 -0.10131446920E+04  0.72935205943E+03  0.12518533741E+04  0.46999998093E+01 0.  1.
       -5    1    3    3    0  502  0.93264069802E+02  0.10131446920E+04 -0.20042929784E+04  0.22477483816E+04  0.46999998093E+01 0. -1.
</event>
<event>
 5   0  0.9268670E-07  0.3278783E+04  0.7818609E-02  0.8168315E-01
       -1   -1    0    0    0  501  0.00000000000E+00  0.00000000000E+00  0.11345369141E+04  0.11345369141E+04  0.50400001928E-02 0.  1.
        1   -1    0    0  501    0  0.00000000000E+00  0.00000000000E+00 -0.23688993313E+04  0.23688993313E+04  0.50400001928E-02 0. -1.
    10030    2    1    2    0    0  0.00000000000E+00  0.00000000000E+00 -0.12343624172E+04  0.35034362455E+04  0.32787825407E+04 0.  0.
        3    1    3    3  502    0  0.14198739517E+04 -0.27573441842E+03 -0.14417639409E+04  0.20422425859E+04  0.10100000352E+00 0. -1.
       -3    1    3    3    0  502 -0.14198739517E+04  0.27573441842E+03  0.20740152374E+03  0.14611936595E+04  0.10100000352E+00 0.  1.
</event>
<event>
 5   0  0.2658600E-06  0.3283377E+04  0.7818609E-02  0.8167138E-01
       -2   -1    0    0    0  501  0.00000000000E+00  0.00000000000E+00  0.17584371521E+04  0.17584371521E+04  0.25500000920E-02 0.  1.
        2   -1    0    0  501    0  0.00000000000E+00  0.00000000000E+00 -0.15326907448E+04  0.15326907448E+04  0.25500000920E-02 0. -1.
    10030    2    1    2    0    0  0.00000000000E+00  0.00000000000E+00  0.22574640728E+03  0.32911278969E+04  0.32833765233E+04 0.  0.
        5    1    3    3  502    0 -0.13386224245E+04 -0.77376951125E+03  0.66598112699E+03  0.16835029561E+04  0.46999998093E+01 0.  1.
       -5    1    3    3    0  502  0.13386224245E+04  0.77376951125E+03 -0.44023471971E+03  0.16076249408E+04  0.46999998093E+01 0. -1.
</event>
<event>
 5   0  0.8705956E-07  0.3349320E+04  0.7818609E-02  0.8150458E-01
        1   -1    0    0  501    0  0.00000000000E+00  0.00000000000E+00  0.15626912906E+04  0.15626912906E+04  0.50400001928E-02 0.  1.
       -1   -1    0    0    0  501  0.00000000000E+00  0.00000000000E+00 -0.17946508957E+04  0.17946508957E+04  0.50400001928E-02 0. -1.
    10030    2    1    2    0    0  0.00000000000E+00  0.00000000000E+00 -0.23195960518E+03  0.33573421863E+04  0.33493195275E+04 0.  0.
        2    1    3    3  502    0 -0.58747451266E+03  0.99725264342E+03  0.10972275633E+04  0.15948502950E+04  0.25500000920E-02 0.  1.
       -2    1    3    3    0  502  0.58747451266E+03 -0.99725264342E+03 -0.13291871685E+04  0.17624918913E+04  0.25500000920E-02 0. -1.
</event>
<event>
 5   0  0.2705859E-06  0.3323197E+04  0.7818609E-02  0.8157018E-01
        2   -1    0    0  501    0  0.00000000000E+00  0.00000000000E+00  0.12073345169E+04  0.12073345169E+04  0.25500000920E-02 0. -1.
       -2   -1    0    0    0  501  0.00000000000E+00  0.00000000000E+00 -0.22867811906E+04  0.22867811906E+04  0.25500000920E-02 0.  1.
    10030    2    1    2    0    0  0.00000000000E+00  0.00000000000E+00 -0.10794466737E+04  0.34941157075E+04  0.33231971738E+04 0.  0.
        1    1    3    3  502    0  0.13171745039E+04  0.60092985345E+03 -0.13970398982E+04  0.20119109920E+04  0.50400001928E-02 0.  1.
       -1    1    3    3    0  502 -0.13171745039E+04 -0.60092985345E+03  0.31759322451E+03  0.14822047155E+04  0.50400001928E-02 0. -1.
</event>
<event>
 5   0  0.8705956E-07  0.2569599E+04  0.7818609E-02  0.8378602E-01
       -1   -1    0    0    0  501  0.00000000000E+00  0.00000000000E+00  0.13199168604E+04  0.13199168604E+04  0.50400001928E-02 0.  1.
        1   -1    0    0  501    0  0.00000000000E+00  0.00000000000E+00 -0.12506165996E+04  0.12506165996E+04  0.50400001928E-02 0. -1.
    10030    2    1    2    0    0  0.00000000000E+00  0.00000000000E+00  0.69300260847E+02  0.25705334600E+04  0.25695991405E+04 0.  0.
        2    1    3    3  502    0 -0.90544745924E+02 -0.51221499366E+03  0.12098740346E+04  0.13169501624E+04  0.25500000920E-02 0.  1.
       -2    1    3    3    0  502  0.90544745924E+02  0.51221499366E+03 -0.11405737737E+04  0.12535832976E+04  0.25500000920E-02 0. -1.
</event>
<event>
 5   0  0.2574803E-06  0.3428527E+04  0.7818609E-02  0.8130940E-01
       -2   -1    0    0    0  501  0.00000000000E+00  0.00000000000E+00  0.18729448954E+04  0.18729448954E+04  0.25500000920E-02 0. -1.
        2   -1    0    0  501    0  0.00000000000E+00  0.00000000000E+00 -0.15690263052E+04  0.15690263052E+04  0.25500000920E-02 0.  1.
    10030    2    1    2    0    0  0.00000000000E+00  0.00000000000E+00  0.30391859013E+03  0.34419712006E+04  0.34285272693E+04 0.  0.
        4    1    3    3  502    0 -0.58387458927E+03  0.71186415039E+03  0.16036717281E+04  0.18491686588E+04  0.12699999809E+01 0. -1.
       -4    1    3    3    0  502  0.58387458927E+03 -0.71186415039E+03 -0.12997531379E+04  0.15928025418E+04  0.12699999809E+01 0.  1.
</event>
<event>
 5   0  0.9295663E-07  0.3333812E+04  0.7818609E-02  0.8154345E-01
       -1   -1    0    0    0  501  0.00000000000E+00  0.00000000000E+00  0.22454891569E+04  0.22454891569E+04  0.50400001928E-02 0. -1.
        1   -1    0    0  501    0  0.00000000000E+00  0.00000000000E+00 -0.12374034686E+04  0.12374034686E+04  0.50400001928E-02 0.  1.
    10030    2    1    2    0    0  0.00000000000E+00  0.00000000000E+00  0.10080856883E+04  0.34828926255E+04  0.33338122751E+04 0.  0.
        4    1    3    3  502    0  0.46819628049E+03  0.13926817643E+04  0.13265244679E+04  0.19795047437E+04  0.12699999809E+01 0. -1.
       -4    1    3    3    0  502 -0.46819628049E+03 -0.13926817643E+04 -0.31843877964E+03  0.15033878817E+04  0.12699999809E+01 0.  1.
</event>
<event>
 5   0  0.8705956E-07  0.3276337E+04  0.7818609E-02  0.8168943E-01
        1   -1    0    0  501    0  0.00000000000E+00  0.00000000000E+00  0.14957101537E+04  0.14957101537E+04  0.50400001928E-02 0. -1.
       -1   -1    0    0    0  501  0.00000000000E+00  0.00000000000E+00 -0.17941954520E+04  0.17941954521E+04  0.50400001928E-02 0.  1.
    10030    2    1    2    0    0  0.00000000000E+00  0.00000000000E+00 -0.29848529833E+03  0.32899056058E+04  0.32763371960E+04 0.  0.
        2    1    3    3  502    0 -0.70028737657E+03 -0.54867782990E+03 -0.15304924679E+04  0.17702703085E+04  0.25500000920E-02 0.  1.
       -2    1    3    3    0  502  0.70028737657E+03  0.54867782990E+03  0.12320071696E+04  0.15196352973E+04  0.25500000920E-02 0. -1.
</event>
<event>
 5   0  0.9530268E-07  0.3322057E+04  0.7818609E-02  0.8157306E-01
       -1   -1    0    0    0  501  0.00000000000E+00  0.00000000000E+00  0.13843549019E+04  0.13843549019E+04  0.50400001928E-02 0.  1.
        1   -1    0    0  501    0  0.00000000000E+00  0.00000000000E+00 -0.19929974820E+04  0.19929974820E+04  0.50400001928E-02 0. -1.
    10030    2    1    2    0    0  0.00000000000E+00  0.00000000000E+00 -0.60864258003E+03  0.33773523839E+04  0.33220570939E+04 0.  0.
        5    1    3    3  502    0 -0.28687099351E+03  0.14835058116E+04  0.39702317261E+03  0.15622848491E+04  0.46999998093E+01 0.  1.
       -5    1    3    3    0  502  0.28687099351E+03 -0.14835058116E+04 -0.10056657526E+04  0.18150675348E+04  0.46999998093E+01 0. -1.
</event>
<event>
 5   0  0.8705956E-07  0.3335442E+04  0.7818609E-02  0.8153935E-01
       -1   -1    0    0    0  501  0.00000000000E+00  0.00000000000E+00  0.19001574623E+04  0.19001574623E+04  0.50400001928E-02 0. -1.
        1   -1    0    0  501    0  0.00000000000E+00  0.00000000000E+00 -0.14637170532E+04  0.14637170532E+04  0.50400001928E-02 0.  1.
    10030    2    1    2    0    0  0.00000000000E+00  0.00000000000E+00  0.43644040905E+03  0.33638745155E+04  0.33354417286E+04 0.  0.
        2    1    3    3  502    0  0.81394159260E+03 -0.92133942256E+03  0.13547362557E+04  0.18293926780E+04  0.25500000920E-02 0.  1.
       -2    1    3    3    0  502 -0.81394159260E+03  0.92133942256E+03 -0.91829584662E+03  0.15344818375E+04  0.25500000920E-02 0. -1.
</event>
<event>
 5   0  0.9268670E-07  0.3287557E+04  0.7818609E-02  0.8166069E-01
       -1   -1    0    0    0  501  0.00000000000E+00  0.00000000000E+00  0.26009931509E+04  0.26009931509E+04  0.50400001928E-02 0.  1.
        1   -1    0    0  501    0  0.00000000000E+00  0.00000000000E+00 -0.10388368443E+04  0.10388368443E+04  0.50400001928E-02 0. -1.
    10030    2    1    2    0    0  0.00000000000E+00  0.00000000000E+00  0.15621563066E+04  0.36398299952E+04  0.32875568539E+04 0.  0.
        3    1    3    3  502    0 -0.15522445763E+04  0.42779916996E+03  0.11474977042E+04  0.19771763568E+04  0.10100000352E+00 0. -1.
       -3    1    3    3    0  502  0.15522445763E+04 -0.42779916996E+03  0.41465860241E+03  0.16626536384E+04  0.10100000352E+00 0.  1.
</event>
<event>
 5   0  0.9530268E-07  0.3217755E+04  0.7818609E-02  0.8184144E-01
        1   -1    0    0  501    0  0.00000000000E+00  0.00000000000E+00  0.12703022316E+04  0.12703022316E+04  0.50400001928E-02 0.  1.
       -1   -1    0    0    0  501  0.00000000000E+00  0.00000000000E+00 -0.20376942887E+04  0.20376942887E+04  0.50400001928E-02 0. -1.
    10030    2    1    2    0    0  0.00000000000E+00  0.00000000000E+00 -0.76739205710E+03  0.33079965204E+04  0.32177554925E+04 0.  0.
        5    1    3    3  502    0 -0.15953113395E+04  0.20695813815E+03 -0.40920255216E+03  0.16599152868E+04  0.46999998093E+01 0.  1.
       -5    1    3    3    0  502  0.15953113395E+04 -0.20695813815E+03 -0.35818950494E+03  0.16480812335E+04  0.46999998093E+01 0. -1.
</event>
<event>
 5   0  0.9530268E-07  0.3357029E+04  0.7818609E-02  0.8148534E-01
        1   -1    0    0  501    0  0.00000000000E+00  0.00000000000E+00  0.15353527444E+04  0.15353527444E+04  0.50400001928E-02 0.  1.
       -1   -1    0    0    0  501  0.00000000000E+00  0.00000000000E+00 -0.18350246740E+04  0.18350246740E+04  0.50400001928E-02 0. -1.
    10030    2    1    2    0    0  0.00000000000E+00  0.00000000000E+00 -0.29967192958E+03  0.33703774184E+04  0.33570285488E+04 0.  0.
        5    1    3    3  502    0  0.29041935710E+03  0.16471862848E+04 -0.84854319652E+01  0.16726207438E+04  0.46999998093E+01 0. -1.
       -5    1    3    3    0  502 -0.29041935710E+03 -0.16471862848E+04 -0.29118649761E+03  0.16977566746E+04  0.46999998093E+01 0.  1.
</event>
<event>
 5   0  0.9530268E-07  0.3303607E+04  0.7818609E-02  0.8161978E-01
        1   -1    0    0  501    0  0.00000000000E+00  0.00000000000E+00  0.10366263286E+04  0.10366263286E+04  0.50400001928E-02 0.  1.
       -1   -1    0    0    0  501  0.00000000000E+00  0.00000000000E+00 -0.26320521132E+04  0.26320521132E+04  0.50400001928E-02 0. -1.
    10030    2    1    2    0    0  0.00000000000E+00  0.00000000000E+00 -0.15954257846E+04  0.36686784418E+04  0.33036068282E+04 0.  0.
        5    1    3    3  502    0 -0.87580519699E+03 -0.91618624547E+02 -0.23496453890E+04  0.25092397772E+04  0.46999998093E+01 0. -1.
       -5    1    3    3    0  502  0.87580519699E+03  0.91618624547E+02  0.75421960436E+03  0.11594386646E+04  0.46999998093E+01 0.  1.
</event>
<event>
 5   0  0.2574803E-06  0.3324241E+04  0.7818609E-02  0.8156755E-01
        2   -1    0    0  501    0  0.00000000000E+00  0.00000000000E+00  0.15712900448E+04  0.15712900448E+04  0.25500000920E-02 0. -1.
       -2   -1    0    0    0  501  0.00000000000E+00  0.00000000000E+00 -0.17582010989E+04  0.17582010989E+04  0.25500000920E-02 0.  1.
    10030    2    1    2    0    0  0.00000000000E+00  0.00000000000E+00 -0.18691105412E+03  0.33294911438E+04  0.33242405951E+04 0.  0.
        4    1    3    3  502    0  0.46104374478E+03 -0.74379835530E+03  0.13218740636E+04  0.15852917652E+04  0.12699999809E+01 0. -1.
       -4    1    3    3    0  502 -0.46104374478E+03  0.74379835530E+03 -0.15087851177E+04  0.17441993786E+04  0.12699999809E+01 0.  1.
</event>
<event>
 5   0  0.9295663E-07  0.3357269E+04  0.7818609E-02  0.8148474E-01
       -1   -1    0    0    0  501  0.00000000000E+00  0.00000000000E+00  0.15887160126E+04  0.15887160126E+04  0.50400001928E-02 0. -1.
        1   -1    0    0  501    0  0.00000000000E+00  0.00000000000E+00 -0.17736418321E+04  0.17736418321E+04  0.50400001928E-02 0.  1.
    10030    2    1    2    0    0  0.00000000000E+00  0.00000000000E+00 -0.18492581955E+03  0.33623578447E+04  0.33572686394E+04 0.  0.
        4    1    3    3  502    0 -0.13282216069E+04 -0.45346133307E+03 -0.10147343774E+04  0.17319027938E+04  0.12699999809E+01 0.  1.
       -4    1    3    3    0  502  0.13282216069E+04  0.45346133307E+03  0.82980855782E+03  0.16304550509E+04  0.12699999809E+01 0. -1.
</event>
<event>
 5   0  0.2674551E-06  0.3308843E+04  0.7818609E-02  0.8160649E-01
       -2   -1    0    0    0  501  0.00000000000E+00  0.00000000000E+00  0.19039754374E+04  0.19039754374E+04  0.25500000920E-02 0. -1.
        2   -1    0    0  501    0  0.00000000000E+00  0.00000000000E+00 -0.14375769234E+04  0.14375769234E+04  0.25500000920E-02 0.  1.
    10030    2    1    2    0    0  0.00000000000E+00  0.00000000000E+00  0.46639851407E+03  0.33415523608E+04  0.33088433940E+04 0.  0.
        3    1    3    3  502    0  0.85399739676E+03  0.10024035470E+03 -0.11941911914E+04  0.14715475847E+04  0.10100000352E+00 0.  1.
       -3    1    3    3    0  502 -0.85399739676E+03 -0.10024035470E+03  0.16605897055E+04  0.18700047760E+04  0.10100000352E+00 0. -1.
</event>
<event>
 5   0  0.2705859E-06  0.3261975E+04  0.7818609E-02  0.8172639E-01
        2   -1    0    0  501    0  0.00000000000E+00  0.00000000000E+00  0.18856384743E+04  0.18856384743E+04  0.25500000920E-02 0.  1.
       -2   -1    0    0    0  501  0.00000000000E+00  0.00000000000E+00 -0.14107266753E+04  0.14107266753E+04  0.25500000920E-02 0. -1.
    10030    2    1    2    0    0  0.00000000000E+00  0.00000000000E+00  0.47491179898E+03  0.32963651496E+04  0.32619751659E+04 0.  0.
        1    1    3    3  502    0  0.32951128363E+03 -0.54850277615E+03 -0.12785897010E+04  0.14297638284E+04  0.50400001928E-02 0. -1.
       -1    1    3    3    0  502 -0.32951128363E+03  0.54850277615E+03  0.17535015000E+04  0.18666013211E+04  0.50400001928E-02 0.  1.
</event>
<event>
 5   0  0.9295663E-07  0.3236458E+04  0.7818609E-02  0.8179255E-01
        1   -1    0    0  501    0  0.00000000000E+00  0.00000000000E+00  0.14004249356E+04  0.14004249356E+04  0.50400001928E-02 0. -1.
       -1   -1    0    0    0  501  0.00000000000E+00  0.00000000000E+00 -0.18699071985E+04  0.18699071985E+04  0.50400001928E-02 0.  1.
    10030    2    1    2    0    0  0.00000000000E+00  0.00000000000E+00 -0.46948226287E+03  0.32703321341E+04  0.32364577353E+04 0.  0.
        4    1    3    3  502    0 -0.14167368010E+04 -0.40913811343E+03  0.43866174953E+03  0.15384937123E+04  0.12699999809E+01 0. -1.
       -4    1    3    3    0  502  0.14167368010E+04  0.40913811343E+03 -0.90814401239E+03  0.17318384219E+04  0.12699999809E+01 0.  1.
</event>
<event>
 5   0  0.2705859E-06  0.3296293E+04  0.7818609E-02  0.8163839E-01
       -2   -1    0    0    0  501  0.00000000000E+00  0.00000000000E+00  0.12087578241E+04  0.12087578241E+04  0.25500000920E-02 0.  1.
        2   -1    0    0  501    0  0.00000000000E+00  0.00000000000E+00 -0.22472546610E+04  0.22472546610E+04  0.25500000920E-02 0. -1.
    10030    2    1    2    0    0  0.00000000000E+00  0.00000000000E+00 -0.10384968369E+04  0.34560124851E+04  0.32962928597E+04 0.  0.
        1    1    3    3  502    0 -0.18964054992E+03  0.89654786695E+02  0.11947050874E+04  0.12129805295E+04  0.50400001928E-02 0.  1.
       -1    1    3    3    0  502  0.18964054992E+03 -0.89654786695E+02 -0.22332019244E+04  0.22430319556E+04  0.50400001928E-02 0. -1.
</event>
<event>
 5   0  0.2674551E-06  0.3275739E+04  0.7818609E-02  0.8169096E-01
        2   -1    0    0  501    0  0.00000000000E+00  0.00000000000E+00  0.25040993812E+04  0.25040993812E+04  0.25500000920E-02 0. -1.
       -2   -1    0    0    0  501  0.00000000000E+00  0.00000000000E+00 -0.10712900576E+04  0.10712900577E+04  0.25500000920E-02 0.  1.
    10030    2    1    2    0    0  0.00000000000E+00  0.00000000000E+00  0.14328093235E+04  0.35753894388E+04  0.32757391657E+04 0.  0.
        3    1    3    3  502    0  0.12290437157E+04 -0.98902529510E+03  0.11970225022E+04  0.19802985559E+04  0.10100000352E+00 0. -1.
       -3    1    3    3    0  502 -0.12290437157E+04  0.98902529510E+03  0.23578682126E+03  0.15950908829E+04  0.10100000352E+00 0.  1.
</event>
<event>
 5   0  0.8705956E-07  0.2726592E+04  0.7818609E-02  0.8326428E-01
        1   -1    0    0  501    0  0.00000000000E+00  0.00000000000E+00  0.19601869059E+04  0.19601869059E+04  0.50400001928E-02 0. -1.
       -1   -1    0    0    0  501  0.00000000000E+00  0.00000000000E+00 -0.94816236173E+03  0.94816236175E+03  0.50400001928E-02 0.  1.
    10030    2    1    2    0    0  0.00000000000E+00  0.00000000000E+00  0.10120245442E+04  0.29083492677E+04  0.27265916058E+04 0.  0.
        2    1    3    3  502    0  0.47221405343E+03 -0.58015232330E+03  0.17217311245E+04  0.18772109352E+04  0.25500000920E-02 0. -1.
       -2    1    3    3    0  502 -0.47221405343E+03  0.58015232330E+03 -0.70970658028E+03  0.10311383324E+04  0.25500000920E-02 0.  1.
</event>
<event>
 5   0  0.2674551E-06  0.3175166E+04  0.7818609E-02  0.8195407E-01
        2   -1    0    0  501    0  0.00000000000E+00  0.00000000000E+00  0.15974337966E+04  0.15974337966E+04  0.25500000920E-02 0.  1.
       -2   -1    0    0    0  501  0.00000000000E+00  0.00000000000E+00 -0.15777929730E+04  0.15777929730E+04  0.25500000920E-02 0. -1.
    10030    2    1    2    0    0  0.00000000000E+00  0.00000000000E+00  0.19640823601E+02  0.31752267697E+04  0.31751660235E+04 0.  0.
        3    1    3    3  502    0 -0.13701196692E+04  0.58438970467E+03  0.55908548218E+03  0.15910109432E+04  0.10100000352E+00 0.  1.
       -3    1    3    3    0  502  0.13701196692E+04 -0.58438970467E+03 -0.53944465858E+03  0.15842158264E+04  0.10100000352E+00 0. -1.
</event>
<event>
 5   0  0.8845526E-07  0.3353238E+04  0.7818609E-02  0.8149480E-01
       -1   -1    0    0    0  501  0.00000000000E+00  0.00000000000E+00  0.15707183883E+04  0.15707183883E+04  0.50400001928E-02 0.  1.
        1   -1    0    0  501    0  0.00000000000E+00  0.00000000000E+00 -0.17896598149E+04  0.17896598149E+04  0.50400001928E-02 0. -1.
    10030    2    1    2    0    0  0.00000000000E+00  0.00000000000E+00 -0.21894142655E+03  0.33603782032E+04  0.33532381843E+04 0.  0.
        1    1    3    3  502    0  0.21545072886E+03  0.14352290471E+04 -0.95075222208E+03  0.17350017931E+04  0.50400001928E-02 0. -1.
       -1    1    3    3    0  502 -0.21545072886E+03 -0.14352290471E+04  0.73181079553E+03  0.16253764101E+04  0.50400001928E-02 0.  1.
</event>
<event>
 5   0  0.8705956E-07  0.3350236E+04  0.7818609E-02  0.8150229E-01
       -1   -1    0    0    0  501  0.00000000000E+00  0.00000000000E+00  0.19919149180E+04  0.19919149180E+04  0.50400001928E-02 0.  1.
        1   -1    0    0  501    0  0.00000000000E+00  0.00000000000E+00 -0.14087048411E+04  0.14087048411E+04  0.50400001928E-02 0. -1.
    10030    2    1    2    0    0  0.00000000000E+00  0.00000000000E+00  0.58321007697E+03  0.34006197591E+04  0.33502359249E+04 0.  0.
        2    1    3    3  502    0  0.25356409977E+03 -0.18104953529E+01 -0.13891112289E+04  0.14120651674E+04  0.25500000920E-02 0. -1.
       -2    1    3    3    0  502 -0.25356409977E+03  0.18104953529E+01  0.19723213059E+04  0.19885545917E+04  0.25500000920E-02 0.  1.
</event>
<event>
 5   0  0.8845526E-07  0.3289406E+04  0.7818609E-02  0.8165596E-01
       -1   -1    0    0    0  501  0.00000000000E+00  0.00000000000E+00  0.15875708412E+04  0.15875708412E+04  0.50400001928E-02 0. -1.
        1   -1    0    0  501    0  0.00000000000E+00  0.00000000000E+00 -0.17038913775E+04  0.17038913775E+04  0.50400001928E-02 0.  1.
    10030    2    1    2    0    0  0.00000000000E+00  0.00000000000E+00 -0.11632053629E+03  0.32914622188E+04  0.32894061881E+04 0.  0.
        1    1    3    3  502    0 -0.13042352886E+04 -0.36528512237E+03  0.87547457007E+03  0.16127363800E+04  0.50400001928E-02 0. -1.
       -1    1    3    3    0  502  0.13042352886E+04  0.36528512237E+03 -0.99179510636E+03  0.16787258387E+04  0.50400001928E-02 0.  1.
</event>
<event>
 5   0  0.2705859E-06  0.3326812E+04  0.7818609E-02  0.8156106E-01
       -2   -1    0    0    0  501  0.00000000000E+00  0.00000000000E+00  0.11303453461E+04  0.11303453462E+04  0.25500000920E-02 0. -1.
        2   -1    0    0  501    0  0.00000000000E+00  0.00000000000E+00 -0.24478536937E+04  0.24478536937E+04  0.25500000920E-02 0.  1.
    10030    2    1    2    0    0  0.00000000000E+00  0.00000000000E+00 -0.13175083476E+04  0.35781990399E+04  0.33268123066E+04 0.  0.
        1    1    3    3  502    0 -0.80150696993E+03 -0.14401633183E+04 -0.90030441765E+03  0.18780393635E+04  0.50400001928E-02 0.  1.
       -1    1    3    3    0  502  0.80150696993E+03  0.14401633183E+04 -0.41720392995E+03  0.17001596764E+04  0.50400001928E-02 0. -1.
</event>
<event>
 5   0  0.8845526E-07  0.3788674E+04  0.7818609E-02  0.8048590E-01
        1   -1    0    0  501    0  0.00000000000E+00  0.00000000000E+00  0.25463766244E+04  0.25463766245E+04  0.50400001928E-02 0. -1.
       -1   -1    0    0    0  501  0.00000000000E+00  0.00000000000E+00 -0.14092625097E+04  0.14092625098E+04  0.50400001928E-02 0.  1.
    10030    2    1    2    0    0  0.00000000000E+00  0.00000000000E+00  0.11371141147E+04  0.39556391342E+04  0.37886742338E+04 0.  0.
        1    1    3    3  502    0 -0.10009841246E+04  0.15918789881E+04  0.32941002695E+03  0.19090727845E+04  0.50400001928E-02 0.  1.
       -1    1    3    3    0  502  0.10009841246E+04 -0.15918789881E+04  0.80770408776E+03  0.20465663497E+04  0.50400001928E-02 0. -1.
</event>
<event>
 5   0  0.9295663E-07  0.3302972E+04  0.7818609E-02  0.8162140E-01
       -1   -1    0    0    0  501  0.00000000000E+00  0.00000000000E+00  0.16137745743E+04  0.16137745743E+04  0.50400001928E-02 0.  1.
        1   -1    0    0  501    0  0.00000000000E+00  0.00000000000E+00 -0.16900782165E+04  0.16900782165E+04  0.50400001928E-02 0. -1.
    10030    2    1    2    0    0  0.00000000000E+00  0.00000000000E+00 -0.76303642211E+02  0.33038527908E+04  0.33029715435E+04 0.  0.
        4    1    3    3  502    0 -0.10300113602E+04  0.56296566898E+03  0.11238594192E+04  0.16250893371E+04  0.12699999809E+01 0.  1.
       -4    1    3    3    0  502  0.10300113602E+04 -0.56296566898E+03 -0.12001630614E+04  0.16787634537E+04  0.12699999809E+01 0. -1.
</event>
<event>
 5   0  0.2614212E-06  0.3275995E+04  0.7818609E-02  0.8169031E-01
       -2   -1    0    0    0  501  0.00000000000E+00  0.00000000000E+00  0.11602555953E+04  0.11602555953E+04  0.25500000920E-02 0.  1.
        2   -1    0    0  501    0  0.00000000000E+00  0.00000000000E+00 -0.23124518742E+04  0.23124518742E+04  0.25500000920E-02 0. -1.
    10030    2    1    2    0    0  0.00000000000E+00  0.00000000000E+00 -0.11521962789E+04  0.34727074695E+04  0.32759946434E+04 0.  0.
        2    1    3    3  502    0  0.10909114748E+04  0.66435612240E+03 -0.16631389041E+04  0.20970188167E+04  0.25500000920E-02 0. -1.
       -2    1    3    3    0  502 -0.10909114748E+04 -0.66435612240E+03  0.51094262515E+03  0.13756886528E+04  0.25500000920E-02 0.  1.
</event>
<event>
 5   0  0.2614212E-06  0.3309258E+04  0.7818609E-02  0.8160544E-01
        2   -1    0    0  501    0  0.00000000000E+00  0.00000000000E+00  0.20380741253E+04  0.20380741253E+04  0.25500000920E-02 0. -1.
       -2   -1    0    0    0  501  0.00000000000E+00  0.00000000000E+00 -0.13433253028E+04  0.13433253028E+04  0.25500000920E-02 0.  1.
    10030    2    1    2    0    0  0.00000000000E+00  0.00000000000E+00  0.69474882251E+03  0.33813994281E+04  0.33092576457E+04 0.  0.
        2    1    3    3  502    0 -0.93059922065E+03  0.44800102481E+03 -0.97350778847E+03  0.14193087197E+04  0.25500000920E-02 0.  1.
       -2    1    3    3    0  502  0.93059922065E+03 -0.44800102481E+03  0.16682566110E+04  0.19620907083E+04  0.25500000920E-02 0. -1.
</event>
<event>
 5   0  0.2658600E-06  0.3282138E+04  0.7818609E-02  0.8167455E-01
        2   -1    0    0  501    0  0.00000000000E+00  0.00000000000E+00  0.14270688048E+04  0.14270688048E+04  0.25500000920E-02 0.  1.
       -2   -1    0    0    0  501  0.00000000000E+00  0.00000000000E+00 -0.18871598002E+04  0.18871598002E+04  0.25500000920E-02 0. -1.
    10030    2    1    2    0    0  0.00000000000E+00  0.00000000000E+00 -0.46009099540E+03  0.33142286050E+04  0.32821376452E+04 0.  0.
        5    1    3    3  502    0 -0.23135414522E+03 -0.82484706279E+03 -0.16434408456E+04  0.18533260157E+04  0.46999998093E+01 0. -1.
       -5    1    3    3    0  502  0.23135414522E+03  0.82484706279E+03  0.11833498502E+04  0.14609025893E+04  0.46999998093E+01 0.  1.
</event>
<event>
 5   0  0.2705859E-06  0.3279737E+04  0.7818609E-02  0.8168071E-01
       -2   -1    0    0    0  501  0.00000000000E+00  0.00000000000E+00  0.15429820921E+04  0.15429820921E+04  0.25500000920E-02 0. -1.
        2   -1    0    0  501    0  0.00000000000E+00  0.00000000000E+00 -0.17428381215E+04  0.17428381215E+04  0.25500000920E-02 0.  1.
    10030    2    1    2    0    0  0.00000000000E+00  0.00000000000E+00 -0.19985602939E+03  0.32858202136E+04  0.32797365814E+04 0.  0.
        1    1    3    3  502    0 -0.15352383546E+04 -0.55250143930E+03  0.64551315995E+02  0.16329058510E+04  0.50400001928E-02 0. -1.
       -1    1    3    3    0  502  0.15352383546E+04  0.55250143930E+03 -0.26440734539E+03  0.16529143626E+04  0.50400001928E-02 0.  1.
</event>
<event>
 5   0  0.9268670E-07  0.3307807E+04  0.7818609E-02  0.8160912E-01
       -1   -1    0    0    0  501  0.00000000000E+00  0.00000000000E+00  0.10683780161E+04  0.10683780161E+04  0.50400001928E-02 0. -1.
        1   -1    0    0  501    0  0.00000000000E+00  0.00000000000E+00 -0.25603260576E+04  0.25603260576E+04  0.50400001928E-02 0.  1.
    10030    2    1    2    0    0  0.00000000000E+00  0.00000000000E+00 -0.14919480415E+04  0.36287040737E+04  0.33078065686E+04 0.  0.
        3    1    3    3  502    0  0.11883756389E+04  0.10375194254E+04 -0.12908621277E+04  0.20383837372E+04  0.10100000352E+00 0.  1.
       -3    1    3    3    0  502 -0.11883756389E+04 -0.10375194254E+04 -0.20108591387E+03  0.15903203364E+04  0.10100000352E+00 0. -1.
</event>
<event>
 5   0  0.2574803E-06  0.3334565E+04  0.7818609E-02  0.8154156E-01
       -2   -1    0    0    0  501  0.00000000000E+00  0.00000000000E+00  0.12302773477E+04  0.12302773477E+04  0.25500000920E-02 0.  1.
        2   -1    0    0  501    0  0.00000000000E+00  0.00000000000E+00 -0.22595153847E+04  0.22595153847E+04  0.25500000920E-02 0. -1.
    10030    2    1    2    0    0  0.00000000000E+00  0.00000000000E+00 -0.10292380370E+04  0.34897927323E+04  0.33345647959E+04 0.  0.
        4    1    3    3  502    0  0.62518453487E+03 -0.16831819652E+03 -0.21225802077E+04  0.22191293493E+04  0.12699999809E+01 0. -1.
       -4    1    3    3    0  502 -0.62518453487E+03  0.16831819652E+03  0.10933421707E+04  0.12706633830E+04  0.12699999809E+01 0.  1.
</event>
<event>
 5   0  0.2658600E-06  0.3182788E+04  0.7818609E-02  0.8193378E-01
        2   -1    0    0  501    0  0.00000000000E+00  0.00000000000E+00  0.19843403036E+04  0.19843403036E+04  0.25500000920E-02 0.  1.
       -2   -1    0    0    0  501  0.00000000000E+00  0.00000000000E+00 -0.12762599616E+04  0.12762599616E+04  0.25500000920E-02 0. -1.
    10030    2    1    2    0    0  0.00000000000E+00  0.00000000000E+00  0.70808034198E+03  0.32606002652E+04  0.31827875076E+04 0.  0.
        5    1    3    3  502    0 -0.16066329983E+03  0.52842961440E+03 -0.11749159140E+04  0.12982680957E+04  0.46999998093E+01 0. -1.
       -5    1    3    3    0  502  0.16066329983E+03 -0.52842961440E+03  0.18829962560E+04  0.19623321695E+04  0.46999998093E+01 0.  1.
</event>
<event>
 5   0  0.2674551E-06  0.3315960E+04  0.7818609E-02  0.8158846E-01
       -2   -1    0    0    0  501  0.00000000000E+00  0.00000000000E+00  0.17016020743E+04  0.17016020743E+04  0.25500000920E-02 0.  1.
        2   -1    0    0  501    0  0.00000000000E+00  0.00000000000E+00 -0.16154763813E+04  0.16154763813E+04  0.25500000920E-02 0. -1.
    10030    2    1    2    0    0  0.00000000000E+00  0.00000000000E+00  0.86125693004E+02  0.33170784555E+04  0.33159601694E+04 0.  0.
        3    1    3    3  502    0 -0.22479259073E+02 -0.15564139830E+04 -0.52806590065E+03  0.16437102571E+04  0.10100000352E+00 0. -1.
       -3    1    3    3    0  502  0.22479259073E+02  0.15564139830E+04  0.61419159366E+03  0.16733681984E+04  0.10100000352E+00 0.  1.
</event>
<event>
 5   0  0.8845526E-07  0.3087564E+04  0.7818609E-02  0.8219159E-01
       -1   -1    0    0    0  501  0.00000000000E+00  0.00000000000E+00  0.16773335371E+04  0.16773335371E+04  0.50400001928E-02 0. -1.
        1   -1    0    0  501    0  0.00000000000E+00  0.00000000000E+00 -0.14208639248E+04  0.14208639248E+04  0.50400001928E-02 0.  1.
    10030    2    1    2    0    0  0.00000000000E+00  0.00000000000E+00  0.25646961231E+03  0.30981974619E+04  0.30875639023E+04 0.  0.
        1    1    3    3  502    0  0.11221027812E+04 -0.74011363313E+03  0.89004633685E+03  0.16121616927E+04  0.50400001928E-02 0. -1.
       -1    1    3    3    0  502 -0.11221027812E+04  0.74011363313E+03 -0.63357672454E+03  0.14860357692E+04  0.50400001928E-02 0.  1.
</event>
<event>
 5   0  0.8705956E-07  0.3321286E+04  0.7818609E-02  0.8157500E-01
        1   -1    0    0  501    0  0.00000000000E+00  0.00000000000E+00  0.28849009949E+04  0.28849009949E+04  0.50400001928E-02 0.  1.
       -1   -1    0    0    0  501  0.00000000000E+00  0.00000000000E+00 -0.95592017421E+03  0.95592017423E+03  0.50400001928E-02 0. -1.
    10030    2    1    2    0    0  0.00000000000E+00  0.00000000000E+00  0.19289808207E+04  0.38408211691E+04  0.33212859327E+04 0.  0.
        2    1    3    3  502    0  0.91915117820E+03 -0.11245197777E+04  0.33333090983E+02  0.14527541822E+04  0.25500000920E-02 0. -1.
       -2    1    3    3    0  502 -0.91915117820E+03  0.11245197777E+04  0.18956477297E+04  0.23880669869E+04  0.25500000920E-02 0.  1.
</event>
<event>
 5   0  0.8705956E-07  0.3299803E+04  0.7818609E-02  0.8162945E-01
        1   -1    0    0  501    0  0.00000000000E+00  0.00000000000E+00  0.16348329334E+04  0.16348329334E+04  0.50400001928E-02 0.  1.
       -1   -1    0    0    0  501  0.00000000000E+00  0.00000000000E+00 -0.16651090139E+04  0.16651090139E+04  0.50400001928E-02 0. -1.
    10030    2    1    2    0    0  0.00000000000E+00  0.00000000000E+00 -0.30276080509E+02  0.32999419473E+04  0.32998030569E+04 0.  0.
        2    1    3    3  502    0 -0.58420385566E+03  0.14836140246E+04 -0.43914920536E+03  0.16538611621E+04  0.25500000920E-02 0. -1.
       -2    1    3    3    0  502  0.58420385566E+03 -0.14836140246E+04  0.40887312485E+03  0.16460807852E+04  0.25500000920E-02 0.  1.
</event>
<event>
 5   0  0.2614212E-06  0.3127359E+04  0.7818609E-02  0.8208269E-01
        2   -1    0    0  501    0  0.00000000000E+00  0.00000000000E+00  0.17075303251E+04  0.17075303251E+04  0.25500000920E-02 0.  1.
       -2   -1    0    0    0  501  0.00000000000E+00  0.00000000000E+00 -0.14319474313E+04  0.14319474313E+04  0.25500000920E-02 0. -1.
    10030    2    1    2    0    0  0.00000000000E+00  0.00000000000E+00  0.27558289375E+03  0.31394777564E+04  0.31273590539E+04 0.  0.
        2    1    3    3  502    0 -0.49453176950E+03 -0.10386865446E+04  0.12009810410E+04  0.16630655038E+04  0.25500000920E-02 0.  1.
       -2    1    3    3    0  502  0.49453176950E+03  0.10386865446E+04 -0.92539814723E+03  0.14764122527E+04  0.25500000920E-02 0. -1.
</event>
<event>
 5   0  0.2574803E-06  0.3305379E+04  0.7818609E-02  0.8161528E-01
       -2   -1    0    0    0  501  0.00000000000E+00  0.00000000000E+00  0.11568801399E+04  0.11568801399E+04  0.25500000920E-02 0.  1.
        2   -1    0    0  501    0  0.00000000000E+00  0.00000000000E+00 -0.23609896605E+04  0.23609896605E+04  0.25500000920E-02 0. -1.
    10030    2    1    2    0    0  0.00000000000E+00  0.00000000000E+00 -0.12041095206E+04  0.35178698004E+04  0.33053786765E+04 0.  0.
        4    1    3    3  502    0  0.48001110043E+03 -0.15385084186E+04 -0.99159178653E+03  0.18922670780E+04  0.12699999809E+01 0. -1.
       -4    1    3    3    0  502 -0.48001110043E+03  0.15385084186E+04 -0.21251773402E+03  0.16256027223E+04  0.12699999809E+01 0.  1.
</event>
<event>
 5   0  0.2658600E-06  0.3382910E+04  0.7818609E-02  0.8142114E-01
        2   -1    0    0  501    0  0.00000000000E+00  0.00000000000E+00  0.16435082827E+04  0.16435082827E+04  0.25500000920E-02 0. -1.
       -2   -1    0    0    0  501  0.00000000000E+00  0.00000000000E+00 -0.17408003298E+04  0.17408003298E+04  0.25500000920E-02 0.  1.
    10030    2    1    2    0    0  0.00000000000E+00  0.00000000000E+00 -0.97292047087E+02  0.33843086126E+04  0.33829098485E+04 0.  0.
        5    1    3    3  502    0  0.34481633293E+03 -0.61050567032E+03 -0.15885622489E+04  0.17364237920E+04  0.46999998093E+01 0.  1.
       -5    1    3    3    0  502 -0.34481633293E+03  0.61050567032E+03  0.14912702018E+04  0.16478848205E+04  0.46999998093E+01 0. -1.
</event>
<event>
 5   0  0.8845526E-07  0.3262983E+04  0.7818609E-02  0.8172379E-01
        1   -1    0    0  501    0  0.00000000000E+00  0.00000000000E+00  0.19527931695E+04  0.19527931695E+04  0.50400001928E-02 0. -1.
       -1   -1    0    0    0  501  0.00000000000E+00  0.00000000000E+00 -0.13630547861E+04  0.13630547861E+04  0.50400001928E-02 0.  1.
    10030    2    1    2    0    0  0.00000000000E+00  0.00000000000E+00  0.58973838341E+03  0.33158479555E+04  0.32629827311E+04 0.  0.
        1    1    3    3  502    0  0.70886525609E+03  0.11305112776E+04  0.12488103901E+04  0.18275866848E+04  0.50400001928E-02 0.  1.
       -1    1    3    3    0  502 -0.70886525609E+03 -0.11305112776E+04 -0.65907200665E+03  0.14882612708E+04  0.50400001928E-02 0. -1.
</event>
<event>
 5   0  0.9295663E-07  0.3290883E+04  0.7818609E-02  0.8165219E-01
       -1   -1    0    0    0  501  0.00000000000E+00  0.00000000000E+00  0.12836507584E+04  0.12836507584E+04  0.50400001928E-02 0. -1.
        1   -1    0    0  501    0  0.00000000000E+00  0.00000000000E+00 -0.21092017687E+04  0.21092017687E+04  0.50400001928E-02 0.  1.
    10030    2    1    2    0    0  0.00000000000E+00  0.00000000000E+00 -0.82555101023E+03  0.33928525271E+04  0.32908834376E+04 0.  0.
        4    1    3    3  502    0 -0.13574848991E+04  0.32857602313E+03  0.48409247864E+03  0.14781997818E+04  0.12699999809E+01 0. -1.
       -4    1    3    3    0  502  0.13574848991E+04 -0.32857602313E+03 -0.13096434889E+04  0.19146527453E+04  0.12699999809E+01 0.  1.
</event>
<event>
 5   0  0.2614212E-06  0.3279470E+04  0.7818609E-02  0.8168139E-01
       -2   -1    0    0    0  501  0.00000000000E+00  0.00000000000E+00  0.18877687065E+04  0.18877687065E+04  0.25500000920E-02 0.  1.
        2   -1    0    0  501    0  0.00000000000E+00  0.00000000000E+00 -0.14242903742E+04  0.14242903742E+04  0.25500000920E-02 0. -1.
    10030    2    1    2    0    0  0.00000000000E+00  0.00000000000E+00  0.46347833232E+03  0.33120590807E+04  0.32794699556E+04 0.  0.
        2    1    3    3  502    0  0.23595919746E+03 -0.42990501545E+03 -0.13484934984E+04  0.14348971323E+04  0.25500000920E-02 0. -1.
       -2    1    3    3    0  502 -0.23595919746E+03  0.42990501545E+03  0.18119718307E+04  0.18771619484E+04  0.25500000920E-02 0.  1.
</event>
<event>
 5   0  0.2705859E-06  0.3290884E+04  0.7818609E-02  0.8165219E-01
        2   -1    0    0  501    0  0.00000000000E+00  0.00000000000E+00  0.21116859817E+04  0.21116859817E+04  0.25500000920E-02 0. -1.
       -2   -1    0    0    0  501  0.00000000000E+00  0.00000000000E+00 -0.12821408228E+04  0.12821408228E+04  0.25500000920E-02 0.  1.
    10030    2    1    2    0    0  0.00000000000E+00  0.00000000000E+00  0.82954515886E+03  0.33938268045E+04  0.32908836515E+04 0.  0.
        1    1    3    3  502    0  0.26570308715E+03 -0.13373546060E+04  0.13646511523E+04  0.19290900032E+04  0.50400001928E-02 0. -1.
       -1    1    3    3    0  502 -0.26570308715E+03  0.13373546060E+04 -0.53510599343E+03  0.14647368013E+04  0.50400001928E-02 0.  1.
</event>
<event>
 5   0  0.2705859E-06  0.3288782E+04  0.7818609E-02  0.8165756E-01
        2   -1    0    0  501    0  0.00000000000E+00  0.00000000000E+00  0.14816472936E+04  0.14816472937E+04  0.25500000920E-02 0. -1.
       -2   -1    0    0    0  501  0.00000000000E+00  0.00000000000E+00 -0.18250108616E+04  0.18250108616E+04  0.25500000920E-02 0.  1.
    10030    2    1    2    0    0  0.00000000000E+00  0.00000000000E+00 -0.34336356796E+03  0.33066581553E+04  0.32887823911E+04 0.  0.
        1    1    3    3  502    0 -0.56356656475E+03  0.33358958487E+03  0.13448711285E+04  0.14958501383E+04  0.50400001928E-02 0. -1.
       -1    1    3    3    0  502  0.56356656475E+03 -0.33358958487E+03 -0.16882346964E+04  0.18108080170E+04  0.50400001928E-02 0.  1.
</event>
<event>
 5   0  0.8705956E-07  0.3330073E+04  0.7818609E-02  0.8155285E-01
       -1   -1    0    0    0  501  0.00000000000E+00  0.00000000000E+00  0.17028331815E+04  0.17028331815E+04  0.50400001928E-02 0.  1.
        1   -1    0    0  501    0  0.00000000000E+00  0.00000000000E+00 -0.16280788741E+04  0.16280788741E+04  0.50400001928E-02 0. -1.
    10030    2    1    2    0    0  0.00000000000E+00  0.00000000000E+00  0.74754307386E+02  0.33309120556E+04  0.33300731096E+04 0.  0.
        2    1    3    3  502    0 -0.54835466621E+03  0.10586976289E+04  0.11999148634E+04  0.16915463898E+04  0.25500000920E-02 0.  1.
       -2    1    3    3    0  502  0.54835466621E+03 -0.10586976289E+04 -0.11251605560E+04  0.16393656658E+04  0.25500000920E-02 0. -1.
</event>
<event>
 5   0  0.2658600E-06  0.3305441E+04  0.7818609E-02  0.8161512E-01
       -2   -1    0    0    0  501  0.00000000000E+00  0.00000000000E+00  0.11745504337E+04  0.11745504337E+04  0.25500000920E-02 0.  1.
        2   -1    0    0  501    0  0.00000000000E+00  0.00000000000E+00 -0.23255578175E+04  0.23255578175E+04  0.25500000920E-02 0. -1.
    10030    2    1    2    0    0  0.00000000000E+00  0.00000000000E+00 -0.11510073838E+04  0.35001082512E+04  0.33054409347E+04 0.  0.
        5    1    3    3  502    0 -0.11119227065E+04 -0.81058246430E+03  0.39385880964E+03  0.14312801573E+04  0.46999998093E+01 0.  1.
       -5    1    3    3    0  502  0.11119227065E+04  0.81058246430E+03 -0.15448661934E+04  0.20688280939E+04  0.46999998093E+01 0. -1.
</event>
<event>
 5   0  0.9295663E-07  0.3303839E+04  0.7818609E-02  0.8161919E-01
       -1   -1    0    0    0  501  0.00000000000E+00  0.00000000000E+00  0.12666415202E+04  0.12666415202E+04  0.50400001928E-02 0.  1.
        1   -1    0    0  501    0  0.00000000000E+00  0.00000000000E+00 -0.21543887533E+04  0.21543887533E+04  0.50400001928E-02 0. -1.
    10030    2    1    2    0    0  0.00000000000E+00  0.00000000000E+00 -0.88774723311E+03  0.34210302735E+04  0.33038391278E+04 0.  0.
        4    1    3    3  502    0  0.77000022332E+03  0.48765661294E+03 -0.18704686074E+04  0.20807123155E+04  0.12699999809E+01 0. -1.
       -4    1    3    3    0  502 -0.77000022332E+03 -0.48765661294E+03  0.98272137425E+03  0.13403179579E+04  0.12699999809E+01 0.  1.
</event>
<event>
 5   0  0.8845526E-07  0.3300837E+04  0.7818609E-02  0.8162682E-01
        1   -1    0    0  501    0  0.00000000000E+00  0.00000000000E+00  0.15704315612E+04  0.15704315612E+04  0.50400001928E-02 0.  1.
       -1   -1    0    0    0  501  0.00000000000E+00  0.00000000000E+00 -0.17344795533E+04  0.17344795533E+04  0.50400001928E-02 0. -1.
    10030    2    1    2    0    0  0.00000000000E+00  0.00000000000E+00 -0.16404799207E+03  0.33049111145E+04  0.33008371258E+04 0.  0.
        1    1    3    3  502    0  0.51704879938E+03  0.15307988318E+04 -0.41888673153E+03  0.16691766289E+04  0.50400001928E-02 0. -1.
       -1    1    3    3    0  502 -0.51704879938E+03 -0.15307988318E+04  0.25483873946E+03  0.16357344857E+04  0.50400001928E-02 0.  1.
</event>
<event>
 5   0  0.8845526E-07  0.3404484E+04  0.7818609E-02  0.8136807E-01
       -1   -1    0    0    0  501  0.00000000000E+00  0.00000000000E+00  0.12728355266E+04  0.12728355266E+04  0.50400001928E-02 0.  1.
        1   -1    0    0  501    0  0.00000000000E+00  0.00000000000E+00 -0.22765134178E+04  0.22765134178E+04  0.50400001928E-02 0. -1.
    10030    2    1    2    0    0  0.00000000000E+00  0.00000000000E+00 -0.10036778912E+04  0.35493489444E+04  0.34044836055E+04 0.  0.
        1    1    3    3  502    0  0.33966012039E+02  0.99798318112E+03 -0.19390870169E+04  0.21810966460E+04  0.50400001928E-02 0. -1.
       -1    1    3    3    0  502 -0.33966012039E+02 -0.99798318112E+03  0.93540912569E+03  0.13682522985E+04  0.50400001928E-02 0.  1.
</event>
<event>
 5   0  0.8705956E-07  0.3151025E+04  0.7818609E-02  0.8201872E-01
        1   -1    0    0  501    0  0.00000000000E+00  0.00000000000E+00  0.25087697794E+04  0.25087697794E+04  0.50400001928E-02 0.  1.
       -1   -1    0    0    0  501  0.00000000000E+00  0.00000000000E+00 -0.98942487476E+03  0.98942487477E+03  0.50400001928E-02 0. -1.
    10030    2    1    2    0    0  0.00000000000E+00  0.00000000000E+00  0.15193449047E+04  0.34981946542E+04  0.31510247380E+04 0.  0.
        2    1    3    3  502    0  0.47592513394E+03 -0.77752336086E+03 -0.66689048198E+03  0.11295088423E+04  0.25500000920E-02 0. -1.
       -2    1    3    3    0  502 -0.47592513394E+03  0.77752336086E+03  0.21862353866E+04  0.23686858119E+04  0.25500000920E-02 0.  1.
</event>
<event>
 5   0  0.9268670E-07  0.3210667E+04  0.7818609E-02  0.8186006E-01
        1   -1    0    0  501    0  0.00000000000E+00  0.00000000000E+00  0.19975183237E+04  0.19975183237E+04  0.50400001928E-02 0. -1.
       -1   -1    0    0    0  501  0.00000000000E+00  0.00000000000E+00 -0.12901485744E+04  0.12901485744E+04  0.50400001928E-02 0.  1.
    10030    2    1    2    0    0  0.00000000000E+00  0.00000000000E+00  0.70736974923E+03  0.32876668981E+04  0.32106668577E+04 0.  0.
        3    1    3    3  502    0  0.14971370552E+04  0.32260528712E+03  0.84647681774E+03  0.17498618650E+04  0.10100000352E+00 0. -1.
       -3    1    3    3    0  502 -0.14971370552E+04 -0.32260528712E+03 -0.13910706851E+03  0.15378050332E+04  0.10100000352E+00 0.  1.
</event>
<event>
 5   0  0.2674551E-06  0.2627914E+04  0.7818609E-02  0.8358781E-01
        2   -1    0    0  501    0  0.00000000000E+00  0.00000000000E+00  0.22080801022E+04  0.22080801022E+04  0.25500000920E-02 0.  1.
       -2   -1    0    0    0  501  0.00000000000E+00  0.00000000000E+00 -0.78189301852E+03  0.78189301853E+03  0.25500000920E-02 0. -1.
    10030    2    1    2    0    0  0.00000000000E+00  0.00000000000E+00  0.14261870837E+04  0.29899731207E+04  0.26279135574E+04 0.  0.
        3    1    3    3  502    0 -0.71538713405E+03  0.25319957223E+03  0.19335356729E+04  0.20771251728E+04  0.10100000352E+00 0.  1.
       -3    1    3    3    0  502  0.71538713405E+03 -0.25319957223E+03 -0.50734858918E+03  0.91284794795E+03  0.10100000352E+00 0. -1.
</event>
<event>
 5   0  0.9268670E-07  0.3246150E+04  0.7818609E-02  0.8176734E-01
        1   -1    0    0  501    0  0.00000000000E+00  0.00000000000E+00  0.15903915899E+04  0.15903915899E+04  0.50400001928E-02 0. -1.
       -1   -1    0    0    0  501  0.00000000000E+00  0.00000000000E+00 -0.16564298550E+04  0.16564298550E+04  0.50400001928E-02 0.  1.
    10030    2    1    2    0    0  0.00000000000E+00  0.00000000000E+00 -0.66038265031E+02  0.32468214449E+04  0.32461497875E+04 0.  0.
        3    1    3    3  502    0 -0.16824881686E+03  0.11749776568E+04  0.10742293153E+04  0.16008899994E+04  0.10100000352E+00 0. -1.
       -3    1    3    3    0  502  0.16824881686E+03 -0.11749776568E+04 -0.11402675803E+04  0.16459314455E+04  0.10100000352E+00 0.  1.
</event>
<event>
 5   0  0.2574803E-06  0.3238308E+04  0.7818609E-02  0.8178773E-01
       -2   -1    0    0    0  501  0.00000000000E+00  0.00000000000E+00  0.15664030912E+04  0.15664030912E+04  0.25500000920E-02 0.  1.
        2   -1    0    0  501    0  0.00000000000E+00  0.00000000000E+00 -0.16736813086E+04  0.16736813086E+04  0.25500000920E-02 0. -1.
    10030    2    1    2    0    0  0.00000000000E+00  0.00000000000E+00 -0.10727821735E+03  0.32400843998E+04  0.32383079381E+04 0.  0.
        4    1    3    3  502    0  0.11319125254E+04  0.90796322298E+03  0.66511057522E+03  0.15962446146E+04  0.12699999809E+01 0.  1.
       -4    1    3    3    0  502 -0.11319125254E+04 -0.90796322298E+03 -0.77238879258E+03  0.16438397852E+04  0.12699999809E+01 0. -1.
</event>
<event>
 5   0  0.2674551E-06  0.2930122E+04  0.7818609E-02  0.8263971E-01
        2   -1    0    0  501    0  0.00000000000E+00  0.00000000000E+00  0.22153411591E+04  0.22153411592E+04  0.25500000920E-02 0. -1.
       -2   -1    0    0    0  501  0.00000000000E+00  0.00000000000E+00 -0.96888184797E+03  0.96888184797E+03  0.25500000920E-02 0.  1.
    10030    2    1    2    0    0  0.00000000000E+00  0.00000000000E+00  0.12464593112E+04  0.31842230071E+04  0.29301220699E+04 0.  0.
        3    1    3    3  502    0  0.91437202800E+03  0.11437994860E+04  0.57402202790E+03  0.15728492516E+04  0.10100000352E+00 0. -1.
       -3    1    3    3    0  502 -0.91437202800E+03 -0.11437994860E+04  0.67243728328E+03  0.16113737555E+04  0.10100000352E+00 0.  1.
</event>
<event>
 5   0  0.2614212E-06  0.3402257E+04  0.7818609E-02  0.8137353E-01
       -2   -1    0    0    0  501  0.00000000000E+00  0.00000000000E+00  0.14706259385E+04  0.14706259385E+04  0.25500000920E-02 0.  1.
        2   -1    0    0  501    0  0.00000000000E+00  0.00000000000E+00 -0.19677594677E+04  0.19677594677E+04  0.25500000920E-02 0. -1.
    10030    2    1    2    0    0  0.00000000000E+00  0.00000000000E+00 -0.49713352921E+03  0.34383854061E+04  0.34022569649E+04 0.  0.
        2    1    3    3  502    0  0.52189607550E+03  0.12485114563E+04 -0.12903780386E+04  0.18698213425E+04  0.25500000920E-02 0. -1.
       -2    1    3    3    0  502 -0.52189607550E+03 -0.12485114563E+04  0.79324450936E+03  0.15685640637E+04  0.25500000920E-02 0.  1.
</event>
<event>
 5   0  0.9530268E-07  0.2950509E+04  0.7818609E-02  0.8258006E-01
       -1   -1    0    0    0  501  0.00000000000E+00  0.00000000000E+00  0.11043625288E+04  0.11043625288E+04  0.50400001928E-02 0. -1.
        1   -1    0    0  501    0  0.00000000000E+00  0.00000000000E+00 -0.19707075895E+04  0.19707075895E+04  0.50400001928E-02 0.  1.
    10030    2    1    2    0    0  0.00000000000E+00  0.00000000000E+00 -0.86634506062E+03  0.30750701183E+04  0.29505088491E+04 0.  0.
        5    1    3    3  502    0  0.66701585182E+03  0.12897224028E+04 -0.70506832603E+03  0.16141367530E+04  0.46999998093E+01 0.  1.
       -5    1    3    3    0  502 -0.66701585182E+03 -0.12897224028E+04 -0.16127673459E+03  0.14609333654E+04  0.46999998093E+01 0. -1.
</event>
<event>
 5   0  0.8845526E-07  0.3337447E+04  0.7818609E-02  0.8153432E-01
        1   -1    0    0  501    0  0.00000000000E+00  0.00000000000E+00  0.92812133715E+03  0.92812133716E+03  0.50400001928E-02 0. -1.
       -1   -1    0    0    0  501  0.00000000000E+00  0.00000000000E+00 -0.30002956784E+04  0.30002956784E+04  0.50400001928E-02 0.  1.
    10030    2    1    2    0    0  0.00000000000E+00  0.00000000000E+00 -0.20721743412E+04  0.39284170155E+04  0.33374471902E+04 0.  0.
        1    1    3    3  502    0  0.81608126296E+03  0.13741118018E+04 -0.47101080159E+03  0.16661401642E+04  0.50400001928E-02 0. -1.
       -1    1    3    3    0  502 -0.81608126296E+03 -0.13741118018E+04 -0.16011635396E+04  0.22622768513E+04  0.50400001928E-02 0.  1.
</event>
<event>
 5   0  0.2574803E-06  0.3383181E+04  0.7818609E-02  0.8142047E-01
       -2   -1    0    0    0  501  0.00000000000E+00  0.00000000000E+00  0.10831932558E+04  0.10831932558E+04  0.25500000920E-02 0. -1.
        2   -1    0    0  501    0  0.00000000000E+00  0.00000000000E+00 -0.26417060406E+04  0.26417060406E+04  0.25500000920E-02 0.  1.
    10030    2    1    2    0    0  0.00000000000E+00  0.00000000000E+00 -0.15585127848E+04  0.37248992964E+04  0.33831808506E+04 0.  0.
        4    1    3    3  502    0  0.10907548318E+04 -0.94024974408E+03 -0.17564012647E+04  0.22712909765E+04  0.12699999809E+01 0.  1.
       -4    1    3    3    0  502 -0.10907548318E+04  0.94024974408E+03  0.19788847992E+03  0.14536083199E+04  0.12699999809E+01 0. -1.
</event>
<event>
 5   0  0.2574803E-06  0.3190084E+04  0.7818609E-02  0.8191441E-01
       -2   -1    0    0    0  501  0.00000000000E+00  0.00000000000E+00  0.18366109698E+04  0.18366109698E+04  0.25500000920E-02 0.  1.
        2   -1    0    0  501    0  0.00000000000E+00  0.00000000000E+00 -0.13852469402E+04  0.13852469402E+04  0.25500000920E-02 0. -1.
    10030    2    1    2    0    0  0.00000000000E+00  0.00000000000E+00  0.45136402960E+03  0.32218579099E+04  0.31900844667E+04 0.  0.
        4    1    3    3  502    0 -0.50323709172E+03 -0.17364003747E+03  0.17442400720E+04  0.18236703306E+04  0.12699999809E+01 0.  1.
       -4    1    3    3    0  502  0.50323709172E+03  0.17364003747E+03 -0.12928760424E+04  0.13981875793E+04  0.12699999809E+01 0. -1.
</event>
<event>
 5   0  0.2658600E-06  0.3330762E+04  0.7818609E-02  0.8155112E-01
       -2   -1    0    0    0  501  0.00000000000E+00  0.00000000000E+00  0.18669429387E+04  0.18669429387E+04  0.25500000920E-02 0. -1.
        2   -1    0    0  501    0  0.00000000000E+00  0.00000000000E+00 -0.14855800695E+04  0.14855800695E+04  0.25500000920E-02 0.  1.
    10030    2    1    2    0    0  0.00000000000E+00  0.00000000000E+00  0.38136286925E+03  0.33525230082E+04  0.33307616070E+04 0.  0.
        5    1    3    3  502    0 -0.13065777364E+04 -0.57590564465E+03  0.10534035927E+04  0.17743995920E+04  0.46999998093E+01 0. -1.
       -5    1    3    3    0  502  0.13065777364E+04  0.57590564465E+03 -0.67204072349E+03  0.15781234162E+04  0.46999998093E+01 0.  1.
</event>
<event>
 5   0  0.2674551E-06  0.3293027E+04  0.7818609E-02  0.8164672E-01
       -2   -1    0    0    0  501  0.00000000000E+00  0.00000000000E+00  0.32482302052E+04  0.32482302052E+04  0.25500000920E-02 0. -1.
        2   -1    0    0  501    0  0.00000000000E+00  0.00000000000E+00 -0.83461034764E+03  0.83461034764E+03  0.25500000920E-02 0.  1.
    10030    2    1    2    0    0  0.00000000000E+00  0.00000000000E+00  0.24136198575E+04  0.40828405528E+04  0.32930268998E+04 0.  0.
        3    1    3    3  502    0  0.11272433548E+04  0.67483916322E+03  0.24372709252E+04  0.27688219607E+04  0.10100000352E+00 0. -1.
       -3    1    3    3    0  502 -0.11272433548E+04 -0.67483916322E+03 -0.23651067641E+02  0.13140185921E+04  0.10100000352E+00 0.  1.
</event>
<event>
 5   0  0.2574803E-06  0.3015550E+04  0.7818609E-02  0.8239304E-01
        2   -1    0    0  501    0  0.00000000000E+00  0.00000000000E+00  0.16047514328E+04  0.16047514329E+04  0.25500000920E-02 0.  1.
       -2   -1    0    0    0  501  0.00000000000E+00  0.00000000000E+00 -0.14166592163E+04  0.14166592163E+04  0.25500000920E-02 0. -1.
    10030    2    1    2    0    0  0.00000000000E+00  0.00000000000E+00  0.18809221655E+03  0.30214106492E+04  0.30155503028E+04 0.  0.
        4    1    3    3  502    0 -0.14462929042E+04 -0.36444938011E+03 -0.12728538057E+03  0.14969267505E+04  0.12699999809E+01 0. -1.
       -4    1    3    3    0  502  0.14462929042E+04  0.36444938011E+03  0.31537759712E+03  0.15244838986E+04  0.12699999809E+01 0.  1.
</event>
<event>
 5   0  0.9530268E-07  0.3283357E+04  0.7818609E-02  0.8167143E-01
        1   -1    0    0  501    0  0.00000000000E+00  0.00000000000E+00  0.15974682865E+04  0.15974682865E+04  0.50400001928E-02 0. -1.
       -1   -1    0    0    0  501  0.00000000000E+00  0.00000000000E+00 -0.16871120618E+04  0.16871120618E+04  0.50400001928E-02 0.  1.
    10030    2    1    2    0    0  0.00000000000E+00  0.00000000000E+00 -0.89643775344E+02  0.32845803483E+04  0.32833568277E+04 0.  0.
        5    1    3    3  502    0  0.57464199108E+03 -0.10512260389E+04  0.10780028564E+04  0.16116456965E+04  0.46999998093E+01 0. -1.
       -5    1    3    3    0  502 -0.57464199108E+03  0.10512260389E+04 -0.11676466317E+04  0.16729346518E+04  0.46999998093E+01 0.  1.
</event>
<event>
 5   0  0.8705956E-07  0.3299085E+04  0.7818609E-02  0.8163128E-01
        1   -1    0    0  501    0  0.00000000000E+00  0.00000000000E+00  0.27140534437E+04  0.27140534437E+04  0.50400001928E-02 0.  1.
       -1   -1    0    0    0  501  0.00000000000E+00  0.00000000000E+00 -0.10025559807E+04  0.10025559807E+04  0.50400001928E-02 0. -1.
    10030    2    1    2    0    0  0.00000000000E+00  0.00000000000E+00  0.17114974630E+04  0.37166094244E+04  0.32990850320E+04 0.  0.
        2    1    3    3  502    0 -0.63943595174E+03 -0.10777623626E+04 -0.35263359105E+03  0.13018450354E+04  0.25500000920E-02 0. -1.
       -2    1    3    3    0  502  0.63943595174E+03  0.10777623626E+04  0.20641310540E+04  0.24147643891E+04  0.25500000920E-02 0.  1.
</event>
<event>
 5   0  0.2574803E-06  0.3300242E+04  0.7818609E-02  0.8162834E-01
        2   -1    0    0  501    0  0.00000000000E+00  0.00000000000E+00  0.13147685675E+04  0.13147685675E+04  0.25500000920E-02 0. -1.
       -2   -1    0    0    0  501  0.00000000000E+00  0.00000000000E+00 -0.20710106318E+04  0.20710106318E+04  0.25500000920E-02 0.  1.
    10030    2    1    2    0    0  0.00000000000E+00  0.00000000000E+00 -0.75624206429E+03  0.33857791992E+04  0.33002422223E+04 0.  0.
        4    1    3    3  502    0 -0.22176522846E+02  0.16473933869E+04 -0.47271326392E+03  0.17140175647E+04  0.12699999809E+01 0.  1.
       -4    1    3    3    0  502  0.22176522846E+02 -0.16473933869E+04 -0.28352880036E+03  0.16717616346E+04  0.12699999809E+01 0. -1.
</event>
<event>
 5   0  0.2674551E-06  0.3250443E+04  0.7818609E-02  0.8175621E-01
       -2   -1    0    0    0  501  0.00000000000E+00  0.00000000000E+00  0.11710250163E+04  0.11710250163E+04  0.25500000920E-02 0. -1.
        2   -1    0    0  501    0  0.00000000000E+00  0.00000000000E+00 -0.22555842915E+04  0.22555842915E+04  0.25500000920E-02 0.  1.
    10030    2    1    2    0    0  0.00000000000E+00  0.00000000000E+00 -0.10845592752E+04  0.34266093079E+04  0.32504434355E+04 0.  0.
        3    1    3    3  502    0 -0.11232631130E+04 -0.33942867046E+03 -0.17276841805E+04  0.20884981401E+04  0.10100000352E+00 0.  1.
       -3    1    3    3    0  502  0.11232631130E+04  0.33942867046E+03  0.64312490533E+03  0.13381111678E+04  0.10100000352E+00 0. -1.
</event>
<event>
 5   0  0.2614212E-06  0.3316258E+04  0.7818609E-02  0.8158771E-01
       -2   -1    0    0    0  501  0.00000000000E+00  0.00000000000E+00  0.17984438013E+04  0.17984438013E+04  0.25500000920E-02 0. -1.
        2   -1    0    0  501    0  0.00000000000E+00  0.00000000000E+00 -0.15287617123E+04  0.15287617123E+04  0.25500000920E-02 0.  1.
    10030    2    1    2    0    0  0.00000000000E+00  0.00000000000E+00  0.26968208899E+03  0.33272055135E+04  0.33162581474E+04 0.  0.
        2    1    3    3  502    0 -0.10793835866E+04  0.17527510236E+03 -0.11157092017E+04  0.15622411182E+04  0.25500000920E-02 0.  1.
       -2    1    3    3    0  502  0.10793835866E+04 -0.17527510236E+03  0.13853912907E+04  0.17649643954E+04  0.25500000920E-02 0. -1.
</event>
<event>
 5   0  0.2574803E-06  0.3298278E+04  0.7818609E-02  0.8163334E-01
        2   -1    0    0  501    0  0.00000000000E+00  0.00000000000E+00  0.23912681063E+04  0.23912681063E+04  0.25500000920E-02 0.  1.
       -2   -1    0    0    0  501  0.00000000000E+00  0.00000000000E+00 -0.11373295093E+04  0.11373295093E+04  0.25500000920E-02 0. -1.
    10030    2    1    2    0    0  0.00000000000E+00  0.00000000000E+00  0.12539385970E+04  0.35285976156E+04  0.32982782066E+04 0.  0.
        4    1    3    3  502    0  0.50295260177E+03  0.14733032997E+04  0.44845760390E+02  0.15574327233E+04  0.12699999809E+01 0.  1.
       -4    1    3    3    0  502 -0.50295260177E+03 -0.14733032997E+04  0.12090928366E+04  0.19711648923E+04  0.12699999809E+01 0. -1.
</event>
<event>
 5   0  0.8845526E-07  0.3276338E+04  0.7818609E-02  0.8168943E-01
        1   -1    0    0  501    0  0.00000000000E+00  0.00000000000E+00  0.14413835443E+04  0.14413835443E+04  0.50400001928E-02 0. -1.
       -1   -1    0    0    0  501  0.00000000000E+00  0.00000000000E+00 -0.18618201014E+04  0.18618201014E+04  0.50400001928E-02 0.  1.
    10030    2    1    2    0    0  0.00000000000E+00  0.00000000000E+00 -0.42043655710E+03  0.33032036458E+04  0.32763375020E+04 0.  0.
        1    1    3    3  502    0  0.10653071873E+04  0.75556944327E+01 -0.14648746836E+04  0.18112963122E+04  0.50400001928E-02 0.  1.
       -1    1    3    3    0  502 -0.10653071873E+04 -0.75556944327E+01  0.10444381265E+04  0.14919073336E+04  0.50400001928E-02 0. -1.
</event>
<event>
 5   0  0.2614212E-06  0.3521038E+04  0.7818609E-02  0.8108822E-01
       -2   -1    0    0    0  501  0.00000000000E+00  0.00000000000E+00  0.12701845057E+04  0.12701845057E+04  0.25500000920E-02 0.  1.
        2   -1    0    0  501    0  0.00000000000E+00  0.00000000000E+00 -0.24401396186E+04  0.24401396186E+04  0.25500000920E-02 0. -1.
    10030    2    1    2    0    0  0.00000000000E+00  0.00000000000E+00 -0.11699551129E+04  0.37103241244E+04  0.35210382193E+04 0.  0.
        2    1    3    3  502    0  0.11326306408E+04  0.12722392755E+04 -0.10538498978E+04  0.20030088741E+04  0.25500000920E-02 0. -1.
       -2    1    3    3    0  502 -0.11326306408E+04 -0.12722392755E+04 -0.11610521505E+03  0.17073152502E+04  0.25500000920E-02 0.  1.
</event>
<event>
 5   0  0.9530268E-07  0.3305827E+04  0.7818609E-02  0.8161414E-01
       -1   -1    0    0    0  501  0.00000000000E+00  0.00000000000E+00  0.26970309087E+04  0.26970309087E+04  0.50400001928E-02 0.  1.
        1   -1    0    0  501    0  0.00000000000E+00  0.00000000000E+00 -0.10130111126E+04  0.10130111126E+04  0.50400001928E-02 0. -1.
    10030    2    1    2    0    0  0.00000000000E+00  0.00000000000E+00  0.16840197962E+04  0.37100420213E+04  0.33058265420E+04 0.  0.
        5    1    3    3  502    0  0.68540170334E+03  0.71942935274E+03  0.23244081182E+04  0.25278942380E+04  0.46999998093E+01 0.  1.
       -5    1    3    3    0  502 -0.68540170334E+03 -0.71942935274E+03 -0.64038832204E+03  0.11821477833E+04  0.46999998093E+01 0. -1.
</event>
<event>
 5   0  0.9268670E-07  0.3301598E+04  0.7818609E-02  0.8162489E-01
       -1   -1    0    0    0  501  0.00000000000E+00  0.00000000000E+00  0.32837062911E+04  0.32837062911E+04  0.50400001928E-02 0. -1.
        1   -1    0    0  501    0  0.00000000000E+00  0.00000000000E+00 -0.82989656327E+03  0.82989656328E+03  0.50400001928E-02 0.  1.
    10030    2    1    2    0    0  0.00000000000E+00  0.00000000000E+00  0.24538097279E+04  0.41136028544E+04  0.33015975320E+04 0.  0.
        3    1    3    3  502    0 -0.53630532575E+03  0.32343277508E+03  0.31299395315E+04  0.31919827135E+04  0.10100000352E+00 0. -1.
       -3    1    3    3    0  502  0.53630532575E+03 -0.32343277508E+03 -0.67612980367E+03  0.92162014086E+03  0.10100000352E+00 0.  1.
</event>
<event>
 5   0  0.2658600E-06  0.3177813E+04  0.7818609E-02  0.8194701E-01
        2   -1    0    0  501    0  0.00000000000E+00  0.00000000000E+00  0.17872781027E+04  0.17872781027E+04  0.25500000920E-02 0.  1.
       -2   -1    0    0    0  501  0.00000000000E+00  0.00000000000E+00 -0.14125521503E+04  0.14125521503E+04  0.25500000920E-02 0. -1.
    10030    2    1    2    0    0  0.00000000000E+00  0.00000000000E+00  0.37472595246E+03  0.31998302530E+04  0.31778127869E+04 0.  0.
        5    1    3    3  502    0  0.10544530242E+04 -0.50641214417E+03 -0.89539047046E+03  0.14731159576E+04  0.46999998093E+01 0. -1.
       -5    1    3    3    0  502 -0.10544530242E+04  0.50641214417E+03  0.12701164229E+04  0.17267142954E+04  0.46999998093E+01 0.  1.
</event>
<event>
 5   0  0.9530268E-07  0.3358532E+04  0.7818609E-02  0.8148159E-01
        1   -1    0    0  501    0  0.00000000000E+00  0.00000000000E+00  0.10244414270E+04  0.10244414270E+04  0.50400001928E-02 0. -1.
       -1   -1    0    0    0  501  0.00000000000E+00  0.00000000000E+00 -0.27526560503E+04  0.27526560503E+04  0.50400001928E-02 0.  1.
    10030    2    1    2    0    0  0.00000000000E+00  0.00000000000E+00 -0.17282146233E+04  0.37770974774E+04  0.33585323535E+04 0.  0.
        5    1    3    3  502    0  0.54057319902E+03  0.14395642247E+04 -0.10521439677E+03  0.15413165476E+04  0.46999998093E+01 0.  1.
       -5    1    3    3    0  502 -0.54057319902E+03 -0.14395642247E+04 -0.16230002265E+04  0.22357809298E+04  0.46999998093E+01 0. -1.
</event>
<event>
 5   0  0.2674551E-06  0.3309860E+04  0.7818609E-02  0.8160391E-01
        2   -1    0    0  501    0  0.00000000000E+00  0.00000000000E+00  0.15366133603E+04  0.15366133603E+04  0.25500000920E-02 0.  1.
       -2   -1    0    0    0  501  0.00000000000E+00  0.00000000000E+00 -0.17823571923E+04  0.17823571923E+04  0.25500000920E-02 0. -1.
    10030    2    1    2    0    0  0.00000000000E+00  0.00000000000E+00 -0.24574383199E+03  0.33189705527E+04  0.33098603443E+04 0.  0.
        3    1    3    3  502    0 -0.14859460806E+04 -0.14064375690E+03 -0.83966630030E+03  0.17125582988E+04  0.10100000352E+00 0. -1.
       -3    1    3    3    0  502  0.14859460806E+04  0.14064375690E+03  0.59392246832E+03  0.16064122539E+04  0.10100000352E+00 0.  1.
</event>
<event>
 5   0  0.8845526E-07  0.3130846E+04  0.7818609E-02  0.8207323E-01
       -1   -1    0    0    0  501  0.00000000000E+00  0.00000000000E+00  0.12957258641E+04  0.12957258641E+04  0.50400001928E-02 0.  1.
        1   -1    0    0  501    0  0.00000000000E+00  0.00000000000E+00 -0.18912552921E+04  0.18912552921E+04  0.50400001928E-02 0. -1.
    10030    2    1    2    0    0  0.00000000000E+00  0.00000000000E+00 -0.59552942795E+03  0.31869811562E+04  0.31308455073E+04 0.  0.
        1    1    3    3  502    0  0.13220024640E+04 -0.78547869009E+03  0.54451028030E+00  0.15377475683E+04  0.50400001928E-02 0.  1.
       -1    1    3    3    0  502 -0.13220024640E+04  0.78547869009E+03 -0.59607393823E+03  0.16492335878E+04  0.50400001928E-02 0. -1.
</event>
<event>
 5   0  0.9530268E-07  0.3373190E+04  0.7818609E-02  0.8144518E-01
       -1   -1    0    0    0  501  0.00000000000E+00  0.00000000000E+00  0.12103163702E+04  0.12103163702E+04  0.50400001928E-02 0. -1.
        1   -1    0    0  501    0  0.00000000000E+00  0.00000000000E+00 -0.23502966319E+04  0.23502966319E+04  0.50400001928E-02 0.  1.
    10030    2    1    2    0    0  0.00000000000E+00  0.00000000000E+00 -0.11399802617E+04  0.35606130022E+04  0.33731898782E+04 0.  0.
        5    1    3    3  502    0  0.68224942895E+03  0.13720793587E+04  0.17379910115E+03  0.15421719319E+04  0.46999998093E+01 0. -1.
       -5    1    3    3    0  502 -0.68224942895E+03 -0.13720793587E+04 -0.13137793629E+04  0.20184410703E+04  0.46999998093E+01 0.  1.
</event>
<event>
 5   0  0.2674551E-06  0.3627114E+04  0.7818609E-02  0.8084309E-01
        2   -1    0    0  501    0  0.00000000000E+00  0.00000000000E+00  0.12013030322E+04  0.12013030323E+04  0.25500000920E-02 0.  1.
       -2   -1    0    0    0  501  0.00000000000E+00  0.00000000000E+00 -0.27378515007E+04  0.27378515007E+04  0.25500000920E-02 0. -1.
    10030    2    1    2    0    0  0.00000000000E+00  0.00000000000E+00 -0.15365484685E+04  0.39391545330E+04  0.36271141750E+04 0.  0.
        3    1    3    3  502    0 -0.53116588816E+02  0.16168704251E+04 -0.16584862497E+04  0.23168228233E+04  0.10100000352E+00 0. -1.
       -3    1    3    3    0  502  0.53116588816E+02 -0.16168704251E+04  0.12193778128E+03  0.16223317097E+04  0.10100000352E+00 0.  1.
</event>
<event>
 5   0  0.2658600E-06  0.3386338E+04  0.7818609E-02  0.8141268E-01
       -2   -1    0    0    0  501  0.00000000000E+00  0.00000000000E+00  0.25840439655E+04  0.25840439655E+04  0.25500000920E-02 0.  1.
        2   -1    0    0  501    0  0.00000000000E+00  0.00000000000E+00 -0.11094320039E+04  0.11094320039E+04  0.25500000920E-02 0. -1.
    10030    2    1    2    0    0  0.00000000000E+00  0.00000000000E+00  0.14746119616E+04  0.36934759695E+04  0.33863378892E+04 0.  0.
        5    1    3    3  502    0 -0.24963423901E+03 -0.14201962400E+04 -0.23060850439E+03  0.14603003067E+04  0.46999998093E+01 0.  1.
       -5    1    3    3    0  502  0.24963423901E+03  0.14201962400E+04  0.17052204660E+04  0.22331756628E+04  0.46999998093E+01 0. -1.
</event>
<event>
 5   0  0.2658600E-06  0.3294310E+04  0.7818609E-02  0.8164345E-01
        2   -1    0    0  501    0  0.00000000000E+00  0.00000000000E+00  0.29852108737E+04  0.29852108737E+04  0.25500000920E-02 0.  1.
       -2   -1    0    0    0  501  0.00000000000E+00  0.00000000000E+00 -0.90885384952E+03  0.90885384952E+03  0.25500000920E-02 0. -1.
    10030    2    1    2    0    0  0.00000000000E+00  0.00000000000E+00  0.20763570242E+04  0.38940647232E+04  0.32943104858E+04 0.  0.
        5    1    3    3  502    0  0.26848242360E+03 -0.13373132817E+04  0.21296528056E+04  0.25290181469E+04  0.46999998093E+01 0.  1.
       -5    1    3    3    0  502 -0.26848242360E+03  0.13373132817E+04 -0.53295781387E+02  0.13650465763E+04  0.46999998093E+01 0. -1.
</event>
<event>
 5   0  0.9295663E-07  0.3281131E+04  0.7818609E-02  0.8167713E-01
        1   -1    0    0  501    0  0.00000000000E+00  0.00000000000E+00  0.15654666532E+04  0.15654666532E+04  0.50400001928E-02 0.  1.
       -1   -1    0    0    0  501  0.00000000000E+00  0.00000000000E+00 -0.17192667455E+04  0.17192667455E+04  0.50400001928E-02 0. -1.
    10030    2    1    2    0    0  0.00000000000E+00  0.00000000000E+00 -0.15380009230E+03  0.32847333986E+04  0.32811307550E+04 0.  0.
        4    1    3    3  502    0  0.15842693216E+04 -0.21460432132E+02  0.34910603892E+03  0.16224199434E+04  0.12699999809E+01 0.  1.
       -4    1    3    3    0  502 -0.15842693216E+04  0.21460432132E+02 -0.50290613122E+03  0.16623134552E+04  0.12699999809E+01 0. -1.
</event>
<event>
 5   0  0.8520125E-07  0.3451399E+04  0.7818609E-02  0.8125405E-01
       -3   -1    0    0    0  501  0.00000000000E+00  0.00000000000E+00  0.19123716130E+04  0.19123716157E+04  0.10100000352E+00 0. -1.
        3   -1    0    0  501    0  0.00000000000E+00  0.00000000000E+00 -0.15572485563E+04  0.15572485596E+04  0.10100000352E+00 0.  1.
    10030    2    1    2    0    0  0.00000000000E+00  0.00000000000E+00  0.35512305676E+03  0.34696201752E+04  0.34513985245E+04 0.  0.
        3    1    3    3  502    0  0.50547488235E+03  0.11786910689E+04 -0.98318610595E+03  0.16160050810E+04  0.10100000352E+00 0.  1.
       -3    1    3    3    0  502 -0.50547488235E+03 -0.11786910689E+04  0.13383091627E+04  0.18536150943E+04  0.10100000352E+00 0. -1.
</event>
<event>
 5   0  0.9295663E-07  0.3307704E+04  0.7818609E-02  0.8160938E-01
       -1   -1    0    0    0  501  0.00000000000E+00  0.00000000000E+00  0.95938814748E+03  0.95938814749E+03  0.50400001928E-02 0.  1.
        1   -1    0    0  501    0  0.00000000000E+00  0.00000000000E+00 -0.28510116983E+04  0.28510116983E+04  0.50400001928E-02 0. -1.
    10030    2    1    2    0    0  0.00000000000E+00  0.00000000000E+00 -0.18916235508E+04  0.38103998458E+04  0.33077042381E+04 0.  0.
        4    1    3    3  502    0  0.51635401126E+03 -0.11030574477E+04  0.34309988891E+03  0.12653364551E+04  0.12699999809E+01 0.  1.
       -4    1    3    3    0  502 -0.51635401126E+03  0.11030574477E+04 -0.22347234397E+04  0.25450633907E+04  0.12699999809E+01 0. -1.
</event>
<event>
 5   0  0.9268670E-07  0.3332433E+04  0.7818609E-02  0.8154691E-01
       -1   -1    0    0    0  501  0.00000000000E+00  0.00000000000E+00  0.13223520783E+04  0.13223520783E+04  0.50400001928E-02 0.  1.
        1   -1    0    0  501    0  0.00000000000E+00  0.00000000000E+00 -0.20994995502E+04  0.20994995502E+04  0.50400001928E-02 0. -1.
    10030    2    1    2    0    0  0.00000000000E+00  0.00000000000E+00 -0.77714747187E+03  0.34218516285E+04  0.33324331012E+04 0.  0.
        3    1    3    3  502    0  0.52564278052E+03 -0.88474702080E+03 -0.17341557386E+04  0.20165251695E+04  0.10100000352E+00 0. -1.
       -3    1    3    3    0  502 -0.52564278052E+03  0.88474702080E+03  0.95700826669E+03  0.14053264590E+04  0.10100000352E+00 0.  1.
</event>
<event>
 5   0  0.8845526E-07  0.3314969E+04  0.7818609E-02  0.8159097E-01
       -1   -1    0    0    0  501  0.00000000000E+00  0.00000000000E+00  0.14968476516E+04  0.14968476516E+04  0.50400001928E-02 0.  1.
        1   -1    0    0  501    0  0.00000000000E+00  0.00000000000E+00 -0.18353599250E+04  0.18353599250E+04  0.50400001928E-02 0. -1.
    10030    2    1    2    0    0  0.00000000000E+00  0.00000000000E+00 -0.33851227339E+03  0.33322075767E+04  0.33149685933E+04 0.  0.
        1    1    3    3  502    0  0.35400794739E+03 -0.24253403889E+03  0.14400409887E+04  0.15026185264E+04  0.50400001928E-02 0.  1.
       -1    1    3    3    0  502 -0.35400794739E+03  0.24253403889E+03 -0.17785532621E+04  0.18295890503E+04  0.50400001928E-02 0. -1.
</event>
<event>
 5   0  0.2674551E-06  0.3320361E+04  0.7818609E-02  0.8157734E-01
        2   -1    0    0  501    0  0.00000000000E+00  0.00000000000E+00  0.23996918363E+04  0.23996918363E+04  0.25500000920E-02 0. -1.
       -2   -1    0    0    0  501  0.00000000000E+00  0.00000000000E+00 -0.11485638830E+04  0.11485638830E+04  0.25500000920E-02 0.  1.
    10030    2    1    2    0    0  0.00000000000E+00  0.00000000000E+00  0.12511279533E+04  0.35482557193E+04  0.33203610488E+04 0.  0.
        3    1    3    3  502    0  0.91762040337E+03  0.10866385109E+04 -0.28959547371E+03  0.14514392880E+04  0.10100000352E+00 0.  1.
       -3    1    3    3    0  502 -0.91762040337E+03 -0.10866385109E+04  0.15407234270E+04  0.20968164313E+04  0.10100000352E+00 0. -1.
</event>
<event>
 5   0  0.2658600E-06  0.3282632E+04  0.7818609E-02  0.8167329E-01
       -2   -1    0    0    0  501  0.00000000000E+00  0.00000000000E+00  0.12475809348E+04  0.12475809348E+04  0.25500000920E-02 0. -1.
        2   -1    0    0  501    0  0.00000000000E+00  0.00000000000E+00 -0.21593135190E+04  0.21593135190E+04  0.25500000920E-02 0.  1.
    10030    2    1    2    0    0  0.00000000000E+00  0.00000000000E+00 -0.91173258426E+03  0.34068944538E+04  0.32826321016E+04 0.  0.
        5    1    3    3  502    0  0.10423550084E+04  0.11433806820E+04  0.11265912363E+03  0.15513018777E+04  0.46999998093E+01 0. -1.
       -5    1    3    3    0  502 -0.10423550084E+04 -0.11433806820E+04 -0.10243917079E+04  0.18555925762E+04  0.46999998093E+01 0.  1.
</event>
<event>
 5   0  0.2658600E-06  0.3280175E+04  0.7818609E-02  0.8167958E-01
       -2   -1    0    0    0  501  0.00000000000E+00  0.00000000000E+00  0.94615015185E+03  0.94615015185E+03  0.25500000920E-02 0. -1.
        2   -1    0    0  501    0  0.00000000000E+00  0.00000000000E+00 -0.28429816485E+04  0.28429816485E+04  0.25500000920E-02 0.  1.
    10030    2    1    2    0    0  0.00000000000E+00  0.00000000000E+00 -0.18968314966E+04  0.37891318003E+04  0.32801753114E+04 0.  0.
        5    1    3    3  502    0  0.13143277225E+04 -0.83987481445E+03 -0.36278383857E+03  0.16013997844E+04  0.46999998093E+01 0. -1.
       -5    1    3    3    0  502 -0.13143277225E+04  0.83987481445E+03 -0.15340476580E+04  0.21877320159E+04  0.46999998093E+01 0.  1.
</event>
<event>
 5   0  0.8845526E-07  0.3307515E+04  0.7818609E-02  0.8160986E-01
       -1   -1    0    0    0  501  0.00000000000E+00  0.00000000000E+00  0.15355104702E+04  0.15355104702E+04  0.50400001928E-02 0. -1.
        1   -1    0    0  501    0  0.00000000000E+00  0.00000000000E+00 -0.17811107339E+04  0.17811107339E+04  0.50400001928E-02 0.  1.
    10030    2    1    2    0    0  0.00000000000E+00  0.00000000000E+00 -0.24560026366E+03  0.33166212041E+04  0.33075151884E+04 0.  0.
        1    1    3    3  502    0 -0.55523893770E+03  0.12656192172E+04  0.78790283207E+03  0.15908718219E+04  0.50400001928E-02 0. -1.
       -1    1    3    3    0  502  0.55523893770E+03 -0.12656192172E+04 -0.10335030957E+04  0.17257493821E+04  0.50400001928E-02 0.  1.
</event>
<event>
 5   0  0.2705859E-06  0.3292089E+04  0.7818609E-02  0.8164911E-01
       -2   -1    0    0    0  501  0.00000000000E+00  0.00000000000E+00  0.15794409269E+04  0.15794409269E+04  0.25500000920E-02 0. -1.
        2   -1    0    0  501    0  0.00000000000E+00  0.00000000000E+00 -0.17154562023E+04  0.17154562023E+04  0.25500000920E-02 0.  1.
    10030    2    1    2    0    0  0.00000000000E+00  0.00000000000E+00 -0.13601527542E+03  0.32948971291E+04  0.32920885372E+04 0.  0.
        1    1    3    3  502    0  0.93549271081E+03 -0.84960116906E+03  0.98764002893E+03  0.16038708131E+04  0.50400001928E-02 0. -1.
       -1    1    3    3    0  502 -0.93549271081E+03  0.84960116906E+03 -0.11236553043E+04  0.16910263160E+04  0.50400001928E-02 0.  1.
</event>
<event>
 5   0  0.2705859E-06  0.3154716E+04  0.7818609E-02  0.8200880E-01
       -2   -1    0    0    0  501  0.00000000000E+00  0.00000000000E+00  0.20346323577E+04  0.20346323577E+04  0.25500000920E-02 0.  1.
        2   -1    0    0  501    0  0.00000000000E+00  0.00000000000E+00 -0.12228541802E+04  0.12228541802E+04  0.25500000920E-02 0. -1.
    10030    2    1    2    0    0  0.00000000000E+00  0.00000000000E+00  0.81177817746E+03  0.32574865379E+04  0.31547162686E+04 0.  0.
        1    1    3    3  502    0 -0.68635889468E+03  0.43025499884E+03 -0.99166096727E+03  0.12804684183E+04  0.50400001928E-02 0. -1.
       -1    1    3    3    0  502  0.68635889468E+03 -0.43025499884E+03  0.18034391447E+04  0.19770181196E+04  0.50400001928E-02 0.  1.
</event>
<event>
 5   0  0.9268670E-07  0.3311916E+04  0.7818609E-02  0.8159870E-01
       -1   -1    0    0    0  501  0.00000000000E+00  0.00000000000E+00  0.87409912873E+03  0.87409912875E+03  0.50400001928E-02 0. -1.
        1   -1    0    0  501    0  0.00000000000E+00  0.00000000000E+00 -0.31371690312E+04  0.31371690312E+04  0.50400001928E-02 0.  1.
    10030    2    1    2    0    0  0.00000000000E+00  0.00000000000E+00 -0.22630699025E+04  0.40112681600E+04  0.33119158908E+04 0.  0.
        3    1    3    3  502    0 -0.62043976131E+02 -0.11391532607E+04 -0.25852715488E+04  0.28258005234E+04  0.10100000352E+00 0.  1.
       -3    1    3    3    0  502  0.62043976131E+02  0.11391532607E+04  0.32220164634E+03  0.11854676366E+04  0.10100000352E+00 0. -1.
</event>
<event>
 5   0  0.2574803E-06  0.3254305E+04  0.7818609E-02  0.8174621E-01
       -2   -1    0    0    0  501  0.00000000000E+00  0.00000000000E+00  0.12924853916E+04  0.12924853916E+04  0.25500000920E-02 0.  1.
        2   -1    0    0  501    0  0.00000000000E+00  0.00000000000E+00 -0.20484754168E+04  0.20484754168E+04  0.25500000920E-02 0. -1.
    10030    2    1    2    0    0  0.00000000000E+00  0.00000000000E+00 -0.75599002519E+03  0.33409608084E+04  0.32543045655E+04 0.  0.
        4    1    3    3  502    0 -0.12354793348E+04  0.42416346095E+03 -0.13740355403E+04  0.18958636837E+04  0.12699999809E+01 0. -1.
       -4    1    3    3    0  502  0.12354793348E+04 -0.42416346095E+03  0.61804551509E+03  0.14450971247E+04  0.12699999809E+01 0.  1.
</event>
<event>
 5   0  0.8705956E-07  0.3286393E+04  0.7818609E-02  0.8166366E-01
        1   -1    0    0  501    0  0.00000000000E+00  0.00000000000E+00  0.94973780517E+03  0.94973780518E+03  0.50400001928E-02 0. -1.
       -1   -1    0    0    0  501  0.00000000000E+00  0.00000000000E+00 -0.28429888655E+04  0.28429888655E+04  0.50400001928E-02 0.  1.
    10030    2    1    2    0    0  0.00000000000E+00  0.00000000000E+00 -0.18932510604E+04  0.37927266707E+04  0.32863925543E+04 0.  0.
        2    1    3    3  502    0  0.30045754447E+03  0.31158935425E+03  0.88275956450E+03  0.98317196382E+03  0.25500000920E-02 0. -1.
       -2    1    3    3    0  502 -0.30045754447E+03 -0.31158935425E+03 -0.27760106249E+04  0.28095547069E+04  0.25500000920E-02 0.  1.
</event>
<event>
 5   0  0.2614212E-06  0.3289774E+04  0.7818609E-02  0.8165502E-01
       -2   -1    0    0    0  501  0.00000000000E+00  0.00000000000E+00  0.14343894119E+04  0.14343894119E+04  0.25500000920E-02 0. -1.
        2   -1    0    0  501    0  0.00000000000E+00  0.00000000000E+00 -0.18862748732E+04  0.18862748732E+04  0.25500000920E-02 0.  1.
    10030    2    1    2    0    0  0.00000000000E+00  0.00000000000E+00 -0.45188546129E+03  0.33206642851E+04  0.32897736737E+04 0.  0.
        2    1    3    3  502    0 -0.13700130884E+04 -0.90329344403E+03 -0.34004307460E+03  0.16758592426E+04  0.25500000920E-02 0. -1.
       -2    1    3    3    0  502  0.13700130884E+04  0.90329344403E+03 -0.11184238669E+03  0.16448050425E+04  0.25500000920E-02 0.  1.
</event>
<event>
 5   0  0.8845526E-07  0.3249264E+04  0.7818609E-02  0.8175927E-01
       -1   -1    0    0    0  501  0.00000000000E+00  0.00000000000E+00  0.18854462104E+04  0.18854462104E+04  0.50400001928E-02 0. -1.
        1   -1    0    0  501    0  0.00000000000E+00  0.00000000000E+00 -0.13998959109E+04  0.13998959109E+04  0.50400001928E-02 0.  1.
    10030    2    1    2    0    0  0.00000000000E+00  0.00000000000E+00  0.48555029949E+03  0.32853421214E+04  0.32492635721E+04 0.  0.
        1    1    3    3  502    0 -0.15322823217E+04  0.20423919663E+03  0.74815066498E+03  0.17173619829E+04  0.50400001928E-02 0. -1.
       -1    1    3    3    0  502  0.15322823217E+04 -0.20423919663E+03 -0.26260036549E+03  0.15679801385E+04  0.50400001928E-02 0.  1.
</event>
<event>
 5   0  0.2614212E-06  0.3305507E+04  0.7818609E-02  0.8161496E-01
        2   -1    0    0  501    0  0.00000000000E+00  0.00000000000E+00  0.16305285546E+04  0.16305285546E+04  0.25500000920E-02 0.  1.
       -2   -1    0    0    0  501  0.00000000000E+00  0.00000000000E+00 -0.16752810095E+04  0.16752810095E+04  0.25500000920E-02 0. -1.
    10030    2    1    2    0    0  0.00000000000E+00  0.00000000000E+00 -0.44752454884E+02  0.33058095641E+04  0.33055066317E+04 0.  0.
        2    1    3    3  502    0  0.79771695992E+03 -0.14028994199E+04  0.33418750093E+03  0.16480777943E+04  0.25500000920E-02 0.  1.
       -2    1    3    3    0  502 -0.79771695992E+03  0.14028994199E+04 -0.37893995581E+03  0.16577317698E+04  0.25500000920E-02 0. -1.
</event>
<event>
 5   0  0.2658600E-06  0.3365966E+04  0.7818609E-02  0.8146310E-01
        2   -1    0    0  501    0  0.00000000000E+00  0.00000000000E+00  0.13103637635E+04  0.13103637635E+04  0.25500000920E-02 0.  1.
       -2   -1    0    0    0  501  0.00000000000E+00  0.00000000000E+00 -0.21615612992E+04  0.21615612992E+04  0.25500000920E-02 0. -1.
    10030    2    1    2    0    0  0.00000000000E+00  0.00000000000E+00 -0.85119753571E+03  0.34719250627E+04  0.33659658935E+04 0.  0.
        5    1    3    3  502    0 -0.42341513683E+03  0.97427693896E+02 -0.21027087373E+04  0.21471326595E+04  0.46999998093E+01 0. -1.
       -5    1    3    3    0  502  0.42341513683E+03 -0.97427693896E+02  0.12515112016E+04  0.13247924031E+04  0.46999998093E+01 0.  1.
</event>
<event>
 5   0  0.2658600E-06  0.3272830E+04  0.7818609E-02  0.8169843E-01
       -2   -1    0    0    0  501  0.00000000000E+00  0.00000000000E+00  0.20642217653E+04  0.20642217653E+04  0.25500000920E-02 0.  1.
        2   -1    0    0  501    0  0.00000000000E+00  0.00000000000E+00 -0.12972702334E+04  0.12972702334E+04  0.25500000920E-02 0. -1.
    10030    2    1    2    0    0  0.00000000000E+00  0.00000000000E+00  0.76695153191E+03  0.33614919987E+04  0.32728296328E+04 0.  0.
        5    1    3    3  502    0 -0.46007471583E+03  0.14719805274E+04  0.94550725548E+03  0.18089780201E+04  0.46999998093E+01 0.  1.
       -5    1    3    3    0  502  0.46007471583E+03 -0.14719805274E+04 -0.17855572357E+03  0.15525139786E+04  0.46999998093E+01 0. -1.
</event>
<event>
 5   0  0.2658600E-06  0.3308162E+04  0.7818609E-02  0.8160822E-01
       -2   -1    0    0    0  501  0.00000000000E+00  0.00000000000E+00  0.12999966801E+04  0.12999966801E+04  0.25500000920E-02 0.  1.
        2   -1    0    0  501    0  0.00000000000E+00  0.00000000000E+00 -0.21046087186E+04  0.21046087186E+04  0.25500000920E-02 0. -1.
    10030    2    1    2    0    0  0.00000000000E+00  0.00000000000E+00 -0.80461203845E+03  0.34046053987E+04  0.33081622373E+04 0.  0.
        5    1    3    3  502    0  0.12119434358E+04  0.75514895154E+02 -0.15581933338E+04  0.19754741067E+04  0.46999998093E+01 0. -1.
       -5    1    3    3    0  502 -0.12119434358E+04 -0.75514895154E+02  0.75358129534E+03  0.14291312919E+04  0.46999998093E+01 0.  1.
</event>
<event>
 5   0  0.9268670E-07  0.3278599E+04  0.7818609E-02  0.8168362E-01
       -1   -1    0    0    0  501  0.00000000000E+00  0.00000000000E+00  0.13553027782E+04  0.13553027782E+04  0.50400001928E-02 0.  1.
        1   -1    0    0  501    0  0.00000000000E+00  0.00000000000E+00 -0.19828067053E+04  0.19828067053E+04  0.50400001928E-02 0. -1.
    10030    2    1    2    0    0  0.00000000000E+00  0.00000000000E+00 -0.62750392717E+03  0.33381094835E+04  0.32785993572E+04 0.  0.
        3    1    3    3  502    0  0.15876302446E+04  0.12137677594E+03  0.83198116238E+02  0.15944353396E+04  0.10100000352E+00 0.  1.
       -3    1    3    3    0  502 -0.15876302446E+04 -0.12137677594E+03 -0.71070204341E+03  0.17436741439E+04  0.10100000352E+00 0. -1.
</event>
<event>
 5   0  0.9268670E-07  0.3230154E+04  0.7818609E-02  0.8180899E-01
        1   -1    0    0  501    0  0.00000000000E+00  0.00000000000E+00  0.19983239280E+04  0.19983239280E+04  0.50400001928E-02 0.  1.
       -1   -1    0    0    0  501  0.00000000000E+00  0.00000000000E+00 -0.13053305332E+04  0.13053305332E+04  0.50400001928E-02 0. -1.
    10030    2    1    2    0    0  0.00000000000E+00  0.00000000000E+00  0.69299339483E+03  0.33036544612E+04  0.32301537043E+04 0.  0.
        3    1    3    3  502    0 -0.15857971684E+04 -0.25540174023E+03  0.17386457228E+03  0.16156149318E+04  0.10100000352E+00 0. -1.
       -3    1    3    3    0  502  0.15857971684E+04  0.25540174023E+03  0.51912882255E+03  0.16880395294E+04  0.10100000352E+00 0.  1.
</event>
<event>
 5   0  0.9268670E-07  0.2852932E+04  0.7818609E-02  0.8287021E-01
        1   -1    0    0  501    0  0.00000000000E+00  0.00000000000E+00  0.11139619259E+04  0.11139619259E+04  0.50400001928E-02 0.  1.
       -1   -1    0    0    0  501  0.00000000000E+00  0.00000000000E+00 -0.18266374947E+04  0.18266374947E+04  0.50400001928E-02 0. -1.
    10030    2    1    2    0    0  0.00000000000E+00  0.00000000000E+00 -0.71267556877E+03  0.29405994206E+04  0.28529315600E+04 0.  0.
        3    1    3    3  502    0 -0.12462161334E+04 -0.20738859405E+03  0.32639081440E+03  0.13048354893E+04  0.10100000352E+00 0.  1.
       -3    1    3    3    0  502  0.12462161334E+04  0.20738859405E+03 -0.10390663832E+04  0.16357639313E+04  0.10100000352E+00 0. -1.
</event>
<event>
 5   0  0.2705859E-06  0.3284064E+04  0.7818609E-02  0.8166962E-01
        2   -1    0    0  501    0  0.00000000000E+00  0.00000000000E+00  0.23259839186E+04  0.23259839186E+04  0.25500000920E-02 0.  1.
       -2   -1    0    0    0  501  0.00000000000E+00  0.00000000000E+00 -0.11591948120E+04  0.11591948120E+04  0.25500000920E-02 0. -1.
    10030    2    1    2    0    0  0.00000000000E+00  0.00000000000E+00  0.11667891066E+04  0.34851787306E+04  0.32840636359E+04 0.  0.
        1    1    3    3  502    0  0.11689415624E+04  0.90381818113E+03  0.13434650780E+04  0.19970503491E+04  0.50400001928E-02 0.  1.
       -1    1    3    3    0  502 -0.11689415624E+04 -0.90381818113E+03 -0.17667597142E+03  0.14881283815E+04  0.50400001928E-02 0. -1.
</event>
<event>
 5   0  0.9530268E-07  0.3320392E+04  0.7818609E-02  0.8157726E-01
        1   -1    0    0  501    0  0.00000000000E+00  0.00000000000E+00  0.25344273099E+04  0.25344273099E+04  0.50400001928E-02 0. -1.
       -1   -1    0    0    0  501  0.00000000000E+00  0.00000000000E+00 -0.10875242432E+04  0.10875242432E+04  0.50400001928E-02 0.  1.
    10030    2    1    2    0    0  0.00000000000E+00  0.00000000000E+00  0.14469030667E+04  0.36219515531E+04  0.33203922311E+04 0.  0.
        5    1    3    3  502    0  0.17954233044E+03 -0.13429190114E+04 -0.32314622682E+03  0.13928792099E+04  0.46999998093E+01 0.  1.
       -5    1    3    3    0  502 -0.17954233044E+03  0.13429190114E+04  0.17700492935E+04  0.22290723431E+04  0.46999998093E+01 0. -1.
</event>
<event>
 5   0  0.2705859E-06  0.3307358E+04  0.7818609E-02  0.8161026E-01
       -2   -1    0    0    0  501  0.00000000000E+00  0.00000000000E+00  0.16761693681E+04  0.16761693681E+04  0.25500000920E-02 0.  1.
        2   -1    0    0  501    0  0.00000000000E+00  0.00000000000E+00 -0.16314899881E+04  0.16314899881E+04  0.25500000920E-02 0. -1.
    10030    2    1    2    0    0  0.00000000000E+00  0.00000000000E+00  0.44679379950E+02  0.33076593562E+04  0.33073575812E+04 0.  0.
        1    1    3    3  502    0 -0.55488929223E+03  0.83452938101E+03  0.13378730047E+04  0.16715997102E+04  0.50400001928E-02 0.  1.
       -1    1    3    3    0  502  0.55488929223E+03 -0.83452938101E+03 -0.12931936247E+04  0.16360596460E+04  0.50400001928E-02 0. -1.
</event>
<event>
 5   0  0.2674551E-06  0.3391096E+04  0.7818609E-02  0.8140095E-01
       -2   -1    0    0    0  501  0.00000000000E+00  0.00000000000E+00  0.13949100714E+04  0.13949100714E+04  0.25500000920E-02 0.  1.
        2   -1    0    0  501    0  0.00000000000E+00  0.00000000000E+00 -0.20609814715E+04  0.20609814715E+04  0.25500000920E-02 0. -1.
    10030    2    1    2    0    0  0.00000000000E+00  0.00000000000E+00 -0.66607140014E+03  0.34558915429E+04  0.33910964666E+04 0.  0.
        3    1    3    3  502    0  0.10393104858E+04 -0.10271284504E+04  0.54347053351E+03  0.15590123061E+04  0.10100000352E+00 0.  1.
       -3    1    3    3    0  502 -0.10393104858E+04  0.10271284504E+04 -0.12095419337E+04  0.18968792368E+04  0.10100000352E+00 0. -1.
</event>
<event>
 5   0  0.2614212E-06  0.3322806E+04  0.7818609E-02  0.8157116E-01
       -2   -1    0    0    0  501  0.00000000000E+00  0.00000000000E+00  0.16687396502E+04  0.16687396502E+04  0.25500000920E-02 0.  1.
        2   -1    0    0  501    0  0.00000000000E+00  0.00000000000E+00 -0.16540989359E+04  0.16540989359E+04  0.25500000920E-02 0. -1.
    10030    2    1    2    0    0  0.00000000000E+00  0.00000000000E+00  0.14640714262E+02  0.33228385861E+04  0.33228063318E+04 0.  0.
        2    1    3    3  502    0  0.50374469010E+03 -0.35425562381E+02 -0.15754921501E+04  0.16544452842E+04  0.25500000920E-02 0. -1.
       -2    1    3    3    0  502 -0.50374469010E+03  0.35425562381E+02  0.15901328644E+04  0.16683933019E+04  0.25500000920E-02 0.  1.
</event>
<event>
 5   0  0.8705956E-07  0.3411866E+04  0.7818609E-02  0.8135000E-01
        1   -1    0    0  501    0  0.00000000000E+00  0.00000000000E+00  0.16857081820E+04  0.16857081820E+04  0.50400001928E-02 0.  1.
       -1   -1    0    0    0  501  0.00000000000E+00  0.00000000000E+00 -0.17264002307E+04  0.17264002307E+04  0.50400001928E-02 0. -1.
    10030    2    1    2    0    0  0.00000000000E+00  0.00000000000E+00 -0.40692048711E+02  0.34121084127E+04  0.34118657619E+04 0.  0.
        2    1    3    3  502    0 -0.14396068281E+04 -0.80689830817E+03  0.41171976418E+03  0.17009014855E+04  0.25500000920E-02 0.  1.
       -2    1    3    3    0  502  0.14396068281E+04  0.80689830817E+03 -0.45241181289E+03  0.17112069272E+04  0.25500000920E-02 0. -1.
</event>
<event>
 5   0  0.2658600E-06  0.3313826E+04  0.7818609E-02  0.8159386E-01
       -2   -1    0    0    0  501  0.00000000000E+00  0.00000000000E+00  0.11243560213E+04  0.11243560213E+04  0.25500000920E-02 0. -1.
        2   -1    0    0  501    0  0.00000000000E+00  0.00000000000E+00 -0.24417175848E+04  0.24417175848E+04  0.25500000920E-02 0.  1.
    10030    2    1    2    0    0  0.00000000000E+00  0.00000000000E+00 -0.13173615635E+04  0.35660736062E+04  0.33138255047E+04 0.  0.
        5    1    3    3  502    0  0.21795829840E+03  0.11119244019E+04  0.64224808838E+03  0.13024539886E+04  0.46999998093E+01 0. -1.
       -5    1    3    3    0  502 -0.21795829840E+03 -0.11119244019E+04 -0.19596096519E+04  0.22636196176E+04  0.46999998093E+01 0.  1.
</event>
<event>
 5   0  0.2658600E-06  0.3318670E+04  0.7818609E-02  0.8158161E-01
        2   -1    0    0  501    0  0.00000000000E+00  0.00000000000E+00  0.16906832778E+04  0.16906832778E+04  0.25500000920E-02 0. -1.
       -2   -1    0    0    0  501  0.00000000000E+00  0.00000000000E+00 -0.16285677516E+04  0.16285677516E+04  0.25500000920E-02 0.  1.
    10030    2    1    2    0    0  0.00000000000E+00  0.00000000000E+00  0.62115526250E+02  0.33192510294E+04  0.33186697723E+04 0.  0.
        5    1    3    3  502    0  0.42966953237E+03 -0.54666820902E+02  0.16331391157E+04  0.16896064126E+04  0.46999998093E+01 0. -1.
       -5    1    3    3    0  502 -0.42966953237E+03  0.54666820902E+02 -0.15710235894E+04  0.16296446168E+04  0.46999998093E+01 0.  1.
</event>
<event>
 5   0  0.2705859E-06  0.3437180E+04  0.7818609E-02  0.8128841E-01
        2   -1    0    0  501    0  0.00000000000E+00  0.00000000000E+00  0.20798270653E+04  0.20798270653E+04  0.25500000920E-02 0.  1.
       -2   -1    0    0    0  501  0.00000000000E+00  0.00000000000E+00 -0.14200947418E+04  0.14200947418E+04  0.25500000920E-02 0. -1.
    10030    2    1    2    0    0  0.00000000000E+00  0.00000000000E+00  0.65973232351E+03  0.34999218071E+04  0.34371799366E+04 0.  0.
        1    1    3    3  502    0 -0.11359160088E+04 -0.21805267987E+03 -0.96443799505E+03  0.15059856561E+04  0.50400001928E-02 0. -1.
       -1    1    3    3    0  502  0.11359160088E+04  0.21805267987E+03  0.16241703186E+04  0.19939361509E+04  0.50400001928E-02 0.  1.
</event>
<event>
 5   0  0.2574803E-06  0.2549636E+04  0.7818609E-02  0.8385513E-01
        2   -1    0    0  501    0  0.00000000000E+00  0.00000000000E+00  0.13797260316E+04  0.13797260316E+04  0.25500000920E-02 0. -1.
       -2   -1    0    0    0  501  0.00000000000E+00  0.00000000000E+00 -0.11778866965E+04  0.11778866965E+04  0.25500000920E-02 0.  1.
    10030    2    1    2    0    0  0.00000000000E+00  0.00000000000E+00  0.20183933512E+03  0.25576127281E+04  0.25496360034E+04 0.  0.
        4    1    3    3  502    0 -0.15356635592E+03  0.41120745161E+03  0.13015288558E+04  0.13735549386E+04  0.12699999809E+01 0. -1.
       -4    1    3    3    0  502  0.15356635592E+03 -0.41120745161E+03 -0.10996895207E+04  0.11840577895E+04  0.12699999809E+01 0.  1.
</event>
<event>
 5   0  0.8705956E-07  0.3275082E+04  0.7818609E-02  0.8169265E-01
       -1   -1    0    0    0  501  0.00000000000E+00  0.00000000000E+00  0.18274056234E+04  0.18274056235E+04  0.50400001928E-02 0. -1.
        1   -1    0    0  501    0  0.00000000000E+00  0.00000000000E+00 -0.14674028555E+04  0.14674028555E+04  0.50400001928E-02 0.  1.
    10030    2    1    2    0    0  0.00000000000E+00  0.00000000000E+00  0.36000276792E+03  0.32948084790E+04  0.32750818189E+04 0.  0.
        2    1    3    3  502    0 -0.10006217455E+04 -0.10243630000E+04  0.97912638002E+03  0.17347195455E+04  0.25500000920E-02 0. -1.
       -2    1    3    3    0  502  0.10006217455E+04  0.10243630000E+04 -0.61912361209E+03  0.15600889335E+04  0.25500000920E-02 0.  1.
</event>
<event>
 5   0  0.8705956E-07  0.3294625E+04  0.7818609E-02  0.8164264E-01
       -1   -1    0    0    0  501  0.00000000000E+00  0.00000000000E+00  0.13992343206E+04  0.13992343206E+04  0.50400001928E-02 0.  1.
        1   -1    0    0  501    0  0.00000000000E+00  0.00000000000E+00 -0.19393744078E+04  0.19393744078E+04  0.50400001928E-02 0. -1.
    10030    2    1    2    0    0  0.00000000000E+00  0.00000000000E+00 -0.54014008723E+03  0.33386087284E+04  0.32946254609E+04 0.  0.
        2    1    3    3  502    0  0.97314555375E+03 -0.36620688091E+03 -0.15648282153E+04  0.18787780848E+04  0.25500000920E-02 0. -1.
       -2    1    3    3    0  502 -0.97314555375E+03  0.36620688091E+03  0.10246881281E+04  0.14598306437E+04  0.25500000920E-02 0.  1.
</event>
<event>
 5   0  0.2658600E-06  0.3378598E+04  0.7818609E-02  0.8143179E-01
        2   -1    0    0  501    0  0.00000000000E+00  0.00000000000E+00  0.19258448673E+04  0.19258448673E+04  0.25500000920E-02 0.  1.
       -2   -1    0    0    0  501  0.00000000000E+00  0.00000000000E+00 -0.14818070870E+04  0.14818070870E+04  0.25500000920E-02 0. -1.
    10030    2    1    2    0    0  0.00000000000E+00  0.00000000000E+00  0.44403778027E+03  0.34076519543E+04  0.33785976812E+04 0.  0.
        5    1    3    3  502    0  0.56872211606E+03  0.89513645250E+03  0.15482387919E+04  0.18766404985E+04  0.46999998093E+01 0.  1.
       -5    1    3    3    0  502 -0.56872211606E+03 -0.89513645250E+03 -0.11042010116E+04  0.15310114558E+04  0.46999998093E+01 0. -1.
</event>
<event>
 5   0  0.2674551E-06  0.3266111E+04  0.7818609E-02  0.8171572E-01
        2   -1    0    0  501    0  0.00000000000E+00  0.00000000000E+00  0.19918230375E+04  0.19918230375E+04  0.25500000920E-02 0.  1.
       -2   -1    0    0    0  501  0.00000000000E+00  0.00000000000E+00 -0.13389090609E+04  0.13389090609E+04  0.25500000920E-02 0. -1.
    10030    2    1    2    0    0  0.00000000000E+00  0.00000000000E+00  0.65291397664E+03  0.33307320984E+04  0.32661107836E+04 0.  0.
        3    1    3    3  502    0 -0.19052845806E+03  0.84004035655E+03  0.17413154317E+04  0.19427167413E+04  0.10100000352E+00 0.  1.
       -3    1    3    3    0  502  0.19052845806E+03 -0.84004035655E+03 -0.10884014551E+04  0.13880153571E+04  0.10100000352E+00 0. -1.
</event>
<event>
 5   0  0.8705956E-07  0.3327958E+04  0.7818609E-02  0.8155818E-01
        1   -1    0    0  501    0  0.00000000000E+00  0.00000000000E+00  0.25574991139E+04  0.25574991139E+04  0.50400001928E-02 0. -1.
       -1   -1    0    0    0  501  0.00000000000E+00  0.00000000000E+00 -0.10826305238E+04  0.10826305238E+04  0.50400001928E-02 0.  1.
    10030    2    1    2    0    0  0.00000000000E+00  0.00000000000E+00  0.14748685901E+04  0.36401296377E+04  0.33279582962E+04 0.  0.
        2    1    3    3  502    0 -0.36734148013E+03 -0.16194805142E+04  0.62183375712E+03  0.17732270358E+04  0.25500000920E-02 0. -1.
       -2    1    3    3    0  502  0.36734148013E+03  0.16194805142E+04  0.85303483298E+03  0.18669026019E+04  0.25500000920E-02 0.  1.
</event>
<event>
 5   0  0.2574803E-06  0.3325030E+04  0.7818609E-02  0.8156556E-01
       -2   -1    0    0    0  501  0.00000000000E+00  0.00000000000E+00  0.15636955637E+04  0.15636955637E+04  0.25500000920E-02 0.  1.
        2   -1    0    0  501    0  0.00000000000E+00  0.00000000000E+00 -0.17675791040E+04  0.17675791040E+04  0.25500000920E-02 0. -1.
    10030    2    1    2    0    0  0.00000000000E+00  0.00000000000E+00 -0.20388354026E+03  0.33312746677E+04  0.33250296861E+04 0.  0.
        4    1    3    3  502    0 -0.10249389516E+04  0.76910404292E+03  0.95926105410E+03  0.16006886850E+04  0.12699999809E+01 0.  1.
       -4    1    3    3    0  502  0.10249389516E+04 -0.76910404292E+03 -0.11631445944E+04  0.17305859827E+04  0.12699999809E+01 0. -1.
</event>
<event>
 5   0  0.9295663E-07  0.3280901E+04  0.7818609E-02  0.8167772E-01
       -1   -1    0    0    0  501  0.00000000000E+00  0.00000000000E+00  0.11264219604E+04  0.11264219604E+04  0.50400001928E-02 0.  1.
        1   -1    0    0  501    0  0.00000000000E+00  0.00000000000E+00 -0.23890491744E+04  0.23890491744E+04  0.50400001928E-02 0. -1.
    10030    2    1    2    0    0  0.00000000000E+00  0.00000000000E+00 -0.12626272140E+04  0.35154711348E+04  0.32809007633E+04 0.  0.
        4    1    3    3  502    0 -0.46835272585E+03  0.15710137341E+04 -0.56669065999E+03  0.17345253949E+04  0.12699999809E+01 0.  1.
       -4    1    3    3    0  502  0.46835272585E+03 -0.15710137341E+04 -0.69593655398E+03  0.17809457399E+04  0.12699999809E+01 0. -1.
</event>
<event>
 5   0  0.9268670E-07  0.3290166E+04  0.7818609E-02  0.8165402E-01
        1   -1    0    0  501    0  0.00000000000E+00  0.00000000000E+00  0.15897397140E+04  0.15897397140E+04  0.50400001928E-02 0.  1.
       -1   -1    0    0    0  501  0.00000000000E+00  0.00000000000E+00 -0.17023529487E+04  0.17023529487E+04  0.50400001928E-02 0. -1.
    10030    2    1    2    0    0  0.00000000000E+00  0.00000000000E+00 -0.11261323478E+03  0.32920926627E+04  0.32901660078E+04 0.  0.
        3    1    3    3  502    0  0.52269888305E+03 -0.15598343050E+04 -0.57254861709E+02  0.16460787681E+04  0.10100000352E+00 0.  1.
       -3    1    3    3    0  502 -0.52269888305E+03  0.15598343050E+04 -0.55358373072E+02  0.16460138946E+04  0.10100000352E+00 0. -1.
</event>
<event>
 5   0  0.2705859E-06  0.3280517E+04  0.7818609E-02  0.8167871E-01
       -2   -1    0    0    0  501  0.00000000000E+00  0.00000000000E+00  0.15989105772E+04  0.15989105772E+04  0.25500000920E-02 0. -1.
        2   -1    0    0  501    0  0.00000000000E+00  0.00000000000E+00 -0.16826754073E+04  0.16826754073E+04  0.25500000920E-02 0.  1.
    10030    2    1    2    0    0  0.00000000000E+00  0.00000000000E+00 -0.83764830139E+02  0.32815859846E+04  0.32805167318E+04 0.  0.
        1    1    3    3  502    0 -0.23651910324E+03 -0.15069523660E+04  0.56130731482E+03  0.16253961429E+04  0.50400001928E-02 0. -1.
       -1    1    3    3    0  502  0.23651910324E+03  0.15069523660E+04 -0.64507214496E+03  0.16561898417E+04  0.50400001928E-02 0.  1.
</event>
<event>
 5   0  0.8705956E-07  0.3324346E+04  0.7818609E-02  0.8156728E-01
       -1   -1    0    0    0  501  0.00000000000E+00  0.00000000000E+00  0.12357282387E+04  0.12357282387E+04  0.50400001928E-02 0.  1.
        1   -1    0    0  501    0  0.00000000000E+00  0.00000000000E+00 -0.22357827432E+04  0.22357827432E+04  0.50400001928E-02 0. -1.
    10030    2    1    2    0    0  0.00000000000E+00  0.00000000000E+00 -0.10000545044E+04  0.34715109819E+04  0.33243464750E+04 0.  0.
        2    1    3    3  502    0 -0.13835872581E+04 -0.80503201325E+03 -0.96753974768E+03  0.18704340155E+04  0.25500000920E-02 0. -1.
       -2    1    3    3    0  502  0.13835872581E+04  0.80503201325E+03 -0.32514756752E+02  0.16010769664E+04  0.25500000920E-02 0.  1.
</event>
<event>
 5   0  0.2705859E-06  0.2882632E+04  0.7818609E-02  0.8278064E-01
        2   -1    0    0  501    0  0.00000000000E+00  0.00000000000E+00  0.22550991607E+04  0.22550991607E+04  0.25500000920E-02 0.  1.
       -2   -1    0    0    0  501  0.00000000000E+00  0.00000000000E+00 -0.92119742688E+03  0.92119742688E+03  0.25500000920E-02 0. -1.
    10030    2    1    2    0    0  0.00000000000E+00  0.00000000000E+00  0.13339017338E+04  0.31762965876E+04  0.28826318143E+04 0.  0.
        1    1    3    3  502    0 -0.17877002235E+03 -0.45701640820E+03 -0.82630928759E+03  0.96104617841E+03  0.50400001928E-02 0. -1.
       -1    1    3    3    0  502  0.17877002235E+03  0.45701640820E+03  0.21602110214E+04  0.22152504092E+04  0.50400001928E-02 0.  1.
</event>
<event>
 5   0  0.2674551E-06  0.3263371E+04  0.7818609E-02  0.8172279E-01
        2   -1    0    0  501    0  0.00000000000E+00  0.00000000000E+00  0.11394505145E+04  0.11394505145E+04  0.25500000920E-02 0.  1.
       -2   -1    0    0    0  501  0.00000000000E+00  0.00000000000E+00 -0.23365620334E+04  0.23365620335E+04  0.25500000920E-02 0. -1.
    10030    2    1    2    0    0  0.00000000000E+00  0.00000000000E+00 -0.11971115190E+04  0.34760125479E+04  0.32633705343E+04 0.  0.
        3    1    3    3  502    0 -0.91138221686E+03  0.29908661989E+02 -0.20398260972E+04  0.22343684992E+04  0.10100000352E+00 0. -1.
       -3    1    3    3    0  502  0.91138221686E+03 -0.29908661989E+02  0.84271457818E+03  0.12416440487E+04  0.10100000352E+00 0.  1.
</event>
<event>
 5   0  0.8845526E-07  0.3270549E+04  0.7818609E-02  0.8170430E-01
       -1   -1    0    0    0  501  0.00000000000E+00  0.00000000000E+00  0.13756155915E+04  0.13756155915E+04  0.50400001928E-02 0. -1.
        1   -1    0    0  501    0  0.00000000000E+00  0.00000000000E+00 -0.19439458051E+04  0.19439458051E+04  0.50400001928E-02 0.  1.
    10030    2    1    2    0    0  0.00000000000E+00  0.00000000000E+00 -0.56833021365E+03  0.33195613966E+04  0.32705486748E+04 0.  0.
        1    1    3    3  502    0 -0.42864414174E+03 -0.14897141562E+04 -0.81267771895E+03  0.17502654491E+04  0.50400001928E-02 0.  1.
       -1    1    3    3    0  502  0.42864414174E+03  0.14897141562E+04  0.24434750530E+03  0.15692959475E+04  0.50400001928E-02 0. -1.
</event>
<event>
 5   0  0.8845526E-07  0.3283082E+04  0.7818609E-02  0.8167214E-01
        1   -1    0    0  501    0  0.00000000000E+00  0.00000000000E+00  0.22644840681E+04  0.22644840681E+04  0.50400001928E-02 0. -1.
       -1   -1    0    0    0  501  0.00000000000E+00  0.00000000000E+00 -0.11899648861E+04  0.11899648861E+04  0.50400001928E-02 0.  1.
    10030    2    1    2    0    0  0.00000000000E+00  0.00000000000E+00  0.10745191820E+04  0.34544489541E+04  0.32830817998E+04 0.  0.
        1    1    3    3  502    0  0.64334443446E+03 -0.14791775699E+04  0.85778820744E+03  0.18269260941E+04  0.50400001928E-02 0. -1.
       -1    1    3    3    0  502 -0.64334443446E+03  0.14791775699E+04  0.21673097457E+03  0.16275228600E+04  0.50400001928E-02 0.  1.
</event>
<event>
 5   0  0.2705859E-06  0.3297497E+04  0.7818609E-02  0.8163533E-01
       -2   -1    0    0    0  501  0.00000000000E+00  0.00000000000E+00  0.24026894295E+04  0.24026894296E+04  0.25500000920E-02 0.  1.
        2   -1    0    0  501    0  0.00000000000E+00  0.00000000000E+00 -0.11313868696E+04  0.11313868696E+04  0.25500000920E-02 0. -1.
    10030    2    1    2    0    0  0.00000000000E+00  0.00000000000E+00  0.12713025599E+04  0.35340762992E+04  0.32974967915E+04 0.  0.
        1    1    3    3  502    0  0.32086165175E+03 -0.59541146105E+03 -0.97585731593E+03  0.11873350448E+04  0.50400001928E-02 0. -1.
       -1    1    3    3    0  502 -0.32086165175E+03  0.59541146105E+03  0.22471598758E+04  0.23467412544E+04  0.50400001928E-02 0.  1.
</event>
<event>
 5   0  0.8705956E-07  0.3207985E+04  0.7818609E-02  0.8186712E-01
       -1   -1    0    0    0  501  0.00000000000E+00  0.00000000000E+00  0.13940411302E+04  0.13940411302E+04  0.50400001928E-02 0. -1.
        1   -1    0    0  501    0  0.00000000000E+00  0.00000000000E+00 -0.18455636927E+04  0.18455636927E+04  0.50400001928E-02 0.  1.
    10030    2    1    2    0    0  0.00000000000E+00  0.00000000000E+00 -0.45152256248E+03  0.32396048229E+04  0.32079848478E+04 0.  0.
        2    1    3    3  502    0  0.22517181313E+03 -0.51923965139E+03  0.12898581181E+04  0.14085617224E+04  0.25500000920E-02 0. -1.
       -2    1    3    3    0  502 -0.22517181313E+03  0.51923965139E+03 -0.17413806806E+04  0.18310431005E+04  0.25500000920E-02 0.  1.
</event>
<event>
 5   0  0.8845526E-07  0.3333373E+04  0.7818609E-02  0.8154455E-01
        1   -1    0    0  501    0  0.00000000000E+00  0.00000000000E+00  0.22688594409E+04  0.22688594409E+04  0.50400001928E-02 0. -1.
       -1   -1    0    0    0  501  0.00000000000E+00  0.00000000000E+00 -0.12243347509E+04  0.12243347509E+04  0.50400001928E-02 0.  1.
    10030    2    1    2    0    0  0.00000000000E+00  0.00000000000E+00  0.10445246900E+04  0.34931941918E+04  0.33333727414E+04 0.  0.
        1    1    3    3  502    0  0.13905229394E+04  0.33055523363E+02 -0.44002175638E+03  0.14588577240E+04  0.50400001928E-02 0.  1.
       -1    1    3    3    0  502 -0.13905229394E+04 -0.33055523363E+02  0.14845464464E+04  0.20343364678E+04  0.50400001928E-02 0. -1.
</event>
<event>
 5   0  0.2674551E-06  0.3348795E+04  0.7818609E-02  0.8150589E-01
        2   -1    0    0  501    0  0.00000000000E+00  0.00000000000E+00  0.11272552625E+04  0.11272552625E+04  0.25500000920E-02 0.  1.
       -2   -1    0    0    0  501  0.00000000000E+00  0.00000000000E+00 -0.24871091685E+04  0.24871091685E+04  0.25500000920E-02 0. -1.
    10030    2    1    2    0    0  0.00000000000E+00  0.00000000000E+00 -0.13598539060E+04  0.36143644310E+04  0.33487949466E+04 0.  0.
        3    1    3    3  502    0 -0.85030538030E+03 -0.89614897082E+03  0.53997417361E+03  0.13482115324E+04  0.10100000352E+00 0.  1.
       -3    1    3    3    0  502  0.85030538030E+03  0.89614897082E+03 -0.18998280797E+04  0.22661528987E+04  0.10100000352E+00 0. -1.
</event>
<event>
 5   0  0.9295663E-07  0.3253373E+04  0.7818609E-02  0.8174862E-01
        1   -1    0    0  501    0  0.00000000000E+00  0.00000000000E+00  0.31523173391E+04  0.31523173391E+04  0.50400001928E-02 0.  1.
       -1   -1    0    0    0  501  0.00000000000E+00  0.00000000000E+00 -0.83941686329E+03  0.83941686331E+03  0.50400001928E-02 0. -1.
    10030    2    1    2    0    0  0.00000000000E+00  0.00000000000E+00  0.23129004758E+04  0.39917342024E+04  0.32533726088E+04 0.  0.
        4    1    3    3  502    0 -0.71316171439E+03 -0.90574313621E+03 -0.25168120200E+03  0.11799641096E+04  0.12699999809E+01 0. -1.
       -4    1    3    3    0  502  0.71316171439E+03  0.90574313621E+03  0.25645816778E+04  0.28117700928E+04  0.12699999809E+01 0.  1.
</event>
<event>
 5   0  0.8845526E-07  0.3073344E+04  0.7818609E-02  0.8223092E-01
        1   -1    0    0  501    0  0.00000000000E+00  0.00000000000E+00  0.24265560993E+04  0.24265560993E+04  0.50400001928E-02 0.  1.
       -1   -1    0    0    0  501  0.00000000000E+00  0.00000000000E+00 -0.97313240066E+03  0.97313240067E+03  0.50400001928E-02 0. -1.
    10030    2    1    2    0    0  0.00000000000E+00  0.00000000000E+00  0.14534236986E+04  0.33996885000E+04  0.30733436920E+04 0.  0.
        1    1    3    3  502    0  0.70404198945E+03  0.15067881062E+03 -0.77500633950E+03  0.10578346058E+04  0.50400001928E-02 0. -1.
       -1    1    3    3    0  502 -0.70404198945E+03 -0.15067881062E+03  0.22284300381E+04  0.23418538942E+04  0.50400001928E-02 0.  1.
</event>
<event>
 5   0  0.8845526E-07  0.3342098E+04  0.7818609E-02  0.8152265E-01
       -1   -1    0    0    0  501  0.00000000000E+00  0.00000000000E+00  0.10585498024E+04  0.10585498024E+04  0.50400001928E-02 0. -1.
        1   -1    0    0  501    0  0.00000000000E+00  0.00000000000E+00 -0.26379533964E+04  0.26379533964E+04  0.50400001928E-02 0.  1.
    10030    2    1    2    0    0  0.00000000000E+00  0.00000000000E+00 -0.15794035940E+04  0.36965031988E+04  0.33420981712E+04 0.  0.
        1    1    3    3  502    0  0.81201334353E+03 -0.81476505439E+03  0.55093748899E+03  0.12754371332E+04  0.50400001928E-02 0. -1.
       -1    1    3    3    0  502 -0.81201334353E+03  0.81476505439E+03 -0.21303410830E+04  0.24210660656E+04  0.50400001928E-02 0.  1.
</event>
<event>
 5   0  0.2614212E-06  0.3000578E+04  0.7818609E-02  0.8243566E-01
        2   -1    0    0  501    0  0.00000000000E+00  0.00000000000E+00  0.19156840904E+04  0.19156840904E+04  0.25500000920E-02 0.  1.
       -2   -1    0    0    0  501  0.00000000000E+00  0.00000000000E+00 -0.11749675591E+04  0.11749675592E+04  0.25500000920E-02 0. -1.
    10030    2    1    2    0    0  0.00000000000E+00  0.00000000000E+00  0.74071653125E+03  0.30906516495E+04  0.30005777176E+04 0.  0.
        2    1    3    3  502    0 -0.52062575444E+03 -0.55631038649E+03  0.17015691803E+04  0.18643685520E+04  0.25500000920E-02 0.  1.
       -2    1    3    3    0  502  0.52062575444E+03  0.55631038649E+03 -0.96085264901E+03  0.12262830976E+04  0.25500000920E-02 0. -1.
</event>
<event>
 5   0  0.2574803E-06  0.3290567E+04  0.7818609E-02  0.8165300E-01
       -2   -1    0    0    0  501  0.00000000000E+00  0.00000000000E+00  0.20822212717E+04  0.20822212717E+04  0.25500000920E-02 0.  1.
        2   -1    0    0  501    0  0.00000000000E+00  0.00000000000E+00 -0.13000340676E+04  0.13000340676E+04  0.25500000920E-02 0. -1.
    10030    2    1    2    0    0  0.00000000000E+00  0.00000000000E+00  0.78218720409E+03  0.33822553393E+04  0.32905674827E+04 0.  0.
        4    1    3    3  502    0 -0.17963125962E+03  0.76857175213E+03 -0.10927328099E+04  0.13479749754E+04  0.12699999809E+01 0. -1.
       -4    1    3    3    0  502  0.17963125962E+03 -0.76857175213E+03  0.18749200139E+04  0.20342803640E+04  0.12699999809E+01 0.  1.
</event>
<event>
 5   0  0.2674551E-06  0.3195671E+04  0.7818609E-02  0.8189962E-01
        2   -1    0    0  501    0  0.00000000000E+00  0.00000000000E+00  0.21227279781E+04  0.21227279781E+04  0.25500000920E-02 0. -1.
       -2   -1    0    0    0  501  0.00000000000E+00  0.00000000000E+00 -0.12027342041E+04  0.12027342041E+04  0.25500000920E-02 0.  1.
    10030    2    1    2    0    0  0.00000000000E+00  0.00000000000E+00  0.91999377402E+03  0.33254621822E+04  0.31956705370E+04 0.  0.
        3    1    3    3  502    0  0.43872650851E+03 -0.14634675024E+04  0.94682166156E+03  0.17974118473E+04  0.10100000352E+00 0. -1.
       -3    1    3    3    0  502 -0.43872650851E+03  0.14634675024E+04 -0.26827887542E+02  0.15280503348E+04  0.10100000352E+00 0.  1.
</event>
<event>
 5   0  0.9268670E-07  0.3340818E+04  0.7818609E-02  0.8152586E-01
        1   -1    0    0  501    0  0.00000000000E+00  0.00000000000E+00  0.15851658211E+04  0.15851658211E+04  0.50400001928E-02 0.  1.
       -1   -1    0    0    0  501  0.00000000000E+00  0.00000000000E+00 -0.17602364648E+04  0.17602364648E+04  0.50400001928E-02 0. -1.
    10030    2    1    2    0    0  0.00000000000E+00  0.00000000000E+00 -0.17507064368E+03  0.33454022859E+04  0.33408182717E+04 0.  0.
        3    1    3    3  502    0  0.38306772205E+03 -0.10822549909E+04 -0.13025632698E+04  0.17362856410E+04  0.10100000352E+00 0. -1.
       -3    1    3    3    0  502 -0.38306772205E+03  0.10822549909E+04  0.11274926261E+04  0.16091166450E+04  0.10100000352E+00 0.  1.
</event>
<event>
 5   0  0.2658600E-06  0.3315178E+04  0.7818609E-02  0.8159044E-01
       -2   -1    0    0    0  501  0.00000000000E+00  0.00000000000E+00  0.16685933874E+04  0.16685933874E+04  0.25500000920E-02 0.  1.
        2   -1    0    0  501    0  0.00000000000E+00  0.00000000000E+00 -0.16466574555E+04  0.16466574555E+04  0.25500000920E-02 0. -1.
    10030    2    1    2    0    0  0.00000000000E+00  0.00000000000E+00  0.21935931843E+02  0.33152508429E+04  0.33151782706E+04 0.  0.
        5    1    3    3  502    0  0.13281410910E+04 -0.70465655112E+03 -0.68695850893E+03  0.16530074699E+04  0.46999998093E+01 0. -1.
       -5    1    3    3    0  502 -0.13281410910E+04  0.70465655112E+03  0.70889444077E+03  0.16622433729E+04  0.46999998093E+01 0.  1.
</event>
<event>
 5   0  0.2614212E-06  0.3328748E+04  0.7818609E-02  0.8155619E-01
       -2   -1    0    0    0  501  0.00000000000E+00  0.00000000000E+00  0.14766045209E+04  0.14766045209E+04  0.25500000920E-02 0.  1.
        2   -1    0    0  501    0  0.00000000000E+00  0.00000000000E+00 -0.18760208430E+04  0.18760208430E+04  0.25500000920E-02 0. -1.
    10030    2    1    2    0    0  0.00000000000E+00  0.00000000000E+00 -0.39941632212E+03  0.33526253640E+04  0.33287480278E+04 0.  0.
        2    1    3    3  502    0  0.12412603688E+04 -0.94653464633E+03  0.38191638166E+03  0.16070206167E+04  0.25500000920E-02 0.  1.
       -2    1    3    3    0  502 -0.12412603688E+04  0.94653464633E+03 -0.78133270378E+03  0.17456047473E+04  0.25500000920E-02 0. -1.
</event>
<event>
 5   0  0.9268670E-07  0.3212669E+04  0.7818609E-02  0.8185479E-01
       -1   -1    0    0    0  501  0.00000000000E+00  0.00000000000E+00  0.17066403998E+04  0.17066403998E+04  0.50400001928E-02 0. -1.
        1   -1    0    0  501    0  0.00000000000E+00  0.00000000000E+00 -0.15119241191E+04  0.15119241192E+04  0.50400001928E-02 0.  1.
    10030    2    1    2    0    0  0.00000000000E+00  0.00000000000E+00  0.19471628068E+03  0.32185645190E+04  0.32126691602E+04 0.  0.
        3    1    3    3  502    0  0.12612060865E+04 -0.80754590999E+03 -0.48468955010E+03  0.15740696171E+04  0.10100000352E+00 0.  1.
       -3    1    3    3    0  502 -0.12612060865E+04  0.80754590999E+03  0.67940583078E+03  0.16444949019E+04  0.10100000352E+00 0. -1.
</event>
<event>
 5   0  0.2658600E-06  0.3255450E+04  0.7818609E-02  0.8174324E-01
       -2   -1    0    0    0  501  0.00000000000E+00  0.00000000000E+00  0.10266893833E+04  0.10266893833E+04  0.25500000920E-02 0. -1.
        2   -1    0    0  501    0  0.00000000000E+00  0.00000000000E+00 -0.25806142085E+04  0.25806142085E+04  0.25500000920E-02 0.  1.
    10030    2    1    2    0    0  0.00000000000E+00  0.00000000000E+00 -0.15539248251E+04  0.36073035918E+04  0.32554503285E+04 0.  0.
        5    1    3    3  502    0 -0.13399119020E+04 -0.31484430265E+03  0.18584244911E+03  0.13889025689E+04  0.46999998093E+01 0.  1.
       -5    1    3    3    0  502  0.13399119020E+04  0.31484430265E+03 -0.17397672742E+04  0.22184010229E+04  0.46999998093E+01 0. -1.
</event>
<event>
 5   0  0.8520125E-07  0.3308975E+04  0.7818609E-02  0.8160615E-01
        3   -1    0    0  501    0  0.00000000000E+00  0.00000000000E+00  0.13896639443E+04  0.13896639480E+04  0.10100000352E+00 0.  1.
       -3   -1    0    0    0  501  0.00000000000E+00  0.00000000000E+00 -0.19697780053E+04  0.19697780079E+04  0.10100000352E+00 0. -1.
    10030    2    1    2    0    0  0.00000000000E+00  0.00000000000E+00 -0.58011406100E+03  0.33594419558E+04  0.33089753597E+04 0.  0.
        5    1    3    3  502    0  0.56901062478E+03 -0.13511016025E+04  0.48848841953E+03  0.15452804462E+04  0.46999998093E+01 0.  1.
       -5    1    3    3    0  502 -0.56901062478E+03  0.13511016025E+04 -0.10686024805E+04  0.18141615096E+04  0.46999998093E+01 0. -1.
</event>
<event>
 5   0  0.2658600E-06  0.3328709E+04  0.7818609E-02  0.8155629E-01
       -2   -1    0    0    0  501  0.00000000000E+00  0.00000000000E+00  0.15134322953E+04  0.15134322953E+04  0.25500000920E-02 0.  1.
        2   -1    0    0  501    0  0.00000000000E+00  0.00000000000E+00 -0.18303271667E+04  0.18303271667E+04  0.25500000920E-02 0. -1.
    10030    2    1    2    0    0  0.00000000000E+00  0.00000000000E+00 -0.31689487143E+03  0.33437594621E+04  0.33287092064E+04 0.  0.
        5    1    3    3  502    0 -0.15463704359E+04  0.14344167630E+03 -0.75966593809E+03  0.17288584289E+04  0.46999998093E+01 0. -1.
       -5    1    3    3    0  502  0.15463704359E+04 -0.14344167630E+03  0.44277106666E+03  0.16149010332E+04  0.46999998093E+01 0.  1.
</event>
<event>
 5   0  0.2705859E-06  0.3242793E+04  0.7818609E-02  0.8177606E-01
       -2   -1    0    0    0  501  0.00000000000E+00  0.00000000000E+00  0.97651651860E+03  0.97651651861E+03  0.25500000920E-02 0.  1.
        2   -1    0    0  501    0  0.00000000000E+00  0.00000000000E+00 -0.26921480645E+04  0.26921480645E+04  0.25500000920E-02 0. -1.
    10030    2    1    2    0    0  0.00000000000E+00  0.00000000000E+00 -0.17156315459E+04  0.36686645831E+04  0.32427932746E+04 0.  0.
        1    1    3    3  502    0 -0.73458953304E+02 -0.10082261410E+04 -0.22919775805E+04  0.25050104588E+04  0.50400001928E-02 0. -1.
       -1    1    3    3    0  502  0.73458953304E+02  0.10082261410E+04  0.57634603464E+03  0.11636541243E+04  0.50400001928E-02 0.  1.
</event>
<event>
 5   0  0.2574803E-06  0.3199945E+04  0.7818609E-02  0.8188832E-01
       -2   -1    0    0    0  501  0.00000000000E+00  0.00000000000E+00  0.23878210997E+04  0.23878210997E+04  0.25500000920E-02 0. -1.
        2   -1    0    0  501    0  0.00000000000E+00  0.00000000000E+00 -0.10720703992E+04  0.10720703992E+04  0.25500000920E-02 0.  1.
    10030    2    1    2    0    0  0.00000000000E+00  0.00000000000E+00  0.13157507005E+04  0.34598914990E+04  0.31999451993E+04 0.  0.
        4    1    3    3  502    0  0.13286203066E+04  0.88633862200E+03  0.55483060180E+03  0.16907592027E+04  0.12699999809E+01 0.  1.
       -4    1    3    3    0  502 -0.13286203066E+04 -0.88633862200E+03  0.76092009866E+03  0.17691322962E+04  0.12699999809E+01 0. -1.
</event>
<event>
 5   0  0.9268670E-07  0.3318710E+04  0.7818609E-02  0.8158151E-01
        1   -1    0    0  501    0  0.00000000000E+00  0.00000000000E+00  0.26164705045E+04  0.26164705045E+04  0.50400001928E-02 0. -1.
       -1   -1    0    0    0  501  0.00000000000E+00  0.00000000000E+00 -0.10523561935E+04  0.10523561935E+04  0.50400001928E-02 0.  1.
    10030    2    1    2    0    0  0.00000000000E+00  0.00000000000E+00  0.15641143110E+04  0.36688266981E+04  0.33187099546E+04 0.  0.
        3    1    3    3  502    0  0.48949664037E+03 -0.21179277543E+03 -0.95501586247E+03  0.10938548571E+04  0.10100000352E+00 0.  1.
       -3    1    3    3    0  502 -0.48949664037E+03  0.21179277543E+03  0.25191301735E+04  0.25749718410E+04  0.10100000352E+00 0. -1.
</event>
<event>
 5   0  0.9295663E-07  0.3244840E+04  0.7818609E-02  0.8177074E-01
       -1   -1    0    0    0  501  0.00000000000E+00  0.00000000000E+00  0.17901384007E+04  0.17901384007E+04  0.50400001928E-02 0. -1.
        1   -1    0    0  501    0  0.00000000000E+00  0.00000000000E+00 -0.14704154908E+04  0.14704154908E+04  0.50400001928E-02 0.  1.
    10030    2    1    2    0    0  0.00000000000E+00  0.00000000000E+00  0.31972290990E+03  0.32605538914E+04  0.32448403566E+04 0.  0.
        4    1    3    3  502    0  0.90159979438E+03  0.88175182691E+03 -0.86580536020E+03  0.15297022613E+04  0.12699999809E+01 0.  1.
       -4    1    3    3    0  502 -0.90159979438E+03 -0.88175182691E+03  0.11855282701E+04  0.17308516302E+04  0.12699999809E+01 0. -1.
</event>
<event>
 5   0  0.2705859E-06  0.3257645E+04  0.7818609E-02  0.8173757E-01
        2   -1    0    0  501    0  0.00000000000E+00  0.00000000000E+00  0.23404907656E+04  0.23404907656E+04  0.25500000920E-02 0. -1.
       -2   -1    0    0    0  501  0.00000000000E+00  0.00000000000E+00 -0.11335497363E+04  0.11335497363E+04  0.25500000920E-02 0.  1.
    10030    2    1    2    0    0  0.00000000000E+00  0.00000000000E+00  0.12069410293E+04  0.34740405020E+04  0.32576449716E+04 0.  0.
        1    1    3    3  502    0 -0.24912463337E+02  0.64329101798E+03 -0.99211906610E+03  0.11826851677E+04  0.50400001928E-02 0.  1.
       -1    1    3    3    0  502  0.24912463337E+02 -0.64329101798E+03  0.21990600954E+04  0.22913553343E+04  0.50400001928E-02 0. -1.
</event>
<event>
 5   0  0.8845526E-07  0.3300078E+04  0.7818609E-02  0.8162876E-01
       -1   -1    0    0    0  501  0.00000000000E+00  0.00000000000E+00  0.26896502607E+04  0.26896502607E+04  0.50400001928E-02 0.  1.
        1   -1    0    0  501    0  0.00000000000E+00  0.00000000000E+00 -0.10122610235E+04  0.10122610235E+04  0.50400001928E-02 0. -1.
    10030    2    1    2    0    0  0.00000000000E+00  0.00000000000E+00  0.16773892372E+04  0.37019112842E+04  0.33000776510E+04 0.  0.
        1    1    3    3  502    0  0.11165428843E+04  0.47955846911E+03 -0.41346024154E+03  0.12835862687E+04  0.50400001928E-02 0. -1.
       -1    1    3    3    0  502 -0.11165428843E+04 -0.47955846911E+03  0.20908494787E+04  0.24183250155E+04  0.50400001928E-02 0.  1.
</event>
<event>
 5   0  0.2574803E-06  0.3316464E+04  0.7818609E-02  0.8158719E-01
       -2   -1    0    0    0  501  0.00000000000E+00  0.00000000000E+00  0.98799018124E+03  0.98799018124E+03  0.25500000920E-02 0.  1.
        2   -1    0    0  501    0  0.00000000000E+00  0.00000000000E+00 -0.27831583523E+04  0.27831583523E+04  0.25500000920E-02 0. -1.
    10030    2    1    2    0    0  0.00000000000E+00  0.00000000000E+00 -0.17951681710E+04  0.37711485335E+04  0.33164638547E+04 0.  0.
        4    1    3    3  502    0  0.30975773260E+03 -0.93556358036E+03  0.61885721241E+03  0.11637074065E+04  0.12699999809E+01 0.  1.
       -4    1    3    3    0  502 -0.30975773260E+03  0.93556358036E+03 -0.24140253834E+04  0.26074411270E+04  0.12699999809E+01 0. -1.
</event>
<event>
 5   0  0.2658600E-06  0.3244077E+04  0.7818609E-02  0.8177273E-01
       -2   -1    0    0    0  501  0.00000000000E+00  0.00000000000E+00  0.12471778849E+04  0.12471778849E+04  0.25500000920E-02 0.  1.
        2   -1    0    0  501    0  0.00000000000E+00  0.00000000000E+00 -0.21095701412E+04  0.21095701412E+04  0.25500000920E-02 0. -1.
    10030    2    1    2    0    0  0.00000000000E+00  0.00000000000E+00 -0.86239225639E+03  0.33567480261E+04  0.32440772042E+04 0.  0.
        5    1    3    3  502    0  0.70147833455E+03 -0.11516988677E+04 -0.13638931335E+04  0.19179960129E+04  0.46999998093E+01 0. -1.
       -5    1    3    3    0  502 -0.70147833455E+03  0.11516988677E+04  0.50150087713E+03  0.14387520132E+04  0.46999998093E+01 0.  1.
</event>
<event>
 5   0  0.2658600E-06  0.3313192E+04  0.7818609E-02  0.8159547E-01
       -2   -1    0    0    0  501  0.00000000000E+00  0.00000000000E+00  0.21934272136E+04  0.21934272136E+04  0.25500000920E-02 0.  1.
        2   -1    0    0  501    0  0.00000000000E+00  0.00000000000E+00 -0.12511520291E+04  0.12511520291E+04  0.25500000920E-02 0. -1.
    10030    2    1    2    0    0  0.00000000000E+00  0.00000000000E+00  0.94227518450E+03  0.34445792427E+04  0.33131923633E+04 0.  0.
        5    1    3    3  502    0 -0.13641917725E+04 -0.92764734658E+03  0.62791555536E+03  0.17651767125E+04  0.46999998093E+01 0.  1.
       -5    1    3    3    0  502  0.13641917725E+04  0.92764734658E+03  0.31435962914E+03  0.16794025302E+04  0.46999998093E+01 0. -1.
</event>
<event>
 5   0  0.9295663E-07  0.3306809E+04  0.7818609E-02  0.8161165E-01
       -1   -1    0    0    0  501  0.00000000000E+00  0.00000000000E+00  0.10669088396E+04  0.10669088396E+04  0.50400001928E-02 0.  1.
        1   -1    0    0  501    0  0.00000000000E+00  0.00000000000E+00 -0.25623060931E+04  0.25623060931E+04  0.50400001928E-02 0. -1.
    10030    2    1    2    0    0  0.00000000000E+00  0.00000000000E+00 -0.14953972536E+04  0.36292149327E+04  0.33068093507E+04 0.  0.
        4    1    3    3  502    0  0.65820379189E+03 -0.12540322523E+04  0.18866438584E+03  0.14287844431E+04  0.12699999809E+01 0.  1.
       -4    1    3    3    0  502 -0.65820379189E+03  0.12540322523E+04 -0.16840616394E+04  0.22004304896E+04  0.12699999809E+01 0. -1.
</event>
<event>
 5   0  0.9295663E-07  0.3333398E+04  0.7818609E-02  0.8154449E-01
       -1   -1    0    0    0  501  0.00000000000E+00  0.00000000000E+00  0.11137432681E+04  0.11137432681E+04  0.50400001928E-02 0.  1.
        1   -1    0    0  501    0  0.00000000000E+00  0.00000000000E+00 -0.24941885184E+04  0.24941885184E+04  0.50400001928E-02 0. -1.
    10030    2    1    2    0    0  0.00000000000E+00  0.00000000000E+00 -0.13804452503E+04  0.36079317865E+04  0.33333980690E+04 0.  0.
        4    1    3    3  502    0  0.14528706266E+04 -0.29193851909E+03 -0.15158166566E+04  0.21198497366E+04  0.12699999809E+01 0. -1.
       -4    1    3    3    0  502 -0.14528706266E+04  0.29193851909E+03  0.13537140632E+03  0.14880820498E+04  0.12699999809E+01 0.  1.
</event>
<event>
 5   0  0.8845526E-07  0.3246599E+04  0.7818609E-02  0.8176618E-01
        1   -1    0    0  501    0  0.00000000000E+00  0.00000000000E+00  0.18058991182E+04  0.18058991182E+04  0.50400001928E-02 0. -1.
       -1   -1    0    0    0  501  0.00000000000E+00  0.00000000000E+00 -0.14591630700E+04  0.14591630700E+04  0.50400001928E-02 0.  1.
    10030    2    1    2    0    0  0.00000000000E+00  0.00000000000E+00  0.34673604821E+03  0.32650621882E+04  0.32465990214E+04 0.  0.
        1    1    3    3  502    0  0.12210694993E+04 -0.83308179765E+03  0.84805226804E+03  0.17041797596E+04  0.50400001928E-02 0. -1.
       -1    1    3    3    0  502 -0.12210694993E+04  0.83308179765E+03 -0.50131621983E+03  0.15608824286E+04  0.50400001928E-02 0.  1.
</event>
<event>
 5   0  0.2658600E-06  0.3293717E+04  0.7818609E-02  0.8164496E-01
       -2   -1    0    0    0  501  0.00000000000E+00  0.00000000000E+00  0.14096572749E+04  0.14096572749E+04  0.25500000920E-02 0.  1.
        2   -1    0    0  501    0  0.00000000000E+00  0.00000000000E+00 -0.19239731460E+04  0.19239731460E+04  0.25500000920E-02 0. -1.
    10030    2    1    2    0    0  0.00000000000E+00  0.00000000000E+00 -0.51431587106E+03  0.33336304209E+04  0.32937168925E+04 0.  0.
        5    1    3    3  502    0  0.81325215359E+03  0.13936515457E+04  0.76191656492E+02  0.16153856984E+04  0.46999998093E+01 0. -1.
       -5    1    3    3    0  502 -0.81325215359E+03 -0.13936515457E+04 -0.59050752755E+03  0.17182447225E+04  0.46999998093E+01 0.  1.
</event>
<event>
 5   0  0.2574803E-06  0.3410094E+04  0.7818609E-02  0.8135433E-01
       -2   -1    0    0    0  501  0.00000000000E+00  0.00000000000E+00  0.11512472409E+04  0.11512472409E+04  0.25500000920E-02 0.  1.
        2   -1    0    0  501    0  0.00000000000E+00  0.00000000000E+00 -0.25252485454E+04  0.25252485454E+04  0.25500000920E-02 0. -1.
    10030    2    1    2    0    0  0.00000000000E+00  0.00000000000E+00 -0.13740013044E+04  0.36764957863E+04  0.34100940870E+04 0.  0.
        4    1    3    3  502    0 -0.49991444696E+03 -0.12356721923E+04 -0.18332540401E+04  0.22666323499E+04  0.12699999809E+01 0. -1.
       -4    1    3    3    0  502  0.49991444696E+03  0.12356721923E+04  0.45925273570E+03  0.14098634364E+04  0.12699999809E+01 0.  1.
</event>
<event>
 5   0  0.2705859E-06  0.3300224E+04  0.7818609E-02  0.8162838E-01
        2   -1    0    0  501    0  0.00000000000E+00  0.00000000000E+00  0.18273412866E+04  0.18273412866E+04  0.25500000920E-02 0. -1.
       -2   -1    0    0    0  501  0.00000000000E+00  0.00000000000E+00 -0.14900714284E+04  0.14900714284E+04  0.25500000920E-02 0.  1.
    10030    2    1    2    0    0  0.00000000000E+00  0.00000000000E+00  0.33726985826E+03  0.33174127150E+04  0.33002236537E+04 0.  0.
        1    1    3    3  502    0 -0.29907626494E+03  0.98662159433E+03 -0.11264856672E+04  0.15270359332E+04  0.50400001928E-02 0.  1.
       -1    1    3    3    0  502  0.29907626494E+03 -0.98662159433E+03  0.14637555255E+04  0.17903767819E+04  0.50400001928E-02 0. -1.
</event>
<event>
 5   0  0.2705859E-06  0.3363501E+04  0.7818609E-02  0.8146923E-01
        2   -1    0    0  501    0  0.00000000000E+00  0.00000000000E+00  0.18736969091E+04  0.18736969091E+04  0.25500000920E-02 0. -1.
       -2   -1    0    0    0  501  0.00000000000E+00  0.00000000000E+00 -0.15094673084E+04  0.15094673084E+04  0.25500000920E-02 0.  1.
    10030    2    1    2    0    0  0.00000000000E+00  0.00000000000E+00  0.36422960070E+03  0.33831642175E+04  0.33635006943E+04 0.  0.
        1    1    3    3  502    0 -0.38445687615E+03 -0.67214659987E+02 -0.14632845119E+04  0.15144393229E+04  0.50400001928E-02 0.  1.
       -1    1    3    3    0  502  0.38445687615E+03  0.67214659987E+02  0.18275141126E+04  0.18687248946E+04  0.50400001928E-02 0. -1.
</event>
<event>
 5   0  0.8705956E-07  0.3292872E+04  0.7818609E-02  0.8164712E-01
        1   -1    0    0  501    0  0.00000000000E+00  0.00000000000E+00  0.21576225425E+04  0.21576225426E+04  0.50400001928E-02 0. -1.
       -1   -1    0    0    0  501  0.00000000000E+00  0.00000000000E+00 -0.12563602106E+04  0.12563602106E+04  0.50400001928E-02 0.  1.
    10030    2    1    2    0    0  0.00000000000E+00  0.00000000000E+00  0.90126233199E+03  0.34139827531E+04  0.32928717630E+04 0.  0.
        2    1    3    3  502    0 -0.15493420221E+04 -0.34180264621E+03  0.90665088732E+03  0.18273766940E+04  0.25500000920E-02 0. -1.
       -2    1    3    3    0  502  0.15493420221E+04  0.34180264621E+03 -0.53885553326E+01  0.15866060591E+04  0.25500000920E-02 0.  1.
</event>
<event>
 5   0  0.9530268E-07  0.3283278E+04  0.7818609E-02  0.8167163E-01
       -1   -1    0    0    0  501  0.00000000000E+00  0.00000000000E+00  0.14126038225E+04  0.14126038225E+04  0.50400001928E-02 0. -1.
        1   -1    0    0  501    0  0.00000000000E+00  0.00000000000E+00 -0.19078087539E+04  0.19078087539E+04  0.50400001928E-02 0.  1.
    10030    2    1    2    0    0  0.00000000000E+00  0.00000000000E+00 -0.49520493140E+03  0.33204125764E+04  0.32832775932E+04 0.  0.
        5    1    3    3  502    0  0.10014354566E+04 -0.12708504178E+04 -0.52826994702E+03  0.17020649180E+04  0.46999998093E+01 0. -1.
       -5    1    3    3    0  502 -0.10014354566E+04  0.12708504178E+04  0.33065015621E+02  0.16183476584E+04  0.46999998093E+01 0.  1.
</event>
<event>
 5   0  0.2658600E-06  0.3282292E+04  0.7818609E-02  0.8167416E-01
       -2   -1    0    0    0  501  0.00000000000E+00  0.00000000000E+00  0.13078994404E+04  0.13078994404E+04  0.25500000920E-02 0.  1.
        2   -1    0    0  501    0  0.00000000000E+00  0.00000000000E+00 -0.20593019991E+04  0.20593019991E+04  0.25500000920E-02 0. -1.
    10030    2    1    2    0    0  0.00000000000E+00  0.00000000000E+00 -0.75140255871E+03  0.33672014395E+04  0.32822918409E+04 0.  0.
        5    1    3    3  502    0 -0.46999991799E+03 -0.78600718400E+03 -0.17727791667E+04  0.19953634456E+04  0.46999998093E+01 0. -1.
       -5    1    3    3    0  502  0.46999991799E+03  0.78600718400E+03  0.10213766079E+04  0.13718379939E+04  0.46999998093E+01 0.  1.
</event>
<event>
 5   0  0.9295663E-07  0.3262076E+04  0.7818609E-02  0.8172613E-01
       -1   -1    0    0    0  501  0.00000000000E+00  0.00000000000E+00  0.26902908106E+04  0.26902908106E+04  0.50400001928E-02 0.  1.
        1   -1    0    0  501    0  0.00000000000E+00  0.00000000000E+00 -0.98884685666E+03  0.98884685668E+03  0.50400001928E-02 0. -1.
    10030    2    1    2    0    0  0.00000000000E+00  0.00000000000E+00  0.17014439539E+04  0.36791376673E+04  0.32620764011E+04 0.  0.
        4    1    3    3  502    0  0.16135382971E+04 -0.15705947358E+03  0.10528261763E+04  0.19330333895E+04  0.12699999809E+01 0.  1.
       -4    1    3    3    0  502 -0.16135382971E+04  0.15705947358E+03  0.64861777757E+03  0.17461042777E+04  0.12699999809E+01 0. -1.
</event>
<event>
 5   0  0.2614212E-06  0.2553723E+04  0.7818609E-02  0.8384092E-01
        2   -1    0    0  501    0  0.00000000000E+00  0.00000000000E+00  0.79586358982E+03  0.79586358983E+03  0.25500000920E-02 0. -1.
       -2   -1    0    0    0  501  0.00000000000E+00  0.00000000000E+00 -0.20485617346E+04  0.20485617346E+04  0.25500000920E-02 0.  1.
    10030    2    1    2    0    0  0.00000000000E+00  0.00000000000E+00 -0.12526981448E+04  0.28444253244E+04  0.25537233179E+04 0.  0.
        2    1    3    3  502    0  0.42271287893E+02 -0.58966628619E+03  0.63424523481E+03  0.86704106520E+03  0.25500000920E-02 0. -1.
       -2    1    3    3    0  502 -0.42271287893E+02  0.58966628619E+03 -0.18869433796E+04  0.19773842592E+04  0.25500000920E-02 0.  1.
</event>
<event>
 5   0  0.8845526E-07  0.3227545E+04  0.7818609E-02  0.8181580E-01
        1   -1    0    0  501    0  0.00000000000E+00  0.00000000000E+00  0.17211693688E+04  0.17211693688E+04  0.50400001928E-02 0. -1.
       -1   -1    0    0    0  501  0.00000000000E+00  0.00000000000E+00 -0.15130772534E+04  0.15130772534E+04  0.50400001928E-02 0.  1.
    10030    2    1    2    0    0  0.00000000000E+00  0.00000000000E+00  0.20809211535E+03  0.32342466222E+04  0.32275453343E+04 0.  0.
        1    1    3    3  502    0  0.15320040441E+04 -0.13328038903E+03  0.59441080085E+03  0.16486734829E+04  0.50400001928E-02 0. -1.
       -1    1    3    3    0  502 -0.15320040441E+04  0.13328038903E+03 -0.38631868551E+03  0.15855731393E+04  0.50400001928E-02 0.  1.
</event>
<event>
 5   0  0.2674551E-06  0.3236450E+04  0.7818609E-02  0.8179257E-01
        2   -1    0    0  501    0  0.00000000000E+00  0.00000000000E+00  0.14698220856E+04  0.14698220856E+04  0.25500000920E-02 0.  1.
       -2   -1    0    0    0  501  0.00000000000E+00  0.00000000000E+00 -0.17816117295E+04  0.17816117295E+04  0.25500000920E-02 0. -1.
    10030    2    1    2    0    0  0.00000000000E+00  0.00000000000E+00 -0.31178964396E+03  0.32514338151E+04  0.32364500726E+04 0.  0.
        3    1    3    3  502    0  0.24552279280E+03 -0.66407646098E+03  0.13059615985E+04  0.14855351543E+04  0.10100000352E+00 0.  1.
       -3    1    3    3    0  502 -0.24552279280E+03  0.66407646098E+03 -0.16177512424E+04  0.17658986608E+04  0.10100000352E+00 0. -1.
</event>
<event>
 5   0  0.2658600E-06  0.3248164E+04  0.7818609E-02  0.8176212E-01
       -2   -1    0    0    0  501  0.00000000000E+00  0.00000000000E+00  0.94433756701E+03  0.94433756702E+03  0.25500000920E-02 0.  1.
        2   -1    0    0  501    0  0.00000000000E+00  0.00000000000E+00 -0.27931137086E+04  0.27931137086E+04  0.25500000920E-02 0. -1.
    10030    2    1    2    0    0  0.00000000000E+00  0.00000000000E+00 -0.18487761416E+04  0.37374512756E+04  0.32481639146E+04 0.  0.
        5    1    3    3  502    0  0.56604548309E+03 -0.60324547145E+03  0.68374844683E+03  0.10732411734E+04  0.46999998093E+01 0.  1.
       -5    1    3    3    0  502 -0.56604548309E+03  0.60324547145E+03 -0.25325245884E+04  0.26642101022E+04  0.46999998093E+01 0. -1.
</event>
<event>
 5   0  0.8845526E-07  0.3239895E+04  0.7818609E-02  0.8178360E-01
       -1   -1    0    0    0  501  0.00000000000E+00  0.00000000000E+00  0.11660725408E+04  0.11660725408E+04  0.50400001928E-02 0.  1.
        1   -1    0    0  501    0  0.00000000000E+00  0.00000000000E+00 -0.22504857158E+04  0.22504857158E+04  0.50400001928E-02 0. -1.
    10030    2    1    2    0    0  0.00000000000E+00  0.00000000000E+00 -0.10844131750E+04  0.34165582566E+04  0.32398948110E+04 0.  0.
        1    1    3    3  502    0 -0.12351001280E+04  0.48627379164E+03 -0.15214392063E+04  0.20190868691E+04  0.50400001928E-02 0. -1.
       -1    1    3    3    0  502  0.12351001280E+04 -0.48627379164E+03  0.43702603124E+03  0.13974713874E+04  0.50400001928E-02 0.  1.
</event>
<event>
 5   0  0.9295663E-07  0.3225592E+04  0.7818609E-02  0.8182091E-01
       -1   -1    0    0    0  501  0.00000000000E+00  0.00000000000E+00  0.15769038781E+04  0.15769038781E+04  0.50400001928E-02 0. -1.
        1   -1    0    0  501    0  0.00000000000E+00  0.00000000000E+00 -0.16495049909E+04  0.16495049910E+04  0.50400001928E-02 0.  1.
    10030    2    1    2    0    0  0.00000000000E+00  0.00000000000E+00 -0.72601112821E+02  0.32264088691E+04  0.32255919254E+04 0.  0.
        4    1    3    3  502    0 -0.14958818118E+04 -0.47269330315E+03  0.33797044031E+03  0.16047825352E+04  0.12699999809E+01 0. -1.
       -4    1    3    3    0  502  0.14958818118E+04  0.47269330315E+03 -0.41057155314E+03  0.16216263339E+04  0.12699999809E+01 0.  1.
</event>
<event>
 5   0  0.8520125E-07  0.3264867E+04  0.7818609E-02  0.8171893E-01
        3   -1    0    0  501    0  0.00000000000E+00  0.00000000000E+00  0.22522684291E+04  0.22522684313E+04  0.10100000352E+00 0.  1.
       -3   -1    0    0    0  501  0.00000000000E+00  0.00000000000E+00 -0.11831802835E+04  0.11831802879E+04  0.10100000352E+00 0. -1.
    10030    2    1    2    0    0  0.00000000000E+00  0.00000000000E+00  0.10690881455E+04  0.34354487192E+04  0.32648672928E+04 0.  0.
        3    1    3    3  502    0  0.20495600440E+03 -0.13428723725E+04  0.14871195970E+04  0.20141593478E+04  0.10100000352E+00 0.  1.
       -3    1    3    3    0  502 -0.20495600440E+03  0.13428723725E+04 -0.41803145143E+03  0.14212893714E+04  0.10100000352E+00 0. -1.
</event>
<event>
 5   0  0.9530268E-07  0.3286147E+04  0.7818609E-02  0.8166429E-01
       -1   -1    0    0    0  501  0.00000000000E+00  0.00000000000E+00  0.99470027486E+03  0.99470027487E+03  0.50400001928E-02 0. -1.
        1   -1    0    0  501    0  0.00000000000E+00  0.00000000000E+00 -0.27140745176E+04  0.27140745176E+04  0.50400001928E-02 0.  1.
    10030    2    1    2    0    0  0.00000000000E+00  0.00000000000E+00 -0.17193742427E+04  0.37087747925E+04  0.32861470866E+04 0.  0.
        5    1    3    3  502    0 -0.40589933205E+03 -0.11248173737E+04  0.41204035882E+03  0.12648192516E+04  0.46999998093E+01 0. -1.
       -5    1    3    3    0  502  0.40589933205E+03  0.11248173737E+04 -0.21314146015E+04  0.24439555408E+04  0.46999998093E+01 0.  1.
</event>
<event>
 5   0  0.2658600E-06  0.2540728E+04  0.7818609E-02  0.8388618E-01
        2   -1    0    0  501    0  0.00000000000E+00  0.00000000000E+00  0.12694260982E+04  0.12694260982E+04  0.25500000920E-02 0. -1.
       -2   -1    0    0    0  501  0.00000000000E+00  0.00000000000E+00 -0.12713030301E+04  0.12713030301E+04  0.25500000920E-02 0.  1.
    10030    2    1    2    0    0  0.00000000000E+00  0.00000000000E+00 -0.18769319100E+01  0.25407291283E+04  0.25407284350E+04 0.  0.
        5    1    3    3  502    0 -0.93270997283E+03  0.33166295639E+03 -0.79708876016E+03  0.12709527102E+04  0.46999998093E+01 0.  1.
       -5    1    3    3    0  502  0.93270997283E+03 -0.33166295639E+03  0.79521182825E+03  0.12697764181E+04  0.46999998093E+01 0. -1.
</event>
<event>
 5   0  0.2658600E-06  0.2997110E+04  0.7818609E-02  0.8244556E-01
       -2   -1    0    0    0  501  0.00000000000E+00  0.00000000000E+00  0.11182292924E+04  0.11182292924E+04  0.25500000920E-02 0. -1.
        2   -1    0    0  501    0  0.00000000000E+00  0.00000000000E+00 -0.20082355448E+04  0.20082355448E+04  0.25500000920E-02 0.  1.
    10030    2    1    2    0    0  0.00000000000E+00  0.00000000000E+00 -0.89000625238E+03  0.31264648372E+04  0.29971104833E+04 0.  0.
        5    1    3    3  502    0  0.24338168139E+03  0.66411030297E+03 -0.18231464109E+04  0.19555464870E+04  0.46999998093E+01 0.  1.
       -5    1    3    3    0  502 -0.24338168139E+03 -0.66411030297E+03  0.93314015851E+03  0.11709183502E+04  0.46999998093E+01 0. -1.
</event>
<event>
 5   0  0.2674551E-06  0.3321466E+04  0.7818609E-02  0.8157455E-01
        2   -1    0    0  501    0  0.00000000000E+00  0.00000000000E+00  0.93967225133E+03  0.93967225134E+03  0.25500000920E-02 0. -1.
       -2   -1    0    0    0  501  0.00000000000E+00  0.00000000000E+00 -0.29351015983E+04  0.29351015983E+04  0.25500000920E-02 0.  1.
    10030    2    1    2    0    0  0.00000000000E+00  0.00000000000E+00 -0.19954293470E+04  0.38747738497E+04  0.33214656565E+04 0.  0.
        3    1    3    3  502    0  0.74390145855E+03  0.10494175496E+03 -0.27255343575E+04  0.28271787521E+04  0.10100000352E+00 0.  1.
       -3    1    3    3    0  502 -0.74390145855E+03 -0.10494175496E+03  0.73010501051E+03  0.10475950976E+04  0.10100000352E+00 0. -1.
</event>
<event>
 5   0  0.2658600E-06  0.3301299E+04  0.7818609E-02  0.8162565E-01
        2   -1    0    0  501    0  0.00000000000E+00  0.00000000000E+00  0.13564186529E+04  0.13564186529E+04  0.25500000920E-02 0.  1.
       -2   -1    0    0    0  501  0.00000000000E+00  0.00000000000E+00 -0.20087036050E+04  0.20087036050E+04  0.25500000920E-02 0. -1.
    10030    2    1    2    0    0  0.00000000000E+00  0.00000000000E+00 -0.65228495209E+03  0.33651222579E+04  0.33012985554E+04 0.  0.
        5    1    3    3  502    0 -0.15744239581E+03 -0.15972194487E+04  0.66959229459E+02  0.16063635030E+04  0.46999998093E+01 0.  1.
       -5    1    3    3    0  502  0.15744239581E+03  0.15972194487E+04 -0.71924418155E+03  0.17587587549E+04  0.46999998093E+01 0. -1.
</event>
<event>
 5   0  0.8705956E-07  0.3253428E+04  0.7818609E-02  0.8174848E-01
       -1   -1    0    0    0  501  0.00000000000E+00  0.00000000000E+00  0.22475432877E+04  0.22475432877E+04  0.50400001928E-02 0.  1.
        1   -1    0    0  501    0  0.00000000000E+00  0.00000000000E+00 -0.11773738291E+04  0.11773738291E+04  0.50400001928E-02 0. -1.
    10030    2    1    2    0    0  0.00000000000E+00  0.00000000000E+00  0.10701694586E+04  0.34249171169E+04  0.32534281285E+04 0.  0.
        2    1    3    3  502    0  0.77598593414E+03  0.13639291057E+04  0.83839195339E+02  0.15714597628E+04  0.25500000920E-02 0.  1.
       -2    1    3    3    0  502 -0.77598593414E+03 -0.13639291057E+04  0.98633026325E+03  0.18534573541E+04  0.25500000920E-02 0. -1.
</event>
<event>
 5   0  0.2674551E-06  0.3163181E+04  0.7818609E-02  0.8198609E-01
       -2   -1    0    0    0  501  0.00000000000E+00  0.00000000000E+00  0.98257645890E+03  0.98257645890E+03  0.25500000920E-02 0.  1.
        2   -1    0    0  501    0  0.00000000000E+00  0.00000000000E+00 -0.25457846703E+04  0.25457846703E+04  0.25500000920E-02 0. -1.
    10030    2    1    2    0    0  0.00000000000E+00  0.00000000000E+00 -0.15632082114E+04  0.35283611292E+04  0.31631807324E+04 0.  0.
        3    1    3    3  502    0  0.12085803806E+04 -0.40883544019E+03 -0.18241833963E+04  0.22260858085E+04  0.10100000352E+00 0. -1.
       -3    1    3    3    0  502 -0.12085803806E+04  0.40883544019E+03  0.26097518485E+03  0.13022753207E+04  0.10100000352E+00 0.  1.
</event>
<event>
 5   0  0.2614212E-06  0.3284017E+04  0.7818609E-02  0.8166974E-01
       -2   -1    0    0    0  501  0.00000000000E+00  0.00000000000E+00  0.12893537375E+04  0.12893537375E+04  0.25500000920E-02 0.  1.
        2   -1    0    0  501    0  0.00000000000E+00  0.00000000000E+00 -0.20911184352E+04  0.20911184352E+04  0.25500000920E-02 0. -1.
    10030    2    1    2    0    0  0.00000000000E+00  0.00000000000E+00 -0.80176469765E+03  0.33804721727E+04  0.32840166687E+04 0.  0.
        2    1    3    3  502    0 -0.61191606839E+03 -0.35727454265E+03 -0.19256396292E+04  0.20518709401E+04  0.25500000920E-02 0. -1.
       -2    1    3    3    0  502  0.61191606839E+03  0.35727454265E+03  0.11238749315E+04  0.13286012326E+04  0.25500000920E-02 0.  1.
</event>
<event>
 5   0  0.2674551E-06  0.3305077E+04  0.7818609E-02  0.8161605E-01
       -2   -1    0    0    0  501  0.00000000000E+00  0.00000000000E+00  0.17298257960E+04  0.17298257960E+04  0.25500000920E-02 0. -1.
        2   -1    0    0  501    0  0.00000000000E+00  0.00000000000E+00 -0.15787045941E+04  0.15787045941E+04  0.25500000920E-02 0.  1.
    10030    2    1    2    0    0  0.00000000000E+00  0.00000000000E+00  0.15112120196E+03  0.33085303901E+04  0.33050772645E+04 0.  0.
        3    1    3    3  502    0 -0.98724732481E+03  0.11422095631E+04  0.74826266885E+03  0.16849916908E+04  0.10100000352E+00 0. -1.
       -3    1    3    3    0  502  0.98724732481E+03 -0.11422095631E+04 -0.59714146689E+03  0.16235386993E+04  0.10100000352E+00 0.  1.
</event>
<event>
 5   0  0.8705956E-07  0.3346143E+04  0.7818609E-02  0.8151253E-01
       -1   -1    0    0    0  501  0.00000000000E+00  0.00000000000E+00  0.12501712332E+04  0.12501712332E+04  0.50400001928E-02 0.  1.
        1   -1    0    0  501    0  0.00000000000E+00  0.00000000000E+00 -0.22390281174E+04  0.22390281174E+04  0.50400001928E-02 0. -1.
    10030    2    1    2    0    0  0.00000000000E+00  0.00000000000E+00 -0.98885688426E+03  0.34891993506E+04  0.33461431785E+04 0.  0.
        2    1    3    3  502    0 -0.88359834921E+03  0.12785820906E+04  0.15144742144E+03  0.15615551628E+04  0.25500000920E-02 0.  1.
       -2    1    3    3    0  502  0.88359834921E+03 -0.12785820906E+04 -0.11403043057E+04  0.19276441878E+04  0.25500000920E-02 0. -1.
</event>
<event>
 5   0  0.2614212E-06  0.3346110E+04  0.7818609E-02  0.8151261E-01
       -2   -1    0    0    0  501  0.00000000000E+00  0.00000000000E+00  0.12306599798E+04  0.12306599798E+04  0.25500000920E-02 0. -1.
        2   -1    0    0  501    0  0.00000000000E+00  0.00000000000E+00 -0.22744818721E+04  0.22744818721E+04  0.25500000920E-02 0.  1.
    10030    2    1    2    0    0  0.00000000000E+00  0.00000000000E+00 -0.10438218924E+04  0.35051418519E+04  0.33461104673E+04 0.  0.
        2    1    3    3  502    0  0.10801504594E+04 -0.12373381163E+04 -0.85545122755E+03  0.18518983319E+04  0.25500000920E-02 0.  1.
       -2    1    3    3    0  502 -0.10801504594E+04  0.12373381163E+04 -0.18837066483E+03  0.16532435200E+04  0.25500000920E-02 0. -1.
</event>
<event>
 5   0  0.9295663E-07  0.3300365E+04  0.7818609E-02  0.8162802E-01
        1   -1    0    0  501    0  0.00000000000E+00  0.00000000000E+00  0.18363837495E+04  0.18363837495E+04  0.50400001928E-02 0. -1.
       -1   -1    0    0    0  501  0.00000000000E+00  0.00000000000E+00 -0.14828616023E+04  0.14828616023E+04  0.50400001928E-02 0.  1.
    10030    2    1    2    0    0  0.00000000000E+00  0.00000000000E+00  0.35352214719E+03  0.33192453518E+04  0.33003654036E+04 0.  0.
        4    1    3    3  502    0  0.48171171271E+03  0.45363686511E+03  0.16971194490E+04  0.18215511568E+04  0.12699999809E+01 0. -1.
       -4    1    3    3    0  502 -0.48171171271E+03 -0.45363686511E+03 -0.13435973018E+04  0.14976941951E+04  0.12699999809E+01 0.  1.
</event>
<event>
 5   0  0.9295663E-07  0.3319484E+04  0.7818609E-02  0.8157955E-01
       -1   -1    0    0    0  501  0.00000000000E+00  0.00000000000E+00  0.17684203923E+04  0.17684203923E+04  0.50400001928E-02 0. -1.
        1   -1    0    0  501    0  0.00000000000E+00  0.00000000000E+00 -0.15577427574E+04  0.15577427574E+04  0.50400001928E-02 0.  1.
    10030    2    1    2    0    0  0.00000000000E+00  0.00000000000E+00  0.21067763492E+03  0.33261631497E+04  0.33194843324E+04 0.  0.
        4    1    3    3  502    0  0.76689793800E+03  0.97707334913E+03  0.12084341998E+04  0.17329511260E+04  0.12699999809E+01 0. -1.
       -4    1    3    3    0  502 -0.76689793800E+03 -0.97707334913E+03 -0.99775656490E+03  0.15932120237E+04  0.12699999809E+01 0.  1.
</event>
<event>
 5   0  0.2574803E-06  0.3326473E+04  0.7818609E-02  0.8156192E-01
       -2   -1    0    0    0  501  0.00000000000E+00  0.00000000000E+00  0.18081821884E+04  0.18081821884E+04  0.25500000920E-02 0. -1.
        2   -1    0    0  501    0  0.00000000000E+00  0.00000000000E+00 -0.15299096455E+04  0.15299096455E+04  0.25500000920E-02 0.  1.
    10030    2    1    2    0    0  0.00000000000E+00  0.00000000000E+00  0.27827254286E+03  0.33380918339E+04  0.33264728292E+04 0.  0.
        4    1    3    3  502    0 -0.90892023823E+03 -0.13746788600E+04  0.36458919135E+03  0.16878402942E+04  0.12699999809E+01 0. -1.
       -4    1    3    3    0  502  0.90892023823E+03  0.13746788600E+04 -0.86316648493E+02  0.16502515397E+04  0.12699999809E+01 0.  1.
</event>
<event>
 5   0  0.9268670E-07  0.3249956E+04  0.7818609E-02  0.8175747E-01
        1   -1    0    0  501    0  0.00000000000E+00  0.00000000000E+00  0.19428138425E+04  0.19428138425E+04  0.50400001928E-02 0. -1.
       -1   -1    0    0    0  501  0.00000000000E+00  0.00000000000E+00 -0.13591387382E+04  0.13591387382E+04  0.50400001928E-02 0.  1.
    10030    2    1    2    0    0  0.00000000000E+00  0.00000000000E+00  0.58367510424E+03  0.33019525807E+04  0.32499560333E+04 0.  0.
        3    1    3    3  502    0  0.14389746115E+04  0.31801806803E+03  0.98745954962E+03  0.17739390622E+04  0.10100000352E+00 0. -1.
       -3    1    3    3    0  502 -0.14389746115E+04 -0.31801806803E+03 -0.40378444539E+03  0.15280135185E+04  0.10100000352E+00 0.  1.
</event>
<event>
 5   0  0.8705956E-07  0.3395225E+04  0.7818609E-02  0.8139079E-01
        1   -1    0    0  501    0  0.00000000000E+00  0.00000000000E+00  0.12884186846E+04  0.12884186846E+04  0.50400001928E-02 0. -1.
       -1   -1    0    0    0  501  0.00000000000E+00  0.00000000000E+00 -0.22367632828E+04  0.22367632828E+04  0.50400001928E-02 0.  1.
    10030    2    1    2    0    0  0.00000000000E+00  0.00000000000E+00 -0.94834459825E+03  0.35251819674E+04  0.33952246503E+04 0.  0.
        2    1    3    3  502    0 -0.11988842872E+04  0.10773715935E+04 -0.10273257583E+04  0.19114003501E+04  0.25500000920E-02 0.  1.
       -2    1    3    3    0  502  0.11988842872E+04 -0.10773715935E+04  0.78981160028E+02  0.16137816173E+04  0.25500000920E-02 0. -1.
</event>
<event>
 5   0  0.2674551E-06  0.3303509E+04  0.7818609E-02  0.8162003E-01
        2   -1    0    0  501    0  0.00000000000E+00  0.00000000000E+00  0.21553401585E+04  0.21553401585E+04  0.25500000920E-02 0.  1.
       -2   -1    0    0    0  501  0.00000000000E+00  0.00000000000E+00 -0.12658291075E+04  0.12658291075E+04  0.25500000920E-02 0. -1.
    10030    2    1    2    0    0  0.00000000000E+00  0.00000000000E+00  0.88951105099E+03  0.34211692660E+04  0.33035086252E+04 0.  0.
        3    1    3    3  502    0 -0.11721354876E+04  0.76517062395E+03  0.13528590271E+04  0.19466934125E+04  0.10100000352E+00 0.  1.
       -3    1    3    3    0  502  0.11721354876E+04 -0.76517062395E+03 -0.46334797608E+03  0.14744758534E+04  0.10100000352E+00 0. -1.
</event>
<event>
 5   0  0.2674551E-06  0.3291267E+04  0.7818609E-02  0.8165121E-01
       -2   -1    0    0    0  501  0.00000000000E+00  0.00000000000E+00  0.18367108263E+04  0.18367108263E+04  0.25500000920E-02 0. -1.
        2   -1    0    0  501    0  0.00000000000E+00  0.00000000000E+00 -0.14744345773E+04  0.14744345773E+04  0.25500000920E-02 0.  1.
    10030    2    1    2    0    0  0.00000000000E+00  0.00000000000E+00  0.36227624905E+03  0.33111454036E+04  0.32912672032E+04 0.  0.
        3    1    3    3  502    0 -0.56753191093E+03 -0.13660736842E+04 -0.54422985193E+03  0.15762093524E+04  0.10100000352E+00 0. -1.
       -3    1    3    3    0  502  0.56753191093E+03  0.13660736842E+04  0.90650610097E+03  0.17349360512E+04  0.10100000352E+00 0.  1.
</event>
<event>
 5   0  0.2574803E-06  0.3464298E+04  0.7818609E-02  0.8122303E-01
       -2   -1    0    0    0  501  0.00000000000E+00  0.00000000000E+00  0.16578252690E+04  0.16578252690E+04  0.25500000920E-02 0.  1.
        2   -1    0    0  501    0  0.00000000000E+00  0.00000000000E+00 -0.18098047518E+04  0.18098047518E+04  0.25500000920E-02 0. -1.
    10030    2    1    2    0    0  0.00000000000E+00  0.00000000000E+00 -0.15197948285E+03  0.34676300208E+04  0.34642979372E+04 0.  0.
        4    1    3    3  502    0  0.80652876422E+03 -0.67690206289E+02 -0.16088894501E+04  0.18009990247E+04  0.12699999809E+01 0. -1.
       -4    1    3    3    0  502 -0.80652876422E+03  0.67690206289E+02  0.14569099672E+04  0.16666309961E+04  0.12699999809E+01 0.  1.
</event>
<event>
 5   0  0.8845526E-07  0.2382222E+04  0.7818609E-02  0.8446189E-01
        1   -1    0    0  501    0  0.00000000000E+00  0.00000000000E+00  0.17343072676E+04  0.17343072676E+04  0.50400001928E-02 0.  1.
       -1   -1    0    0    0  501  0.00000000000E+00  0.00000000000E+00 -0.81804756316E+03  0.81804756317E+03  0.50400001928E-02 0. -1.
    10030    2    1    2    0    0  0.00000000000E+00  0.00000000000E+00  0.91625970448E+03  0.25523548308E+04  0.23822223524E+04 0.  0.
        1    1    3    3  502    0  0.31024686032E+03  0.28337702032E+03  0.16522631306E+04  0.17048545693E+04  0.50400001928E-02 0.  1.
       -1    1    3    3    0  502 -0.31024686032E+03 -0.28337702032E+03 -0.73600342607E+03  0.84750026148E+03  0.50400001928E-02 0. -1.
</event>
<event>
 5   0  0.2574803E-06  0.3278185E+04  0.7818609E-02  0.8168469E-01
        2   -1    0    0  501    0  0.00000000000E+00  0.00000000000E+00  0.11197825282E+04  0.11197825282E+04  0.25500000920E-02 0.  1.
       -2   -1    0    0    0  501  0.00000000000E+00  0.00000000000E+00 -0.23992374214E+04  0.23992374214E+04  0.25500000920E-02 0. -1.
    10030    2    1    2    0    0  0.00000000000E+00  0.00000000000E+00 -0.12794548932E+04  0.35190199497E+04  0.32781849525E+04 0.  0.
        4    1    3    3  502    0 -0.53046803671E+03 -0.61124325458E+03 -0.21697865974E+04  0.23158130636E+04  0.12699999809E+01 0. -1.
       -4    1    3    3    0  502  0.53046803671E+03  0.61124325458E+03  0.89033170425E+03  0.12032068861E+04  0.12699999809E+01 0.  1.
</event>
<event>
 5   0  0.9268670E-07  0.3284765E+04  0.7818609E-02  0.8166783E-01
        1   -1    0    0  501    0  0.00000000000E+00  0.00000000000E+00  0.26786899277E+04  0.26786899277E+04  0.50400001928E-02 0.  1.
       -1   -1    0    0    0  501  0.00000000000E+00  0.00000000000E+00 -0.10069925553E+04  0.10069925553E+04  0.50400001928E-02 0. -1.
    10030    2    1    2    0    0  0.00000000000E+00  0.00000000000E+00  0.16716973724E+04  0.36856824830E+04  0.32847653281E+04 0.  0.
        3    1    3    3  502    0 -0.29363645152E+02  0.15158476605E+04  0.15444007845E+04  0.21642158272E+04  0.10100000352E+00 0.  1.
       -3    1    3    3    0  502  0.29363645152E+02 -0.15158476605E+04  0.12729658792E+03  0.15214666558E+04  0.10100000352E+00 0. -1.
</event>
<event>
 5   0  0.2674551E-06  0.3231153E+04  0.7818609E-02  0.8180638E-01
       -2   -1    0    0    0  501  0.00000000000E+00  0.00000000000E+00  0.12832086543E+04  0.12832086543E+04  0.25500000920E-02 0.  1.
        2   -1    0    0  501    0  0.00000000000E+00  0.00000000000E+00 -0.20340321361E+04  0.20340321361E+04  0.25500000920E-02 0. -1.
    10030    2    1    2    0    0  0.00000000000E+00  0.00000000000E+00 -0.75082348175E+03  0.33172407904E+04  0.32311531317E+04 0.  0.
        3    1    3    3  502    0 -0.12683021705E+04 -0.86000281042E+03  0.14997717271E+03  0.15397039950E+04  0.10100000352E+00 0.  1.
       -3    1    3    3    0  502  0.12683021705E+04  0.86000281042E+03 -0.90080065447E+03  0.17775367954E+04  0.10100000352E+00 0. -1.
</event>
<event>
 5   0  0.2674551E-06  0.3364663E+04  0.7818609E-02  0.8146634E-01
       -2   -1    0    0    0  501  0.00000000000E+00  0.00000000000E+00  0.12585316080E+04  0.12585316080E+04  0.25500000920E-02 0. -1.
        2   -1    0    0  501    0  0.00000000000E+00  0.00000000000E+00 -0.22488426504E+04  0.22488426504E+04  0.25500000920E-02 0.  1.
    10030    2    1    2    0    0  0.00000000000E+00  0.00000000000E+00 -0.99031104240E+03  0.35073742584E+04  0.33646631670E+04 0.  0.
        3    1    3    3  502    0  0.67660818671E+03  0.80320275758E+03 -0.18651700950E+04  0.21405122755E+04  0.10100000352E+00 0.  1.
       -3    1    3    3    0  502 -0.67660818671E+03 -0.80320275758E+03  0.87485905259E+03  0.13668619829E+04  0.10100000352E+00 0. -1.
</event>
<event>
 5   0  0.8845526E-07  0.3325721E+04  0.7818609E-02  0.8156381E-01
       -1   -1    0    0    0  501  0.00000000000E+00  0.00000000000E+00  0.18797734518E+04  0.18797734518E+04  0.50400001928E-02 0.  1.
        1   -1    0    0  501    0  0.00000000000E+00  0.00000000000E+00 -0.14709781614E+04  0.14709781614E+04  0.50400001928E-02 0. -1.
    10030    2    1    2    0    0  0.00000000000E+00  0.00000000000E+00  0.40879529041E+03  0.33507516132E+04  0.33257213930E+04 0.  0.
        1    1    3    3  502    0  0.80845467313E+03  0.42980043546E+03  0.16029291272E+04  0.18459981473E+04  0.50400001928E-02 0.  1.
       -1    1    3    3    0  502 -0.80845467313E+03 -0.42980043546E+03 -0.11941338368E+04  0.15047534659E+04  0.50400001928E-02 0. -1.
</event>
<event>
 5   0  0.8845526E-07  0.3120847E+04  0.7818609E-02  0.8210040E-01
       -1   -1    0    0    0  501  0.00000000000E+00  0.00000000000E+00  0.13287220109E+04  0.13287220109E+04  0.50400001928E-02 0.  1.
        1   -1    0    0  501    0  0.00000000000E+00  0.00000000000E+00 -0.18325286269E+04  0.18325286269E+04  0.50400001928E-02 0. -1.
    10030    2    1    2    0    0  0.00000000000E+00  0.00000000000E+00 -0.50380661592E+03  0.31612506378E+04  0.31208467583E+04 0.  0.
        1    1    3    3  502    0  0.11623058745E+04 -0.86230734452E+03  0.33908147477E+03  0.14864404289E+04  0.50400001928E-02 0.  1.
       -1    1    3    3    0  502 -0.11623058745E+04  0.86230734452E+03 -0.84288809069E+03  0.16748102089E+04  0.50400001928E-02 0. -1.
</event>
<event>
 5   0  0.2705859E-06  0.3386915E+04  0.7818609E-02  0.8141125E-01
        2   -1    0    0  501    0  0.00000000000E+00  0.00000000000E+00  0.24600511483E+04  0.24600511483E+04  0.25500000920E-02 0. -1.
       -2   -1    0    0    0  501  0.00000000000E+00  0.00000000000E+00 -0.11657471625E+04  0.11657471625E+04  0.25500000920E-02 0.  1.
    10030    2    1    2    0    0  0.00000000000E+00  0.00000000000E+00  0.12943039859E+04  0.36257983108E+04  0.33869146111E+04 0.  0.
        1    1    3    3  502    0  0.60858669871E+03 -0.14929630049E+04  0.92454185029E+02  0.16148882562E+04  0.50400001928E-02 0.  1.
       -1    1    3    3    0  502 -0.60858669871E+03  0.14929630049E+04  0.12018498009E+04  0.20109100546E+04  0.50400001928E-02 0. -1.
</event>
<event>
 5   0  0.9295663E-07  0.2889328E+04  0.7818609E-02  0.8276060E-01
       -1   -1    0    0    0  501  0.00000000000E+00  0.00000000000E+00  0.10401445877E+04  0.10401445877E+04  0.50400001928E-02 0. -1.
        1   -1    0    0  501    0  0.00000000000E+00  0.00000000000E+00 -0.20065043231E+04  0.20065043231E+04  0.50400001928E-02 0.  1.
    10030    2    1    2    0    0  0.00000000000E+00  0.00000000000E+00 -0.96635973542E+03  0.30466489108E+04  0.28893283731E+04 0.  0.
        4    1    3    3  502    0  0.10602750670E+04 -0.78435091399E+03 -0.11049144289E+04  0.17205310465E+04  0.12699999809E+01 0.  1.
       -4    1    3    3    0  502 -0.10602750670E+04  0.78435091399E+03  0.13855469347E+03  0.13261178643E+04  0.12699999809E+01 0. -1.
</event>
<event>
 5   0  0.2658600E-06  0.3279707E+04  0.7818609E-02  0.8168078E-01
       -2   -1    0    0    0  501  0.00000000000E+00  0.00000000000E+00  0.12524318036E+04  0.12524318036E+04  0.25500000920E-02 0.  1.
        2   -1    0    0  501    0  0.00000000000E+00  0.00000000000E+00 -0.21471187423E+04  0.21471187423E+04  0.25500000920E-02 0. -1.
    10030    2    1    2    0    0  0.00000000000E+00  0.00000000000E+00 -0.89468693864E+03  0.33995505459E+04  0.32797071814E+04 0.  0.
        5    1    3    3  502    0 -0.13666386501E+04  0.31951176598E+03 -0.13264552517E+04  0.19311381601E+04  0.46999998093E+01 0. -1.
       -5    1    3    3    0  502  0.13666386501E+04 -0.31951176598E+03  0.43176831308E+03  0.14684123858E+04  0.46999998093E+01 0.  1.
</event>
<event>
 5   0  0.8705956E-07  0.3305208E+04  0.7818609E-02  0.8161571E-01
       -1   -1    0    0    0  501  0.00000000000E+00  0.00000000000E+00  0.12003650693E+04  0.12003650693E+04  0.50400001928E-02 0. -1.
        1   -1    0    0  501    0  0.00000000000E+00  0.00000000000E+00 -0.22752245927E+04  0.22752245927E+04  0.50400001928E-02 0.  1.
    10030    2    1    2    0    0  0.00000000000E+00  0.00000000000E+00 -0.10748595235E+04  0.34755896620E+04  0.33052080878E+04 0.  0.
        2    1    3    3  502    0  0.59433467805E+03  0.75490448808E+03  0.87649785500E+03  0.13005241195E+04  0.25500000920E-02 0. -1.
       -2    1    3    3    0  502 -0.59433467805E+03 -0.75490448808E+03 -0.19513573784E+04  0.21750655425E+04  0.25500000920E-02 0.  1.
</event>
<event>
 5   0  0.9530268E-07  0.3425853E+04  0.7818609E-02  0.8131590E-01
        1   -1    0    0  501    0  0.00000000000E+00  0.00000000000E+00  0.15248441695E+04  0.15248441695E+04  0.50400001928E-02 0. -1.
       -1   -1    0    0    0  501  0.00000000000E+00  0.00000000000E+00 -0.19242084516E+04  0.19242084516E+04  0.50400001928E-02 0.  1.
    10030    2    1    2    0    0  0.00000000000E+00  0.00000000000E+00 -0.39936428209E+03  0.34490526211E+04  0.34258534926E+04 0.  0.
        5    1    3    3  502    0 -0.52125239407E+03  0.16236295579E+04 -0.36662973634E+02  0.17056503930E+04  0.46999998093E+01 0. -1.
       -5    1    3    3    0  502  0.52125239407E+03 -0.16236295579E+04 -0.36270130845E+03  0.17434022280E+04  0.46999998093E+01 0.  1.
</event>
<event>
 5   0  0.8845526E-07  0.3264922E+04  0.7818609E-02  0.8171879E-01
       -1   -1    0    0    0  501  0.00000000000E+00  0.00000000000E+00  0.11649674039E+04  0.11649674039E+04  0.50400001928E-02 0. -1.
        1   -1    0    0  501    0  0.00000000000E+00  0.00000000000E+00 -0.22875563747E+04  0.22875563747E+04  0.50400001928E-02 0.  1.
    10030    2    1    2    0    0  0.00000000000E+00  0.00000000000E+00 -0.11225889708E+04  0.34525237786E+04  0.32649218130E+04 0.  0.
        1    1    3    3  502    0 -0.17044559008E+03 -0.13422149245E+04  0.40461045334E+03  0.14121976567E+04  0.50400001928E-02 0. -1.
       -1    1    3    3    0  502  0.17044559008E+03  0.13422149245E+04 -0.15271994241E+04  0.20403261219E+04  0.50400001928E-02 0.  1.
</event>
<event>
 5   0  0.2658600E-06  0.3209370E+04  0.7818609E-02  0.8186347E-01
        2   -1    0    0  501    0  0.00000000000E+00  0.00000000000E+00  0.22764547624E+04  0.22764547624E+04  0.25500000920E-02 0.  1.
       -2   -1    0    0    0  501  0.00000000000E+00  0.00000000000E+00 -0.11311507682E+04  0.11311507682E+04  0.25500000920E-02 0. -1.
    10030    2    1    2    0    0  0.00000000000E+00  0.00000000000E+00  0.11453039942E+04  0.34076055306E+04  0.32093697532E+04 0.  0.
        5    1    3    3  502    0 -0.13652393258E+04 -0.53972903658E+03  0.12605969360E+04  0.19350226290E+04  0.46999998093E+01 0.  1.
       -5    1    3    3    0  502  0.13652393258E+04  0.53972903658E+03 -0.11529294173E+03  0.14725829016E+04  0.46999998093E+01 0. -1.
</event>
<event>
 5   0  0.8705956E-07  0.3330513E+04  0.7818609E-02  0.8155174E-01
       -1   -1    0    0    0  501  0.00000000000E+00  0.00000000000E+00  0.30338570142E+04  0.30338570142E+04  0.50400001928E-02 0.  1.
        1   -1    0    0  501    0  0.00000000000E+00  0.00000000000E+00 -0.91404408386E+03  0.91404408388E+03  0.50400001928E-02 0. -1.
    10030    2    1    2    0    0  0.00000000000E+00  0.00000000000E+00  0.21198129303E+04  0.39479010980E+04  0.33305129065E+04 0.  0.
        2    1    3    3  502    0 -0.55971300354E+03 -0.50376110886E+03  0.28205051510E+04  0.29192984103E+04  0.25500000920E-02 0.  1.
       -2    1    3    3    0  502  0.55971300354E+03  0.50376110886E+03 -0.70069222073E+03  0.10286026878E+04  0.25500000920E-02 0. -1.
</event>
<event>
 5   0  0.9268670E-07  0.3190300E+04  0.7818609E-02  0.8191384E-01
       -1   -1    0    0    0  501  0.00000000000E+00  0.00000000000E+00  0.14507559765E+04  0.14507559765E+04  0.50400001928E-02 0.  1.
        1   -1    0    0  501    0  0.00000000000E+00  0.00000000000E+00 -0.17539154050E+04  0.17539154050E+04  0.50400001928E-02 0. -1.
    10030    2    1    2    0    0  0.00000000000E+00  0.00000000000E+00 -0.30315942850E+03  0.32046713816E+04  0.31902998331E+04 0.  0.
        3    1    3    3  502    0 -0.83410696900E+03 -0.26994716473E+03 -0.14902108711E+04  0.17289691606E+04  0.10100000352E+00 0. -1.
       -3    1    3    3    0  502  0.83410696900E+03  0.26994716473E+03  0.11870514426E+04  0.14757022210E+04  0.10100000352E+00 0.  1.
</event>
<event>
 5   0  0.2674551E-06  0.3319998E+04  0.7818609E-02  0.8157826E-01
        2   -1    0    0  501    0  0.00000000000E+00  0.00000000000E+00  0.14389182115E+04  0.14389182115E+04  0.25500000920E-02 0.  1.
       -2   -1    0    0    0  501  0.00000000000E+00  0.00000000000E+00 -0.19150471224E+04  0.19150471224E+04  0.25500000920E-02 0. -1.
    10030    2    1    2    0    0  0.00000000000E+00  0.00000000000E+00 -0.47612891082E+03  0.33539653339E+04  0.33199976990E+04 0.  0.
        3    1    3    3  502    0 -0.41885174934E+03 -0.29405187214E+03  0.13572351924E+04  0.14505139327E+04  0.10100000352E+00 0.  1.
       -3    1    3    3    0  502  0.41885174934E+03  0.29405187214E+03 -0.18333641032E+04  0.19034514012E+04  0.10100000352E+00 0. -1.
</event>
<event>
 5   0  0.2658600E-06  0.3321430E+04  0.7818609E-02  0.8157464E-01
        2   -1    0    0  501    0  0.00000000000E+00  0.00000000000E+00  0.22388509805E+04  0.22388509805E+04  0.25500000920E-02 0.  1.
       -2   -1    0    0    0  501  0.00000000000E+00  0.00000000000E+00 -0.12318704318E+04  0.12318704318E+04  0.25500000920E-02 0. -1.
    10030    2    1    2    0    0  0.00000000000E+00  0.00000000000E+00  0.10069805487E+04  0.34707214123E+04  0.33214300078E+04 0.  0.
        5    1    3    3  502    0 -0.78538406285E+03  0.78229107042E+02  0.20303320308E+04  0.21783521673E+04  0.46999998093E+01 0.  1.
       -5    1    3    3    0  502  0.78538406285E+03 -0.78229107042E+02 -0.10233514822E+04  0.12923692450E+04  0.46999998093E+01 0. -1.
</event>
<event>
 5   0  0.2705859E-06  0.3315787E+04  0.7818609E-02  0.8158890E-01
        2   -1    0    0  501    0  0.00000000000E+00  0.00000000000E+00  0.16555840298E+04  0.16555840298E+04  0.25500000920E-02 0.  1.
       -2   -1    0    0    0  501  0.00000000000E+00  0.00000000000E+00 -0.16602063774E+04  0.16602063774E+04  0.25500000920E-02 0. -1.
    10030    2    1    2    0    0  0.00000000000E+00  0.00000000000E+00 -0.46223475318E+01  0.33157904072E+04  0.33157871854E+04 0.  0.
        1    1    3    3  502    0 -0.37717240414E+02  0.10975940026E+04  0.12396545976E+04  0.16561638525E+04  0.50400001928E-02 0.  1.
       -1    1    3    3    0  502  0.37717240414E+02 -0.10975940026E+04 -0.12442769452E+04  0.16596265547E+04  0.50400001928E-02 0. -1.
</event>
<event>
 5   0  0.9295663E-07  0.3317195E+04  0.7818609E-02  0.8158534E-01
       -1   -1    0    0    0  501  0.00000000000E+00  0.00000000000E+00  0.14033933176E+04  0.14033933176E+04  0.50400001928E-02 0.  1.
        1   -1    0    0  501    0  0.00000000000E+00  0.00000000000E+00 -0.19602106099E+04  0.19602106100E+04  0.50400001928E-02 0. -1.
    10030    2    1    2    0    0  0.00000000000E+00  0.00000000000E+00 -0.55681729233E+03  0.33636039276E+04  0.33171954848E+04 0.  0.
        4    1    3    3  502    0  0.26472240835E+03 -0.96289216474E+03 -0.16212111047E+04  0.19040919971E+04  0.12699999809E+01 0. -1.
       -4    1    3    3    0  502 -0.26472240835E+03  0.96289216474E+03  0.10643938124E+04  0.14595119305E+04  0.12699999809E+01 0.  1.
</event>
<event>
 5   0  0.9530268E-07  0.3186082E+04  0.7818609E-02  0.8192503E-01
       -1   -1    0    0    0  501  0.00000000000E+00  0.00000000000E+00  0.17360971515E+04  0.17360971515E+04  0.50400001928E-02 0.  1.
        1   -1    0    0  501    0  0.00000000000E+00  0.00000000000E+00 -0.14617729883E+04  0.14617729883E+04  0.50400001928E-02 0. -1.
    10030    2    1    2    0    0  0.00000000000E+00  0.00000000000E+00  0.27432416323E+03  0.31978701398E+04  0.31860821842E+04 0.  0.
        5    1    3    3  502    0 -0.10685408319E+04 -0.70908126923E+03  0.10857418314E+04  0.16803074630E+04  0.46999998093E+01 0.  1.
       -5    1    3    3    0  502  0.10685408319E+04  0.70908126923E+03 -0.81141766815E+03  0.15175626768E+04  0.46999998093E+01 0. -1.
</event>
<event>
 5   0  0.9268670E-07  0.2600569E+04  0.7818609E-02  0.8368008E-01
       -1   -1    0    0    0  501  0.00000000000E+00  0.00000000000E+00  0.10735098817E+04  0.10735098817E+04  0.50400001928E-02 0.  1.
        1   -1    0    0  501    0  0.00000000000E+00  0.00000000000E+00 -0.15749644211E+04  0.15749644211E+04  0.50400001928E-02 0. -1.
    10030    2    1    2    0    0  0.00000000000E+00  0.00000000000E+00 -0.50145453945E+03  0.26484743028E+04  0.26005690680E+04 0.  0.
        3    1    3    3  502    0  0.10882720342E+04 -0.41894437676E+03 -0.83655352224E+03  0.14351558163E+04  0.10100000352E+00 0.  1.
       -3    1    3    3    0  502 -0.10882720342E+04  0.41894437676E+03  0.33509898280E+03  0.12133184865E+04  0.10100000352E+00 0. -1.
</event>
<event>
 5   0  0.2614212E-06  0.3283558E+04  0.7818609E-02  0.8167092E-01
       -2   -1    0    0    0  501  0.00000000000E+00  0.00000000000E+00  0.17811241762E+04  0.17811241762E+04  0.25500000920E-02 0.  1.
        2   -1    0    0  501    0  0.00000000000E+00  0.00000000000E+00 -0.15133354528E+04  0.15133354528E+04  0.25500000920E-02 0. -1.
    10030    2    1    2    0    0  0.00000000000E+00  0.00000000000E+00  0.26778872338E+03  0.32944596291E+04  0.32835580469E+04 0.  0.
        2    1    3    3  502    0  0.25078118002E+03 -0.15866905516E+04  0.47407794459E+03  0.16748814897E+04  0.25500000920E-02 0.  1.
       -2    1    3    3    0  502 -0.25078118002E+03  0.15866905516E+04 -0.20628922121E+03  0.16195781394E+04  0.25500000920E-02 0. -1.
</event>
<event>
 5   0  0.9268670E-07  0.3333351E+04  0.7818609E-02  0.8154461E-01
       -1   -1    0    0    0  501  0.00000000000E+00  0.00000000000E+00  0.13296643398E+04  0.13296643398E+04  0.50400001928E-02 0. -1.
        1   -1    0    0  501    0  0.00000000000E+00  0.00000000000E+00 -0.20891036938E+04  0.20891036938E+04  0.50400001928E-02 0.  1.
    10030    2    1    2    0    0  0.00000000000E+00  0.00000000000E+00 -0.75943935399E+03  0.34187680337E+04  0.33333506770E+04 0.  0.
        3    1    3    3  502    0  0.93285651195E+03 -0.76467718840E+03 -0.15593464472E+04  0.19714243142E+04  0.10100000352E+00 0.  1.
       -3    1    3    3    0  502 -0.93285651195E+03  0.76467718840E+03  0.79990709316E+03  0.14473437194E+04  0.10100000352E+00 0. -1.
</event>
<event>
 5   0  0.8705956E-07  0.3301763E+04  0.7818609E-02  0.8162447E-01
        1   -1    0    0  501    0  0.00000000000E+00  0.00000000000E+00  0.30573070024E+04  0.30573070024E+04  0.50400001928E-02 0.  1.
       -1   -1    0    0    0  501  0.00000000000E+00  0.00000000000E+00 -0.89144142864E+03  0.89144142865E+03  0.50400001928E-02 0. -1.
    10030    2    1    2    0    0  0.00000000000E+00  0.00000000000E+00  0.21658655738E+04  0.39487484311E+04  0.33017632393E+04 0.  0.
        2    1    3    3  502    0 -0.27157269168E+03 -0.15062927747E+04  0.34304521489E+03  0.15685501808E+04  0.25500000920E-02 0. -1.
       -2    1    3    3    0  502  0.27157269168E+03  0.15062927747E+04  0.18228203589E+04  0.23801982503E+04  0.25500000920E-02 0.  1.
</event>
<event>
 5   0  0.9295663E-07  0.3053742E+04  0.7818609E-02  0.8228549E-01
        1   -1    0    0  501    0  0.00000000000E+00  0.00000000000E+00  0.17875768355E+04  0.17875768355E+04  0.50400001928E-02 0. -1.
       -1   -1    0    0    0  501  0.00000000000E+00  0.00000000000E+00 -0.13041874045E+04  0.13041874045E+04  0.50400001928E-02 0.  1.
    10030    2    1    2    0    0  0.00000000000E+00  0.00000000000E+00  0.48338943097E+03  0.30917642400E+04  0.30537420935E+04 0.  0.
        4    1    3    3  502    0  0.74201669731E+03  0.13181984708E+04  0.45187913623E+03  0.15787439166E+04  0.12699999809E+01 0.  1.
       -4    1    3    3    0  502 -0.74201669731E+03 -0.13181984708E+04  0.31510294736E+02  0.15130203234E+04  0.12699999809E+01 0. -1.
</event>
<event>
 5   0  0.2705859E-06  0.3316917E+04  0.7818609E-02  0.8158604E-01
        2   -1    0    0  501    0  0.00000000000E+00  0.00000000000E+00  0.22621774643E+04  0.22621774643E+04  0.25500000920E-02 0. -1.
       -2   -1    0    0    0  501  0.00000000000E+00  0.00000000000E+00 -0.12158569870E+04  0.12158569870E+04  0.25500000920E-02 0.  1.
    10030    2    1    2    0    0  0.00000000000E+00  0.00000000000E+00  0.10463204773E+04  0.34780344514E+04  0.33169168069E+04 0.  0.
        1    1    3    3  502    0 -0.52106090214E+03 -0.87796807316E+03  0.18936081761E+04  0.21512982885E+04  0.50400001928E-02 0. -1.
       -1    1    3    3    0  502  0.52106090214E+03  0.87796807316E+03 -0.84728769885E+03  0.13267361629E+04  0.50400001928E-02 0.  1.
</event>
<event>
 5   0  0.2674551E-06  0.3303636E+04  0.7818609E-02  0.8161971E-01
        2   -1    0    0  501    0  0.00000000000E+00  0.00000000000E+00  0.31649568551E+04  0.31649568551E+04  0.25500000920E-02 0.  1.
       -2   -1    0    0    0  501  0.00000000000E+00  0.00000000000E+00 -0.86209791415E+03  0.86209791415E+03  0.25500000920E-02 0. -1.
    10030    2    1    2    0    0  0.00000000000E+00  0.00000000000E+00  0.23028589409E+04  0.40270547692E+04  0.33036359988E+04 0.  0.
        3    1    3    3  502    0  0.12467580232E+03  0.13837244049E+04  0.22405325888E+04  0.26363276685E+04  0.10100000352E+00 0.  1.
       -3    1    3    3    0  502 -0.12467580232E+03 -0.13837244049E+04  0.62326352175E+02  0.13907271007E+04  0.10100000352E+00 0. -1.
</event>
<event>
 5   0  0.8705956E-07  0.3093220E+04  0.7818609E-02  0.8217601E-01
        1   -1    0    0  501    0  0.00000000000E+00  0.00000000000E+00  0.13283751928E+04  0.13283751928E+04  0.50400001928E-02 0. -1.
       -1   -1    0    0    0  501  0.00000000000E+00  0.00000000000E+00 -0.18006973969E+04  0.18006973969E+04  0.50400001928E-02 0.  1.
    10030    2    1    2    0    0  0.00000000000E+00  0.00000000000E+00 -0.47232220414E+03  0.31290725898E+04  0.30932195214E+04 0.  0.
        2    1    3    3  502    0  0.16856391305E+03 -0.15330929332E+04 -0.11987646845E+03  0.15469835495E+04  0.25500000920E-02 0. -1.
       -2    1    3    3    0  502 -0.16856391305E+03  0.15330929332E+04 -0.35244573569E+03  0.15820890403E+04  0.25500000920E-02 0.  1.
</event>
<event>
 5   0  0.9530268E-07  0.3336341E+04  0.7818609E-02  0.8153710E-01
        1   -1    0    0  501    0  0.00000000000E+00  0.00000000000E+00  0.17105346604E+04  0.17105346604E+04  0.50400001928E-02 0.  1.
       -1   -1    0    0    0  501  0.00000000000E+00  0.00000000000E+00 -0.16268552681E+04  0.16268552681E+04  0.50400001928E-02 0. -1.
    10030    2    1    2    0    0  0.00000000000E+00  0.00000000000E+00  0.83679392356E+02  0.33373899285E+04  0.33363407042E+04 0.  0.
        5    1    3    3  502    0  0.59338419717E+03  0.13863429591E+04 -0.67162974645E+03  0.16508059280E+04  0.46999998093E+01 0. -1.
       -5    1    3    3    0  502 -0.59338419717E+03 -0.13863429591E+04  0.75530913881E+03  0.16865840005E+04  0.46999998093E+01 0.  1.
</event>
<event>
 5   0  0.2658600E-06  0.3292845E+04  0.7818609E-02  0.8164718E-01
        2   -1    0    0  501    0  0.00000000000E+00  0.00000000000E+00  0.27601054384E+04  0.27601054384E+04  0.25500000920E-02 0.  1.
       -2   -1    0    0    0  501  0.00000000000E+00  0.00000000000E+00 -0.98210288720E+03  0.98210288720E+03  0.25500000920E-02 0. -1.
    10030    2    1    2    0    0  0.00000000000E+00  0.00000000000E+00  0.17780025512E+04  0.37422083256E+04  0.32928452864E+04 0.  0.
        5    1    3    3  502    0  0.54671959255E+03  0.13961495079E+04  0.16619235476E+04  0.22383359286E+04  0.46999998093E+01 0. -1.
       -5    1    3    3    0  502 -0.54671959255E+03 -0.13961495079E+04  0.11607900363E+03  0.15038723970E+04  0.46999998093E+01 0.  1.
</event>
<event>
 5   0  0.2705859E-06  0.3291025E+04  0.7818609E-02  0.8165183E-01
       -2   -1    0    0    0  501  0.00000000000E+00  0.00000000000E+00  0.12672277448E+04  0.12672277448E+04  0.25500000920E-02 0. -1.
        2   -1    0    0  501    0  0.00000000000E+00  0.00000000000E+00 -0.21367204427E+04  0.21367204427E+04  0.25500000920E-02 0.  1.
    10030    2    1    2    0    0  0.00000000000E+00  0.00000000000E+00 -0.86949269793E+03  0.34039481875E+04  0.32910250244E+04 0.  0.
        1    1    3    3  502    0 -0.83820851887E+03 -0.37849732876E+02 -0.18988320961E+04  0.20759550700E+04  0.50400001928E-02 0.  1.
       -1    1    3    3    0  502  0.83820851887E+03  0.37849732876E+02  0.10293393982E+04  0.13279931175E+04  0.50400001928E-02 0. -1.
</event>
<event>
 5   0  0.8520125E-07  0.3116332E+04  0.7818609E-02  0.8211270E-01
       -3   -1    0    0    0  501  0.00000000000E+00  0.00000000000E+00  0.20381907976E+04  0.20381908001E+04  0.10100000352E+00 0. -1.
        3   -1    0    0  501    0  0.00000000000E+00  0.00000000000E+00 -0.11911944935E+04  0.11911944978E+04  0.10100000352E+00 0.  1.
    10030    2    1    2    0    0  0.00000000000E+00  0.00000000000E+00  0.84699630407E+03  0.32293852979E+04  0.31163322453E+04 0.  0.
        5    1    3    3  502    0 -0.10680668061E+04 -0.45279141915E+03 -0.65446608154E+03  0.13319664836E+04  0.46999998093E+01 0.  1.
       -5    1    3    3    0  502  0.10680668061E+04  0.45279141915E+03  0.15014623856E+04  0.18974188143E+04  0.46999998093E+01 0. -1.
</event>
<event>
 5   0  0.9295663E-07  0.3318316E+04  0.7818609E-02  0.8158251E-01
        1   -1    0    0  501    0  0.00000000000E+00  0.00000000000E+00  0.18325385162E+04  0.18325385163E+04  0.50400001928E-02 0.  1.
       -1   -1    0    0    0  501  0.00000000000E+00  0.00000000000E+00 -0.15021812211E+04  0.15021812211E+04  0.50400001928E-02 0. -1.
    10030    2    1    2    0    0  0.00000000000E+00  0.00000000000E+00  0.33035729512E+03  0.33347197374E+04  0.33183158054E+04 0.  0.
        4    1    3    3  502    0  0.55773012689E+03  0.42835459860E+03  0.16753558185E+04  0.18169670575E+04  0.12699999809E+01 0.  1.
       -4    1    3    3    0  502 -0.55773012689E+03 -0.42835459860E+03 -0.13449985234E+04  0.15177526799E+04  0.12699999809E+01 0. -1.
</event>
<event>
 5   0  0.2574803E-06  0.2726188E+04  0.7818609E-02  0.8326557E-01
       -2   -1    0    0    0  501  0.00000000000E+00  0.00000000000E+00  0.12859485917E+04  0.12859485917E+04  0.25500000920E-02 0.  1.
        2   -1    0    0  501    0  0.00000000000E+00  0.00000000000E+00 -0.14448679318E+04  0.14448679318E+04  0.25500000920E-02 0. -1.
    10030    2    1    2    0    0  0.00000000000E+00  0.00000000000E+00 -0.15891934007E+03  0.27308165235E+04  0.27261884616E+04 0.  0.
        4    1    3    3  502    0 -0.67217402795E+03  0.32086451742E+03 -0.12229984519E+04  0.14319562802E+04  0.12699999809E+01 0. -1.
       -4    1    3    3    0  502  0.67217402795E+03 -0.32086451742E+03  0.10640791118E+04  0.12988602432E+04  0.12699999809E+01 0.  1.
</event>
<event>
 5   0  0.2674551E-06  0.3312913E+04  0.7818609E-02  0.8159618E-01
        2   -1    0    0  501    0  0.00000000000E+00  0.00000000000E+00  0.29702126152E+04  0.29702126152E+04  0.25500000920E-02 0. -1.
       -2   -1    0    0    0  501  0.00000000000E+00  0.00000000000E+00 -0.92378821866E+03  0.92378821866E+03  0.25500000920E-02 0.  1.
    10030    2    1    2    0    0  0.00000000000E+00  0.00000000000E+00  0.20464243965E+04  0.38940008339E+04  0.33129125680E+04 0.  0.
        3    1    3    3  502    0  0.61861723542E+02 -0.85108399886E+03  0.26919822186E+04  0.28239934705E+04  0.10100000352E+00 0. -1.
       -3    1    3    3    0  502 -0.61861723542E+02  0.85108399886E+03 -0.64555782203E+03  0.10700073634E+04  0.10100000352E+00 0.  1.
</event>
<event>
 5   0  0.2658600E-06  0.3275528E+04  0.7818609E-02  0.8169150E-01
        2   -1    0    0  501    0  0.00000000000E+00  0.00000000000E+00  0.14220023066E+04  0.14220023066E+04  0.25500000920E-02 0.  1.
       -2   -1    0    0    0  501  0.00000000000E+00  0.00000000000E+00 -0.18862638628E+04  0.18862638628E+04  0.25500000920E-02 0. -1.
    10030    2    1    2    0    0  0.00000000000E+00  0.00000000000E+00 -0.46426155625E+03  0.33082661694E+04  0.32755283932E+04 0.  0.
        5    1    3    3  502    0 -0.98903269777E+02  0.43376750209E+03  0.13597929785E+04  0.14307323778E+04  0.46999998093E+01 0.  1.
       -5    1    3    3    0  502  0.98903269777E+02 -0.43376750209E+03 -0.18240545348E+04  0.18775337915E+04  0.46999998093E+01 0. -1.
</event>
<event>
 5   0  0.2658600E-06  0.3326581E+04  0.7818609E-02  0.8156164E-01
        2   -1    0    0  501    0  0.00000000000E+00  0.00000000000E+00  0.24533708965E+04  0.24533708965E+04  0.25500000920E-02 0. -1.
       -2   -1    0    0    0  501  0.00000000000E+00  0.00000000000E+00 -0.11276469128E+04  0.11276469128E+04  0.25500000920E-02 0.  1.
    10030    2    1    2    0    0  0.00000000000E+00  0.00000000000E+00  0.13257239838E+04  0.35810178093E+04  0.33265814990E+04 0.  0.
        5    1    3    3  502    0  0.12372901096E+03 -0.52405266104E+03 -0.10312182013E+04  0.11633456616E+04  0.46999998093E+01 0.  1.
       -5    1    3    3    0  502 -0.12372901096E+03  0.52405266104E+03  0.23569421851E+04  0.24176721477E+04  0.46999998093E+01 0. -1.
</event>
<event>
 5   0  0.2658600E-06  0.3169243E+04  0.7818609E-02  0.8196988E-01
        2   -1    0    0  501    0  0.00000000000E+00  0.00000000000E+00  0.13357083384E+04  0.13357083384E+04  0.25500000920E-02 0. -1.
       -2   -1    0    0    0  501  0.00000000000E+00  0.00000000000E+00 -0.18799203797E+04  0.18799203797E+04  0.25500000920E-02 0.  1.
    10030    2    1    2    0    0  0.00000000000E+00  0.00000000000E+00 -0.54421204126E+03  0.32156287181E+04  0.31692430179E+04 0.  0.
        5    1    3    3  502    0 -0.79834605045E+03 -0.76208891064E+03  0.88157921323E+03  0.14125650156E+04  0.46999998093E+01 0.  1.
       -5    1    3    3    0  502  0.79834605045E+03  0.76208891064E+03 -0.14257912545E+04  0.18030637025E+04  0.46999998093E+01 0. -1.
</event>
<event>
 5   0  0.9530268E-07  0.3269174E+04  0.7818609E-02  0.8170784E-01
       -1   -1    0    0    0  501  0.00000000000E+00  0.00000000000E+00  0.23216300600E+04  0.23216300600E+04  0.50400001928E-02 0. -1.
        1   -1    0    0  501    0  0.00000000000E+00  0.00000000000E+00 -0.11508614731E+04  0.11508614731E+04  0.50400001928E-02 0.  1.
    10030    2    1    2    0    0  0.00000000000E+00  0.00000000000E+00  0.11707685869E+04  0.34724915331E+04  0.32691739574E+04 0.  0.
        5    1    3    3  502    0 -0.53943665891E+03 -0.33808323242E+02  0.22239575983E+04  0.22886992814E+04  0.46999998093E+01 0. -1.
       -5    1    3    3    0  502  0.53943665891E+03  0.33808323242E+02 -0.10531890113E+04  0.11837922517E+04  0.46999998093E+01 0.  1.
</event>
<event>
 5   0  0.2705859E-06  0.3395741E+04  0.7818609E-02  0.8138952E-01
       -2   -1    0    0    0  501  0.00000000000E+00  0.00000000000E+00  0.18114336234E+04  0.18114336234E+04  0.25500000920E-02 0.  1.
        2   -1    0    0  501    0  0.00000000000E+00  0.00000000000E+00 -0.15914266968E+04  0.15914266968E+04  0.25500000920E-02 0. -1.
    10030    2    1    2    0    0  0.00000000000E+00  0.00000000000E+00  0.22000692659E+03  0.34028603201E+04  0.33957407602E+04 0.  0.
        1    1    3    3  502    0 -0.86320353933E+03  0.93682461267E+03 -0.10148485906E+04  0.16287045058E+04  0.50400001928E-02 0. -1.
       -1    1    3    3    0  502  0.86320353933E+03 -0.93682461267E+03  0.12348555172E+04  0.17741558144E+04  0.50400001928E-02 0.  1.
</event>
<event>
 5   0  0.8705956E-07  0.3276256E+04  0.7818609E-02  0.8168963E-01
       -1   -1    0    0    0  501  0.00000000000E+00  0.00000000000E+00  0.13714156749E+04  0.13714156749E+04  0.50400001928E-02 0. -1.
        1   -1    0    0  501    0  0.00000000000E+00  0.00000000000E+00 -0.19567109577E+04  0.19567109577E+04  0.50400001928E-02 0.  1.
    10030    2    1    2    0    0  0.00000000000E+00  0.00000000000E+00 -0.58529528284E+03  0.33281266327E+04  0.32762564483E+04 0.  0.
        2    1    3    3  502    0  0.10855161440E+04  0.10439903933E+04 -0.94721163322E+03  0.17791770902E+04  0.25500000920E-02 0.  1.
       -2    1    3    3    0  502 -0.10855161440E+04 -0.10439903933E+04  0.36191635037E+03  0.15489495424E+04  0.25500000920E-02 0. -1.
</event>
<event>
 5   0  0.8705956E-07  0.3319284E+04  0.7818609E-02  0.8158006E-01
       -1   -1    0    0    0  501  0.00000000000E+00  0.00000000000E+00  0.10560932204E+04  0.10560932204E+04  0.50400001928E-02 0. -1.
        1   -1    0    0  501    0  0.00000000000E+00  0.00000000000E+00 -0.26081140774E+04  0.26081140774E+04  0.50400001928E-02 0.  1.
    10030    2    1    2    0    0  0.00000000000E+00  0.00000000000E+00 -0.15520208570E+04  0.36642072978E+04  0.33192840163E+04 0.  0.
        2    1    3    3  502    0 -0.11886109675E+03 -0.73367380054E+03 -0.24141273936E+04  0.25259485898E+04  0.25500000920E-02 0.  1.
       -2    1    3    3    0  502  0.11886109675E+03  0.73367380054E+03  0.86210653657E+03  0.11382587080E+04  0.25500000920E-02 0. -1.
</event>
<event>
 5   0  0.9268670E-07  0.3190637E+04  0.7818609E-02  0.8191294E-01
        1   -1    0    0  501    0  0.00000000000E+00  0.00000000000E+00  0.20755306024E+04  0.20755306024E+04  0.50400001928E-02 0. -1.
       -1   -1    0    0    0  501  0.00000000000E+00  0.00000000000E+00 -0.12262123181E+04  0.12262123181E+04  0.50400001928E-02 0.  1.
    10030    2    1    2    0    0  0.00000000000E+00  0.00000000000E+00  0.84931828432E+03  0.33017429205E+04  0.31906370469E+04 0.  0.
        3    1    3    3  502    0  0.50567342348E+03  0.15097026641E+04  0.52882951320E+03  0.16776675503E+04  0.10100000352E+00 0. -1.
       -3    1    3    3    0  502 -0.50567342348E+03 -0.15097026641E+04  0.32048877113E+03  0.16240753701E+04  0.10100000352E+00 0.  1.
</event>
<event>
 5   0  0.2705859E-06  0.3310946E+04  0.7818609E-02  0.8160116E-01
        2   -1    0    0  501    0  0.00000000000E+00  0.00000000000E+00  0.15491820140E+04  0.15491820140E+04  0.25500000920E-02 0.  1.
       -2   -1    0    0    0  501  0.00000000000E+00  0.00000000000E+00 -0.17690562054E+04  0.17690562054E+04  0.25500000920E-02 0. -1.
    10030    2    1    2    0    0  0.00000000000E+00  0.00000000000E+00 -0.21987419138E+03  0.33182382194E+04  0.33109455176E+04 0.  0.
        1    1    3    3  502    0 -0.23059620139E+03  0.10647604416E+04 -0.13591578773E+04  0.17418953877E+04  0.50400001928E-02 0. -1.
       -1    1    3    3    0  502  0.23059620139E+03 -0.10647604416E+04  0.11392836859E+04  0.15763428317E+04  0.50400001928E-02 0.  1.
</event>
<event>
 5   0  0.9295663E-07  0.2994869E+04  0.7818609E-02  0.8245198E-01
       -1   -1    0    0    0  501  0.00000000000E+00  0.00000000000E+00  0.32234424082E+04  0.32234424082E+04  0.50400001928E-02 0.  1.
        1   -1    0    0  501    0  0.00000000000E+00  0.00000000000E+00 -0.69562605096E+03  0.69562605098E+03  0.50400001928E-02 0. -1.
    10030    2    1    2    0    0  0.00000000000E+00  0.00000000000E+00  0.25278163572E+04  0.39190684591E+04  0.29948692879E+04 0.  0.
        4    1    3    3  502    0  0.12691979594E+04 -0.27148980225E+03  0.28662510198E+03  0.13291823558E+04  0.12699999809E+01 0. -1.
       -4    1    3    3    0  502 -0.12691979594E+04  0.27148980225E+03  0.22411912552E+04  0.25898861033E+04  0.12699999809E+01 0.  1.
</event>
<event>
 5   0  0.9295663E-07  0.3322373E+04  0.7818609E-02  0.8157226E-01
       -1   -1    0    0    0  501  0.00000000000E+00  0.00000000000E+00  0.16139414813E+04  0.16139414813E+04  0.50400001928E-02 0.  1.
        1   -1    0    0  501    0  0.00000000000E+00  0.00000000000E+00 -0.17098141903E+04  0.17098141903E+04  0.50400001928E-02 0. -1.
    10030    2    1    2    0    0  0.00000000000E+00  0.00000000000E+00 -0.95872709031E+02  0.33237556716E+04  0.33223726744E+04 0.  0.
        4    1    3    3  502    0  0.14931553181E+03 -0.66134274276E+03  0.14692268551E+04  0.16181157301E+04  0.12699999809E+01 0.  1.
       -4    1    3    3    0  502 -0.14931553181E+03  0.66134274276E+03 -0.15650995641E+04  0.17056399415E+04  0.12699999809E+01 0. -1.
</event>
<event>
 5   0  0.9530268E-07  0.3188216E+04  0.7818609E-02  0.8191936E-01
       -1   -1    0    0    0  501  0.00000000000E+00  0.00000000000E+00  0.11298604079E+04  0.11298604079E+04  0.50400001928E-02 0. -1.
        1   -1    0    0  501    0  0.00000000000E+00  0.00000000000E+00 -0.22491098124E+04  0.22491098124E+04  0.50400001928E-02 0.  1.
    10030    2    1    2    0    0  0.00000000000E+00  0.00000000000E+00 -0.11192494046E+04  0.33789702203E+04  0.31882158835E+04 0.  0.
        5    1    3    3  502    0 -0.62334525956E+03 -0.13128002394E+04 -0.12539186133E+04  0.19194628832E+04  0.46999998093E+01 0.  1.
       -5    1    3    3    0  502  0.62334525956E+03  0.13128002394E+04  0.13466920869E+03  0.14595073371E+04  0.46999998093E+01 0. -1.
</event>
<event>
 5   0  0.2614212E-06  0.3281576E+04  0.7818609E-02  0.8167599E-01
        2   -1    0    0  501    0  0.00000000000E+00  0.00000000000E+00  0.24218866250E+04  0.24218866250E+04  0.25500000920E-02 0. -1.
       -2   -1    0    0    0  501  0.00000000000E+00  0.00000000000E+00 -0.11116069676E+04  0.11116069676E+04  0.25500000920E-02 0.  1.
    10030    2    1    2    0    0  0.00000000000E+00  0.00000000000E+00  0.13102796574E+04  0.35334935926E+04  0.32815764791E+04 0.  0.
        2    1    3    3  502    0 -0.15607653902E+04  0.26869863984E+03  0.19326010101E+03  0.15954739199E+04  0.25500000920E-02 0.  1.
       -2    1    3    3    0  502  0.15607653902E+04 -0.26869863984E+03  0.11170195564E+04  0.19380196727E+04  0.25500000920E-02 0. -1.
</event>
<event>
 5   0  0.2574803E-06  0.3307940E+04  0.7818609E-02  0.8160878E-01
        2   -1    0    0  501    0  0.00000000000E+00  0.00000000000E+00  0.15709088319E+04  0.15709088319E+04  0.25500000920E-02 0.  1.
       -2   -1    0    0    0  501  0.00000000000E+00  0.00000000000E+00 -0.17414231879E+04  0.17414231879E+04  0.25500000920E-02 0. -1.
    10030    2    1    2    0    0  0.00000000000E+00  0.00000000000E+00 -0.17051435597E+03  0.33123320198E+04  0.33079401844E+04 0.  0.
        4    1    3    3  502    0 -0.15382389059E+04  0.26610821784E+03 -0.63244673053E+03  0.16843345853E+04  0.12699999809E+01 0. -1.
       -4    1    3    3    0  502  0.15382389059E+04 -0.26610821784E+03  0.46193237457E+03  0.16279974345E+04  0.12699999809E+01 0.  1.
</event>
<event>
 5   0  0.2658600E-06  0.2589110E+04  0.7818609E-02  0.8371910E-01
       -2   -1    0    0    0  501  0.00000000000E+00  0.00000000000E+00  0.10104720574E+04  0.10104720574E+04  0.25500000920E-02 0. -1.
        2   -1    0    0  501    0  0.00000000000E+00  0.00000000000E+00 -0.16585046182E+04  0.16585046182E+04  0.25500000920E-02 0.  1.
    10030    2    1    2    0    0  0.00000000000E+00  0.00000000000E+00 -0.64803256077E+03  0.26689766756E+04  0.25891099426E+04 0.  0.
        5    1    3    3  502    0  0.14354431725E+00 -0.91396043466E+03  0.62106696789E+03  0.11050203461E+04  0.46999998093E+01 0. -1.
       -5    1    3    3    0  502 -0.14354431725E+00  0.91396043466E+03 -0.12690995287E+04  0.15639563294E+04  0.46999998093E+01 0.  1.
</event>
<event>
 5   0  0.2674551E-06  0.3174524E+04  0.7818609E-02  0.8195578E-01
       -2   -1    0    0    0  501  0.00000000000E+00  0.00000000000E+00  0.12206234656E+04  0.12206234656E+04  0.25500000920E-02 0. -1.
        2   -1    0    0  501    0  0.00000000000E+00  0.00000000000E+00 -0.20640276964E+04  0.20640276964E+04  0.25500000920E-02 0.  1.
    10030    2    1    2    0    0  0.00000000000E+00  0.00000000000E+00 -0.84340423072E+03  0.32846511620E+04  0.31745239895E+04 0.  0.
        3    1    3    3  502    0 -0.60975952785E+01  0.31467749024E+03 -0.20314170224E+04  0.20556542104E+04  0.10100000352E+00 0.  1.
       -3    1    3    3    0  502  0.60975952785E+01 -0.31467749024E+03  0.11880127917E+04  0.12289969516E+04  0.10100000352E+00 0. -1.
</event>
<event>
 5   0  0.2658600E-06  0.3290029E+04  0.7818609E-02  0.8165437E-01
        2   -1    0    0  501    0  0.00000000000E+00  0.00000000000E+00  0.21477059051E+04  0.21477059051E+04  0.25500000920E-02 0.  1.
       -2   -1    0    0    0  501  0.00000000000E+00  0.00000000000E+00 -0.12599829779E+04  0.12599829779E+04  0.25500000920E-02 0. -1.
    10030    2    1    2    0    0  0.00000000000E+00  0.00000000000E+00  0.88772292724E+03  0.34076888830E+04  0.32900291074E+04 0.  0.
        5    1    3    3  502    0  0.10063805597E+04  0.29810268580E+03  0.17558025237E+04  0.20456127772E+04  0.46999998093E+01 0.  1.
       -5    1    3    3    0  502 -0.10063805597E+04 -0.29810268580E+03 -0.86807959641E+03  0.13620761058E+04  0.46999998093E+01 0. -1.
</event>
<event>
 5   0  0.2614212E-06  0.3365925E+04  0.7818609E-02  0.8146320E-01
        2   -1    0    0  501    0  0.00000000000E+00  0.00000000000E+00  0.22159682005E+04  0.22159682005E+04  0.25500000920E-02 0. -1.
       -2   -1    0    0    0  501  0.00000000000E+00  0.00000000000E+00 -0.12781601727E+04  0.12781601727E+04  0.25500000920E-02 0.  1.
    10030    2    1    2    0    0  0.00000000000E+00  0.00000000000E+00  0.93780802777E+03  0.34941283732E+04  0.33659247157E+04 0.  0.
        2    1    3    3  502    0 -0.90674507501E+03  0.13700065992E+04  0.89955308320E+02  0.16453560923E+04  0.25500000920E-02 0.  1.
       -2    1    3    3    0  502  0.90674507501E+03 -0.13700065992E+04  0.84785271945E+03  0.18487722810E+04  0.25500000920E-02 0. -1.
</event>
<event>
 5   0  0.8845526E-07  0.2807379E+04  0.7818609E-02  0.8300981E-01
        1   -1    0    0  501    0  0.00000000000E+00  0.00000000000E+00  0.21485283689E+04  0.21485283689E+04  0.50400001928E-02 0.  1.
       -1   -1    0    0    0  501  0.00000000000E+00  0.00000000000E+00 -0.91706663106E+03  0.91706663107E+03  0.50400001928E-02 0. -1.
    10030    2    1    2    0    0  0.00000000000E+00  0.00000000000E+00  0.12314617379E+04  0.30655950000E+04  0.28073786158E+04 0.  0.
        1    1    3    3  502    0  0.65187297265E+03 -0.12385644745E+04  0.49932715144E+03  0.14860376624E+04  0.50400001928E-02 0.  1.
       -1    1    3    3    0  502 -0.65187297265E+03  0.12385644745E+04  0.73213458643E+03  0.15795573376E+04  0.50400001928E-02 0. -1.
</event>
<event>
 5   0  0.9295663E-07  0.3256895E+04  0.7818609E-02  0.8173951E-01
        1   -1    0    0  501    0  0.00000000000E+00  0.00000000000E+00  0.19912349567E+04  0.19912349567E+04  0.50400001928E-02 0. -1.
       -1   -1    0    0    0  501  0.00000000000E+00  0.00000000000E+00 -0.13317568244E+04  0.13317568244E+04  0.50400001928E-02 0.  1.
    10030    2    1    2    0    0  0.00000000000E+00  0.00000000000E+00  0.65947813225E+03  0.33229917811E+04  0.32568946821E+04 0.  0.
        4    1    3    3  502    0  0.14537831890E+04 -0.71437018869E+03  0.50055478176E+03  0.16953958327E+04  0.12699999809E+01 0. -1.
       -4    1    3    3    0  502 -0.14537831890E+04  0.71437018869E+03  0.15892335050E+03  0.16275959484E+04  0.12699999809E+01 0.  1.
</event>
<event>
 5   0  0.2574803E-06  0.2790036E+04  0.7818609E-02  0.8306368E-01
       -2   -1    0    0    0  501  0.00000000000E+00  0.00000000000E+00  0.12782160941E+04  0.12782160941E+04  0.25500000920E-02 0. -1.
        2   -1    0    0  501    0  0.00000000000E+00  0.00000000000E+00 -0.15224933266E+04  0.15224933266E+04  0.25500000920E-02 0.  1.
    10030    2    1    2    0    0  0.00000000000E+00  0.00000000000E+00 -0.24427723254E+03  0.28007094208E+04  0.27900361813E+04 0.  0.
        4    1    3    3  502    0  0.22018289692E+03 -0.62495389722E+03 -0.13544446826E+04  0.15078361625E+04  0.12699999809E+01 0.  1.
       -4    1    3    3    0  502 -0.22018289692E+03  0.62495389722E+03  0.11101674501E+04  0.12928732582E+04  0.12699999809E+01 0. -1.
</event>
<event>
 5   0  0.2574803E-06  0.3293878E+04  0.7818609E-02  0.8164455E-01
        2   -1    0    0  501    0  0.00000000000E+00  0.00000000000E+00  0.19221065700E+04  0.19221065700E+04  0.25500000920E-02 0.  1.
       -2   -1    0    0    0  501  0.00000000000E+00  0.00000000000E+00 -0.14111643686E+04  0.14111643686E+04  0.25500000920E-02 0. -1.
    10030    2    1    2    0    0  0.00000000000E+00  0.00000000000E+00  0.51094220143E+03  0.33332709386E+04  0.32938781424E+04 0.  0.
        4    1    3    3  502    0  0.78559153532E+03  0.78958548110E+03  0.14831607054E+04  0.18548225207E+04  0.12699999809E+01 0.  1.
       -4    1    3    3    0  502 -0.78559153532E+03 -0.78958548110E+03 -0.97221850393E+03  0.14784484180E+04  0.12699999809E+01 0. -1.
</event>
<event>
 5   0  0.8705956E-07  0.2644055E+04  0.7818609E-02  0.8353389E-01
        1   -1    0    0  501    0  0.00000000000E+00  0.00000000000E+00  0.14503923249E+04  0.14503923249E+04  0.50400001928E-02 0.  1.
       -1   -1    0    0    0  501  0.00000000000E+00  0.00000000000E+00 -0.12050231300E+04  0.12050231301E+04  0.50400001928E-02 0. -1.
    10030    2    1    2    0    0  0.00000000000E+00  0.00000000000E+00  0.24536919483E+03  0.26554154549E+04  0.26440546886E+04 0.  0.
        2    1    3    3  502    0 -0.37196097611E+03  0.29377233506E+03  0.13621263794E+04  0.14422362588E+04  0.25500000920E-02 0.  1.
       -2    1    3    3    0  502  0.37196097611E+03 -0.29377233506E+03 -0.11167571846E+04  0.12131791961E+04  0.25500000920E-02 0. -1.
</event>
<event>
 5   0  0.8705956E-07  0.3388486E+04  0.7818609E-02  0.8140738E-01
       -1   -1    0    0    0  501  0.00000000000E+00  0.00000000000E+00  0.18710085892E+04  0.18710085892E+04  0.50400001928E-02 0.  1.
        1   -1    0    0  501    0  0.00000000000E+00  0.00000000000E+00 -0.15341779476E+04  0.15341779476E+04  0.50400001928E-02 0. -1.
    10030    2    1    2    0    0  0.00000000000E+00  0.00000000000E+00  0.33683064154E+03  0.34051865368E+04  0.33884864570E+04 0.  0.
        2    1    3    3  502    0  0.88636853848E+03  0.86979085756E+03 -0.98977283506E+03  0.15880288369E+04  0.25500000920E-02 0. -1.
       -2    1    3    3    0  502 -0.88636853848E+03 -0.86979085756E+03  0.13266034766E+04  0.18171576998E+04  0.25500000920E-02 0.  1.
</event>
<event>
 5   0  0.2614212E-06  0.2797841E+04  0.7818609E-02  0.8303939E-01
        2   -1    0    0  501    0  0.00000000000E+00  0.00000000000E+00  0.12533024421E+04  0.12533024421E+04  0.25500000920E-02 0. -1.
       -2   -1    0    0    0  501  0.00000000000E+00  0.00000000000E+00 -0.15614575236E+04  0.15614575236E+04  0.25500000920E-02 0.  1.
    10030    2    1    2    0    0  0.00000000000E+00  0.00000000000E+00 -0.30815508151E+03  0.28147599657E+04  0.27978409730E+04 0.  0.
        2    1    3    3  502    0  0.95148456980E+03  0.69966493477E+03  0.60020602079E+03  0.13248023154E+04  0.25500000920E-02 0. -1.
       -2    1    3    3    0  502 -0.95148456980E+03 -0.69966493477E+03 -0.90836110229E+03  0.14899576503E+04  0.25500000920E-02 0.  1.
</event>
<event>
 5   0  0.2674551E-06  0.3301671E+04  0.7818609E-02  0.8162470E-01
        2   -1    0    0  501    0  0.00000000000E+00  0.00000000000E+00  0.17005325530E+04  0.17005325530E+04  0.25500000920E-02 0. -1.
       -2   -1    0    0    0  501  0.00000000000E+00  0.00000000000E+00 -0.16025903710E+04  0.16025903710E+04  0.25500000920E-02 0.  1.
    10030    2    1    2    0    0  0.00000000000E+00  0.00000000000E+00  0.97942181943E+02  0.33031229240E+04  0.33016705438E+04 0.  0.
        3    1    3    3  502    0 -0.23562645245E+03  0.15116623078E+04 -0.57147453851E+03  0.16331643874E+04  0.10100000352E+00 0.  1.
       -3    1    3    3    0  502  0.23562645245E+03 -0.15116623078E+04  0.66941672045E+03  0.16699585366E+04  0.10100000352E+00 0. -1.
</event>
<event>
 5   0  0.2614212E-06  0.3256086E+04  0.7818609E-02  0.8174160E-01
        2   -1    0    0  501    0  0.00000000000E+00  0.00000000000E+00  0.17602024194E+04  0.17602024194E+04  0.25500000920E-02 0.  1.
       -2   -1    0    0    0  501  0.00000000000E+00  0.00000000000E+00 -0.15058061584E+04  0.15058061584E+04  0.25500000920E-02 0. -1.
    10030    2    1    2    0    0  0.00000000000E+00  0.00000000000E+00  0.25439626100E+03  0.32660085777E+04  0.32560857747E+04 0.  0.
        2    1    3    3  502    0 -0.13993904478E+04 -0.74203559138E+03  0.50466022922E+03  0.16624056037E+04  0.25500000920E-02 0.  1.
       -2    1    3    3    0  502  0.13993904478E+04  0.74203559138E+03 -0.25026396821E+03  0.16036029740E+04  0.25500000920E-02 0. -1.
</event>
<event>
 5   0  0.2705859E-06  0.3247367E+04  0.7818609E-02  0.8176418E-01
        2   -1    0    0  501    0  0.00000000000E+00  0.00000000000E+00  0.29177017244E+04  0.29177017244E+04  0.25500000920E-02 0. -1.
       -2   -1    0    0    0  501  0.00000000000E+00  0.00000000000E+00 -0.90357016485E+03  0.90357016485E+03  0.25500000920E-02 0.  1.
    10030    2    1    2    0    0  0.00000000000E+00  0.00000000000E+00  0.20141315596E+04  0.38212718893E+04  0.32473670739E+04 0.  0.
        1    1    3    3  502    0 -0.62301740988E+03 -0.12328732715E+04  0.28936459799E+01  0.13813528042E+04  0.50400001928E-02 0.  1.
       -1    1    3    3    0  502  0.62301740988E+03  0.12328732715E+04  0.20112379136E+04  0.24399190851E+04  0.50400001928E-02 0. -1.
</event>
<event>
 5   0  0.9530268E-07  0.3266942E+04  0.7818609E-02  0.8171358E-01
       -1   -1    0    0    0  501  0.00000000000E+00  0.00000000000E+00  0.14779308605E+04  0.14779308605E+04  0.50400001928E-02 0.  1.
        1   -1    0    0  501    0  0.00000000000E+00  0.00000000000E+00 -0.18053799641E+04  0.18053799642E+04  0.50400001928E-02 0. -1.
    10030    2    1    2    0    0  0.00000000000E+00  0.00000000000E+00 -0.32744910370E+03  0.32833108246E+04  0.32669415446E+04 0.  0.
        5    1    3    3  502    0  0.73372357045E+03  0.90810048674E+03  0.98445678147E+03  0.15271457090E+04  0.46999998093E+01 0.  1.
       -5    1    3    3    0  502 -0.73372357045E+03 -0.90810048674E+03 -0.13119058852E+04  0.17561651156E+04  0.46999998093E+01 0. -1.
</event>
<event>
 5   0  0.2658600E-06  0.3285991E+04  0.7818609E-02  0.8166469E-01
       -2   -1    0    0    0  501  0.00000000000E+00  0.00000000000E+00  0.14791252082E+04  0.14791252082E+04  0.25500000920E-02 0.  1.
        2   -1    0    0  501    0  0.00000000000E+00  0.00000000000E+00 -0.18250205544E+04  0.18250205544E+04  0.25500000920E-02 0. -1.
    10030    2    1    2    0    0  0.00000000000E+00  0.00000000000E+00 -0.34589534623E+03  0.33041457626E+04  0.32859908140E+04 0.  0.
        5    1    3    3  502    0 -0.90826439162E+03  0.65290334049E+03  0.10371066050E+04  0.15253980390E+04  0.46999998093E+01 0.  1.
       -5    1    3    3    0  502  0.90826439162E+03 -0.65290334049E+03 -0.13830019513E+04  0.17787477236E+04  0.46999998093E+01 0. -1.
</event>
<event>
 5   0  0.2574803E-06  0.3305358E+04  0.7818609E-02  0.8161533E-01
        2   -1    0    0  501    0  0.00000000000E+00  0.00000000000E+00  0.18484896898E+04  0.18484896898E+04  0.25500000920E-02 0. -1.
       -2   -1    0    0    0  501  0.00000000000E+00  0.00000000000E+00 -0.14776107918E+04  0.14776107918E+04  0.25500000920E-02 0.  1.
    10030    2    1    2    0    0  0.00000000000E+00  0.00000000000E+00  0.37087889808E+03  0.33261004816E+04  0.33053582645E+04 0.  0.
        4    1    3    3  502    0 -0.14833405758E+04  0.54263641656E+03  0.67490024898E+03  0.17176278710E+04  0.12699999809E+01 0.  1.
       -4    1    3    3    0  502  0.14833405758E+04 -0.54263641656E+03 -0.30402135091E+03  0.16084726106E+04  0.12699999809E+01 0. -1.
</event>
<event>
 5   0  0.2614212E-06  0.3260455E+04  0.7818609E-02  0.8173031E-01
       -2   -1    0    0    0  501  0.00000000000E+00  0.00000000000E+00  0.93032773819E+03  0.93032773819E+03  0.25500000920E-02 0.  1.
        2   -1    0    0  501    0  0.00000000000E+00  0.00000000000E+00 -0.28566730787E+04  0.28566730787E+04  0.25500000920E-02 0. -1.
    10030    2    1    2    0    0  0.00000000000E+00  0.00000000000E+00 -0.19263453405E+04  0.37870008169E+04  0.32604553081E+04 0.  0.
        2    1    3    3  502    0  0.12636944171E+04 -0.52574393639E+03 -0.19918082918E+04  0.24167396504E+04  0.25500000920E-02 0. -1.
       -2    1    3    3    0  502 -0.12636944171E+04  0.52574393639E+03  0.65462951302E+02  0.13702611665E+04  0.25500000920E-02 0.  1.
</event>
<event>
 5   0  0.9530268E-07  0.2449220E+04  0.7818609E-02  0.8421303E-01
       -1   -1    0    0    0  501  0.00000000000E+00  0.00000000000E+00  0.11260125183E+04  0.11260125183E+04  0.50400001928E-02 0. -1.
        1   -1    0    0  501    0  0.00000000000E+00  0.00000000000E+00 -0.13318406049E+04  0.13318406049E+04  0.50400001928E-02 0.  1.
    10030    2    1    2    0    0  0.00000000000E+00  0.00000000000E+00 -0.20582808660E+03  0.24578531231E+04  0.24492196254E+04 0.  0.
        5    1    3    3  502    0  0.37432323069E+03  0.27577700108E+02 -0.12726853432E+04  0.13268867636E+04  0.46999998093E+01 0.  1.
       -5    1    3    3    0  502 -0.37432323069E+03 -0.27577700108E+02  0.10668572566E+04  0.11309663596E+04  0.46999998093E+01 0. -1.
</event>
<event>
 5   0  0.9530268E-07  0.3299780E+04  0.7818609E-02  0.8162951E-01
        1   -1    0    0  501    0  0.00000000000E+00  0.00000000000E+00  0.14495250430E+04  0.14495250430E+04  0.50400001928E-02 0.  1.
       -1   -1    0    0    0  501  0.00000000000E+00  0.00000000000E+00 -0.18779513364E+04  0.18779513364E+04  0.50400001928E-02 0. -1.
    10030    2    1    2    0    0  0.00000000000E+00  0.00000000000E+00 -0.42842629347E+03  0.33274763794E+04  0.32997802907E+04 0.  0.
        5    1    3    3  502    0 -0.12705455101E+04  0.86456057884E+03 -0.81955536815E+03  0.17416784948E+04  0.46999998093E+01 0. -1.
       -5    1    3    3    0  502  0.12705455101E+04 -0.86456057884E+03  0.39112907468E+03  0.15857978846E+04  0.46999998093E+01 0.  1.
</event>
<event>
 5   0  0.2705859E-06  0.3192960E+04  0.7818609E-02  0.8190679E-01
        2   -1    0    0  501    0  0.00000000000E+00  0.00000000000E+00  0.22108997004E+04  0.22108997004E+04  0.25500000920E-02 0.  1.
       -2   -1    0    0    0  501  0.00000000000E+00  0.00000000000E+00 -0.11528108146E+04  0.11528108146E+04  0.25500000920E-02 0. -1.
    10030    2    1    2    0    0  0.00000000000E+00  0.00000000000E+00  0.10580888858E+04  0.33637105150E+04  0.31929604348E+04 0.  0.
        1    1    3    3  502    0 -0.13894319717E+04 -0.94008322111E+02  0.13514250301E+04  0.19405433210E+04  0.50400001928E-02 0.  1.
       -1    1    3    3    0  502  0.13894319717E+04  0.94008322111E+02 -0.29333614432E+03  0.14231671940E+04  0.50400001928E-02 0. -1.
</event>
<event>
 5   0  0.2658600E-06  0.3284192E+04  0.7818609E-02  0.8166929E-01
       -2   -1    0    0    0  501  0.00000000000E+00  0.00000000000E+00  0.11377781653E+04  0.11377781653E+04  0.25500000920E-02 0. -1.
        2   -1    0    0  501    0  0.00000000000E+00  0.00000000000E+00 -0.23699515900E+04  0.23699515900E+04  0.25500000920E-02 0.  1.
    10030    2    1    2    0    0  0.00000000000E+00  0.00000000000E+00 -0.12321734247E+04  0.35077297553E+04  0.32841919383E+04 0.  0.
        5    1    3    3  502    0  0.14579035776E+04  0.68321148405E+03 -0.96085218235E+03  0.18749719411E+04  0.46999998093E+01 0.  1.
       -5    1    3    3    0  502 -0.14579035776E+04 -0.68321148405E+03 -0.27132124240E+03  0.16327578143E+04  0.46999998093E+01 0. -1.
</event>
<event>
 5   0  0.2658600E-06  0.3307234E+04  0.7818609E-02  0.8161057E-01
       -2   -1    0    0    0  501  0.00000000000E+00  0.00000000000E+00  0.15502633661E+04  0.15502633661E+04  0.25500000920E-02 0.  1.
        2   -1    0    0  501    0  0.00000000000E+00  0.00000000000E+00 -0.17638605458E+04  0.17638605458E+04  0.25500000920E-02 0. -1.
    10030    2    1    2    0    0  0.00000000000E+00  0.00000000000E+00 -0.21359717969E+03  0.33141239118E+04  0.33072335188E+04 0.  0.
        5    1    3    3  502    0 -0.82939867317E+03 -0.61853158625E+03  0.11858279833E+04  0.15737514347E+04  0.46999998093E+01 0.  1.
       -5    1    3    3    0  502  0.82939867317E+03  0.61853158625E+03 -0.13994251630E+04  0.17403724771E+04  0.46999998093E+01 0. -1.
</event>
<event>
 5   0  0.9295663E-07  0.3268585E+04  0.7818609E-02  0.8170935E-01
        1   -1    0    0  501    0  0.00000000000E+00  0.00000000000E+00  0.11212845908E+04  0.11212845908E+04  0.50400001928E-02 0.  1.
       -1   -1    0    0    0  501  0.00000000000E+00  0.00000000000E+00 -0.23820101378E+04  0.23820101378E+04  0.50400001928E-02 0. -1.
    10030    2    1    2    0    0  0.00000000000E+00  0.00000000000E+00 -0.12607255470E+04  0.35032947286E+04  0.32685845638E+04 0.  0.
        4    1    3    3  502    0  0.14081794199E+04  0.65487856348E+03 -0.84819465423E+02  0.15553234924E+04  0.12699999809E+01 0.  1.
       -4    1    3    3    0  502 -0.14081794199E+04 -0.65487856348E+03 -0.11759060816E+04  0.19479712362E+04  0.12699999809E+01 0. -1.
</event>
<event>
 5   0  0.9295663E-07  0.3341893E+04  0.7818609E-02  0.8152317E-01
        1   -1    0    0  501    0  0.00000000000E+00  0.00000000000E+00  0.10690974472E+04  0.10690974472E+04  0.50400001928E-02 0. -1.
       -1   -1    0    0    0  501  0.00000000000E+00  0.00000000000E+00 -0.26116062556E+04  0.26116062556E+04  0.50400001928E-02 0.  1.
    10030    2    1    2    0    0  0.00000000000E+00  0.00000000000E+00 -0.15425088084E+04  0.36807037028E+04  0.33418926261E+04 0.  0.
        4    1    3    3  502    0  0.16097606981E+04 -0.37982544150E+03 -0.50954416545E+03  0.17306743601E+04  0.12699999809E+01 0. -1.
       -4    1    3    3    0  502 -0.16097606981E+04  0.37982544150E+03 -0.10329646429E+04  0.19500293428E+04  0.12699999809E+01 0.  1.
</event>
<event>
 5   0  0.8705956E-07  0.3280677E+04  0.7818609E-02  0.8167830E-01
       -1   -1    0    0    0  501  0.00000000000E+00  0.00000000000E+00  0.11969280348E+04  0.11969280348E+04  0.50400001928E-02 0.  1.
        1   -1    0    0  501    0  0.00000000000E+00  0.00000000000E+00 -0.22480135102E+04  0.22480135102E+04  0.50400001928E-02 0. -1.
    10030    2    1    2    0    0  0.00000000000E+00  0.00000000000E+00 -0.10510854754E+04  0.34449415451E+04  0.32806769991E+04 0.  0.
        2    1    3    3  502    0  0.12569145675E+04 -0.50564280681E+03  0.44553190571E+03  0.14261863683E+04  0.25500000920E-02 0.  1.
       -2    1    3    3    0  502 -0.12569145675E+04  0.50564280681E+03 -0.14966173811E+04  0.20187551768E+04  0.25500000920E-02 0. -1.
</event>
<event>
 5   0  0.2705859E-06  0.3284920E+04  0.7818609E-02  0.8166743E-01
       -2   -1    0    0    0  501  0.00000000000E+00  0.00000000000E+00  0.18610196310E+04  0.18610196311E+04  0.25500000920E-02 0. -1.
        2   -1    0    0  501    0  0.00000000000E+00  0.00000000000E+00 -0.14495680926E+04  0.14495680926E+04  0.25500000920E-02 0.  1.
    10030    2    1    2    0    0  0.00000000000E+00  0.00000000000E+00  0.41145153846E+03  0.33105877236E+04  0.32849198936E+04 0.  0.
        1    1    3    3  502    0 -0.40540916627E+03  0.95190623140E+02  0.18069313201E+04  0.18542973447E+04  0.50400001928E-02 0. -1.
       -1    1    3    3    0  502  0.40540916627E+03 -0.95190623140E+02 -0.13954797817E+04  0.14562903790E+04  0.50400001928E-02 0.  1.
</event>
<event>
 5   0  0.2658600E-06  0.3256963E+04  0.7818609E-02  0.8173933E-01
       -2   -1    0    0    0  501  0.00000000000E+00  0.00000000000E+00  0.10615565025E+04  0.10615565025E+04  0.25500000920E-02 0.  1.
        2   -1    0    0  501    0  0.00000000000E+00  0.00000000000E+00 -0.24981739016E+04  0.24981739016E+04  0.25500000920E-02 0. -1.
    10030    2    1    2    0    0  0.00000000000E+00  0.00000000000E+00 -0.14366173991E+04  0.35597304041E+04  0.32569634629E+04 0.  0.
        5    1    3    3  502    0 -0.54705103225E+03 -0.81275033964E+03 -0.21400401880E+04  0.23536401685E+04  0.46999998093E+01 0. -1.
       -5    1    3    3    0  502  0.54705103225E+03  0.81275033964E+03  0.70342278891E+03  0.12060902356E+04  0.46999998093E+01 0.  1.
</event>
<event>
 5   0  0.2674551E-06  0.3333598E+04  0.7818609E-02  0.8154399E-01
       -2   -1    0    0    0  501  0.00000000000E+00  0.00000000000E+00  0.13353769170E+04  0.13353769170E+04  0.25500000920E-02 0. -1.
        2   -1    0    0  501    0  0.00000000000E+00  0.00000000000E+00 -0.20804755087E+04  0.20804755087E+04  0.25500000920E-02 0.  1.
    10030    2    1    2    0    0  0.00000000000E+00  0.00000000000E+00 -0.74509859172E+03  0.34158524257E+04  0.33335980386E+04 0.  0.
        3    1    3    3  502    0  0.14666961342E+03 -0.14434585018E+04  0.46814249216E+03  0.15245464326E+04  0.10100000352E+00 0. -1.
       -3    1    3    3    0  502 -0.14666961342E+03  0.14434585018E+04 -0.12132410839E+04  0.18913059931E+04  0.10100000352E+00 0.  1.
</event>
<event>
 5   0  0.8845526E-07  0.3308415E+04  0.7818609E-02  0.8160757E-01
        1   -1    0    0  501    0  0.00000000000E+00  0.00000000000E+00  0.20370600183E+04  0.20370600183E+04  0.50400001928E-02 0. -1.
       -1   -1    0    0    0  501  0.00000000000E+00  0.00000000000E+00 -0.13433100556E+04  0.13433100556E+04  0.50400001928E-02 0.  1.
    10030    2    1    2    0    0  0.00000000000E+00  0.00000000000E+00  0.69374996274E+03  0.33803700739E+04  0.33084154554E+04 0.  0.
        1    1    3    3  502    0  0.11770273463E+04 -0.54022168007E+03  0.13984181796E+04  0.19059921937E+04  0.50400001928E-02 0. -1.
       -1    1    3    3    0  502 -0.11770273463E+04  0.54022168007E+03 -0.70466821682E+03  0.14743778801E+04  0.50400001928E-02 0.  1.
</event>
<event>
 5   0  0.2705859E-06  0.3299813E+04  0.7818609E-02  0.8162943E-01
       -2   -1    0    0    0  501  0.00000000000E+00  0.00000000000E+00  0.11727346660E+04  0.11727346660E+04  0.25500000920E-02 0. -1.
        2   -1    0    0  501    0  0.00000000000E+00  0.00000000000E+00 -0.23212333038E+04  0.23212333038E+04  0.25500000920E-02 0.  1.
    10030    2    1    2    0    0  0.00000000000E+00  0.00000000000E+00 -0.11484986378E+04  0.34939679698E+04  0.32998125784E+04 0.  0.
        1    1    3    3  502    0 -0.16316411522E+04  0.17548228320E+03 -0.39348889771E+03  0.16875664117E+04  0.50400001928E-02 0. -1.
       -1    1    3    3    0  502  0.16316411522E+04 -0.17548228320E+03 -0.75500974013E+03  0.18064015581E+04  0.50400001928E-02 0.  1.
</event>
<event>
 5   0  0.9295663E-07  0.3268526E+04  0.7818609E-02  0.8170950E-01
       -1   -1    0    0    0  501  0.00000000000E+00  0.00000000000E+00  0.15273671666E+04  0.15273671666E+04  0.50400001928E-02 0. -1.
        1   -1    0    0  501    0  0.00000000000E+00  0.00000000000E+00 -0.17486400155E+04  0.17486400156E+04  0.50400001928E-02 0.  1.
    10030    2    1    2    0    0  0.00000000000E+00  0.00000000000E+00 -0.22127284900E+03  0.32760071821E+04  0.32685258732E+04 0.  0.
        4    1    3    3  502    0 -0.28641596504E+03  0.15924972604E+04 -0.34079675193E+03  0.16535494151E+04  0.12699999809E+01 0.  1.
       -4    1    3    3    0  502  0.28641596504E+03 -0.15924972604E+04  0.11952390293E+03  0.16224577670E+04  0.12699999809E+01 0. -1.
</event>
<event>
 5   0  0.2674551E-06  0.3623707E+04  0.7818609E-02  0.8085083E-01
       -2   -1    0    0    0  501  0.00000000000E+00  0.00000000000E+00  0.29372377473E+04  0.29372377473E+04  0.25500000920E-02 0. -1.
        2   -1    0    0  501    0  0.00000000000E+00  0.00000000000E+00 -0.11176533248E+04  0.11176533248E+04  0.25500000920E-02 0.  1.
    10030    2    1    2    0    0  0.00000000000E+00  0.00000000000E+00  0.18195844225E+04  0.40548910721E+04  0.36237072365E+04 0.  0.
        3    1    3    3  502    0  0.53210986571E+02  0.12304473870E+04 -0.57723578252E+03  0.13601593069E+04  0.10100000352E+00 0.  1.
       -3    1    3    3    0  502 -0.53210986571E+02 -0.12304473870E+04  0.23968202050E+04  0.26947317652E+04  0.10100000352E+00 0. -1.
</event>
<event>
 5   0  0.2574803E-06  0.3387716E+04  0.7818609E-02  0.8140928E-01
       -2   -1    0    0    0  501  0.00000000000E+00  0.00000000000E+00  0.17621997051E+04  0.17621997051E+04  0.25500000920E-02 0. -1.
        2   -1    0    0  501    0  0.00000000000E+00  0.00000000000E+00 -0.16281663205E+04  0.16281663205E+04  0.25500000920E-02 0.  1.
    10030    2    1    2    0    0  0.00000000000E+00  0.00000000000E+00  0.13403338460E+03  0.33903660255E+04  0.33877155782E+04 0.  0.
        4    1    3    3  502    0 -0.12057251971E+04  0.10939545315E+04  0.53497511120E+03  0.17136830951E+04  0.12699999809E+01 0. -1.
       -4    1    3    3    0  502  0.12057251971E+04 -0.10939545315E+04 -0.40094172660E+03  0.16766829304E+04  0.12699999809E+01 0.  1.
</event>
<event>
 5   0  0.8845526E-07  0.3149609E+04  0.7818609E-02  0.8202253E-01
        1   -1    0    0  501    0  0.00000000000E+00  0.00000000000E+00  0.19431464438E+04  0.19431464438E+04  0.50400001928E-02 0.  1.
       -1   -1    0    0    0  501  0.00000000000E+00  0.00000000000E+00 -0.12762854285E+04  0.12762854285E+04  0.50400001928E-02 0. -1.
    10030    2    1    2    0    0  0.00000000000E+00  0.00000000000E+00  0.66686101528E+03  0.32194318723E+04  0.31496091768E+04 0.  0.
        1    1    3    3  502    0  0.57335388538E+03 -0.38997155973E+03 -0.11118440829E+04  0.13103471906E+04  0.50400001928E-02 0. -1.
       -1    1    3    3    0  502 -0.57335388538E+03  0.38997155973E+03  0.17787050982E+04  0.19090846816E+04  0.50400001928E-02 0.  1.
</event>
<event>
 5   0  0.2705859E-06  0.2932250E+04  0.7818609E-02  0.8263346E-01
        2   -1    0    0  501    0  0.00000000000E+00  0.00000000000E+00  0.14378106072E+04  0.14378106072E+04  0.25500000920E-02 0. -1.
       -2   -1    0    0    0  501  0.00000000000E+00  0.00000000000E+00 -0.14949974620E+04  0.14949974620E+04  0.25500000920E-02 0.  1.
    10030    2    1    2    0    0  0.00000000000E+00  0.00000000000E+00 -0.57186854803E+02  0.29328080692E+04  0.29322504727E+04 0.  0.
        1    1    3    3  502    0  0.22471790491E+03  0.83011543995E+03  0.11590385462E+04  0.14432463865E+04  0.50400001928E-02 0. -1.
       -1    1    3    3    0  502 -0.22471790491E+03 -0.83011543995E+03 -0.12162254010E+04  0.14895616827E+04  0.50400001928E-02 0.  1.
</event>
<event>
 5   0  0.9530268E-07  0.3235675E+04  0.7818609E-02  0.8179458E-01
        1   -1    0    0  501    0  0.00000000000E+00  0.00000000000E+00  0.25066537482E+04  0.25066537482E+04  0.50400001928E-02 0.  1.
       -1   -1    0    0    0  501  0.00000000000E+00  0.00000000000E+00 -0.10441804079E+04  0.10441804079E+04  0.50400001928E-02 0. -1.
    10030    2    1    2    0    0  0.00000000000E+00  0.00000000000E+00  0.14624733403E+04  0.35508341562E+04  0.32356753443E+04 0.  0.
        5    1    3    3  502    0  0.10297432653E+04  0.10138728107E+04  0.15294536093E+04  0.21041767278E+04  0.46999998093E+01 0. -1.
       -5    1    3    3    0  502 -0.10297432653E+04 -0.10138728107E+04 -0.66980268988E+02  0.14466574284E+04  0.46999998093E+01 0.  1.
</event>
<event>
 5   0  0.9530268E-07  0.3269803E+04  0.7818609E-02  0.8170622E-01
       -1   -1    0    0    0  501  0.00000000000E+00  0.00000000000E+00  0.16105784226E+04  0.16105784226E+04  0.50400001928E-02 0. -1.
        1   -1    0    0  501    0  0.00000000000E+00  0.00000000000E+00 -0.16595917827E+04  0.16595917827E+04  0.50400001928E-02 0.  1.
    10030    2    1    2    0    0  0.00000000000E+00  0.00000000000E+00 -0.49013360149E+02  0.32701702053E+04  0.32698028782E+04 0.  0.
        5    1    3    3  502    0 -0.13588831312E+04 -0.75914086462E+03 -0.52458526078E+03  0.16425802880E+04  0.46999998093E+01 0.  1.
       -5    1    3    3    0  502  0.13588831312E+04  0.75914086462E+03  0.47557190063E+03  0.16275899174E+04  0.46999998093E+01 0. -1.
</event>
<event>
 5   0  0.8845526E-07  0.3321697E+04  0.7818609E-02  0.8157397E-01
       -1   -1    0    0    0  501  0.00000000000E+00  0.00000000000E+00  0.12934576084E+04  0.12934576084E+04  0.50400001928E-02 0.  1.
        1   -1    0    0  501    0  0.00000000000E+00  0.00000000000E+00 -0.21325919576E+04  0.21325919576E+04  0.50400001928E-02 0. -1.
    10030    2    1    2    0    0  0.00000000000E+00  0.00000000000E+00 -0.83913434921E+03  0.34260495660E+04  0.33216967310E+04 0.  0.
        1    1    3    3  502    0 -0.98273958297E+03 -0.10280926085E+04 -0.13042221904E+04  0.19297012778E+04  0.50400001928E-02 0. -1.
       -1    1    3    3    0  502  0.98273958297E+03  0.10280926085E+04  0.46508784121E+03  0.14963482882E+04  0.50400001928E-02 0.  1.
</event>
<event>
 5   0  0.9268670E-07  0.3333327E+04  0.7818609E-02  0.8154467E-01
       -1   -1    0    0    0  501  0.00000000000E+00  0.00000000000E+00  0.12531161080E+04  0.12531161080E+04  0.50400001928E-02 0.  1.
        1   -1    0    0  501    0  0.00000000000E+00  0.00000000000E+00 -0.22166879562E+04  0.22166879562E+04  0.50400001928E-02 0. -1.
    10030    2    1    2    0    0  0.00000000000E+00  0.00000000000E+00 -0.96357184820E+03  0.34698040642E+04  0.33333270972E+04 0.  0.
        3    1    3    3  502    0 -0.12700629657E+04 -0.10655047411E+04 -0.30327984976E+03  0.16853305218E+04  0.10100000352E+00 0. -1.
       -3    1    3    3    0  502  0.12700629657E+04  0.10655047411E+04 -0.66029199844E+03  0.17844735424E+04  0.10100000352E+00 0.  1.
</event>
<event>
 5   0  0.9268670E-07  0.3288787E+04  0.7818609E-02  0.8165754E-01
       -1   -1    0    0    0  501  0.00000000000E+00  0.00000000000E+00  0.23103572845E+04  0.23103572845E+04  0.50400001928E-02 0. -1.
        1   -1    0    0  501    0  0.00000000000E+00  0.00000000000E+00 -0.11703949001E+04  0.11703949001E+04  0.50400001928E-02 0.  1.
    10030    2    1    2    0    0  0.00000000000E+00  0.00000000000E+00  0.11399623844E+04  0.34807521846E+04  0.32887872435E+04 0.  0.
        3    1    3    3  502    0  0.12238184845E+04  0.24897602557E+03 -0.56218218210E+03  0.13695873687E+04  0.10100000352E+00 0.  1.
       -3    1    3    3    0  502 -0.12238184845E+04 -0.24897602557E+03  0.17021445665E+04  0.21111648159E+04  0.10100000352E+00 0. -1.
</event>
<event>
 5   0  0.9295663E-07  0.2568334E+04  0.7818609E-02  0.8379038E-01
        1   -1    0    0  501    0  0.00000000000E+00  0.00000000000E+00  0.89631486927E+03  0.89631486928E+03  0.50400001928E-02 0. -1.
       -1   -1    0    0    0  501  0.00000000000E+00  0.00000000000E+00 -0.18398501128E+04  0.18398501128E+04  0.50400001928E-02 0.  1.
    10030    2    1    2    0    0  0.00000000000E+00  0.00000000000E+00 -0.94353524351E+03  0.27361649821E+04  0.25683341008E+04 0.  0.
        4    1    3    3  502    0 -0.31590335048E+03  0.55395124033E+03  0.71571186136E+03  0.95859375384E+03  0.12699999809E+01 0. -1.
       -4    1    3    3    0  502  0.31590335048E+03 -0.55395124033E+03 -0.16592471049E+04  0.17775712282E+04  0.12699999809E+01 0.  1.
</event>
<event>
 5   0  0.9268670E-07  0.3327655E+04  0.7818609E-02  0.8155894E-01
        1   -1    0    0  501    0  0.00000000000E+00  0.00000000000E+00  0.13184869423E+04  0.13184869423E+04  0.50400001928E-02 0. -1.
       -1   -1    0    0    0  501  0.00000000000E+00  0.00000000000E+00 -0.20996203920E+04  0.20996203920E+04  0.50400001928E-02 0.  1.
    10030    2    1    2    0    0  0.00000000000E+00  0.00000000000E+00 -0.78113344973E+03  0.34181073343E+04  0.33276550727E+04 0.  0.
        3    1    3    3  502    0 -0.18590903866E+02  0.86980415119E+03  0.10662283692E+04  0.13761351055E+04  0.10100000352E+00 0. -1.
       -3    1    3    3    0  502  0.18590903866E+02 -0.86980415119E+03 -0.18473618189E+04  0.20419722288E+04  0.10100000352E+00 0.  1.
</event>
<event>
 5   0  0.8845526E-07  0.3295217E+04  0.7818609E-02  0.8164114E-01
        1   -1    0    0  501    0  0.00000000000E+00  0.00000000000E+00  0.20699133064E+04  0.20699133064E+04  0.50400001928E-02 0. -1.
       -1   -1    0    0    0  501  0.00000000000E+00  0.00000000000E+00 -0.13114621481E+04  0.13114621482E+04  0.50400001928E-02 0.  1.
    10030    2    1    2    0    0  0.00000000000E+00  0.00000000000E+00  0.75845115826E+03  0.33813754546E+04  0.32952165035E+04 0.  0.
        1    1    3    3  502    0  0.71932681960E+02 -0.14805261177E+04 -0.35894489398E+03  0.15251142032E+04  0.50400001928E-02 0.  1.
       -1    1    3    3    0  502 -0.71932681960E+02  0.14805261177E+04  0.11173960522E+04  0.18562612514E+04  0.50400001928E-02 0. -1.
</event>
<event>
 5   0  0.9530268E-07  0.3307006E+04  0.7818609E-02  0.8161115E-01
        1   -1    0    0  501    0  0.00000000000E+00  0.00000000000E+00  0.11875090168E+04  0.11875090168E+04  0.50400001928E-02 0. -1.
       -1   -1    0    0    0  501  0.00000000000E+00  0.00000000000E+00 -0.23023595905E+04  0.23023595905E+04  0.50400001928E-02 0.  1.
    10030    2    1    2    0    0  0.00000000000E+00  0.00000000000E+00 -0.11148505737E+04  0.34898686073E+04  0.33070063644E+04 0.  0.
        5    1    3    3  502    0  0.76487645836E+03 -0.89482640239E+03 -0.17827956622E+04  0.21363831001E+04  0.46999998093E+01 0.  1.
       -5    1    3    3    0  502 -0.76487645836E+03  0.89482640239E+03  0.66794508855E+03  0.13534855072E+04  0.46999998093E+01 0. -1.
</event>
<event>
 5   0  0.2674551E-06  0.3211055E+04  0.7818609E-02  0.8185904E-01
        2   -1    0    0  501    0  0.00000000000E+00  0.00000000000E+00  0.17554338333E+04  0.17554338333E+04  0.25500000920E-02 0.  1.
       -2   -1    0    0    0  501  0.00000000000E+00  0.00000000000E+00 -0.14684222252E+04  0.14684222252E+04  0.25500000920E-02 0. -1.
    10030    2    1    2    0    0  0.00000000000E+00  0.00000000000E+00  0.28701160808E+03  0.32238560586E+04  0.32110546902E+04 0.  0.
        3    1    3    3  502    0  0.12681433211E+04  0.49386757282E+03 -0.71172665121E+03  0.15357888848E+04  0.10100000352E+00 0. -1.
       -3    1    3    3    0  502 -0.12681433211E+04 -0.49386757282E+03  0.99873825928E+03  0.16880671738E+04  0.10100000352E+00 0.  1.
</event>
<event>
 5   0  0.2614212E-06  0.3249800E+04  0.7818609E-02  0.8175788E-01
        2   -1    0    0  501    0  0.00000000000E+00  0.00000000000E+00  0.15419493984E+04  0.15419493984E+04  0.25500000920E-02 0.  1.
       -2   -1    0    0    0  501  0.00000000000E+00  0.00000000000E+00 -0.17123127874E+04  0.17123127874E+04  0.25500000920E-02 0. -1.
    10030    2    1    2    0    0  0.00000000000E+00  0.00000000000E+00 -0.17036338900E+03  0.32542621858E+04  0.32497997922E+04 0.  0.
        2    1    3    3  502    0 -0.78651642827E+02 -0.12577145666E+04  0.94202784715E+03  0.15733558011E+04  0.25500000920E-02 0.  1.
       -2    1    3    3    0  502  0.78651642827E+02  0.12577145666E+04 -0.11123912361E+04  0.16809063847E+04  0.25500000920E-02 0. -1.
</event>
<event>
 5   0  0.9530268E-07  0.3342752E+04  0.7818609E-02  0.8152102E-01
       -1   -1    0    0    0  501  0.00000000000E+00  0.00000000000E+00  0.11663567079E+04  0.11663567079E+04  0.50400001928E-02 0.  1.
        1   -1    0    0  501    0  0.00000000000E+00  0.00000000000E+00 -0.23950622881E+04  0.23950622881E+04  0.50400001928E-02 0. -1.
    10030    2    1    2    0    0  0.00000000000E+00  0.00000000000E+00 -0.12287055801E+04  0.35614189960E+04  0.33427515407E+04 0.  0.
        5    1    3    3  502    0  0.58258880859E+02  0.20225817112E+03  0.11521729163E+04  0.11712501799E+04  0.46999998093E+01 0.  1.
       -5    1    3    3    0  502 -0.58258880859E+02 -0.20225817112E+03 -0.23808784964E+04  0.23901688161E+04  0.46999998093E+01 0. -1.
</event>
<event>
 5   0  0.2674551E-06  0.3004941E+04  0.7818609E-02  0.8242321E-01
       -2   -1    0    0    0  501  0.00000000000E+00  0.00000000000E+00  0.10365998949E+04  0.10365998949E+04  0.25500000920E-02 0.  1.
        2   -1    0    0  501    0  0.00000000000E+00  0.00000000000E+00 -0.21777140048E+04  0.21777140048E+04  0.25500000920E-02 0. -1.
    10030    2    1    2    0    0  0.00000000000E+00  0.00000000000E+00 -0.11411141099E+04  0.32143138997E+04  0.30049413362E+04 0.  0.
        3    1    3    3  502    0 -0.85218714202E+03 -0.41916647684E+02  0.75231624315E+03  0.11375234812E+04  0.10100000352E+00 0.  1.
       -3    1    3    3    0  502  0.85218714202E+03  0.41916647684E+02 -0.18934303531E+04  0.20767904185E+04  0.10100000352E+00 0. -1.
</event>
<event>
 5   0  0.2705859E-06  0.3262070E+04  0.7818609E-02  0.8172614E-01
       -2   -1    0    0    0  501  0.00000000000E+00  0.00000000000E+00  0.14622904022E+04  0.14622904022E+04  0.25500000920E-02 0. -1.
        2   -1    0    0  501    0  0.00000000000E+00  0.00000000000E+00 -0.18192520875E+04  0.18192520875E+04  0.25500000920E-02 0.  1.
    10030    2    1    2    0    0  0.00000000000E+00  0.00000000000E+00 -0.35696168537E+03  0.32815424897E+04  0.32620698133E+04 0.  0.
        1    1    3    3  502    0  0.13921925847E+04  0.17043399408E+03  0.65897098601E+03  0.15496743850E+04  0.50400001928E-02 0. -1.
       -1    1    3    3    0  502 -0.13921925847E+04 -0.17043399408E+03 -0.10159326714E+04  0.17318681047E+04  0.50400001928E-02 0.  1.
</event>
<event>
 5   0  0.2574803E-06  0.3314243E+04  0.7818609E-02  0.8159281E-01
        2   -1    0    0  501    0  0.00000000000E+00  0.00000000000E+00  0.23677908405E+04  0.23677908405E+04  0.25500000920E-02 0. -1.
       -2   -1    0    0    0  501  0.00000000000E+00  0.00000000000E+00 -0.11597525087E+04  0.11597525087E+04  0.25500000920E-02 0.  1.
    10030    2    1    2    0    0  0.00000000000E+00  0.00000000000E+00  0.12080383318E+04  0.35275433491E+04  0.33142428198E+04 0.  0.
        4    1    3    3  502    0 -0.94163689738E+03  0.22118441289E+03 -0.82810595477E+03  0.12733277961E+04  0.12699999809E+01 0.  1.
       -4    1    3    3    0  502  0.94163689738E+03 -0.22118441289E+03  0.20361442866E+04  0.22542155531E+04  0.12699999809E+01 0. -1.
</event>
<event>
 5   0  0.2614212E-06  0.3189608E+04  0.7818609E-02  0.8191567E-01
       -2   -1    0    0    0  501  0.00000000000E+00  0.00000000000E+00  0.12062552111E+04  0.12062552111E+04  0.25500000920E-02 0. -1.
        2   -1    0    0  501    0  0.00000000000E+00  0.00000000000E+00 -0.21085087736E+04  0.21085087736E+04  0.25500000920E-02 0.  1.
    10030    2    1    2    0    0  0.00000000000E+00  0.00000000000E+00 -0.90225356252E+03  0.33147639846E+04  0.31896079356E+04 0.  0.
        2    1    3    3  502    0 -0.13377119207E+04  0.28499264533E+03  0.40124264550E+03  0.14253735128E+04  0.25500000920E-02 0. -1.
       -2    1    3    3    0  502  0.13377119207E+04 -0.28499264533E+03 -0.13034962080E+04  0.18893904718E+04  0.25500000920E-02 0.  1.
</event>
<event>
 5   0  0.9530268E-07  0.3296060E+04  0.7818609E-02  0.8163899E-01
        1   -1    0    0  501    0  0.00000000000E+00  0.00000000000E+00  0.28210228263E+04  0.28210228263E+04  0.50400001928E-02 0. -1.
       -1   -1    0    0    0  501  0.00000000000E+00  0.00000000000E+00 -0.96277264675E+03  0.96277264676E+03  0.50400001928E-02 0.  1.
    10030    2    1    2    0    0  0.00000000000E+00  0.00000000000E+00  0.18582501796E+04  0.37837954731E+04  0.32960604443E+04 0.  0.
        5    1    3    3  502    0 -0.75597387921E+03 -0.98848136559E+03  0.21694640834E+04  0.25010374678E+04  0.46999998093E+01 0. -1.
       -5    1    3    3    0  502  0.75597387921E+03  0.98848136559E+03 -0.31121390383E+03  0.12827580053E+04  0.46999998093E+01 0.  1.
</event>
<event>
 5   0  0.2614212E-06  0.3304361E+04  0.7818609E-02  0.8161787E-01
        2   -1    0    0  501    0  0.00000000000E+00  0.00000000000E+00  0.11991931639E+04  0.11991931639E+04  0.25500000920E-02 0.  1.
       -2   -1    0    0    0  501  0.00000000000E+00  0.00000000000E+00 -0.22762805205E+04  0.22762805205E+04  0.25500000920E-02 0. -1.
    10030    2    1    2    0    0  0.00000000000E+00  0.00000000000E+00 -0.10770873566E+04  0.34754736844E+04  0.33043607789E+04 0.  0.
        2    1    3    3  502    0  0.60828730388E+03 -0.22741858959E+02 -0.21540405052E+04  0.22383970010E+04  0.25500000920E-02 0. -1.
       -2    1    3    3    0  502 -0.60828730388E+03  0.22741858959E+02  0.10769531486E+04  0.12370766834E+04  0.25500000920E-02 0.  1.
</event>
<event>
 5   0  0.9530268E-07  0.3337052E+04  0.7818609E-02  0.8153531E-01
       -1   -1    0    0    0  501  0.00000000000E+00  0.00000000000E+00  0.21134582319E+04  0.21134582319E+04  0.50400001928E-02 0. -1.
        1   -1    0    0  501    0  0.00000000000E+00  0.00000000000E+00 -0.13172620361E+04  0.13172620362E+04  0.50400001928E-02 0.  1.
    10030    2    1    2    0    0  0.00000000000E+00  0.00000000000E+00  0.79619619578E+03  0.34307202681E+04  0.33370515692E+04 0.  0.
        5    1    3    3  502    0  0.10125461051E+04  0.12875298696E+04  0.72478064398E+03  0.17911761086E+04  0.46999998093E+01 0. -1.
       -5    1    3    3    0  502 -0.10125461051E+04 -0.12875298696E+04  0.71415551805E+02  0.16395441595E+04  0.46999998093E+01 0.  1.
</event>
<event>
 5   0  0.9295663E-07  0.3266394E+04  0.7818609E-02  0.8171500E-01
       -1   -1    0    0    0  501  0.00000000000E+00  0.00000000000E+00  0.12895711072E+04  0.12895711072E+04  0.50400001928E-02 0.  1.
        1   -1    0    0  501    0  0.00000000000E+00  0.00000000000E+00 -0.20683867123E+04  0.20683867123E+04  0.50400001928E-02 0. -1.
    10030    2    1    2    0    0  0.00000000000E+00  0.00000000000E+00 -0.77881560511E+03  0.33579578196E+04  0.32663935726E+04 0.  0.
        4    1    3    3  502    0 -0.84260436469E+03  0.49202018279E+02  0.10479735823E+04  0.13456051412E+04  0.12699999809E+01 0.  1.
       -4    1    3    3    0  502  0.84260436469E+03 -0.49202018279E+02 -0.18267891874E+04  0.20123526784E+04  0.12699999809E+01 0. -1.
</event>
<event>
 5   0  0.8705956E-07  0.3308249E+04  0.7818609E-02  0.8160800E-01
       -1   -1    0    0    0  501  0.00000000000E+00  0.00000000000E+00  0.16020099796E+04  0.16020099796E+04  0.50400001928E-02 0. -1.
        1   -1    0    0  501    0  0.00000000000E+00  0.00000000000E+00 -0.17079342850E+04  0.17079342850E+04  0.50400001928E-02 0.  1.
    10030    2    1    2    0    0  0.00000000000E+00  0.00000000000E+00 -0.10592430543E+03  0.33099442646E+04  0.33082489441E+04 0.  0.
        2    1    3    3  502    0 -0.76305473677E+02 -0.14001815558E+04 -0.93079244691E+03  0.16830643166E+04  0.25500000920E-02 0.  1.
       -2    1    3    3    0  502  0.76305473677E+02  0.14001815558E+04  0.82486814147E+03  0.16268799480E+04  0.25500000920E-02 0. -1.
</event>
<event>
 5   0  0.9295663E-07  0.3246003E+04  0.7818609E-02  0.8176773E-01
       -1   -1    0    0    0  501  0.00000000000E+00  0.00000000000E+00  0.93438977907E+03  0.93438977909E+03  0.50400001928E-02 0. -1.
        1   -1    0    0  501    0  0.00000000000E+00  0.00000000000E+00 -0.28190947631E+04  0.28190947631E+04  0.50400001928E-02 0.  1.
    10030    2    1    2    0    0  0.00000000000E+00  0.00000000000E+00 -0.18847049840E+04  0.37534845422E+04  0.32460026697E+04 0.  0.
        4    1    3    3  502    0 -0.91413858762E+03 -0.35330658692E+03 -0.24383089900E+04  0.26278940705E+04  0.12699999809E+01 0.  1.
       -4    1    3    3    0  502  0.91413858762E+03  0.35330658692E+03  0.55360400599E+03  0.11255904718E+04  0.12699999809E+01 0. -1.
</event>
<event>
 5   0  0.2705859E-06  0.3220187E+04  0.7818609E-02  0.8183506E-01
        2   -1    0    0  501    0  0.00000000000E+00  0.00000000000E+00  0.13670956581E+04  0.13670956581E+04  0.25500000920E-02 0. -1.
       -2   -1    0    0    0  501  0.00000000000E+00  0.00000000000E+00 -0.18962830303E+04  0.18962830303E+04  0.25500000920E-02 0.  1.
    10030    2    1    2    0    0  0.00000000000E+00  0.00000000000E+00 -0.52918737219E+03  0.32633786884E+04  0.32201865146E+04 0.  0.
        1    1    3    3  502    0 -0.75149148054E+03  0.14211851141E+04 -0.17455536317E+03  0.16170887881E+04  0.50400001928E-02 0.  1.
       -1    1    3    3    0  502  0.75149148054E+03 -0.14211851141E+04 -0.35463200902E+03  0.16462899003E+04  0.50400001928E-02 0. -1.
</event>
<event>
 5   0  0.2574803E-06  0.3349063E+04  0.7818609E-02  0.8150522E-01
        2   -1    0    0  501    0  0.00000000000E+00  0.00000000000E+00  0.19459336451E+04  0.19459336451E+04  0.25500000920E-02 0. -1.
       -2   -1    0    0    0  501  0.00000000000E+00  0.00000000000E+00 -0.14409820848E+04  0.14409820848E+04  0.25500000920E-02 0.  1.
    10030    2    1    2    0    0  0.00000000000E+00  0.00000000000E+00  0.50495156028E+03  0.33869157299E+04  0.33490628664E+04 0.  0.
        4    1    3    3  502    0  0.53195570743E+02  0.12202822636E+04 -0.90595584925E+03  0.15207485608E+04  0.12699999809E+01 0.  1.
       -4    1    3    3    0  502 -0.53195570743E+02 -0.12202822636E+04  0.14109074095E+04  0.18661671690E+04  0.12699999809E+01 0. -1.
</event>
<event>
 5   0  0.9268670E-07  0.3290304E+04  0.7818609E-02  0.8165367E-01
        1   -1    0    0  501    0  0.00000000000E+00  0.00000000000E+00  0.16170303706E+04  0.16170303706E+04  0.50400001928E-02 0. -1.
       -1   -1    0    0    0  501  0.00000000000E+00  0.00000000000E+00 -0.16737624493E+04  0.16737624493E+04  0.50400001928E-02 0.  1.
    10030    2    1    2    0    0  0.00000000000E+00  0.00000000000E+00 -0.56732078665E+02  0.32907928199E+04  0.32903037633E+04 0.  0.
        3    1    3    3  502    0  0.43367948299E+03  0.81301840736E+02 -0.16134791498E+04  0.16727231870E+04  0.10100000352E+00 0.  1.
       -3    1    3    3    0  502 -0.43367948299E+03 -0.81301840736E+02  0.15567470711E+04  0.16180696329E+04  0.10100000352E+00 0. -1.
</event>
<event>
 5   0  0.2674551E-06  0.3230846E+04  0.7818609E-02  0.8180718E-01
        2   -1    0    0  501    0  0.00000000000E+00  0.00000000000E+00  0.31171907370E+04  0.31171907370E+04  0.25500000920E-02 0.  1.
       -2   -1    0    0    0  501  0.00000000000E+00  0.00000000000E+00 -0.83716127035E+03  0.83716127036E+03  0.25500000920E-02 0. -1.
    10030    2    1    2    0    0  0.00000000000E+00  0.00000000000E+00  0.22800294667E+04  0.39543520074E+04  0.32308459309E+04 0.  0.
        3    1    3    3  502    0 -0.10840475356E+03 -0.11659793202E+04  0.25020163494E+04  0.27624889481E+04  0.10100000352E+00 0.  1.
       -3    1    3    3    0  502  0.10840475356E+03  0.11659793202E+04 -0.22198688269E+03  0.11918630593E+04  0.10100000352E+00 0. -1.
</event>
<event>
 5   0  0.9268670E-07  0.3339141E+04  0.7818609E-02  0.8153007E-01
        1   -1    0    0  501    0  0.00000000000E+00  0.00000000000E+00  0.30501905983E+04  0.30501905983E+04  0.50400001928E-02 0. -1.
       -1   -1    0    0    0  501  0.00000000000E+00  0.00000000000E+00 -0.91386599196E+03  0.91386599197E+03  0.50400001928E-02 0.  1.
    10030    2    1    2    0    0  0.00000000000E+00  0.00000000000E+00  0.21363246064E+04  0.39640565903E+04  0.33391408816E+04 0.  0.
        3    1    3    3  502    0 -0.79081778861E+03  0.79614558159E+03 -0.39940739706E+03  0.11911199943E+04  0.10100000352E+00 0.  1.
       -3    1    3    3    0  502  0.79081778861E+03 -0.79614558159E+03  0.25357320034E+04  0.27729365960E+04  0.10100000352E+00 0. -1.
</event>
<event>
 5   0  0.8705956E-07  0.3266330E+04  0.7818609E-02  0.8171516E-01
        1   -1    0    0  501    0  0.00000000000E+00  0.00000000000E+00  0.16180286513E+04  0.16180286513E+04  0.50400001928E-02 0. -1.
       -1   -1    0    0    0  501  0.00000000000E+00  0.00000000000E+00 -0.16484430766E+04  0.16484430766E+04  0.50400001928E-02 0.  1.
    10030    2    1    2    0    0  0.00000000000E+00  0.00000000000E+00 -0.30414425312E+02  0.32664717279E+04  0.32663301290E+04 0.  0.
        2    1    3    3  502    0  0.42508516721E+03 -0.15754659805E+03 -0.15842589129E+04  0.16478454518E+04  0.25500000920E-02 0.  1.
       -2    1    3    3    0  502 -0.42508516721E+03  0.15754659805E+03  0.15538444876E+04  0.16186262761E+04  0.25500000920E-02 0. -1.
</event>
<event>
 5   0  0.2614212E-06  0.3026241E+04  0.7818609E-02  0.8236277E-01
        2   -1    0    0  501    0  0.00000000000E+00  0.00000000000E+00  0.25493273114E+04  0.25493273114E+04  0.25500000920E-02 0.  1.
       -2   -1    0    0    0  501  0.00000000000E+00  0.00000000000E+00 -0.89809307971E+03  0.89809307971E+03  0.25500000920E-02 0. -1.
    10030    2    1    2    0    0  0.00000000000E+00  0.00000000000E+00  0.16512342317E+04  0.34474203911E+04  0.30262407150E+04 0.  0.
        2    1    3    3  502    0  0.16747275040E+03 -0.30676279593E+01  0.25387333607E+04  0.25442530553E+04  0.25500000920E-02 0.  1.
       -2    1    3    3    0  502 -0.16747275040E+03  0.30676279593E+01 -0.88749912903E+03  0.90316733583E+03  0.25500000920E-02 0. -1.
</event>
<event>
 5   0  0.8520125E-07  0.3661819E+04  0.7818609E-02  0.8076476E-01
        3   -1    0    0  501    0  0.00000000000E+00  0.00000000000E+00  0.20086877714E+04  0.20086877739E+04  0.10100000352E+00 0.  1.
       -3   -1    0    0    0  501  0.00000000000E+00  0.00000000000E+00 -0.16688653996E+04  0.16688654027E+04  0.10100000352E+00 0. -1.
    10030    2    1    2    0    0  0.00000000000E+00  0.00000000000E+00  0.33982237178E+03  0.36775531766E+04  0.36618189636E+04 0.  0.
        1    1    3    3  502    0 -0.10900222674E+04 -0.63670319013E+03  0.15017655656E+04  0.19618458935E+04  0.50400001928E-02 0.  1.
       -1    1    3    3    0  502  0.10900222674E+04  0.63670319013E+03 -0.11619431938E+04  0.17157072831E+04  0.50400001928E-02 0. -1.
</event>
<event>
 5   0  0.8845526E-07  0.3290187E+04  0.7818609E-02  0.8165397E-01
       -1   -1    0    0    0  501  0.00000000000E+00  0.00000000000E+00  0.15382822269E+04  0.15382822269E+04  0.50400001928E-02 0.  1.
        1   -1    0    0  501    0  0.00000000000E+00  0.00000000000E+00 -0.17593211920E+04  0.17593211920E+04  0.50400001928E-02 0. -1.
    10030    2    1    2    0    0  0.00000000000E+00  0.00000000000E+00 -0.22103896511E+03  0.32976034188E+04  0.32901869375E+04 0.  0.
        1    1    3    3  502    0 -0.41790412199E+02  0.14108674748E+04 -0.95743254815E+03  0.17055704483E+04  0.50400001928E-02 0. -1.
       -1    1    3    3    0  502  0.41790412199E+02 -0.14108674748E+04  0.73639358304E+03  0.15920329705E+04  0.50400001928E-02 0.  1.
</event>
<event>
 5   0  0.2574803E-06  0.3209886E+04  0.7818609E-02  0.8186211E-01
        2   -1    0    0  501    0  0.00000000000E+00  0.00000000000E+00  0.86662060075E+03  0.86662060075E+03  0.25500000920E-02 0. -1.
       -2   -1    0    0    0  501  0.00000000000E+00  0.00000000000E+00 -0.29722835761E+04  0.29722835761E+04  0.25500000920E-02 0.  1.
    10030    2    1    2    0    0  0.00000000000E+00  0.00000000000E+00 -0.21056629754E+04  0.38389041769E+04  0.32098860904E+04 0.  0.
        4    1    3    3  502    0 -0.75484795831E+03  0.10907985957E+04 -0.21333118807E+04  0.25121023486E+04  0.12699999809E+01 0.  1.
       -4    1    3    3    0  502  0.75484795831E+03 -0.10907985957E+04  0.27648905336E+02  0.13268018283E+04  0.12699999809E+01 0. -1.
</event>
<event>
 5   0  0.8845526E-07  0.3496192E+04  0.7818609E-02  0.8114693E-01
       -1   -1    0    0    0  501  0.00000000000E+00  0.00000000000E+00  0.19042229181E+04  0.19042229181E+04  0.50400001928E-02 0. -1.
        1   -1    0    0  501    0  0.00000000000E+00  0.00000000000E+00 -0.16047698703E+04  0.16047698704E+04  0.50400001928E-02 0.  1.
    10030    2    1    2    0    0  0.00000000000E+00  0.00000000000E+00  0.29945304773E+03  0.35089927884E+04  0.34961919658E+04 0.  0.
        1    1    3    3  502    0 -0.73592950765E+02  0.10041783532E+04 -0.12845085390E+04  0.16321005711E+04  0.50400001928E-02 0.  1.
       -1    1    3    3    0  502  0.73592950765E+02 -0.10041783532E+04  0.15839615867E+04  0.18768922174E+04  0.50400001928E-02 0. -1.
</event>
<event>
 5   0  0.2574803E-06  0.3362991E+04  0.7818609E-02  0.8147050E-01
       -2   -1    0    0    0  501  0.00000000000E+00  0.00000000000E+00  0.19991553157E+04  0.19991553157E+04  0.25500000920E-02 0. -1.
        2   -1    0    0  501    0  0.00000000000E+00  0.00000000000E+00 -0.14143106954E+04  0.14143106954E+04  0.25500000920E-02 0.  1.
    10030    2    1    2    0    0  0.00000000000E+00  0.00000000000E+00  0.58484462027E+03  0.34134660111E+04  0.33629907789E+04 0.  0.
        4    1    3    3  502    0 -0.11056522512E+04  0.11497480019E+04  0.83242024418E+03  0.17992533018E+04  0.12699999809E+01 0. -1.
       -4    1    3    3    0  502  0.11056522512E+04 -0.11497480019E+04 -0.24757562391E+03  0.16142127093E+04  0.12699999809E+01 0.  1.
</event>
<event>
 5   0  0.2658600E-06  0.3144925E+04  0.7818609E-02  0.8203516E-01
       -2   -1    0    0    0  501  0.00000000000E+00  0.00000000000E+00  0.23627237857E+04  0.23627237857E+04  0.25500000920E-02 0.  1.
        2   -1    0    0  501    0  0.00000000000E+00  0.00000000000E+00 -0.10465203375E+04  0.10465203375E+04  0.25500000920E-02 0. -1.
    10030    2    1    2    0    0  0.00000000000E+00  0.00000000000E+00  0.13162034483E+04  0.34092441232E+04  0.31449251143E+04 0.  0.
        5    1    3    3  502    0 -0.14964741818E+04 -0.11566577187E+03  0.14986685540E+03  0.15084083372E+04  0.46999998093E+01 0. -1.
       -5    1    3    3    0  502  0.14964741818E+04  0.11566577187E+03  0.11663365929E+04  0.19008357860E+04  0.46999998093E+01 0.  1.
</event>
<event>
 5   0  0.9295663E-07  0.2894436E+04  0.7818609E-02  0.8274535E-01
       -1   -1    0    0    0  501  0.00000000000E+00  0.00000000000E+00  0.21593408918E+04  0.21593408918E+04  0.50400001928E-02 0. -1.
        1   -1    0    0  501    0  0.00000000000E+00  0.00000000000E+00 -0.96994439500E+03  0.96994439501E+03  0.50400001928E-02 0.  1.
    10030    2    1    2    0    0  0.00000000000E+00  0.00000000000E+00  0.11893964968E+04  0.31292852868E+04  0.28944364529E+04 0.  0.
        4    1    3    3  502    0 -0.41631147944E+03  0.43230084069E+03  0.20184546937E+04  0.21057920667E+04  0.12699999809E+01 0. -1.
       -4    1    3    3    0  502  0.41631147944E+03 -0.43230084069E+03 -0.82905819692E+03  0.10234932201E+04  0.12699999809E+01 0.  1.
</event>
<event>
 5   0  0.2658600E-06  0.2928042E+04  0.7818609E-02  0.8264583E-01
        2   -1    0    0  501    0  0.00000000000E+00  0.00000000000E+00  0.12200889726E+04  0.12200889726E+04  0.25500000920E-02 0. -1.
       -2   -1    0    0    0  501  0.00000000000E+00  0.00000000000E+00 -0.17567217947E+04  0.17567217947E+04  0.25500000920E-02 0.  1.
    10030    2    1    2    0    0  0.00000000000E+00  0.00000000000E+00 -0.53663282202E+03  0.29768107673E+04  0.29280415910E+04 0.  0.
        5    1    3    3  502    0  0.28768857443E+03 -0.14349976954E+04 -0.30569421749E+03  0.14951435203E+04  0.46999998093E+01 0. -1.
       -5    1    3    3    0  502 -0.28768857443E+03  0.14349976954E+04 -0.23093860452E+03  0.14816672470E+04  0.46999998093E+01 0.  1.
</event>
<event>
 5   0  0.8705956E-07  0.3174633E+04  0.7818609E-02  0.8195549E-01
       -1   -1    0    0    0  501  0.00000000000E+00  0.00000000000E+00  0.27015894478E+04  0.27015894478E+04  0.50400001928E-02 0. -1.
        1   -1    0    0  501    0  0.00000000000E+00  0.00000000000E+00 -0.93262656502E+03  0.93262656504E+03  0.50400001928E-02 0.  1.
    10030    2    1    2    0    0  0.00000000000E+00  0.00000000000E+00  0.17689628828E+04  0.36342160129E+04  0.31746332619E+04 0.  0.
        2    1    3    3  502    0 -0.15814620942E+04 -0.87605879249E+02  0.10038721614E+04  0.18752217101E+04  0.25500000920E-02 0.  1.
       -2    1    3    3    0  502  0.15814620942E+04  0.87605879249E+02  0.76509072139E+03  0.17589943028E+04  0.25500000920E-02 0. -1.
</event>
<event>
 5   0  0.2614212E-06  0.3318168E+04  0.7818609E-02  0.8158288E-01
       -2   -1    0    0    0  501  0.00000000000E+00  0.00000000000E+00  0.11288968678E+04  0.11288968678E+04  0.25500000920E-02 0. -1.
        2   -1    0    0  501    0  0.00000000000E+00  0.00000000000E+00 -0.24382737623E+04  0.24382737624E+04  0.25500000920E-02 0.  1.
    10030    2    1    2    0    0  0.00000000000E+00  0.00000000000E+00 -0.13093768945E+04  0.35671706302E+04  0.33181679362E+04 0.  0.
        2    1    3    3  502    0  0.10296027979E+04  0.12537539803E+04 -0.28138609444E+03  0.16465597769E+04  0.25500000920E-02 0. -1.
       -2    1    3    3    0  502 -0.10296027979E+04 -0.12537539803E+04 -0.10279908001E+04  0.19206108533E+04  0.25500000920E-02 0.  1.
</event>
<event>
 5   0  0.9530268E-07  0.3147501E+04  0.7818609E-02  0.8202821E-01
        1   -1    0    0  501    0  0.00000000000E+00  0.00000000000E+00  0.20262696622E+04  0.20262696622E+04  0.50400001928E-02 0. -1.
       -1   -1    0    0    0  501  0.00000000000E+00  0.00000000000E+00 -0.12222910692E+04  0.12222910693E+04  0.50400001928E-02 0.  1.
    10030    2    1    2    0    0  0.00000000000E+00  0.00000000000E+00  0.80397859293E+03  0.32485607314E+04  0.31475014294E+04 0.  0.
        5    1    3    3  502    0  0.33150065569E+03  0.96524704142E+03 -0.83442012626E+03  0.13182843293E+04  0.46999998093E+01 0.  1.
       -5    1    3    3    0  502 -0.33150065569E+03 -0.96524704142E+03  0.16383987192E+04  0.19302764022E+04  0.46999998093E+01 0. -1.
</event>
</LesHouchesEvents>
