<LesHouchesEvents version="3.0">
<header>
<!--
#*********************************************************************
#                                                                    *
#                        MadGraph5_aMC@NLO                           *
#                                                                    *
#                           Going Beyond                             *
#                                                                    *
#                   http://madgraph.hep.uiuc.edu                     *
#                   http://madgraph.phys.ucl.ac.be                   *
#                   http://amcatnlo.cern.ch                          *
#                                                                    *
#                     The MadGraph5_aMC@NLO team                     *
#                                                                    *
#....................................................................*
#                                                                    *
# This file contains all the information necessary to reproduce      *
# the events generated:                                              *
#                                                                    *
# 1. software version                                                *
# 2. proc_card          : code generation info including model       *
# 3. param_card         : model primary parameters in the LH format  *
# 4. run_card           : running parameters (collider and cuts)     *
# 5. pythia_card        : present only if pythia has been run        *
# 6. pgs_card           : present only if pgs has been run           *
# 7. delphes_cards      : present only if delphes has been run       *
#                                                                    *
#                                                                    *
#*********************************************************************
-->
<MGVersion>
#5.2.2.3
</MGVersion>
<MG5ProcCard>
#************************************************************
#*                     MadGraph5_aMC@NLO                    *
#*                                                          *
#*                *                       *                 *
#*                  *        * *        *                   *
#*                    * * * * 5 * * * *                     *
#*                  *        * *        *                   *
#*                *                       *                 *
#*                                                          *
#*                                                          *
#*         VERSION 2.2.3                 2015-02-10         *
#*                                                          *
#*    The MadGraph5_aMC@NLO Development Team - Find us at   *
#*    https://server06.fynu.ucl.ac.be/projects/madgraph     *
#*                                                          *
#************************************************************
#*                                                          *
#*               Command File for MadGraph5_aMC@NLO         *
#*                                                          *
#*     run as ./bin/mg5_aMC  filename                       *
#*                                                          *
#************************************************************
set group_subprocesses Auto
set ignore_six_quark_processes False
set loop_optimized_output True
set gauge unitary
set complex_mass_scheme False
import model sm
define p = g u c d s u~ c~ d~ s~
define j = g u c d s u~ c~ d~ s~
define l+ = e+ mu+
define l- = e- mu-
define vl = ve vm vt
define vl~ = ve~ vm~ vt~
import model Zprime_UFO
generate p p > zph, zph > j j
add process p p > zph, zph > b b~
output Dijet_signal
</MG5ProcCard>
<MGProcCard>
#*********************************************************************
#                        MadGraph/MadEvent                           *
#                   http://madgraph.hep.uiuc.edu                     *
#                                                                    *
#                          proc_card.dat                             *
#*********************************************************************
#                                                                    *
#            This Files is generated by MADGRAPH 5                   *
#                                                                    *
# WARNING: This Files is generated for MADEVENT (compatibility issue)*
#          This files is NOT a valid MG4 proc_card.dat               *
#          Running this in MG4 will NEVER reproduce the result of MG5*
#                                                                    *
#*********************************************************************
#*********************************************************************
# Process(es) requested : mg2 input                                  *
#*********************************************************************
# Begin PROCESS # This is TAG. Do not modify this line
p p > zph , zph > j j           #Process
# Be carefull the coupling are here in MG5 convention
          
end_coup           # End the couplings input

done               # this tells MG there are no more procs
# End PROCESS  # This is TAG. Do not modify this line
#*********************************************************************
# Model information                                                  *
#*********************************************************************
# Begin MODEL  # This is TAG. Do not modify this line
Zprime_UFO
# End   MODEL  # This is TAG. Do not modify this line
#*********************************************************************
# Start multiparticle definitions                                    *
#*********************************************************************
# Begin MULTIPARTICLES # This is TAG. Do not modify this line

# End  MULTIPARTICLES # This is TAG. Do not modify this line
</MGProcCard>
<MGRunCard>
#*********************************************************************
#                       MadGraph5_aMC@NLO                            *
#                                                                    *
#                     run_card.dat MadEvent                          *
#                                                                    *
#  This file is used to set the parameters of the run.               *
#                                                                    *
#  Some notation/conventions:                                        *
#                                                                    *
#   Lines starting with a '# ' are info or comments                  *
#                                                                    *
#   mind the format:   value    = variable     ! comment             *
#*********************************************************************
#
#*******************                                                 
# Running parameters
#*******************                                                 
#                                                                    
#*********************************************************************
# Tag name for the run (one word)                                    *
#*********************************************************************
  tag_1     = run_tag ! name of the run 
#*********************************************************************
# Run to generate the grid pack                                      *
#*********************************************************************
  .false.     = gridpack  !True = setting up the grid pack
#*********************************************************************
# Number of events and rnd seed                                      *
# Warning: Do not generate more than 1M events in a single run       *
# If you want to run Pythia, avoid more than 50k events in a run.    *
#*********************************************************************
  2000 = nevents ! Number of unweighted events requested 
 2847 = iseed   ! rnd seed (0=assigned automatically=default))
#*********************************************************************
# Collider type and energy                                           *
# lpp: 0=No PDF, 1=proton, -1=antiproton, 2=photon from proton,      *
#                                         3=photon from electron     *
#*********************************************************************
        1     = lpp1    ! beam 1 type 
        1     = lpp2    ! beam 2 type
     4000     = ebeam1  ! beam 1 total energy in GeV
     4000     = ebeam2  ! beam 2 total energy in GeV
#*********************************************************************
# Beam polarization from -100 (left-handed) to 100 (right-handed)    *
#*********************************************************************
        0     = polbeam1 ! beam polarization for beam 1
        0     = polbeam2 ! beam polarization for beam 2
#*********************************************************************
# PDF CHOICE: this automatically fixes also alpha_s and its evol.    *
#*********************************************************************
 'nn23lo1'    = pdlabel     ! PDF set                                     
 230000    = lhaid     ! if pdlabel=lhapdf, this is the lhapdf number
#*********************************************************************
# Renormalization and factorization scales                           *
#*********************************************************************
 F        = fixed_ren_scale  ! if .true. use fixed ren scale
 F        = fixed_fac_scale  ! if .true. use fixed fac scale
 91.1880  = scale            ! fixed ren scale
 91.1880  = dsqrt_q2fact1    ! fixed fact scale for pdf1
 91.1880  = dsqrt_q2fact2    ! fixed fact scale for pdf2
 1        = scalefact        ! scale factor for event-by-event scales
#*********************************************************************
# Matching - Warning! ickkw > 1 is still beta
#*********************************************************************
 0        = ickkw            ! 0 no matching, 1 MLM, 2 CKKW matching
 1        = highestmult      ! for ickkw=2, highest mult group
 1        = ktscheme         ! for ickkw=1, 1 Durham kT, 2 Pythia pTE
 1        = alpsfact         ! scale factor for QCD emission vx
 F        = chcluster        ! cluster only according to channel diag
 T        = pdfwgt           ! for ickkw=1, perform pdf reweighting
 5        = asrwgtflavor     ! highest quark flavor for a_s reweight
 T        = clusinfo         ! include clustering tag in output
 3.0      = lhe_version       ! Change the way clustering information pass to shower.        
#*********************************************************************
#**********************************************************
#
#**********************************************************
# Automatic ptj and mjj cuts if xqcut > 0
# (turn off for VBF and single top processes)
#**********************************************************
   T  = auto_ptj_mjj  ! Automatic setting of ptj and mjj
#**********************************************************
#                                                                    
#**********************************
# BW cutoff (M+/-bwcutoff*Gamma)
#**********************************
  15  = bwcutoff      ! (M+/-bwcutoff*Gamma)
#**********************************************************
# Apply pt/E/eta/dr/mij cuts on decay products or not
# (note that etmiss/ptll/ptheavy/ht/sorted cuts always apply)
#**********************************************************
   T  = cut_decays    ! Cut decay products 
#*************************************************************
# Number of helicities to sum per event (0 = all helicities)
# 0 gives more stable result, but longer run time (needed for
# long decay chains e.g.).
# Use >=2 if most helicities contribute, e.g. pure QCD.
#*************************************************************
   0  = nhel          ! Number of helicities used per event
#*******************                                                 
# Standard Cuts
#*******************                                                 
#                                                                    
#*********************************************************************
# Minimum and maximum pt's (for max, -1 means no cut)                *
#*********************************************************************
 20  = ptj       ! minimum pt for the jets 
  0  = ptb       ! minimum pt for the b 
 10  = pta       ! minimum pt for the photons 
 10  = ptl       ! minimum pt for the charged leptons 
  0  = misset    ! minimum missing Et (sum of neutrino's momenta)
  0  = ptheavy   ! minimum pt for one heavy final state
 1.0 = ptonium   ! minimum pt for the quarkonium states
 -1  = ptjmax    ! maximum pt for the jets
 -1  = ptbmax    ! maximum pt for the b
 -1  = ptamax    ! maximum pt for the photons
 -1  = ptlmax    ! maximum pt for the charged leptons
 -1  = missetmax ! maximum missing Et (sum of neutrino's momenta)
#*********************************************************************
# Minimum and maximum E's (in the center of mass frame)              *
#*********************************************************************
  0  = ej     ! minimum E for the jets 
  0  = eb     ! minimum E for the b 
  0  = ea     ! minimum E for the photons 
  0  = el     ! minimum E for the charged leptons 
 -1   = ejmax ! maximum E for the jets
 -1   = ebmax ! maximum E for the b
 -1   = eamax ! maximum E for the photons
 -1   = elmax ! maximum E for the charged leptons
#*********************************************************************
# Maximum and minimum absolute rapidity (for max, -1 means no cut)   *
#*********************************************************************
   5  = etaj    ! max rap for the jets 
  -1  = etab    ! max rap for the b
 2.5  = etaa    ! max rap for the photons 
 2.5  = etal    ! max rap for the charged leptons 
 0.6  = etaonium ! max rap for the quarkonium states
   0  = etajmin ! min rap for the jets
   0  = etabmin ! min rap for the b
   0  = etaamin ! min rap for the photons
   0  = etalmin ! main rap for the charged leptons
#*********************************************************************
# Minimum and maximum DeltaR distance                                *
#*********************************************************************
 0.4 = drjj    ! min distance between jets 
 0   = drbb    ! min distance between b's 
 0.4 = drll    ! min distance between leptons 
 0.4 = draa    ! min distance between gammas 
 0   = drbj    ! min distance between b and jet 
 0.4 = draj    ! min distance between gamma and jet 
 0.4 = drjl    ! min distance between jet and lepton 
 0   = drab    ! min distance between gamma and b 
 0   = drbl    ! min distance between b and lepton 
 0.4 = dral    ! min distance between gamma and lepton 
 -1  = drjjmax ! max distance between jets
 -1  = drbbmax ! max distance between b's
 -1  = drllmax ! max distance between leptons
 -1  = draamax ! max distance between gammas
 -1  = drbjmax ! max distance between b and jet
 -1  = drajmax ! max distance between gamma and jet
 -1  = drjlmax ! max distance between jet and lepton
 -1  = drabmax ! max distance between gamma and b
 -1  = drblmax ! max distance between b and lepton
 -1  = dralmax ! maxdistance between gamma and lepton
#*********************************************************************
# Minimum and maximum invariant mass for pairs                       *
# WARNING: for four lepton final state mmll cut require to have      *
#          different lepton masses for each flavor!                  *           
#*********************************************************************
 0   = mmjj    ! min invariant mass of a jet pair 
 0   = mmbb    ! min invariant mass of a b pair 
 0   = mmaa    ! min invariant mass of gamma gamma pair
 0   = mmll    ! min invariant mass of l+l- (same flavour) lepton pair
 -1  = mmjjmax ! max invariant mass of a jet pair
 -1  = mmbbmax ! max invariant mass of a b pair
 -1  = mmaamax ! max invariant mass of gamma gamma pair
 -1  = mmllmax ! max invariant mass of l+l- (same flavour) lepton pair
#*********************************************************************
# Minimum and maximum invariant mass for all letpons                 *
#*********************************************************************
 0   = mmnl    ! min invariant mass for all letpons (l+- and vl) 
 -1  = mmnlmax ! max invariant mass for all letpons (l+- and vl) 
#*********************************************************************
# Minimum and maximum pt for 4-momenta sum of leptons                *
#*********************************************************************
 0   = ptllmin  ! Minimum pt for 4-momenta sum of leptons(l and vl)
 -1  = ptllmax  ! Maximum pt for 4-momenta sum of leptons(l and vl)
#*********************************************************************
# Inclusive cuts                                                     *
#*********************************************************************
 0  = xptj ! minimum pt for at least one jet  
 0  = xptb ! minimum pt for at least one b 
 0  = xpta ! minimum pt for at least one photon 
 0  = xptl ! minimum pt for at least one charged lepton 
#*********************************************************************
# Control the pt's of the jets sorted by pt                          *
#*********************************************************************
 0   = ptj1min ! minimum pt for the leading jet in pt
 0   = ptj2min ! minimum pt for the second jet in pt
 0   = ptj3min ! minimum pt for the third jet in pt
 0   = ptj4min ! minimum pt for the fourth jet in pt
 -1  = ptj1max ! maximum pt for the leading jet in pt 
 -1  = ptj2max ! maximum pt for the second jet in pt
 -1  = ptj3max ! maximum pt for the third jet in pt
 -1  = ptj4max ! maximum pt for the fourth jet in pt
 0   = cutuse  ! reject event if fails any (0) / all (1) jet pt cuts
#*********************************************************************
# Control the pt's of leptons sorted by pt                           *
#*********************************************************************
 0   = ptl1min ! minimum pt for the leading lepton in pt
 0   = ptl2min ! minimum pt for the second lepton in pt
 0   = ptl3min ! minimum pt for the third lepton in pt
 0   = ptl4min ! minimum pt for the fourth lepton in pt
 -1  = ptl1max ! maximum pt for the leading lepton in pt 
 -1  = ptl2max ! maximum pt for the second lepton in pt
 -1  = ptl3max ! maximum pt for the third lepton in pt
 -1  = ptl4max ! maximum pt for the fourth lepton in pt
#*********************************************************************
# Control the Ht(k)=Sum of k leading jets                            *
#*********************************************************************
 0   = htjmin ! minimum jet HT=Sum(jet pt)
 -1  = htjmax ! maximum jet HT=Sum(jet pt)
 0   = ihtmin  !inclusive Ht for all partons (including b)
 -1  = ihtmax  !inclusive Ht for all partons (including b)
 0   = ht2min ! minimum Ht for the two leading jets
 0   = ht3min ! minimum Ht for the three leading jets
 0   = ht4min ! minimum Ht for the four leading jets
 -1  = ht2max ! maximum Ht for the two leading jets
 -1  = ht3max ! maximum Ht for the three leading jets
 -1  = ht4max ! maximum Ht for the four leading jets
#***********************************************************************
# Photon-isolation cuts, according to hep-ph/9801442                   *
# When ptgmin=0, all the other parameters are ignored                  *
# When ptgmin>0, pta and draj are not going to be used                 *
#***********************************************************************
   0 = ptgmin ! Min photon transverse momentum
 0.4 = R0gamma ! Radius of isolation code
 1.0 = xn ! n parameter of eq.(3.4) in hep-ph/9801442
 1.0 = epsgamma ! epsilon_gamma parameter of eq.(3.4) in hep-ph/9801442
 .true. = isoEM ! isolate photons from EM energy (photons and leptons)
#*********************************************************************
# WBF cuts                                                           *
#*********************************************************************
 0   = xetamin ! minimum rapidity for two jets in the WBF case  
 0   = deltaeta ! minimum rapidity for two jets in the WBF case 
#*********************************************************************
# KT DURHAM CUT                                                      *
#*********************************************************************
 -1    =  ktdurham        
 0.4  =  dparameter 
#*********************************************************************
# maximal pdg code for quark to be considered as a light jet         *
# (otherwise b cuts are applied)                                     *
#*********************************************************************
 4 = maxjetflavor    ! Maximum jet pdg code
#*********************************************************************
# Jet measure cuts                                                   *
#*********************************************************************
 0   = xqcut   ! minimum kt jet measure between partons
#*********************************************************************
#
#*********************************************************************
# Store info for systematics studies                                 *
# WARNING: If use_syst is T, matched Pythia output is                *
#          meaningful ONLY if plotted taking matchscale              *
#          reweighting into account!                                 *
#*********************************************************************
   F  = use_syst      ! Enable systematics studies
#
#**************************************
# Parameter of the systematics study
#  will be used by SysCalc (if installed)
#**************************************                                  
#
0.5 1 2 = sys_scalefact  # factorization/renormalization scale factor
0.5 1 2 = sys_alpsfact  # \alpha_s emission scale factors
30 50 = sys_matchscale # variation of merging scale
# PDF sets and number of members (0 or none for all members).
CT10nlo.LHgrid = sys_pdf # matching scales
# MSTW2008nlo68cl.LHgrid 1  = sys_pdf
</MGRunCard>
<slha>
######################################################################
## PARAM_CARD AUTOMATICALY GENERATED BY MG5 FOLLOWING UFO MODEL   ####
######################################################################
##                                                                  ##
##  Width set on Auto will be computed following the information    ##
##        present in the decay.py files of the model.               ##
##        See  arXiv:1402.1178 for more details.                    ##
##                                                                  ##
######################################################################

###################################
## INFORMATION FOR CKMBLOCK
###################################
Block ckmblock 
    1 2.277360e-01 # cabi 

###################################
## INFORMATION FOR FRBLOCK
###################################
Block frblock 
    1 1.600000e+00 # gz 

###################################
## INFORMATION FOR MASS
###################################
Block mass 
    1 5.040000e-03 # MD 
    2 2.550000e-03 # MU 
    3 1.010000e-01 # MS 
    4 1.270000e+00 # MC 
    5 4.700000e+00 # MB 
    6 1.720000e+02 # MT 
   11 5.110000e-04 # Me 
   13 1.056600e-01 # MM 
   15 1.777000e+00 # MTA 
   23 9.118760e+01 # MZ 
   25 1.200000e+02 # MH 
  10030 1.400000e+03 # MZph 
  10031 3.000000e+02 # MZpl 
## Dependent parameters, given by model restrictions.
## Those values should be edited following the 
## analytical expression. MG5 ignores those values 
## but they are important for interfacing the output of MG5
## to external program such as Pythia.
  12 0.000000 # ve : 0.0 
  14 0.000000 # vm : 0.0 
  16 0.000000 # vt : 0.0 
  21 0.000000 # g : 0.0 
  22 0.000000 # a : 0.0 
  24 79.824360 # w+ : cmath.sqrt(MZ__exp__2/2. + cmath.sqrt(MZ__exp__4/4. - (aEW*cmath.pi*MZ__exp__2)/(Gf*sqrt__2))) 

###################################
## INFORMATION FOR SMINPUTS
###################################
Block sminputs 
    1 1.279000e+02 # aEWM1 
    2 1.166370e-05 # Gf 
    3 1.184000e-01 # aS 

###################################
## INFORMATION FOR YUKAWA
###################################
Block yukawa 
    1 5.040000e-03 # ymdo 
    2 2.550000e-03 # ymup 
    3 1.010000e-01 # yms 
    4 1.270000e+00 # ymc 
    5 4.700000e+00 # ymb 
    6 1.720000e+02 # ymt 
   11 5.110000e-04 # yme 
   13 1.056600e-01 # ymm 
   15 1.777000e+00 # ymtau 

###################################
## INFORMATION FOR DECAY
###################################
DECAY   6 1.508336e+00 # WT 
DECAY  23 2.495200e+00 # WZ 
DECAY  24 2.085000e+00 # WW 
DECAY  25 5.753088e-03 # WH 
## Dependent parameters, given by model restrictions.
## Those values should be edited following the 
## analytical expression. MG5 ignores those values 
## but they are important for interfacing the output of MG5
## to external program such as Pythia.
DECAY  1 0.000000 # d : 0.0 
DECAY  2 0.000000 # u : 0.0 
DECAY  3 0.000000 # s : 0.0 
DECAY  4 0.000000 # c : 0.0 
DECAY  5 0.000000 # b : 0.0 
DECAY  11 0.000000 # e- : 0.0 
DECAY  12 0.000000 # ve : 0.0 
DECAY  13 0.000000 # mu- : 0.0 
DECAY  14 0.000000 # vm : 0.0 
DECAY  15 0.000000 # ta- : 0.0 
DECAY  16 0.000000 # vt : 0.0 
DECAY  21 0.000000 # g : 0.0 
DECAY  22 0.000000 # a : 0.0 
DECAY  10030 0.308725 # zph : (gz__exp__2*MZph*(5 + cmath.sqrt(1 - (4*MT__exp__2)/MZph__exp__2)))/(144.*cmath.pi) 
DECAY  10031 0.132629 # zpl : (5*gz__exp__2*MZpl)/(144.*cmath.pi) 
#===========================================================
# QUANTUM NUMBERS OF NEW STATE(S) (NON SM PDG CODE)
#===========================================================

Block QNUMBERS 10030  # zph 
        1 0  # 3 times electric charge
        2 3  # number of spin states (2S+1)
        3 1  # colour rep (1: singlet, 3: triplet, 8: octet)
        4 0  # Particle/Antiparticle distinction (0=own anti)
Block QNUMBERS 10031  # zpl 
        1 0  # 3 times electric charge
        2 3  # number of spin states (2S+1)
        3 1  # colour rep (1: singlet, 3: triplet, 8: octet)
        4 0  # Particle/Antiparticle distinction (0=own anti)
</slha>
## END BANNER##
<MGGenerationInfo>
#  Number of Events        :         3991
#  Integrated weight (pb)  :  0.88363E+00
#  Max wgt                 :  0.30067E-03
#  Average wgt             :  0.22141E-03
</MGGenerationInfo>
</header>
<init>
     2212     2212  0.40000000000E+04  0.40000000000E+04 0 0  247000  247000 2   1
  0.88395764050E+00  0.18098708319E-02  0.30067370000E-03   0
</init>
<event>
 5   0  0.3006737E-03  0.1259061E+04  0.7818609E-02  0.9062675E-01
        2   -1    0    0  501    0  0.00000000000E+00  0.00000000000E+00  0.15724814528E+04  0.15724814528E+04  0.25500000920E-02 0.  1.
       -2   -1    0    0    0  501  0.00000000000E+00  0.00000000000E+00 -0.25202758617E+03  0.25202758619E+03  0.25500000920E-02 0. -1.
    10030    2    1    2    0    0  0.00000000000E+00  0.00000000000E+00  0.13204538666E+04  0.18245090390E+04  0.12590610865E+04 0.  0.
        1    1    3    3  502    0  0.32650822301E+03 -0.52430271459E+03  0.48388981701E+03  0.78463387083E+03  0.50400001928E-02 0. -1.
       -1    1    3    3    0  502 -0.32650822301E+03  0.52430271459E+03  0.83656404961E+03  0.10398751682E+04  0.50400001928E-02 0.  1.
</event>
<event>
 5   0  0.3006737E-03  0.1429207E+04  0.7818609E-02  0.8932945E-01
        2   -1    0    0  501    0  0.00000000000E+00  0.00000000000E+00  0.12888945495E+04  0.12888945495E+04  0.25500000920E-02 0. -1.
       -2   -1    0    0    0  501  0.00000000000E+00  0.00000000000E+00 -0.39619832148E+03  0.39619832149E+03  0.25500000920E-02 0.  1.
    10030    2    1    2    0    0  0.00000000000E+00  0.00000000000E+00  0.89269622797E+03  0.16850928709E+04  0.14292065730E+04 0.  0.
        1    1    3    3  502    0 -0.32681113000E+03 -0.12180533044E+03  0.11817292055E+04  0.12321225460E+04  0.50400001928E-02 0. -1.
       -1    1    3    3    0  502  0.32681113000E+03  0.12180533044E+03 -0.28903297748E+03  0.45297032498E+03  0.50400001928E-02 0.  1.
</event>
<event>
 5   0  0.2993993E-03  0.1403350E+04  0.7818609E-02  0.8951398E-01
        2   -1    0    0  501    0  0.00000000000E+00  0.00000000000E+00  0.68523469287E+03  0.68523469288E+03  0.25500000920E-02 0.  1.
       -2   -1    0    0    0  501  0.00000000000E+00  0.00000000000E+00 -0.71850930233E+03  0.71850930233E+03  0.25500000920E-02 0. -1.
    10030    2    1    2    0    0  0.00000000000E+00  0.00000000000E+00 -0.33274609453E+02  0.14037439952E+04  0.14033495660E+04 0.  0.
        3    1    3    3  502    0  0.16344302376E+03  0.63989696895E+03 -0.25369703275E+03  0.70749130561E+03  0.10100000352E+00 0. -1.
       -3    1    3    3    0  502 -0.16344302376E+03 -0.63989696895E+03  0.22042242329E+03  0.69625268960E+03  0.10100000352E+00 0.  1.
</event>
<event>
 5   0  0.3006737E-03  0.1415481E+04  0.7818609E-02  0.8942688E-01
        2   -1    0    0  501    0  0.00000000000E+00  0.00000000000E+00  0.17083553729E+04  0.17083553729E+04  0.25500000920E-02 0. -1.
       -2   -1    0    0    0  501  0.00000000000E+00  0.00000000000E+00 -0.29320415880E+03  0.29320415881E+03  0.25500000920E-02 0.  1.
    10030    2    1    2    0    0  0.00000000000E+00  0.00000000000E+00  0.14151512141E+04  0.20015595317E+04  0.14154814023E+04 0.  0.
        1    1    3    3  502    0 -0.11047489764E+03  0.35713967684E+03 -0.14219990970E+03  0.39996783137E+03  0.50400001928E-02 0.  1.
       -1    1    3    3    0  502  0.11047489764E+03 -0.35713967684E+03  0.15573511238E+04  0.16015917004E+04  0.50400001928E-02 0. -1.
</event>
<event>
 5   0  0.2993993E-03  0.1387986E+04  0.7818609E-02  0.8962561E-01
       -2   -1    0    0    0  501  0.00000000000E+00  0.00000000000E+00  0.63893285119E+03  0.63893285120E+03  0.25500000920E-02 0.  1.
        2   -1    0    0  501    0  0.00000000000E+00  0.00000000000E+00 -0.75379748164E+03  0.75379748165E+03  0.25500000920E-02 0. -1.
    10030    2    1    2    0    0  0.00000000000E+00  0.00000000000E+00 -0.11486463045E+03  0.13927303328E+04  0.13879855535E+04 0.  0.
        3    1    3    3  502    0 -0.54050511337E+03  0.43505612250E+03 -0.71846541575E+02  0.69755397142E+03  0.10100000352E+00 0. -1.
       -3    1    3    3    0  502  0.54050511337E+03 -0.43505612250E+03 -0.43018088872E+02  0.69517636142E+03  0.10100000352E+00 0.  1.
</event>
<event>
 5   0  0.1586022E-03  0.1330707E+04  0.7818609E-02  0.9005562E-01
        1   -1    0    0  501    0  0.00000000000E+00  0.00000000000E+00  0.42585912347E+03  0.42585912350E+03  0.50400001928E-02 0.  1.
       -1   -1    0    0    0  501  0.00000000000E+00  0.00000000000E+00 -0.10395351060E+04  0.10395351060E+04  0.50400001928E-02 0. -1.
    10030    2    1    2    0    0  0.00000000000E+00  0.00000000000E+00 -0.61367598250E+03  0.14653942295E+04  0.13307073444E+04 0.  0.
        1    1    3    3  502    0 -0.90202131570E+02 -0.54874080242E+03 -0.70910942862E+03  0.90115984961E+03  0.50400001928E-02 0. -1.
       -1    1    3    3    0  502  0.90202131570E+02  0.54874080242E+03  0.95433446116E+02  0.56423437988E+03  0.50400001928E-02 0.  1.
</event>
<event>
 5   0  0.1631380E-03  0.1192695E+04  0.7818609E-02  0.9119275E-01
        1   -1    0    0  501    0  0.00000000000E+00  0.00000000000E+00  0.16622266647E+04  0.16622266647E+04  0.50400001928E-02 0. -1.
       -1   -1    0    0    0  501  0.00000000000E+00  0.00000000000E+00 -0.21394809769E+03  0.21394809775E+03  0.50400001928E-02 0.  1.
    10030    2    1    2    0    0  0.00000000000E+00  0.00000000000E+00  0.14482785670E+04  0.18761747624E+04  0.11926948191E+04 0.  0.
        3    1    3    3  502    0 -0.34387908409E+03  0.48669843100E+03  0.75938539108E+03  0.96529496508E+03  0.10100000352E+00 0. -1.
       -3    1    3    3    0  502  0.34387908409E+03 -0.48669843100E+03  0.68889317591E+03  0.91087979735E+03  0.10100000352E+00 0.  1.
</event>
<event>
 5   0  0.3006737E-03  0.9057740E+03  0.7818609E-02  0.9418392E-01
        2   -1    0    0  501    0  0.00000000000E+00  0.00000000000E+00  0.61539673489E+03  0.61539673489E+03  0.25500000920E-02 0. -1.
       -2   -1    0    0    0  501  0.00000000000E+00  0.00000000000E+00 -0.33329171845E+03  0.33329171846E+03  0.25500000920E-02 0.  1.
    10030    2    1    2    0    0  0.00000000000E+00  0.00000000000E+00  0.28210501644E+03  0.94868845335E+03  0.90577400118E+03 0.  0.
        1    1    3    3  502    0  0.15358112290E+03 -0.17050401623E+03 -0.26789203936E+03  0.35273917508E+03  0.50400001928E-02 0.  1.
       -1    1    3    3    0  502 -0.15358112290E+03  0.17050401623E+03  0.54999705580E+03  0.59594927827E+03  0.50400001928E-02 0. -1.
</event>
<event>
 5   0  0.1700207E-03  0.1407016E+04  0.7818609E-02  0.8948756E-01
        1   -1    0    0  501    0  0.00000000000E+00  0.00000000000E+00  0.55796060232E+03  0.55796060235E+03  0.50400001928E-02 0. -1.
       -1   -1    0    0    0  501  0.00000000000E+00  0.00000000000E+00 -0.88702221366E+03  0.88702221367E+03  0.50400001928E-02 0.  1.
    10030    2    1    2    0    0  0.00000000000E+00  0.00000000000E+00 -0.32906161133E+03  0.14449828160E+04  0.14070159184E+04 0.  0.
        2    1    3    3  502    0  0.39008614335E+02  0.17186139069E+02 -0.88569473607E+03  0.88671991117E+03  0.25500000920E-02 0.  1.
       -2    1    3    3    0  502 -0.39008614335E+02 -0.17186139069E+02  0.55663312473E+03  0.55826290484E+03  0.25500000920E-02 0. -1.
</event>
<event>
 5   0  0.3006737E-03  0.1398706E+04  0.7818609E-02  0.8954756E-01
       -2   -1    0    0    0  501  0.00000000000E+00  0.00000000000E+00  0.63779518841E+03  0.63779518842E+03  0.25500000920E-02 0. -1.
        2   -1    0    0  501    0  0.00000000000E+00  0.00000000000E+00 -0.76685184590E+03  0.76685184590E+03  0.25500000920E-02 0.  1.
    10030    2    1    2    0    0  0.00000000000E+00  0.00000000000E+00 -0.12905665748E+03  0.14046470343E+04  0.13987057125E+04 0.  0.
        1    1    3    3  502    0  0.23738890365E+03  0.15380118495E+03 -0.70684357537E+03  0.76133838478E+03  0.50400001928E-02 0.  1.
       -1    1    3    3    0  502 -0.23738890365E+03 -0.15380118495E+03  0.57778691789E+03  0.64330864954E+03  0.50400001928E-02 0. -1.
</event>
<event>
 5   0  0.1104538E-03  0.1122633E+04  0.7818609E-02  0.9183409E-01
       -4   -1    0    0    0  501  0.00000000000E+00  0.00000000000E+00  0.11277382391E+04  0.11277389542E+04  0.12699999809E+01 0.  1.
        4   -1    0    0  501    0  0.00000000000E+00  0.00000000000E+00 -0.27938529590E+03  0.27938818240E+03  0.12699999809E+01 0. -1.
    10030    2    1    2    0    0  0.00000000000E+00  0.00000000000E+00  0.84835294318E+03  0.14071271366E+04  0.11226326480E+04 0.  0.
        4    1    3    3  502    0  0.54556205464E+03  0.12611579769E+03  0.37512871858E+03  0.67399281769E+03  0.12699999809E+01 0.  1.
       -4    1    3    3    0  502 -0.54556205464E+03 -0.12611579769E+03  0.47322422459E+03  0.73313431889E+03  0.12699999809E+01 0. -1.
</event>
<event>
 5   0  0.2889469E-03  0.1402748E+04  0.7818609E-02  0.8951832E-01
       -2   -1    0    0    0  501  0.00000000000E+00  0.00000000000E+00  0.56822332647E+03  0.56822332648E+03  0.25500000920E-02 0. -1.
        2   -1    0    0  501    0  0.00000000000E+00  0.00000000000E+00 -0.86572512413E+03  0.86572512413E+03  0.25500000920E-02 0.  1.
    10030    2    1    2    0    0  0.00000000000E+00  0.00000000000E+00 -0.29750179766E+03  0.14339484506E+04  0.14027476036E+04 0.  0.
        5    1    3    3  502    0 -0.55229456571E+03 -0.42302371777E+03 -0.57749671936E+02  0.69809416823E+03  0.46999998093E+01 0. -1.
       -5    1    3    3    0  502  0.55229456571E+03  0.42302371777E+03 -0.23975212572E+03  0.73585428238E+03  0.46999998093E+01 0.  1.
</event>
<event>
 5   0  0.1560957E-03  0.1319419E+04  0.7818609E-02  0.9014306E-01
        1   -1    0    0  501    0  0.00000000000E+00  0.00000000000E+00  0.13031752440E+04  0.13031752440E+04  0.50400001928E-02 0.  1.
       -1   -1    0    0    0  501  0.00000000000E+00  0.00000000000E+00 -0.33396633789E+03  0.33396633793E+03  0.50400001928E-02 0. -1.
    10030    2    1    2    0    0  0.00000000000E+00  0.00000000000E+00  0.96920890614E+03  0.16371415820E+04  0.13194190599E+04 0.  0.
        5    1    3    3  502    0  0.11812968586E+03 -0.32454512427E+03 -0.21280118959E+03  0.40569766657E+03  0.46999998093E+01 0. -1.
       -5    1    3    3    0  502 -0.11812968586E+03  0.32454512427E+03  0.11820100957E+04  0.12314439154E+04  0.46999998093E+01 0.  1.
</event>
<event>
 5   0  0.1104538E-03  0.1430486E+04  0.7818609E-02  0.8932042E-01
       -3   -1    0    0    0  501  0.00000000000E+00  0.00000000000E+00  0.75015891299E+03  0.75015891979E+03  0.10100000352E+00 0. -1.
        3   -1    0    0  501    0  0.00000000000E+00  0.00000000000E+00 -0.68195252995E+03  0.68195253743E+03  0.10100000352E+00 0.  1.
    10030    2    1    2    0    0  0.00000000000E+00  0.00000000000E+00  0.68206383039E+02  0.14321114572E+04  0.14304863212E+04 0.  0.
        3    1    3    3  502    0 -0.27707832957E+03  0.54514071335E+03  0.40549899816E+03  0.73374399199E+03  0.10100000352E+00 0. -1.
       -3    1    3    3    0  502  0.27707832957E+03 -0.54514071335E+03 -0.33729261513E+03  0.69836746523E+03  0.10100000352E+00 0.  1.
</event>
<event>
 5   0  0.1586022E-03  0.1395970E+04  0.7818609E-02  0.8956740E-01
       -1   -1    0    0    0  501  0.00000000000E+00  0.00000000000E+00  0.90773981207E+03  0.90773981209E+03  0.50400001928E-02 0. -1.
        1   -1    0    0  501    0  0.00000000000E+00  0.00000000000E+00 -0.53669936881E+03  0.53669936884E+03  0.50400001928E-02 0.  1.
    10030    2    1    2    0    0  0.00000000000E+00  0.00000000000E+00  0.37104044326E+03  0.14444391809E+04  0.13959704642E+04 0.  0.
        1    1    3    3  502    0 -0.19106300254E+03  0.31205697065E+03 -0.42950664457E+03  0.56423450942E+03  0.50400001928E-02 0.  1.
       -1    1    3    3    0  502  0.19106300254E+03 -0.31205697065E+03  0.80054708783E+03  0.88020467150E+03  0.50400001928E-02 0. -1.
</event>
<event>
 5   0  0.1631380E-03  0.1383668E+04  0.7818609E-02  0.8965726E-01
       -1   -1    0    0    0  501  0.00000000000E+00  0.00000000000E+00  0.49904459675E+03  0.49904459678E+03  0.50400001928E-02 0.  1.
        1   -1    0    0  501    0  0.00000000000E+00  0.00000000000E+00 -0.95910162977E+03  0.95910162978E+03  0.50400001928E-02 0. -1.
    10030    2    1    2    0    0  0.00000000000E+00  0.00000000000E+00 -0.46005703301E+03  0.14581462266E+04  0.13836682928E+04 0.  0.
        3    1    3    3  502    0 -0.54590095771E+03  0.40050886300E+03 -0.80180211411E+02  0.68179475025E+03  0.10100000352E+00 0.  1.
       -3    1    3    3    0  502  0.54590095771E+03 -0.40050886300E+03 -0.37987682160E+03  0.77635147631E+03  0.10100000352E+00 0. -1.
</event>
<event>
 5   0  0.1631380E-03  0.1412454E+04  0.7818609E-02  0.8944852E-01
        1   -1    0    0  501    0  0.00000000000E+00  0.00000000000E+00  0.22622165228E+04  0.22622165228E+04  0.50400001928E-02 0.  1.
       -1   -1    0    0    0  501  0.00000000000E+00  0.00000000000E+00 -0.22047263236E+03  0.22047263242E+03  0.50400001928E-02 0. -1.
    10030    2    1    2    0    0  0.00000000000E+00  0.00000000000E+00  0.20417438905E+04  0.24826891553E+04  0.14124543629E+04 0.  0.
        3    1    3    3  502    0  0.15336647873E+03 -0.55376776721E+03  0.29918835264E+03  0.64783770912E+03  0.10100000352E+00 0.  1.
       -3    1    3    3    0  502 -0.15336647873E+03  0.55376776721E+03  0.17425555378E+04  0.18348514461E+04  0.10100000352E+00 0. -1.
</event>
<event>
 5   0  0.3006737E-03  0.1353624E+04  0.7818609E-02  0.8988090E-01
       -2   -1    0    0    0  501  0.00000000000E+00  0.00000000000E+00  0.82289400732E+03  0.82289400732E+03  0.25500000920E-02 0. -1.
        2   -1    0    0  501    0  0.00000000000E+00  0.00000000000E+00 -0.55666254981E+03  0.55666254981E+03  0.25500000920E-02 0.  1.
    10030    2    1    2    0    0  0.00000000000E+00  0.00000000000E+00  0.26623145751E+03  0.13795565571E+04  0.13536236941E+04 0.  0.
        1    1    3    3  502    0 -0.24336658299E+03 -0.45436790595E+02 -0.50885881330E+03  0.56588787543E+03  0.50400001928E-02 0.  1.
       -1    1    3    3    0  502  0.24336658299E+03  0.45436790595E+02  0.77509027081E+03  0.81366868171E+03  0.50400001928E-02 0. -1.
</event>
<event>
 5   0  0.1644571E-03  0.1413853E+04  0.7818609E-02  0.8943852E-01
       -1   -1    0    0    0  501  0.00000000000E+00  0.00000000000E+00  0.40698196175E+03  0.40698196178E+03  0.50400001928E-02 0.  1.
        1   -1    0    0  501    0  0.00000000000E+00  0.00000000000E+00 -0.12279290394E+04  0.12279290394E+04  0.50400001928E-02 0. -1.
    10030    2    1    2    0    0  0.00000000000E+00  0.00000000000E+00 -0.82094707765E+03  0.16349110012E+04  0.14138528486E+04 0.  0.
        4    1    3    3  502    0 -0.96749666118E+02 -0.20639292273E+03 -0.11842661679E+04  0.12060043556E+04  0.12699999809E+01 0. -1.
       -4    1    3    3    0  502  0.96749666118E+02  0.20639292273E+03  0.36331909021E+03  0.42890664562E+03  0.12699999809E+01 0.  1.
</event>
<event>
 5   0  0.1586022E-03  0.1057789E+04  0.7818609E-02  0.9247339E-01
       -1   -1    0    0    0  501  0.00000000000E+00  0.00000000000E+00  0.40996333599E+03  0.40996333602E+03  0.50400001928E-02 0. -1.
        1   -1    0    0  501    0  0.00000000000E+00  0.00000000000E+00 -0.68232749116E+03  0.68232749118E+03  0.50400001928E-02 0.  1.
    10030    2    1    2    0    0  0.00000000000E+00  0.00000000000E+00 -0.27236415517E+03  0.10922908272E+04  0.10577887399E+04 0.  0.
        1    1    3    3  502    0 -0.45805696901E+03 -0.18177850775E+03 -0.33445974720E+03  0.59558621144E+03  0.50400001928E-02 0. -1.
       -1    1    3    3    0  502  0.45805696901E+03  0.18177850775E+03  0.62095592032E+02  0.49670461576E+03  0.50400001928E-02 0.  1.
</event>
<event>
 5   0  0.2917809E-03  0.1430472E+04  0.7818609E-02  0.8932052E-01
       -2   -1    0    0    0  501  0.00000000000E+00  0.00000000000E+00  0.31264138166E+03  0.31264138167E+03  0.25500000920E-02 0. -1.
        2   -1    0    0  501    0  0.00000000000E+00  0.00000000000E+00 -0.16362600820E+04  0.16362600820E+04  0.25500000920E-02 0.  1.
    10030    2    1    2    0    0  0.00000000000E+00  0.00000000000E+00 -0.13236187004E+04  0.19489014637E+04  0.14304721078E+04 0.  0.
        2    1    3    3  502    0  0.63995842920E+03 -0.24313220582E+03 -0.37961257157E+03  0.78279356481E+03  0.25500000920E-02 0. -1.
       -2    1    3    3    0  502 -0.63995842920E+03  0.24313220582E+03 -0.94400612879E+03  0.11661078989E+04  0.25500000920E-02 0.  1.
</event>
<event>
 5   0  0.1631380E-03  0.1391585E+04  0.7818609E-02  0.8959933E-01
        1   -1    0    0  501    0  0.00000000000E+00  0.00000000000E+00  0.87425228805E+03  0.87425228807E+03  0.50400001928E-02 0. -1.
       -1   -1    0    0    0  501  0.00000000000E+00  0.00000000000E+00 -0.55376107330E+03  0.55376107333E+03  0.50400001928E-02 0.  1.
    10030    2    1    2    0    0  0.00000000000E+00  0.00000000000E+00  0.32049121475E+03  0.14280133614E+04  0.13915845435E+04 0.  0.
        3    1    3    3  502    0  0.45974900496E+03  0.21004584681E+03 -0.33043322954E+03  0.60388288162E+03  0.10100000352E+00 0.  1.
       -3    1    3    3    0  502 -0.45974900496E+03 -0.21004584681E+03  0.65092444429E+03  0.82413047978E+03  0.10100000352E+00 0. -1.
</event>
<event>
 5   0  0.1104538E-03  0.1402683E+04  0.7818609E-02  0.8951879E-01
       -3   -1    0    0    0  501  0.00000000000E+00  0.00000000000E+00  0.26023305283E+03  0.26023307243E+03  0.10100000352E+00 0. -1.
        3   -1    0    0  501    0  0.00000000000E+00  0.00000000000E+00 -0.18901516749E+04  0.18901516776E+04  0.10100000352E+00 0.  1.
    10030    2    1    2    0    0  0.00000000000E+00  0.00000000000E+00 -0.16299186221E+04  0.21503847500E+04  0.14026830927E+04 0.  0.
        5    1    3    3  502    0 -0.54703807490E+03  0.34690486892E+03 -0.40284442448E+03  0.76282328478E+03  0.46999998093E+01 0. -1.
       -5    1    3    3    0  502  0.54703807490E+03 -0.34690486892E+03 -0.12270741976E+04  0.13875614653E+04  0.46999998093E+01 0.  1.
</event>
<event>
 5   0  0.2993993E-03  0.1064318E+04  0.7818609E-02  0.9240685E-01
        2   -1    0    0  501    0  0.00000000000E+00  0.00000000000E+00  0.13039264333E+04  0.13039264333E+04  0.25500000920E-02 0.  1.
       -2   -1    0    0    0  501  0.00000000000E+00  0.00000000000E+00 -0.21718505682E+03  0.21718505683E+03  0.25500000920E-02 0. -1.
    10030    2    1    2    0    0  0.00000000000E+00  0.00000000000E+00  0.10867413765E+04  0.15211114902E+04  0.10643182541E+04 0.  0.
        3    1    3    3  502    0 -0.53082401927E+03 -0.65135709564E+01  0.59640033085E+03  0.79844219007E+03  0.10100000352E+00 0.  1.
       -3    1    3    3    0  502  0.53082401927E+03  0.65135709564E+01  0.49034104567E+03  0.72266930010E+03  0.10100000352E+00 0. -1.
</event>
<event>
 5   0  0.1586022E-03  0.1428749E+04  0.7818609E-02  0.8933268E-01
       -1   -1    0    0    0  501  0.00000000000E+00  0.00000000000E+00  0.82123710167E+03  0.82123710168E+03  0.50400001928E-02 0. -1.
        1   -1    0    0  501    0  0.00000000000E+00  0.00000000000E+00 -0.62141710191E+03  0.62141710193E+03  0.50400001928E-02 0.  1.
    10030    2    1    2    0    0  0.00000000000E+00  0.00000000000E+00  0.19981999976E+03  0.14426542036E+04  0.14287487949E+04 0.  0.
        1    1    3    3  502    0  0.59881067525E+03  0.10455467735E+03 -0.27900871408E+03  0.66884360497E+03  0.50400001928E-02 0.  1.
       -1    1    3    3    0  502 -0.59881067525E+03 -0.10455467735E+03  0.47882871384E+03  0.77381059864E+03  0.50400001928E-02 0. -1.
</event>
<event>
 5   0  0.2917809E-03  0.1468260E+04  0.7818609E-02  0.8905839E-01
       -2   -1    0    0    0  501  0.00000000000E+00  0.00000000000E+00  0.49821122176E+03  0.49821122176E+03  0.25500000920E-02 0.  1.
        2   -1    0    0  501    0  0.00000000000E+00  0.00000000000E+00 -0.10817632451E+04  0.10817632451E+04  0.25500000920E-02 0. -1.
    10030    2    1    2    0    0  0.00000000000E+00  0.00000000000E+00 -0.58355202330E+03  0.15799744668E+04  0.14682596337E+04 0.  0.
        2    1    3    3  502    0  0.17612237332E+03 -0.65097956838E+03 -0.60393961616E+03  0.90528257953E+03  0.25500000920E-02 0.  1.
       -2    1    3    3    0  502 -0.17612237332E+03  0.65097956838E+03  0.20387592852E+02  0.67469188729E+03  0.25500000920E-02 0. -1.
</event>
<event>
 5   0  0.1700207E-03  0.1378926E+04  0.7818609E-02  0.8969216E-01
       -1   -1    0    0    0  501  0.00000000000E+00  0.00000000000E+00  0.46856286604E+03  0.46856286607E+03  0.50400001928E-02 0.  1.
        1   -1    0    0  501    0  0.00000000000E+00  0.00000000000E+00 -0.10145041638E+04  0.10145041638E+04  0.50400001928E-02 0. -1.
    10030    2    1    2    0    0  0.00000000000E+00  0.00000000000E+00 -0.54594129775E+03  0.14830670299E+04  0.13789256378E+04 0.  0.
        2    1    3    3  502    0 -0.25655462867E+03 -0.45148205674E+03 -0.76076849791E+03  0.92109990363E+03  0.25500000920E-02 0. -1.
       -2    1    3    3    0  502  0.25655462867E+03  0.45148205674E+03  0.21482720016E+03  0.56196712624E+03  0.25500000920E-02 0.  1.
</event>
<event>
 5   0  0.2993993E-03  0.1269840E+04  0.7818609E-02  0.9053830E-01
       -2   -1    0    0    0  501  0.00000000000E+00  0.00000000000E+00  0.22857983214E+03  0.22857983215E+03  0.25500000920E-02 0. -1.
        2   -1    0    0  501    0  0.00000000000E+00  0.00000000000E+00 -0.17636004017E+04  0.17636004017E+04  0.25500000920E-02 0.  1.
    10030    2    1    2    0    0  0.00000000000E+00  0.00000000000E+00 -0.15350205696E+04  0.19921802339E+04  0.12698401219E+04 0.  0.
        3    1    3    3  502    0  0.20538714911E+03  0.22744910474E+03  0.10486607326E+03  0.32390412129E+03  0.10100000352E+00 0. -1.
       -3    1    3    3    0  502 -0.20538714911E+03 -0.22744910474E+03 -0.16398866428E+04  0.16682761126E+04  0.10100000352E+00 0.  1.
</event>
<event>
 5   0  0.2889469E-03  0.1709130E+04  0.7818609E-02  0.8756174E-01
        2   -1    0    0  501    0  0.00000000000E+00  0.00000000000E+00  0.23337082565E+04  0.23337082565E+04  0.25500000920E-02 0. -1.
       -2   -1    0    0    0  501  0.00000000000E+00  0.00000000000E+00 -0.31292732923E+03  0.31292732924E+03  0.25500000920E-02 0.  1.
    10030    2    1    2    0    0  0.00000000000E+00  0.00000000000E+00  0.20207809273E+04  0.26466355857E+04  0.17091297106E+04 0.  0.
        5    1    3    3  502    0 -0.34716860214E+02 -0.20472169938E+03 -0.27324767942E+03  0.34322386118E+03  0.46999998093E+01 0.  1.
       -5    1    3    3    0  502  0.34716860214E+02  0.20472169938E+03  0.22940286067E+04  0.23034117246E+04  0.46999998093E+01 0. -1.
</event>
<event>
 5   0  0.1700207E-03  0.1422300E+04  0.7818609E-02  0.8937833E-01
        1   -1    0    0  501    0  0.00000000000E+00  0.00000000000E+00  0.13801650170E+04  0.13801650170E+04  0.50400001928E-02 0.  1.
       -1   -1    0    0    0  501  0.00000000000E+00  0.00000000000E+00 -0.36643050430E+03  0.36643050433E+03  0.50400001928E-02 0. -1.
    10030    2    1    2    0    0  0.00000000000E+00  0.00000000000E+00  0.10137345127E+04  0.17465955214E+04  0.14223003385E+04 0.  0.
        2    1    3    3  502    0 -0.32672868845E+03  0.58782954487E+03  0.22298932833E+03  0.70853330920E+03  0.25500000920E-02 0. -1.
       -2    1    3    3    0  502  0.32672868845E+03 -0.58782954487E+03  0.79074518439E+03  0.10380622122E+04  0.25500000920E-02 0.  1.
</event>
<event>
 5   0  0.2993993E-03  0.1378197E+04  0.7818609E-02  0.8969754E-01
       -2   -1    0    0    0  501  0.00000000000E+00  0.00000000000E+00  0.18297424629E+04  0.18297424629E+04  0.25500000920E-02 0.  1.
        2   -1    0    0  501    0  0.00000000000E+00  0.00000000000E+00 -0.25952108540E+03  0.25952108541E+03  0.25500000920E-02 0. -1.
    10030    2    1    2    0    0  0.00000000000E+00  0.00000000000E+00  0.15702213775E+04  0.20892635483E+04  0.13781970106E+04 0.  0.
        3    1    3    3  502    0  0.58406957501E+03  0.35469118220E+03  0.65025478144E+03  0.94327853478E+03  0.10100000352E+00 0.  1.
       -3    1    3    3    0  502 -0.58406957501E+03 -0.35469118220E+03  0.91996659603E+03  0.11459850135E+04  0.10100000352E+00 0. -1.
</event>
<event>
 5   0  0.3006737E-03  0.1269661E+04  0.7818609E-02  0.9053977E-01
        2   -1    0    0  501    0  0.00000000000E+00  0.00000000000E+00  0.12302306784E+04  0.12302306784E+04  0.25500000920E-02 0.  1.
       -2   -1    0    0    0  501  0.00000000000E+00  0.00000000000E+00 -0.32758862884E+03  0.32758862885E+03  0.25500000920E-02 0. -1.
    10030    2    1    2    0    0  0.00000000000E+00  0.00000000000E+00  0.90264204954E+03  0.15578193072E+04  0.12696607123E+04 0.  0.
        1    1    3    3  502    0  0.79991712178E+02 -0.12744580810E+03 -0.30539278091E+03  0.34044949504E+03  0.50400001928E-02 0. -1.
       -1    1    3    3    0  502 -0.79991712178E+02  0.12744580810E+03  0.12080348305E+04  0.12173698122E+04  0.50400001928E-02 0.  1.
</event>
<event>
 5   0  0.1560957E-03  0.1398056E+04  0.7818609E-02  0.8955227E-01
        1   -1    0    0  501    0  0.00000000000E+00  0.00000000000E+00  0.61305047221E+03  0.61305047223E+03  0.50400001928E-02 0. -1.
       -1   -1    0    0    0  501  0.00000000000E+00  0.00000000000E+00 -0.79706344828E+03  0.79706344829E+03  0.50400001928E-02 0.  1.
    10030    2    1    2    0    0  0.00000000000E+00  0.00000000000E+00 -0.18401297607E+03  0.14101139205E+04  0.13980559694E+04 0.  0.
        5    1    3    3  502    0 -0.23534844167E+03  0.30542660573E+03 -0.68008208929E+03  0.78179795258E+03  0.46999998093E+01 0.  1.
       -5    1    3    3    0  502  0.23534844167E+03 -0.30542660573E+03  0.49606911322E+03  0.62831596794E+03  0.46999998093E+01 0. -1.
</event>
<event>
 5   0  0.2993993E-03  0.1415055E+04  0.7818609E-02  0.8942993E-01
        2   -1    0    0  501    0  0.00000000000E+00  0.00000000000E+00  0.14654527977E+04  0.14654527977E+04  0.25500000920E-02 0. -1.
       -2   -1    0    0    0  501  0.00000000000E+00  0.00000000000E+00 -0.34159754599E+03  0.34159754600E+03  0.25500000920E-02 0.  1.
    10030    2    1    2    0    0  0.00000000000E+00  0.00000000000E+00  0.11238552517E+04  0.18070503437E+04  0.14150548816E+04 0.  0.
        3    1    3    3  502    0  0.44699649245E+03 -0.52451647424E+03  0.35731894457E+03  0.77627329876E+03  0.10100000352E+00 0. -1.
       -3    1    3    3    0  502 -0.44699649245E+03  0.52451647424E+03  0.76653630712E+03  0.10307770449E+04  0.10100000352E+00 0.  1.
</event>
<event>
 5   0  0.1644571E-03  0.1382890E+04  0.7818609E-02  0.8966297E-01
       -1   -1    0    0    0  501  0.00000000000E+00  0.00000000000E+00  0.37966158507E+03  0.37966158510E+03  0.50400001928E-02 0.  1.
        1   -1    0    0  501    0  0.00000000000E+00  0.00000000000E+00 -0.12592701665E+04  0.12592701665E+04  0.50400001928E-02 0. -1.
    10030    2    1    2    0    0  0.00000000000E+00  0.00000000000E+00 -0.87960858139E+03  0.16389317516E+04  0.13828904620E+04 0.  0.
        4    1    3    3  502    0  0.18077609168E+02 -0.14779154591E+03 -0.12400440959E+04  0.12489516059E+04  0.12699999809E+01 0. -1.
       -4    1    3    3    0  502 -0.18077609168E+02  0.14779154591E+03  0.36043551455E+03  0.38998014571E+03  0.12699999809E+01 0.  1.
</event>
<event>
 5   0  0.1586022E-03  0.1421370E+04  0.7818609E-02  0.8938493E-01
        1   -1    0    0  501    0  0.00000000000E+00  0.00000000000E+00  0.88678309538E+03  0.88678309540E+03  0.50400001928E-02 0.  1.
       -1   -1    0    0    0  501  0.00000000000E+00  0.00000000000E+00 -0.56955694119E+03  0.56955694121E+03  0.50400001928E-02 0. -1.
    10030    2    1    2    0    0  0.00000000000E+00  0.00000000000E+00  0.31722615420E+03  0.14563400366E+04  0.14213704195E+04 0.  0.
        1    1    3    3  502    0 -0.68747050027E+03  0.93914415156E+02  0.10844075690E+01  0.69385645639E+03  0.50400001928E-02 0. -1.
       -1    1    3    3    0  502  0.68747050027E+03 -0.93914415156E+02  0.31614174663E+03  0.76248358022E+03  0.50400001928E-02 0.  1.
</event>
<event>
 5   0  0.1631380E-03  0.1380022E+04  0.7818609E-02  0.8968408E-01
       -1   -1    0    0    0  501  0.00000000000E+00  0.00000000000E+00  0.69377798481E+03  0.69377798483E+03  0.50400001928E-02 0. -1.
        1   -1    0    0  501    0  0.00000000000E+00  0.00000000000E+00 -0.68626442210E+03  0.68626442212E+03  0.50400001928E-02 0.  1.
    10030    2    1    2    0    0  0.00000000000E+00  0.00000000000E+00  0.75135627123E+01  0.13800424069E+04  0.13800219532E+04 0.  0.
        3    1    3    3  502    0  0.11398036155E+03  0.29491314530E+03 -0.60956287567E+03  0.68668201934E+03  0.10100000352E+00 0.  1.
       -3    1    3    3    0  502 -0.11398036155E+03 -0.29491314530E+03  0.61707643838E+03  0.69336038760E+03  0.10100000352E+00 0. -1.
</event>
<event>
 5   0  0.2760807E-03  0.1407049E+04  0.7818609E-02  0.8948732E-01
       -2   -1    0    0    0  501  0.00000000000E+00  0.00000000000E+00  0.66276163527E+03  0.66276163528E+03  0.25500000920E-02 0. -1.
        2   -1    0    0  501    0  0.00000000000E+00  0.00000000000E+00 -0.74679488569E+03  0.74679488569E+03  0.25500000920E-02 0.  1.
    10030    2    1    2    0    0  0.00000000000E+00  0.00000000000E+00 -0.84033250413E+02  0.14095565210E+04  0.14070493945E+04 0.  0.
        4    1    3    3  502    0  0.12746428867E+03 -0.22172776444E+03 -0.69857364721E+03  0.74392008972E+03  0.12699999809E+01 0.  1.
       -4    1    3    3    0  502 -0.12746428867E+03  0.22172776444E+03  0.61454039680E+03  0.66563643125E+03  0.12699999809E+01 0. -1.
</event>
<event>
 5   0  0.2760807E-03  0.1315713E+04  0.7818609E-02  0.9017197E-01
        2   -1    0    0  501    0  0.00000000000E+00  0.00000000000E+00  0.19047937815E+04  0.19047937815E+04  0.25500000920E-02 0.  1.
       -2   -1    0    0    0  501  0.00000000000E+00  0.00000000000E+00 -0.22720318972E+03  0.22720318973E+03  0.25500000920E-02 0. -1.
    10030    2    1    2    0    0  0.00000000000E+00  0.00000000000E+00  0.16775905918E+04  0.21319969713E+04  0.13157130735E+04 0.  0.
        4    1    3    3  502    0 -0.15453859466E+03 -0.19110824675E+02 -0.19690799309E+03  0.25104137408E+03  0.12699999809E+01 0. -1.
       -4    1    3    3    0  502  0.15453859466E+03  0.19110824675E+02  0.18744985849E+04  0.18809555972E+04  0.12699999809E+01 0.  1.
</event>
<event>
 5   0  0.1104538E-03  0.9529063E+03  0.7818609E-02  0.9361760E-01
        4   -1    0    0  501    0  0.00000000000E+00  0.00000000000E+00  0.48344413647E+03  0.48344580460E+03  0.12699999809E+01 0.  1.
       -4   -1    0    0    0  501  0.00000000000E+00  0.00000000000E+00 -0.46955989089E+03  0.46956160835E+03  0.12699999809E+01 0. -1.
    10030    2    1    2    0    0  0.00000000000E+00  0.00000000000E+00  0.13884245576E+02  0.95300741295E+03  0.95290626866E+03 0.  0.
        3    1    3    3  502    0 -0.15072512598E+03 -0.63982843727E+02 -0.44053772268E+03  0.46998442868E+03  0.10100000352E+00 0. -1.
       -3    1    3    3    0  502  0.15072512598E+03  0.63982843727E+02  0.45442196826E+03  0.48302298427E+03  0.10100000352E+00 0.  1.
</event>
<event>
 5   0  0.1631380E-03  0.7282457E+03  0.7818609E-02  0.9670111E-01
       -1   -1    0    0    0  501  0.00000000000E+00  0.00000000000E+00  0.12312231302E+03  0.12312231312E+03  0.50400001928E-02 0. -1.
        1   -1    0    0  501    0  0.00000000000E+00  0.00000000000E+00 -0.10768597715E+04  0.10768597715E+04  0.50400001928E-02 0.  1.
    10030    2    1    2    0    0  0.00000000000E+00  0.00000000000E+00 -0.95373745847E+03  0.11999820846E+04  0.72824574406E+03 0.  0.
        3    1    3    3  502    0  0.16607345087E+03 -0.23254681691E+03 -0.84872151156E+03  0.89553706094E+03  0.10100000352E+00 0.  1.
       -3    1    3    3    0  502 -0.16607345087E+03  0.23254681691E+03 -0.10501594691E+03  0.30444502368E+03  0.10100000352E+00 0. -1.
</event>
<event>
 5   0  0.1560957E-03  0.1394790E+04  0.7818609E-02  0.8957598E-01
        1   -1    0    0  501    0  0.00000000000E+00  0.00000000000E+00  0.23735424287E+04  0.23735424287E+04  0.50400001928E-02 0. -1.
       -1   -1    0    0    0  501  0.00000000000E+00  0.00000000000E+00 -0.20490894439E+03  0.20490894445E+03  0.50400001928E-02 0.  1.
    10030    2    1    2    0    0  0.00000000000E+00  0.00000000000E+00  0.21686334843E+04  0.25784513732E+04  0.13947904124E+04 0.  0.
        5    1    3    3  502    0 -0.53855880772E+03 -0.12953457927E+03  0.30107076907E+03  0.63046847232E+03  0.46999998093E+01 0.  1.
       -5    1    3    3    0  502  0.53855880772E+03  0.12953457927E+03  0.18675627153E+04  0.19479829009E+04  0.46999998093E+01 0. -1.
</event>
<event>
 5   0  0.2917809E-03  0.1339992E+04  0.7818609E-02  0.8998439E-01
        2   -1    0    0  501    0  0.00000000000E+00  0.00000000000E+00  0.56930339136E+03  0.56930339136E+03  0.25500000920E-02 0.  1.
       -2   -1    0    0    0  501  0.00000000000E+00  0.00000000000E+00 -0.78849839820E+03  0.78849839820E+03  0.25500000920E-02 0. -1.
    10030    2    1    2    0    0  0.00000000000E+00  0.00000000000E+00 -0.21919500684E+03  0.13578017896E+04  0.13399922570E+04 0.  0.
        2    1    3    3  502    0 -0.86630943598E+01  0.44971343849E+03  0.39356803212E+03  0.59767300581E+03  0.25500000920E-02 0.  1.
       -2    1    3    3    0  502  0.86630943598E+01 -0.44971343849E+03 -0.61276303896E+03  0.76012878375E+03  0.25500000920E-02 0. -1.
</event>
<event>
 5   0  0.2993993E-03  0.1403088E+04  0.7818609E-02  0.8951586E-01
       -2   -1    0    0    0  501  0.00000000000E+00  0.00000000000E+00  0.57891580363E+03  0.57891580364E+03  0.25500000920E-02 0. -1.
        2   -1    0    0  501    0  0.00000000000E+00  0.00000000000E+00 -0.85014799196E+03  0.85014799196E+03  0.25500000920E-02 0.  1.
    10030    2    1    2    0    0  0.00000000000E+00  0.00000000000E+00 -0.27123218833E+03  0.14290637956E+04  0.14030881768E+04 0.  0.
        3    1    3    3  502    0  0.25389515845E+03 -0.35586297225E+03 -0.69446610772E+03  0.82060001917E+03  0.10100000352E+00 0.  1.
       -3    1    3    3    0  502 -0.25389515845E+03  0.35586297225E+03  0.42323391939E+03  0.60846377643E+03  0.10100000352E+00 0. -1.
</event>
<event>
 5   0  0.3006737E-03  0.1344446E+04  0.7818609E-02  0.8995043E-01
       -2   -1    0    0    0  501  0.00000000000E+00  0.00000000000E+00  0.54239714516E+03  0.54239714517E+03  0.25500000920E-02 0. -1.
        2   -1    0    0  501    0  0.00000000000E+00  0.00000000000E+00 -0.83312336917E+03  0.83312336918E+03  0.25500000920E-02 0.  1.
    10030    2    1    2    0    0  0.00000000000E+00  0.00000000000E+00 -0.29072622401E+03  0.13755205143E+04  0.13444459632E+04 0.  0.
        1    1    3    3  502    0 -0.30351696103E+03  0.18424308229E+03 -0.72935889283E+03  0.81119199551E+03  0.50400001928E-02 0.  1.
       -1    1    3    3    0  502  0.30351696103E+03 -0.18424308229E+03  0.43863266881E+03  0.56432851884E+03  0.50400001928E-02 0. -1.
</event>
<event>
 5   0  0.2917809E-03  0.1331815E+04  0.7818609E-02  0.9004709E-01
       -2   -1    0    0    0  501  0.00000000000E+00  0.00000000000E+00  0.43656190243E+03  0.43656190244E+03  0.25500000920E-02 0. -1.
        2   -1    0    0  501    0  0.00000000000E+00  0.00000000000E+00 -0.10157381696E+04  0.10157381696E+04  0.25500000920E-02 0.  1.
    10030    2    1    2    0    0  0.00000000000E+00  0.00000000000E+00 -0.57917626718E+03  0.14523000721E+04  0.13318146834E+04 0.  0.
        2    1    3    3  502    0 -0.37621409378E+03  0.37061465924E+03  0.15274424011E+03  0.54974819045E+03  0.25500000920E-02 0. -1.
       -2    1    3    3    0  502  0.37621409378E+03 -0.37061465924E+03 -0.73192050729E+03  0.90255188162E+03  0.25500000920E-02 0.  1.
</event>
<event>
 5   0  0.2993993E-03  0.1585423E+04  0.7818609E-02  0.8829553E-01
        2   -1    0    0  501    0  0.00000000000E+00  0.00000000000E+00  0.16576149134E+04  0.16576149134E+04  0.25500000920E-02 0.  1.
       -2   -1    0    0    0  501  0.00000000000E+00  0.00000000000E+00 -0.37909390556E+03  0.37909390557E+03  0.25500000920E-02 0. -1.
    10030    2    1    2    0    0  0.00000000000E+00  0.00000000000E+00  0.12785210078E+04  0.20367088190E+04  0.15854232387E+04 0.  0.
        3    1    3    3  502    0 -0.60751764256E+03 -0.27513132064E+03  0.88782591485E+02  0.67279810372E+03  0.10100000352E+00 0. -1.
       -3    1    3    3    0  502  0.60751764256E+03  0.27513132064E+03  0.11897384164E+04  0.13639107152E+04  0.10100000352E+00 0.  1.
</event>
<event>
 5   0  0.1631380E-03  0.1322003E+04  0.7818609E-02  0.9012297E-01
        1   -1    0    0  501    0  0.00000000000E+00  0.00000000000E+00  0.11051303909E+04  0.11051303909E+04  0.50400001928E-02 0.  1.
       -1   -1    0    0    0  501  0.00000000000E+00  0.00000000000E+00 -0.39535858773E+03  0.39535858776E+03  0.50400001928E-02 0. -1.
    10030    2    1    2    0    0  0.00000000000E+00  0.00000000000E+00  0.70977180314E+03  0.15004889786E+04  0.13220027090E+04 0.  0.
        3    1    3    3  502    0  0.26485253868E+03  0.45934816800E+03 -0.93084775151E+02  0.53834226312E+03  0.10100000352E+00 0. -1.
       -3    1    3    3    0  502 -0.26485253868E+03 -0.45934816800E+03  0.80285657829E+03  0.96214671553E+03  0.10100000352E+00 0.  1.
</event>
<event>
 5   0  0.2889469E-03  0.1327312E+04  0.7818609E-02  0.9008182E-01
        2   -1    0    0  501    0  0.00000000000E+00  0.00000000000E+00  0.22095398911E+04  0.22095398911E+04  0.25500000920E-02 0.  1.
       -2   -1    0    0    0  501  0.00000000000E+00  0.00000000000E+00 -0.19933532641E+03  0.19933532642E+03  0.25500000920E-02 0. -1.
    10030    2    1    2    0    0  0.00000000000E+00  0.00000000000E+00  0.20102045647E+04  0.24088752175E+04  0.13273121041E+04 0.  0.
        5    1    3    3  502    0  0.12672227215E+03  0.56928526721E+03  0.43041274966E+03  0.72485962420E+03  0.46999998093E+01 0. -1.
       -5    1    3    3    0  502 -0.12672227215E+03 -0.56928526721E+03  0.15797918150E+04  0.16840155933E+04  0.46999998093E+01 0.  1.
</event>
<event>
 5   0  0.1560957E-03  0.1382130E+04  0.7818609E-02  0.8966856E-01
       -1   -1    0    0    0  501  0.00000000000E+00  0.00000000000E+00  0.43687865606E+03  0.43687865609E+03  0.50400001928E-02 0.  1.
        1   -1    0    0  501    0  0.00000000000E+00  0.00000000000E+00 -0.10931427751E+04  0.10931427751E+04  0.50400001928E-02 0. -1.
    10030    2    1    2    0    0  0.00000000000E+00  0.00000000000E+00 -0.65626411900E+03  0.15300214312E+04  0.13821298730E+04 0.  0.
        5    1    3    3  502    0  0.11463216518E+03  0.52416928191E+03 -0.81022464303E+03  0.97179217508E+03  0.46999998093E+01 0. -1.
       -5    1    3    3    0  502 -0.11463216518E+03 -0.52416928191E+03  0.15396052403E+03  0.55822925608E+03  0.46999998093E+01 0.  1.
</event>
<event>
 5   0  0.1631380E-03  0.1396701E+04  0.7818609E-02  0.8956210E-01
        1   -1    0    0  501    0  0.00000000000E+00  0.00000000000E+00  0.98101658940E+03  0.98101658941E+03  0.50400001928E-02 0. -1.
       -1   -1    0    0    0  501  0.00000000000E+00  0.00000000000E+00 -0.49713078269E+03  0.49713078272E+03  0.50400001928E-02 0.  1.
    10030    2    1    2    0    0  0.00000000000E+00  0.00000000000E+00  0.48388580670E+03  0.14781473721E+04  0.13967011777E+04 0.  0.
        3    1    3    3  502    0 -0.30722257880E+03  0.20697726493E+03 -0.38458232886E+03  0.53397460520E+03  0.10100000352E+00 0.  1.
       -3    1    3    3    0  502  0.30722257880E+03 -0.20697726493E+03  0.86846813557E+03  0.94417276693E+03  0.10100000352E+00 0. -1.
</event>
<event>
 5   0  0.2993993E-03  0.1408051E+04  0.7818609E-02  0.8948011E-01
       -2   -1    0    0    0  501  0.00000000000E+00  0.00000000000E+00  0.32963157144E+03  0.32963157145E+03  0.25500000920E-02 0.  1.
        2   -1    0    0  501    0  0.00000000000E+00  0.00000000000E+00 -0.15036543042E+04  0.15036543042E+04  0.25500000920E-02 0. -1.
    10030    2    1    2    0    0  0.00000000000E+00  0.00000000000E+00 -0.11740227328E+04  0.18332858757E+04  0.14080510377E+04 0.  0.
        3    1    3    3  502    0  0.54441133868E+03  0.41108609095E+03 -0.36046129265E+03  0.77156194408E+03  0.10100000352E+00 0.  1.
       -3    1    3    3    0  502 -0.54441133868E+03 -0.41108609095E+03 -0.81356144012E+03  0.10617239316E+04  0.10100000352E+00 0. -1.
</event>
<event>
 5   0  0.1586022E-03  0.1408135E+04  0.7818609E-02  0.8947951E-01
       -1   -1    0    0    0  501  0.00000000000E+00  0.00000000000E+00  0.73688525614E+03  0.73688525616E+03  0.50400001928E-02 0. -1.
        1   -1    0    0  501    0  0.00000000000E+00  0.00000000000E+00 -0.67271132435E+03  0.67271132437E+03  0.50400001928E-02 0.  1.
    10030    2    1    2    0    0  0.00000000000E+00  0.00000000000E+00  0.64173931786E+02  0.14095965805E+04  0.14081350171E+04 0.  0.
        1    1    3    3  502    0  0.68752798265E+03  0.10497363559E+03  0.14173085540E+03  0.70978998759E+03  0.50400001928E-02 0. -1.
       -1    1    3    3    0  502 -0.68752798265E+03 -0.10497363559E+03 -0.77556923616E+02  0.69980659294E+03  0.50400001928E-02 0.  1.
</event>
<event>
 5   0  0.1631380E-03  0.1406662E+04  0.7818609E-02  0.8949010E-01
       -1   -1    0    0    0  501  0.00000000000E+00  0.00000000000E+00  0.58502795376E+03  0.58502795378E+03  0.50400001928E-02 0.  1.
        1   -1    0    0  501    0  0.00000000000E+00  0.00000000000E+00 -0.84555680278E+03  0.84555680279E+03  0.50400001928E-02 0. -1.
    10030    2    1    2    0    0  0.00000000000E+00  0.00000000000E+00 -0.26052884902E+03  0.14305847566E+04  0.14066618160E+04 0.  0.
        3    1    3    3  502    0  0.20194007743E+03  0.11679624511E+03  0.54453570039E+03  0.59240214123E+03  0.10100000352E+00 0.  1.
       -3    1    3    3    0  502 -0.20194007743E+03 -0.11679624511E+03 -0.80506454941E+03  0.83818261534E+03  0.10100000352E+00 0. -1.
</event>
<event>
 5   0  0.1700207E-03  0.1400101E+04  0.7818609E-02  0.8953745E-01
       -1   -1    0    0    0  501  0.00000000000E+00  0.00000000000E+00  0.13109650833E+04  0.13109650833E+04  0.50400001928E-02 0. -1.
        1   -1    0    0  501    0  0.00000000000E+00  0.00000000000E+00 -0.37382436976E+03  0.37382436979E+03  0.50400001928E-02 0.  1.
    10030    2    1    2    0    0  0.00000000000E+00  0.00000000000E+00  0.93714071350E+03  0.16847894531E+04  0.14001009907E+04 0.  0.
        2    1    3    3  502    0 -0.67016399782E+03  0.13390437641E+03  0.28599425421E+03  0.74083930743E+03  0.25500000920E-02 0. -1.
       -2    1    3    3    0  502  0.67016399782E+03 -0.13390437641E+03  0.65114645929E+03  0.94395014564E+03  0.25500000920E-02 0.  1.
</event>
<event>
 5   0  0.1560957E-03  0.1381395E+04  0.7818609E-02  0.8967397E-01
        1   -1    0    0  501    0  0.00000000000E+00  0.00000000000E+00  0.58218352020E+03  0.58218352022E+03  0.50400001928E-02 0. -1.
       -1   -1    0    0    0  501  0.00000000000E+00  0.00000000000E+00 -0.81943718985E+03  0.81943718987E+03  0.50400001928E-02 0.  1.
    10030    2    1    2    0    0  0.00000000000E+00  0.00000000000E+00 -0.23725366965E+03  0.14016207101E+04  0.13813946978E+04 0.  0.
        5    1    3    3  502    0  0.28662541572E+03  0.21030095208E+01 -0.75622416875E+03  0.80873706171E+03  0.46999998093E+01 0.  1.
       -5    1    3    3    0  502 -0.28662541572E+03 -0.21030095208E+01  0.51897049910E+03  0.59288364838E+03  0.46999998093E+01 0. -1.
</event>
<event>
 5   0  0.2760807E-03  0.1367139E+04  0.7818609E-02  0.8977955E-01
        2   -1    0    0  501    0  0.00000000000E+00  0.00000000000E+00  0.14903212403E+04  0.14903212403E+04  0.25500000920E-02 0. -1.
       -2   -1    0    0    0  501  0.00000000000E+00  0.00000000000E+00 -0.31353440128E+03  0.31353440129E+03  0.25500000920E-02 0.  1.
    10030    2    1    2    0    0  0.00000000000E+00  0.00000000000E+00  0.11767868390E+04  0.18038556415E+04  0.13671385852E+04 0.  0.
        4    1    3    3  502    0 -0.27999223274E+03  0.51885221176E+03  0.13197039694E+03  0.60416973328E+03  0.12699999809E+01 0.  1.
       -4    1    3    3    0  502  0.27999223274E+03 -0.51885221176E+03  0.10448164420E+04  0.11996859083E+04  0.12699999809E+01 0. -1.
</event>
<event>
 5   0  0.3006737E-03  0.1399153E+04  0.7818609E-02  0.8954432E-01
       -2   -1    0    0    0  501  0.00000000000E+00  0.00000000000E+00  0.24883311243E+03  0.24883311245E+03  0.25500000920E-02 0. -1.
        2   -1    0    0  501    0  0.00000000000E+00  0.00000000000E+00 -0.19668090731E+04  0.19668090731E+04  0.25500000920E-02 0.  1.
    10030    2    1    2    0    0  0.00000000000E+00  0.00000000000E+00 -0.17179759607E+04  0.22156421856E+04  0.13991529198E+04 0.  0.
        1    1    3    3  502    0  0.24026902921E+03 -0.65670244440E+03 -0.89143806482E+03  0.11329824051E+04  0.50400001928E-02 0.  1.
       -1    1    3    3    0  502 -0.24026902921E+03  0.65670244440E+03 -0.82653789584E+03  0.10826597804E+04  0.50400001928E-02 0. -1.
</event>
<event>
 5   0  0.1644571E-03  0.1421787E+04  0.7818609E-02  0.8938197E-01
       -1   -1    0    0    0  501  0.00000000000E+00  0.00000000000E+00  0.90057649893E+03  0.90057649894E+03  0.50400001928E-02 0. -1.
        1   -1    0    0  501    0  0.00000000000E+00  0.00000000000E+00 -0.56116259243E+03  0.56116259245E+03  0.50400001928E-02 0.  1.
    10030    2    1    2    0    0  0.00000000000E+00  0.00000000000E+00  0.33941390650E+03  0.14617390914E+04  0.14217873861E+04 0.  0.
        4    1    3    3  502    0  0.43773875180E+03 -0.33082948807E+03  0.63440897152E+03  0.83877274696E+03  0.12699999809E+01 0. -1.
       -4    1    3    3    0  502 -0.43773875180E+03  0.33082948807E+03 -0.29499506503E+03  0.62296634443E+03  0.12699999809E+01 0.  1.
</event>
<event>
 5   0  0.2917809E-03  0.1403382E+04  0.7818609E-02  0.8951374E-01
       -2   -1    0    0    0  501  0.00000000000E+00  0.00000000000E+00  0.36986198579E+03  0.36986198580E+03  0.25500000920E-02 0. -1.
        2   -1    0    0  501    0  0.00000000000E+00  0.00000000000E+00 -0.13312267180E+04  0.13312267181E+04  0.25500000920E-02 0.  1.
    10030    2    1    2    0    0  0.00000000000E+00  0.00000000000E+00 -0.96136473226E+03  0.17010887039E+04  0.14033818546E+04 0.  0.
        2    1    3    3  502    0 -0.35975408497E+03 -0.58358368196E+03 -0.66200598693E+03  0.95301880477E+03  0.25500000920E-02 0.  1.
       -2    1    3    3    0  502  0.35975408497E+03  0.58358368196E+03 -0.29935874533E+03  0.74806989908E+03  0.25500000920E-02 0. -1.
</event>
<event>
 5   0  0.1560957E-03  0.1501999E+04  0.7818609E-02  0.8883125E-01
       -1   -1    0    0    0  501  0.00000000000E+00  0.00000000000E+00  0.88375740538E+03  0.88375740539E+03  0.50400001928E-02 0.  1.
        1   -1    0    0  501    0  0.00000000000E+00  0.00000000000E+00 -0.63818433456E+03  0.63818433458E+03  0.50400001928E-02 0. -1.
    10030    2    1    2    0    0  0.00000000000E+00  0.00000000000E+00  0.24557307082E+03  0.15219417400E+04  0.15019988438E+04 0.  0.
        5    1    3    3  502    0  0.58175035220E+03 -0.24070900110E+03  0.53761666326E+03  0.82790582925E+03  0.46999998093E+01 0.  1.
       -5    1    3    3    0  502 -0.58175035220E+03  0.24070900110E+03 -0.29204359245E+03  0.69403591073E+03  0.46999998093E+01 0. -1.
</event>
<event>
 5   0  0.2917809E-03  0.1444848E+04  0.7818609E-02  0.8921980E-01
       -2   -1    0    0    0  501  0.00000000000E+00  0.00000000000E+00  0.11902571166E+04  0.11902571166E+04  0.25500000920E-02 0.  1.
        2   -1    0    0  501    0  0.00000000000E+00  0.00000000000E+00 -0.43847356032E+03  0.43847356033E+03  0.25500000920E-02 0. -1.
    10030    2    1    2    0    0  0.00000000000E+00  0.00000000000E+00  0.75178355629E+03  0.16287306769E+04  0.14448477783E+04 0.  0.
        2    1    3    3  502    0  0.17934641317E+03 -0.31706991883E+03  0.10791460415E+04  0.11389708725E+04  0.25500000920E-02 0.  1.
       -2    1    3    3    0  502 -0.17934641317E+03  0.31706991883E+03 -0.32736248524E+03  0.48975980449E+03  0.25500000920E-02 0. -1.
</event>
<event>
 5   0  0.1644571E-03  0.1438154E+04  0.7818609E-02  0.8926655E-01
        1   -1    0    0  501    0  0.00000000000E+00  0.00000000000E+00  0.92747412272E+03  0.92747412274E+03  0.50400001928E-02 0. -1.
       -1   -1    0    0    0  501  0.00000000000E+00  0.00000000000E+00 -0.55750521497E+03  0.55750521499E+03  0.50400001928E-02 0.  1.
    10030    2    1    2    0    0  0.00000000000E+00  0.00000000000E+00  0.36996890775E+03  0.14849793377E+04  0.14381539002E+04 0.  0.
        4    1    3    3  502    0 -0.52067624871E+03 -0.35245193257E+02  0.69578739449E+03  0.86975151097E+03  0.12699999809E+01 0. -1.
       -4    1    3    3    0  502  0.52067624871E+03  0.35245193257E+02 -0.32581848673E+03  0.61522782675E+03  0.12699999809E+01 0.  1.
</event>
<event>
 5   0  0.1700207E-03  0.1393441E+04  0.7818609E-02  0.8958580E-01
       -1   -1    0    0    0  501  0.00000000000E+00  0.00000000000E+00  0.39528205891E+03  0.39528205894E+03  0.50400001928E-02 0.  1.
        1   -1    0    0  501    0  0.00000000000E+00  0.00000000000E+00 -0.12280338589E+04  0.12280338589E+04  0.50400001928E-02 0. -1.
    10030    2    1    2    0    0  0.00000000000E+00  0.00000000000E+00 -0.83275179998E+03  0.16233159178E+04  0.13934414264E+04 0.  0.
        2    1    3    3  502    0  0.11196080946E+03 -0.65738889900E+03 -0.65146986954E+03  0.93225982339E+03  0.25500000920E-02 0. -1.
       -2    1    3    3    0  502 -0.11196080946E+03  0.65738889900E+03 -0.18128193044E+03  0.69105609446E+03  0.25500000920E-02 0.  1.
</event>
<event>
 5   0  0.1700207E-03  0.1400148E+04  0.7818609E-02  0.8953711E-01
        1   -1    0    0  501    0  0.00000000000E+00  0.00000000000E+00  0.24803990393E+04  0.24803990393E+04  0.50400001928E-02 0. -1.
       -1   -1    0    0    0  501  0.00000000000E+00  0.00000000000E+00 -0.19759074715E+03  0.19759074721E+03  0.50400001928E-02 0.  1.
    10030    2    1    2    0    0  0.00000000000E+00  0.00000000000E+00  0.22828082922E+04  0.26779897865E+04  0.14001484200E+04 0.  0.
        2    1    3    3  502    0  0.34270501718E+03 -0.16910652601E+03  0.19509614650E+02  0.38265437540E+03  0.25500000920E-02 0.  1.
       -2    1    3    3    0  502 -0.34270501718E+03  0.16910652601E+03  0.22632986775E+04  0.22953354111E+04  0.25500000920E-02 0. -1.
</event>
<event>
 5   0  0.2917809E-03  0.1401040E+04  0.7818609E-02  0.8953066E-01
        2   -1    0    0  501    0  0.00000000000E+00  0.00000000000E+00  0.97033647850E+03  0.97033647850E+03  0.25500000920E-02 0. -1.
       -2   -1    0    0    0  501  0.00000000000E+00  0.00000000000E+00 -0.50573024288E+03  0.50573024288E+03  0.25500000920E-02 0.  1.
    10030    2    1    2    0    0  0.00000000000E+00  0.00000000000E+00  0.46460623562E+03  0.14760667214E+04  0.14010403320E+04 0.  0.
        2    1    3    3  502    0 -0.19016094864E+03 -0.58450238398E+03  0.58634041444E+03  0.84947001411E+03  0.25500000920E-02 0. -1.
       -2    1    3    3    0  502  0.19016094864E+03  0.58450238398E+03 -0.12173417881E+03  0.62659670727E+03  0.25500000920E-02 0.  1.
</event>
<event>
 5   0  0.1560957E-03  0.7918271E+03  0.7818609E-02  0.9571923E-01
        1   -1    0    0  501    0  0.00000000000E+00  0.00000000000E+00  0.21406526494E+04  0.21406526494E+04  0.50400001928E-02 0.  1.
       -1   -1    0    0    0  501  0.00000000000E+00  0.00000000000E+00 -0.73224174224E+02  0.73224174397E+02  0.50400001928E-02 0. -1.
    10030    2    1    2    0    0  0.00000000000E+00  0.00000000000E+00  0.20674284751E+04  0.22138768238E+04  0.79182705877E+03 0.  0.
        5    1    3    3  502    0  0.24730731413E+03  0.30450610086E+03  0.88470092352E+03  0.96778235526E+03  0.46999998093E+01 0. -1.
       -5    1    3    3    0  502 -0.24730731413E+03 -0.30450610086E+03  0.11827275516E+04  0.12460944685E+04  0.46999998093E+01 0.  1.
</event>
<event>
 5   0  0.2889469E-03  0.1374491E+04  0.7818609E-02  0.8972493E-01
       -2   -1    0    0    0  501  0.00000000000E+00  0.00000000000E+00  0.13250637178E+04  0.13250637178E+04  0.25500000920E-02 0. -1.
        2   -1    0    0  501    0  0.00000000000E+00  0.00000000000E+00 -0.35644047026E+03  0.35644047027E+03  0.25500000920E-02 0.  1.
    10030    2    1    2    0    0  0.00000000000E+00  0.00000000000E+00  0.96862324758E+03  0.16815041881E+04  0.13744909381E+04 0.  0.
        5    1    3    3  502    0  0.31824552436E+03 -0.36010722131E+03  0.10852900300E+04  0.11869431173E+04  0.46999998093E+01 0. -1.
       -5    1    3    3    0  502 -0.31824552436E+03  0.36010722131E+03 -0.11666678241E+03  0.49456107078E+03  0.46999998093E+01 0.  1.
</event>
<event>
 5   0  0.2889469E-03  0.1375991E+04  0.7818609E-02  0.8971383E-01
       -2   -1    0    0    0  501  0.00000000000E+00  0.00000000000E+00  0.51319038104E+03  0.51319038105E+03  0.25500000920E-02 0.  1.
        2   -1    0    0  501    0  0.00000000000E+00  0.00000000000E+00 -0.92234360571E+03  0.92234360571E+03  0.25500000920E-02 0. -1.
    10030    2    1    2    0    0  0.00000000000E+00  0.00000000000E+00 -0.40915322467E+03  0.14355339868E+04  0.13759910850E+04 0.  0.
        5    1    3    3  502    0  0.43778926777E+03  0.23697195702E+03  0.29084133315E+03  0.57656389278E+03  0.46999998093E+01 0.  1.
       -5    1    3    3    0  502 -0.43778926777E+03 -0.23697195702E+03 -0.69999455782E+03  0.85897009399E+03  0.46999998093E+01 0. -1.
</event>
<event>
 5   0  0.2760807E-03  0.1388885E+04  0.7818609E-02  0.8961904E-01
        2   -1    0    0  501    0  0.00000000000E+00  0.00000000000E+00  0.94693786124E+03  0.94693786125E+03  0.25500000920E-02 0. -1.
       -2   -1    0    0    0  501  0.00000000000E+00  0.00000000000E+00 -0.50927320743E+03  0.50927320743E+03  0.25500000920E-02 0.  1.
    10030    2    1    2    0    0  0.00000000000E+00  0.00000000000E+00  0.43766465382E+03  0.14562110687E+04  0.13888845623E+04 0.  0.
        4    1    3    3  502    0 -0.49323687178E+03 -0.73330079850E+02 -0.28790623981E+03  0.57580511296E+03  0.12699999809E+01 0.  1.
       -4    1    3    3    0  502  0.49323687178E+03  0.73330079850E+02  0.72557089362E+03  0.88040595572E+03  0.12699999809E+01 0. -1.
</event>
<event>
 5   0  0.1644571E-03  0.1407489E+04  0.7818609E-02  0.8948415E-01
       -1   -1    0    0    0  501  0.00000000000E+00  0.00000000000E+00  0.11098235733E+04  0.11098235733E+04  0.50400001928E-02 0.  1.
        1   -1    0    0  501    0  0.00000000000E+00  0.00000000000E+00 -0.44624790193E+03  0.44624790196E+03  0.50400001928E-02 0. -1.
    10030    2    1    2    0    0  0.00000000000E+00  0.00000000000E+00  0.66357567133E+03  0.15560714752E+04  0.14074891703E+04 0.  0.
        4    1    3    3  502    0  0.26360513399E+03 -0.60873815397E+03  0.72026941149E+02  0.66726254197E+03  0.12699999809E+01 0. -1.
       -4    1    3    3    0  502 -0.26360513399E+03  0.60873815397E+03  0.59154873018E+03  0.88880893326E+03  0.12699999809E+01 0.  1.
</event>
<event>
 5   0  0.1700207E-03  0.1412296E+04  0.7818609E-02  0.8944966E-01
       -1   -1    0    0    0  501  0.00000000000E+00  0.00000000000E+00  0.61998852138E+03  0.61998852140E+03  0.50400001928E-02 0. -1.
        1   -1    0    0  501    0  0.00000000000E+00  0.00000000000E+00 -0.80428050252E+03  0.80428050253E+03  0.50400001928E-02 0.  1.
    10030    2    1    2    0    0  0.00000000000E+00  0.00000000000E+00 -0.18429198114E+03  0.14242690239E+04  0.14122955492E+04 0.  0.
        2    1    3    3  502    0 -0.10246036678E+03 -0.69340151187E+03 -0.57405721053E+01  0.70095416227E+03  0.25500000920E-02 0. -1.
       -2    1    3    3    0  502  0.10246036678E+03  0.69340151187E+03 -0.17855140904E+03  0.72331486166E+03  0.25500000920E-02 0.  1.
</event>
<event>
 5   0  0.2917809E-03  0.1501400E+04  0.7818609E-02  0.8883523E-01
       -2   -1    0    0    0  501  0.00000000000E+00  0.00000000000E+00  0.84451102572E+03  0.84451102573E+03  0.25500000920E-02 0.  1.
        2   -1    0    0  501    0  0.00000000000E+00  0.00000000000E+00 -0.66730971524E+03  0.66730971524E+03  0.25500000920E-02 0. -1.
    10030    2    1    2    0    0  0.00000000000E+00  0.00000000000E+00  0.17720131048E+03  0.15118207410E+04  0.15013998962E+04 0.  0.
        2    1    3    3  502    0  0.71123419060E+03 -0.19794477572E+03  0.22561197191E+03  0.77196953954E+03  0.25500000920E-02 0.  1.
       -2    1    3    3    0  502 -0.71123419060E+03  0.19794477572E+03 -0.48410661427E+02  0.73985120143E+03  0.25500000920E-02 0. -1.
</event>
<event>
 5   0  0.1700207E-03  0.1389650E+04  0.7818609E-02  0.8961344E-01
        1   -1    0    0  501    0  0.00000000000E+00  0.00000000000E+00  0.54533383483E+03  0.54533383485E+03  0.50400001928E-02 0. -1.
       -1   -1    0    0    0  501  0.00000000000E+00  0.00000000000E+00 -0.88529645402E+03  0.88529645404E+03  0.50400001928E-02 0.  1.
    10030    2    1    2    0    0  0.00000000000E+00  0.00000000000E+00 -0.33996261920E+03  0.14306302889E+04  0.13896504744E+04 0.  0.
        2    1    3    3  502    0  0.29780525542E+03 -0.32477842017E+03 -0.72305101287E+03  0.84674184943E+03  0.25500000920E-02 0.  1.
       -2    1    3    3    0  502 -0.29780525542E+03  0.32477842017E+03  0.38308839367E+03  0.58388843946E+03  0.25500000920E-02 0. -1.
</event>
<event>
 5   0  0.2993993E-03  0.1315406E+04  0.7818609E-02  0.9017437E-01
        2   -1    0    0  501    0  0.00000000000E+00  0.00000000000E+00  0.47263137820E+03  0.47263137821E+03  0.25500000920E-02 0. -1.
       -2   -1    0    0    0  501  0.00000000000E+00  0.00000000000E+00 -0.91524438604E+03  0.91524438605E+03  0.25500000920E-02 0.  1.
    10030    2    1    2    0    0  0.00000000000E+00  0.00000000000E+00 -0.44261300784E+03  0.13878757643E+04  0.13154059686E+04 0.  0.
        3    1    3    3  502    0  0.47278903705E+03 -0.13076198838E+03 -0.68355895680E+03  0.84135665967E+03  0.10100000352E+00 0.  1.
       -3    1    3    3    0  502 -0.47278903705E+03  0.13076198838E+03  0.24094594895E+03  0.54651910458E+03  0.10100000352E+00 0. -1.
</event>
<event>
 5   0  0.2889469E-03  0.1366557E+04  0.7818609E-02  0.8978388E-01
        2   -1    0    0  501    0  0.00000000000E+00  0.00000000000E+00  0.23493088988E+04  0.23493088988E+04  0.25500000920E-02 0. -1.
       -2   -1    0    0    0  501  0.00000000000E+00  0.00000000000E+00 -0.19872643861E+03  0.19872643863E+03  0.25500000920E-02 0.  1.
    10030    2    1    2    0    0  0.00000000000E+00  0.00000000000E+00  0.21505824601E+04  0.25480353374E+04  0.13665574129E+04 0.  0.
        5    1    3    3  502    0 -0.58835395183E+03  0.31789535664E+03  0.81405327282E+03  0.10535286666E+04  0.46999998093E+01 0.  1.
       -5    1    3    3    0  502  0.58835395183E+03 -0.31789535664E+03  0.13365291873E+04  0.14945066708E+04  0.46999998093E+01 0. -1.
</event>
<event>
 5   0  0.1560957E-03  0.1351822E+04  0.7818609E-02  0.8989450E-01
       -1   -1    0    0    0  501  0.00000000000E+00  0.00000000000E+00  0.48592713964E+03  0.48592713967E+03  0.50400001928E-02 0.  1.
        1   -1    0    0  501    0  0.00000000000E+00  0.00000000000E+00 -0.94017275231E+03  0.94017275232E+03  0.50400001928E-02 0. -1.
    10030    2    1    2    0    0  0.00000000000E+00  0.00000000000E+00 -0.45424561266E+03  0.14260998920E+04  0.13518216692E+04 0.  0.
        5    1    3    3  502    0  0.31431143810E+03  0.24359810180E+03  0.34944362679E+03  0.52940027732E+03  0.46999998093E+01 0.  1.
       -5    1    3    3    0  502 -0.31431143810E+03 -0.24359810180E+03 -0.80368923946E+03  0.89669961467E+03  0.46999998093E+01 0. -1.
</event>
<event>
 5   0  0.1631380E-03  0.1407617E+04  0.7818609E-02  0.8948324E-01
       -1   -1    0    0    0  501  0.00000000000E+00  0.00000000000E+00  0.68032413312E+03  0.68032413314E+03  0.50400001928E-02 0.  1.
        1   -1    0    0  501    0  0.00000000000E+00  0.00000000000E+00 -0.72810318564E+03  0.72810318565E+03  0.50400001928E-02 0. -1.
    10030    2    1    2    0    0  0.00000000000E+00  0.00000000000E+00 -0.47779052516E+02  0.14084273188E+04  0.14076166646E+04 0.  0.
        3    1    3    3  502    0 -0.65120545730E+03  0.52982447838E+02  0.23792979842E+03  0.69533178165E+03  0.10100000352E+00 0.  1.
       -3    1    3    3    0  502  0.65120545730E+03 -0.52982447838E+02 -0.28570885093E+03  0.71309553714E+03  0.10100000352E+00 0. -1.
</event>
<event>
 5   0  0.2993993E-03  0.1403918E+04  0.7818609E-02  0.8950987E-01
        2   -1    0    0  501    0  0.00000000000E+00  0.00000000000E+00  0.10794110035E+04  0.10794110035E+04  0.25500000920E-02 0.  1.
       -2   -1    0    0    0  501  0.00000000000E+00  0.00000000000E+00 -0.45649587660E+03  0.45649587661E+03  0.25500000920E-02 0. -1.
    10030    2    1    2    0    0  0.00000000000E+00  0.00000000000E+00  0.62291512692E+03  0.15359068801E+04  0.14039183342E+04 0.  0.
        3    1    3    3  502    0  0.15085072174E+03  0.62007548390E+03  0.63134617070E+03  0.89769011548E+03  0.10100000352E+00 0.  1.
       -3    1    3    3    0  502 -0.15085072174E+03 -0.62007548390E+03 -0.84310437734E+01  0.63821676465E+03  0.10100000352E+00 0. -1.
</event>
<event>
 5   0  0.2760807E-03  0.1321779E+04  0.7818609E-02  0.9012470E-01
        2   -1    0    0  501    0  0.00000000000E+00  0.00000000000E+00  0.22573595258E+04  0.22573595258E+04  0.25500000920E-02 0. -1.
       -2   -1    0    0    0  501  0.00000000000E+00  0.00000000000E+00 -0.19348929186E+03  0.19348929188E+03  0.25500000920E-02 0.  1.
    10030    2    1    2    0    0  0.00000000000E+00  0.00000000000E+00  0.20638702339E+04  0.24508488177E+04  0.13217789469E+04 0.  0.
        4    1    3    3  502    0  0.43209101589E+03  0.29646016404E+03  0.28521297524E+03  0.59660651105E+03  0.12699999809E+01 0.  1.
       -4    1    3    3    0  502 -0.43209101589E+03 -0.29646016404E+03  0.17786572587E+04  0.18542423066E+04  0.12699999809E+01 0. -1.
</event>
<event>
 5   0  0.3006737E-03  0.1395160E+04  0.7818609E-02  0.8957330E-01
        2   -1    0    0  501    0  0.00000000000E+00  0.00000000000E+00  0.25024694024E+04  0.25024694024E+04  0.25500000920E-02 0. -1.
       -2   -1    0    0    0  501  0.00000000000E+00  0.00000000000E+00 -0.19445504121E+03  0.19445504123E+03  0.25500000920E-02 0.  1.
    10030    2    1    2    0    0  0.00000000000E+00  0.00000000000E+00  0.23080143612E+04  0.26969244436E+04  0.13951599060E+04 0.  0.
        1    1    3    3  502    0  0.54839474045E+03 -0.41307904809E+03  0.13926963494E+04  0.15527312108E+04  0.50400001928E-02 0. -1.
       -1    1    3    3    0  502 -0.54839474045E+03  0.41307904809E+03  0.91531801174E+03  0.11441932328E+04  0.50400001928E-02 0.  1.
</event>
<event>
 5   0  0.2917809E-03  0.1392995E+04  0.7818609E-02  0.8958904E-01
        2   -1    0    0  501    0  0.00000000000E+00  0.00000000000E+00  0.25238882064E+04  0.25238882064E+04  0.25500000920E-02 0.  1.
       -2   -1    0    0    0  501  0.00000000000E+00  0.00000000000E+00 -0.19220705182E+03  0.19220705184E+03  0.25500000920E-02 0. -1.
    10030    2    1    2    0    0  0.00000000000E+00  0.00000000000E+00  0.23316811545E+04  0.27160952582E+04  0.13929954936E+04 0.  0.
        2    1    3    3  502    0 -0.38980334869E+03 -0.50747844697E+03  0.17020529638E+04  0.18183688615E+04  0.25500000920E-02 0.  1.
       -2    1    3    3    0  502  0.38980334869E+03  0.50747844697E+03  0.62962819073E+03  0.89772639671E+03  0.25500000920E-02 0. -1.
</event>
<event>
 5   0  0.1586022E-03  0.1394825E+04  0.7818609E-02  0.8957573E-01
        1   -1    0    0  501    0  0.00000000000E+00  0.00000000000E+00  0.12972036955E+04  0.12972036955E+04  0.50400001928E-02 0.  1.
       -1   -1    0    0    0  501  0.00000000000E+00  0.00000000000E+00 -0.37494801434E+03  0.37494801437E+03  0.50400001928E-02 0. -1.
    10030    2    1    2    0    0  0.00000000000E+00  0.00000000000E+00  0.92225568114E+03  0.16721517099E+04  0.13948246483E+04 0.  0.
        1    1    3    3  502    0  0.68439213523E+03  0.12892169527E+03  0.41674615917E+03  0.81159765862E+03  0.50400001928E-02 0. -1.
       -1    1    3    3    0  502 -0.68439213523E+03 -0.12892169527E+03  0.50550952197E+03  0.86055405124E+03  0.50400001928E-02 0.  1.
</event>
<event>
 5   0  0.3006737E-03  0.1400345E+04  0.7818609E-02  0.8953569E-01
       -2   -1    0    0    0  501  0.00000000000E+00  0.00000000000E+00  0.24503169495E+03  0.24503169497E+03  0.25500000920E-02 0.  1.
        2   -1    0    0  501    0  0.00000000000E+00  0.00000000000E+00 -0.20007283322E+04  0.20007283322E+04  0.25500000920E-02 0. -1.
    10030    2    1    2    0    0  0.00000000000E+00  0.00000000000E+00 -0.17556966372E+04  0.22457600271E+04  0.14003454636E+04 0.  0.
        1    1    3    3  502    0 -0.22962754368E+03 -0.16778988389E+03 -0.19039269625E+04  0.19250506831E+04  0.50400001928E-02 0. -1.
       -1    1    3    3    0  502  0.22962754368E+03  0.16778988389E+03  0.14823032533E+03  0.32070934399E+03  0.50400001928E-02 0.  1.
</event>
<event>
 5   0  0.2760807E-03  0.1395609E+04  0.7818609E-02  0.8957003E-01
        2   -1    0    0  501    0  0.00000000000E+00  0.00000000000E+00  0.18931183857E+04  0.18931183857E+04  0.25500000920E-02 0.  1.
       -2   -1    0    0    0  501  0.00000000000E+00  0.00000000000E+00 -0.25721104747E+03  0.25721104748E+03  0.25500000920E-02 0. -1.
    10030    2    1    2    0    0  0.00000000000E+00  0.00000000000E+00  0.16359073382E+04  0.21503294332E+04  0.13956087747E+04 0.  0.
        4    1    3    3  502    0 -0.40637468396E+03 -0.30554268035E+03  0.81542469873E+02  0.51492475234E+03  0.12699999809E+01 0. -1.
       -4    1    3    3    0  502  0.40637468396E+03  0.30554268035E+03  0.15543648684E+04  0.16354046809E+04  0.12699999809E+01 0.  1.
</event>
<event>
 5   0  0.2993993E-03  0.1344471E+04  0.7818609E-02  0.8995024E-01
        2   -1    0    0  501    0  0.00000000000E+00  0.00000000000E+00  0.63826763559E+03  0.63826763560E+03  0.25500000920E-02 0. -1.
       -2   -1    0    0    0  501  0.00000000000E+00  0.00000000000E+00 -0.70801117690E+03  0.70801117691E+03  0.25500000920E-02 0.  1.
    10030    2    1    2    0    0  0.00000000000E+00  0.00000000000E+00 -0.69743541310E+02  0.13462788125E+04  0.13444710779E+04 0.  0.
        3    1    3    3  502    0  0.51733651590E+02  0.20601525730E+02 -0.70569776328E+03  0.70789133126E+03  0.10100000352E+00 0.  1.
       -3    1    3    3    0  502 -0.51733651590E+02 -0.20601525730E+02  0.63595422197E+03  0.63838748125E+03  0.10100000352E+00 0. -1.
</event>
<event>
 5   0  0.1560957E-03  0.1451791E+04  0.7818609E-02  0.8917160E-01
       -1   -1    0    0    0  501  0.00000000000E+00  0.00000000000E+00  0.81223682092E+03  0.81223682093E+03  0.50400001928E-02 0. -1.
        1   -1    0    0  501    0  0.00000000000E+00  0.00000000000E+00 -0.64873222075E+03  0.64873222077E+03  0.50400001928E-02 0.  1.
    10030    2    1    2    0    0  0.00000000000E+00  0.00000000000E+00  0.16350460017E+03  0.14609690417E+04  0.14517908894E+04 0.  0.
        5    1    3    3  502    0 -0.24005030442E+02  0.33672386038E+03 -0.56491656540E+03  0.65811246417E+03  0.46999998093E+01 0.  1.
       -5    1    3    3    0  502  0.24005030442E+02 -0.33672386038E+03  0.72842116557E+03  0.80285657753E+03  0.46999998093E+01 0. -1.
</event>
<event>
 5   0  0.1104538E-03  0.1466988E+04  0.7818609E-02  0.8906708E-01
       -4   -1    0    0    0  501  0.00000000000E+00  0.00000000000E+00  0.87878323133E+03  0.87878414902E+03  0.12699999809E+01 0. -1.
        4   -1    0    0  501    0  0.00000000000E+00  0.00000000000E+00 -0.61222313018E+03  0.61222444743E+03  0.12699999809E+01 0.  1.
    10030    2    1    2    0    0  0.00000000000E+00  0.00000000000E+00  0.26656010115E+03  0.14910085964E+04  0.14669875075E+04 0.  0.
        5    1    3    3  502    0 -0.63397984228E+03  0.36758497435E+03  0.10208806709E+03  0.73992784595E+03  0.46999998093E+01 0. -1.
       -5    1    3    3    0  502  0.63397984228E+03 -0.36758497435E+03  0.16447203407E+03  0.75108075050E+03  0.46999998093E+01 0.  1.
</event>
<event>
 5   0  0.3006737E-03  0.1373445E+04  0.7818609E-02  0.8973268E-01
       -2   -1    0    0    0  501  0.00000000000E+00  0.00000000000E+00  0.33663900427E+03  0.33663900428E+03  0.25500000920E-02 0.  1.
        2   -1    0    0  501    0  0.00000000000E+00  0.00000000000E+00 -0.14008699602E+04  0.14008699602E+04  0.25500000920E-02 0. -1.
    10030    2    1    2    0    0  0.00000000000E+00  0.00000000000E+00 -0.10642309560E+04  0.17375089645E+04  0.13734445290E+04 0.  0.
        1    1    3    3  502    0 -0.26527072710E+03  0.35419260401E+03  0.13221884509E+03  0.46184714182E+03  0.50400001928E-02 0.  1.
       -1    1    3    3    0  502  0.26527072710E+03 -0.35419260401E+03 -0.11964498010E+04  0.12756618227E+04  0.50400001928E-02 0. -1.
</event>
<event>
 5   0  0.2760807E-03  0.8887722E+03  0.7818609E-02  0.9439727E-01
       -2   -1    0    0    0  501  0.00000000000E+00  0.00000000000E+00  0.24104021958E+03  0.24104021960E+03  0.25500000920E-02 0. -1.
        2   -1    0    0  501    0  0.00000000000E+00  0.00000000000E+00 -0.81927823858E+03  0.81927823858E+03  0.25500000920E-02 0.  1.
    10030    2    1    2    0    0  0.00000000000E+00  0.00000000000E+00 -0.57823801900E+03  0.10603184582E+04  0.88877220149E+03 0.  0.
        4    1    3    3  502    0  0.35339715451E+03 -0.11131719814E+03 -0.58182448911E+03  0.68978432603E+03  0.12699999809E+01 0.  1.
       -4    1    3    3    0  502 -0.35339715451E+03  0.11131719814E+03  0.35864701103E+01  0.37053413215E+03  0.12699999809E+01 0. -1.
</event>
<event>
 5   0  0.2993993E-03  0.1405045E+04  0.7818609E-02  0.8950175E-01
        2   -1    0    0  501    0  0.00000000000E+00  0.00000000000E+00  0.11995501794E+04  0.11995501794E+04  0.25500000920E-02 0. -1.
       -2   -1    0    0    0  501  0.00000000000E+00  0.00000000000E+00 -0.41143552291E+03  0.41143552292E+03  0.25500000920E-02 0.  1.
    10030    2    1    2    0    0  0.00000000000E+00  0.00000000000E+00  0.78811465651E+03  0.16109857023E+04  0.14050445621E+04 0.  0.
        3    1    3    3  502    0 -0.66823647429E+03  0.46449611770E+02  0.15126533736E+03  0.68671592707E+03  0.10100000352E+00 0. -1.
       -3    1    3    3    0  502  0.66823647429E+03 -0.46449611770E+02  0.63684931915E+03  0.92426977528E+03  0.10100000352E+00 0.  1.
</event>
<event>
 5   0  0.1586022E-03  0.1402883E+04  0.7818609E-02  0.8951734E-01
       -1   -1    0    0    0  501  0.00000000000E+00  0.00000000000E+00  0.38248945690E+03  0.38248945693E+03  0.50400001928E-02 0. -1.
        1   -1    0    0  501    0  0.00000000000E+00  0.00000000000E+00 -0.12863624480E+04  0.12863624480E+04  0.50400001928E-02 0.  1.
    10030    2    1    2    0    0  0.00000000000E+00  0.00000000000E+00 -0.90387299110E+03  0.16688519049E+04  0.14028828520E+04 0.  0.
        1    1    3    3  502    0  0.84715669450E+02 -0.67462502970E+03 -0.65703048435E+03  0.94550765874E+03  0.50400001928E-02 0. -1.
       -1    1    3    3    0  502 -0.84715669450E+02  0.67462502970E+03 -0.24684250675E+03  0.72334424620E+03  0.50400001928E-02 0.  1.
</event>
<event>
 5   0  0.2917809E-03  0.1407418E+04  0.7818609E-02  0.8948466E-01
        2   -1    0    0  501    0  0.00000000000E+00  0.00000000000E+00  0.42614994691E+03  0.42614994692E+03  0.25500000920E-02 0. -1.
       -2   -1    0    0    0  501  0.00000000000E+00  0.00000000000E+00 -0.11620473599E+04  0.11620473599E+04  0.25500000920E-02 0.  1.
    10030    2    1    2    0    0  0.00000000000E+00  0.00000000000E+00 -0.73589741294E+03  0.15881973068E+04  0.14074180910E+04 0.  0.
        2    1    3    3  502    0 -0.22664750905E+03  0.43532665956E+03 -0.93703540786E+03  0.10577871948E+04  0.25500000920E-02 0.  1.
       -2    1    3    3    0  502  0.22664750905E+03 -0.43532665956E+03  0.20113799492E+03  0.53041011198E+03  0.25500000920E-02 0. -1.
</event>
<event>
 5   0  0.1586022E-03  0.1147250E+04  0.7818609E-02  0.9160324E-01
        1   -1    0    0  501    0  0.00000000000E+00  0.00000000000E+00  0.34014719795E+03  0.34014719799E+03  0.50400001928E-02 0.  1.
       -1   -1    0    0    0  501  0.00000000000E+00  0.00000000000E+00 -0.96736332074E+03  0.96736332075E+03  0.50400001928E-02 0. -1.
    10030    2    1    2    0    0  0.00000000000E+00  0.00000000000E+00 -0.62721612278E+03  0.13075105187E+04  0.11472504922E+04 0.  0.
        1    1    3    3  502    0  0.21066771261E+03  0.53796516880E+02  0.29136364553E+03  0.36354879222E+03  0.50400001928E-02 0.  1.
       -1    1    3    3    0  502 -0.21066771261E+03 -0.53796516880E+02 -0.91857976831E+03  0.94396172652E+03  0.50400001928E-02 0. -1.
</event>
<event>
 5   0  0.1700207E-03  0.1416467E+04  0.7818609E-02  0.8941985E-01
        1   -1    0    0  501    0  0.00000000000E+00  0.00000000000E+00  0.11954037047E+04  0.11954037048E+04  0.50400001928E-02 0.  1.
       -1   -1    0    0    0  501  0.00000000000E+00  0.00000000000E+00 -0.41960255858E+03  0.41960255861E+03  0.50400001928E-02 0. -1.
    10030    2    1    2    0    0  0.00000000000E+00  0.00000000000E+00  0.77580114616E+03  0.16150062634E+04  0.14164666647E+04 0.  0.
        2    1    3    3  502    0 -0.23271524883E+02  0.67479361547E+03  0.14414381064E+03  0.69040960704E+03  0.25500000920E-02 0. -1.
       -2    1    3    3    0  502  0.23271524883E+02 -0.67479361547E+03  0.63165733552E+03  0.92459665632E+03  0.25500000920E-02 0.  1.
</event>
<event>
 5   0  0.2889469E-03  0.8519662E+03  0.7818609E-02  0.9487702E-01
       -2   -1    0    0    0  501  0.00000000000E+00  0.00000000000E+00  0.28106345511E+03  0.28106345512E+03  0.25500000920E-02 0.  1.
        2   -1    0    0  501    0  0.00000000000E+00  0.00000000000E+00 -0.64562505436E+03  0.64562505436E+03  0.25500000920E-02 0. -1.
    10030    2    1    2    0    0  0.00000000000E+00  0.00000000000E+00 -0.36456159924E+03  0.92668850948E+03  0.85196621645E+03 0.  0.
        5    1    3    3  502    0 -0.17433137652E+03  0.31576940139E+03  0.64169825759E+02  0.36638995650E+03  0.46999998093E+01 0.  1.
       -5    1    3    3    0  502  0.17433137652E+03 -0.31576940139E+03 -0.42873142500E+03  0.56029855298E+03  0.46999998093E+01 0. -1.
</event>
<event>
 5   0  0.1586022E-03  0.1342108E+04  0.7818609E-02  0.8996824E-01
        1   -1    0    0  501    0  0.00000000000E+00  0.00000000000E+00  0.10361251303E+04  0.10361251303E+04  0.50400001928E-02 0. -1.
       -1   -1    0    0    0  501  0.00000000000E+00  0.00000000000E+00 -0.43461292362E+03  0.43461292365E+03  0.50400001928E-02 0.  1.
    10030    2    1    2    0    0  0.00000000000E+00  0.00000000000E+00  0.60151220665E+03  0.14707380539E+04  0.13421078528E+04 0.  0.
        1    1    3    3  502    0  0.32043858274E+03 -0.23514762974E+03 -0.29174696877E+03  0.49304318968E+03  0.50400001928E-02 0.  1.
       -1    1    3    3    0  502 -0.32043858274E+03  0.23514762974E+03  0.89325917542E+03  0.97769486425E+03  0.50400001928E-02 0. -1.
</event>
<event>
 5   0  0.2760807E-03  0.1346659E+04  0.7818609E-02  0.8993361E-01
       -2   -1    0    0    0  501  0.00000000000E+00  0.00000000000E+00  0.36985991843E+03  0.36985991844E+03  0.25500000920E-02 0. -1.
        2   -1    0    0  501    0  0.00000000000E+00  0.00000000000E+00 -0.12257958625E+04  0.12257958625E+04  0.25500000920E-02 0.  1.
    10030    2    1    2    0    0  0.00000000000E+00  0.00000000000E+00 -0.85593594408E+03  0.15956557810E+04  0.13466592111E+04 0.  0.
        4    1    3    3  502    0  0.29716932049E+03 -0.35280966101E+03  0.15322114935E+03  0.48606850901E+03  0.12699999809E+01 0. -1.
       -4    1    3    3    0  502 -0.29716932049E+03  0.35280966101E+03 -0.10091570934E+04  0.11095872719E+04  0.12699999809E+01 0.  1.
</event>
<event>
 5   0  0.1104538E-03  0.1426893E+04  0.7818609E-02  0.8934579E-01
       -3   -1    0    0    0  501  0.00000000000E+00  0.00000000000E+00  0.15877717301E+04  0.15877717333E+04  0.10100000352E+00 0.  1.
        3   -1    0    0  501    0  0.00000000000E+00  0.00000000000E+00 -0.32057860083E+03  0.32057861674E+03  0.10100000352E+00 0. -1.
    10030    2    1    2    0    0  0.00000000000E+00  0.00000000000E+00  0.12671931293E+04  0.19083503501E+04  0.14268926490E+04 0.  0.
        2    1    3    3  502    0 -0.38951203362E+03  0.47181594757E+03  0.11244044166E+04  0.12800840616E+04  0.25500000920E-02 0.  1.
       -2    1    3    3    0  502  0.38951203362E+03 -0.47181594757E+03  0.14278871266E+03  0.62826628844E+03  0.25500000920E-02 0. -1.
</event>
<event>
 5   0  0.2993993E-03  0.1191845E+04  0.7818609E-02  0.9120025E-01
       -2   -1    0    0    0  501  0.00000000000E+00  0.00000000000E+00  0.18490900191E+03  0.18490900193E+03  0.25500000920E-02 0. -1.
        2   -1    0    0  501    0  0.00000000000E+00  0.00000000000E+00 -0.19205311072E+04  0.19205311072E+04  0.25500000920E-02 0.  1.
    10030    2    1    2    0    0  0.00000000000E+00  0.00000000000E+00 -0.17356221052E+04  0.21054401091E+04  0.11918447721E+04 0.  0.
        3    1    3    3  502    0  0.41068251091E+03  0.21683906800E+03 -0.20814614261E+03  0.50892448660E+03  0.10100000352E+00 0. -1.
       -3    1    3    3    0  502 -0.41068251091E+03 -0.21683906800E+03 -0.15274759626E+04  0.15965156225E+04  0.10100000352E+00 0.  1.
</event>
<event>
 5   0  0.2993993E-03  0.1380919E+04  0.7818609E-02  0.8967747E-01
       -2   -1    0    0    0  501  0.00000000000E+00  0.00000000000E+00  0.77188746460E+03  0.77188746461E+03  0.25500000920E-02 0. -1.
        2   -1    0    0  501    0  0.00000000000E+00  0.00000000000E+00 -0.61762170139E+03  0.61762170140E+03  0.25500000920E-02 0.  1.
    10030    2    1    2    0    0  0.00000000000E+00  0.00000000000E+00  0.15426576321E+03  0.13895091660E+04  0.13809191854E+04 0.  0.
        3    1    3    3  502    0  0.12912415721E+03  0.32299349927E+03 -0.52301381740E+03  0.62812523587E+03  0.10100000352E+00 0.  1.
       -3    1    3    3    0  502 -0.12912415721E+03 -0.32299349927E+03  0.67727958062E+03  0.76138393013E+03  0.10100000352E+00 0. -1.
</event>
<event>
 5   0  0.1631380E-03  0.1408875E+04  0.7818609E-02  0.8947419E-01
        1   -1    0    0  501    0  0.00000000000E+00  0.00000000000E+00  0.89722209006E+03  0.89722209007E+03  0.50400001928E-02 0.  1.
       -1   -1    0    0    0  501  0.00000000000E+00  0.00000000000E+00 -0.55307601657E+03  0.55307601659E+03  0.50400001928E-02 0. -1.
    10030    2    1    2    0    0  0.00000000000E+00  0.00000000000E+00  0.34414607349E+03  0.14502981067E+04  0.14088747561E+04 0.  0.
        3    1    3    3  502    0  0.28892345892E+03  0.38912405381E+03 -0.35416948489E+03  0.60027521071E+03  0.10100000352E+00 0. -1.
       -3    1    3    3    0  502 -0.28892345892E+03 -0.38912405381E+03  0.69831555838E+03  0.85002289595E+03  0.10100000352E+00 0.  1.
</event>
<event>
 5   0  0.2917809E-03  0.1465384E+04  0.7818609E-02  0.8907804E-01
        2   -1    0    0  501    0  0.00000000000E+00  0.00000000000E+00  0.42623445493E+03  0.42623445494E+03  0.25500000920E-02 0. -1.
       -2   -1    0    0    0  501  0.00000000000E+00  0.00000000000E+00 -0.12594885154E+04  0.12594885154E+04  0.25500000920E-02 0.  1.
    10030    2    1    2    0    0  0.00000000000E+00  0.00000000000E+00 -0.83325406042E+03  0.16857229703E+04  0.14653837734E+04 0.  0.
        2    1    3    3  502    0 -0.65894482809E+03 -0.12477376530E+03 -0.77200559052E+02  0.67508273959E+03  0.25500000920E-02 0. -1.
       -2    1    3    3    0  502  0.65894482809E+03  0.12477376530E+03 -0.75605350137E+03  0.10106402307E+04  0.25500000920E-02 0.  1.
</event>
<event>
 5   0  0.2760807E-03  0.1272996E+04  0.7818609E-02  0.9051258E-01
       -2   -1    0    0    0  501  0.00000000000E+00  0.00000000000E+00  0.62484612301E+03  0.62484612302E+03  0.25500000920E-02 0. -1.
        2   -1    0    0  501    0  0.00000000000E+00  0.00000000000E+00 -0.64836683586E+03  0.64836683587E+03  0.25500000920E-02 0.  1.
    10030    2    1    2    0    0  0.00000000000E+00  0.00000000000E+00 -0.23520712849E+02  0.12732129589E+04  0.12729956853E+04 0.  0.
        4    1    3    3  502    0  0.37312696404E+03  0.50500156664E+03 -0.11607378149E+03  0.63853351459E+03  0.12699999809E+01 0.  1.
       -4    1    3    3    0  502 -0.37312696404E+03 -0.50500156664E+03  0.92553068645E+02  0.63467944430E+03  0.12699999809E+01 0. -1.
</event>
<event>
 5   0  0.2760807E-03  0.1403441E+04  0.7818609E-02  0.8951332E-01
       -2   -1    0    0    0  501  0.00000000000E+00  0.00000000000E+00  0.28845894650E+03  0.28845894652E+03  0.25500000920E-02 0. -1.
        2   -1    0    0  501    0  0.00000000000E+00  0.00000000000E+00 -0.17070416142E+04  0.17070416142E+04  0.25500000920E-02 0.  1.
    10030    2    1    2    0    0  0.00000000000E+00  0.00000000000E+00 -0.14185826677E+04  0.19955005607E+04  0.14034406659E+04 0.  0.
        4    1    3    3  502    0 -0.40621574487E+03  0.49492911832E+03 -0.30103149052E+03  0.70752217967E+03  0.12699999809E+01 0. -1.
       -4    1    3    3    0  502  0.40621574487E+03 -0.49492911832E+03 -0.11175511772E+04  0.12879783810E+04  0.12699999809E+01 0.  1.
</event>
<event>
 5   0  0.1644571E-03  0.1346704E+04  0.7818609E-02  0.8993327E-01
       -1   -1    0    0    0  501  0.00000000000E+00  0.00000000000E+00  0.63739701235E+03  0.63739701237E+03  0.50400001928E-02 0.  1.
        1   -1    0    0  501    0  0.00000000000E+00  0.00000000000E+00 -0.71133509495E+03  0.71133509497E+03  0.50400001928E-02 0. -1.
    10030    2    1    2    0    0  0.00000000000E+00  0.00000000000E+00 -0.73938082599E+02  0.13487321073E+04  0.13467039234E+04 0.  0.
        4    1    3    3  502    0 -0.56896871808E+03 -0.29521747116E+03  0.16955134805E+03  0.66304451582E+03  0.12699999809E+01 0.  1.
       -4    1    3    3    0  502  0.56896871808E+03  0.29521747116E+03 -0.24348943065E+03  0.68568759152E+03  0.12699999809E+01 0. -1.
</event>
<event>
 5   0  0.1631380E-03  0.1687113E+04  0.7818609E-02  0.8768749E-01
        1   -1    0    0  501    0  0.00000000000E+00  0.00000000000E+00  0.19418026089E+04  0.19418026090E+04  0.50400001928E-02 0.  1.
       -1   -1    0    0    0  501  0.00000000000E+00  0.00000000000E+00 -0.36645723680E+03  0.36645723684E+03  0.50400001928E-02 0. -1.
    10030    2    1    2    0    0  0.00000000000E+00  0.00000000000E+00  0.15753453721E+04  0.23082598458E+04  0.16871130591E+04 0.  0.
        3    1    3    3  502    0 -0.62223980014E+03 -0.71432022331E+02  0.15607836084E+04  0.16817640694E+04  0.10100000352E+00 0.  1.
       -3    1    3    3    0  502  0.62223980014E+03  0.71432022331E+02  0.14561763770E+02  0.62649577641E+03  0.10100000352E+00 0. -1.
</event>
<event>
 5   0  0.1586022E-03  0.1423985E+04  0.7818609E-02  0.8936638E-01
       -1   -1    0    0    0  501  0.00000000000E+00  0.00000000000E+00  0.12251293561E+04  0.12251293561E+04  0.50400001928E-02 0. -1.
        1   -1    0    0  501    0  0.00000000000E+00  0.00000000000E+00 -0.41377917386E+03  0.41377917389E+03  0.50400001928E-02 0.  1.
    10030    2    1    2    0    0  0.00000000000E+00  0.00000000000E+00  0.81135018225E+03  0.16389085300E+04  0.14239845686E+04 0.  0.
        1    1    3    3  502    0 -0.45659021450E+03  0.29496941989E+00  0.10344442979E+04  0.11307297274E+04  0.50400001928E-02 0. -1.
       -1    1    3    3    0  502  0.45659021450E+03 -0.29496941989E+00 -0.22309411562E+03  0.50817880262E+03  0.50400001928E-02 0.  1.
</event>
<event>
 5   0  0.1644571E-03  0.1426733E+04  0.7818609E-02  0.8934692E-01
        1   -1    0    0  501    0  0.00000000000E+00  0.00000000000E+00  0.20656223434E+04  0.20656223434E+04  0.50400001928E-02 0. -1.
       -1   -1    0    0    0  501  0.00000000000E+00  0.00000000000E+00 -0.24636260773E+03  0.24636260779E+03  0.50400001928E-02 0.  1.
    10030    2    1    2    0    0  0.00000000000E+00  0.00000000000E+00  0.18192597356E+04  0.23119849512E+04  0.14267334820E+04 0.  0.
        4    1    3    3  502    0 -0.13166338227E+03  0.15343830158E+03  0.20182189934E+04  0.20283214925E+04  0.12699999809E+01 0. -1.
       -4    1    3    3    0  502  0.13166338227E+03 -0.15343830158E+03 -0.19895925778E+03  0.28366345866E+03  0.12699999809E+01 0.  1.
</event>
<event>
 5   0  0.1586022E-03  0.1367264E+04  0.7818609E-02  0.8977861E-01
        1   -1    0    0  501    0  0.00000000000E+00  0.00000000000E+00  0.72967821036E+03  0.72967821037E+03  0.50400001928E-02 0. -1.
       -1   -1    0    0    0  501  0.00000000000E+00  0.00000000000E+00 -0.64049197208E+03  0.64049197210E+03  0.50400001928E-02 0.  1.
    10030    2    1    2    0    0  0.00000000000E+00  0.00000000000E+00  0.89186238272E+02  0.13701701825E+04  0.13672644747E+04 0.  0.
        1    1    3    3  502    0  0.64789641696E+03  0.17540951848E+03 -0.85354235697E+02  0.67662664141E+03  0.50400001928E-02 0. -1.
       -1    1    3    3    0  502 -0.64789641696E+03 -0.17540951848E+03  0.17454047397E+03  0.69354354107E+03  0.50400001928E-02 0.  1.
</event>
<event>
 5   0  0.2917809E-03  0.1308866E+04  0.7818609E-02  0.9022564E-01
        2   -1    0    0  501    0  0.00000000000E+00  0.00000000000E+00  0.14875311590E+04  0.14875311590E+04  0.25500000920E-02 0. -1.
       -2   -1    0    0    0  501  0.00000000000E+00  0.00000000000E+00 -0.28791491455E+03  0.28791491456E+03  0.25500000920E-02 0.  1.
    10030    2    1    2    0    0  0.00000000000E+00  0.00000000000E+00  0.11996162445E+04  0.17754460736E+04  0.13088657785E+04 0.  0.
        2    1    3    3  502    0 -0.52052924416E+03  0.12076155641E+02  0.11376060655E+04  0.12510971536E+04  0.25500000920E-02 0. -1.
       -2    1    3    3    0  502  0.52052924416E+03 -0.12076155641E+02  0.62010178983E+02  0.52434891996E+03  0.25500000920E-02 0.  1.
</event>
<event>
 5   0  0.1644571E-03  0.1409127E+04  0.7818609E-02  0.8947239E-01
       -1   -1    0    0    0  501  0.00000000000E+00  0.00000000000E+00  0.73494989736E+03  0.73494989738E+03  0.50400001928E-02 0.  1.
        1   -1    0    0  501    0  0.00000000000E+00  0.00000000000E+00 -0.67543319994E+03  0.67543319996E+03  0.50400001928E-02 0. -1.
    10030    2    1    2    0    0  0.00000000000E+00  0.00000000000E+00  0.59516697425E+02  0.14103830973E+04  0.14091267665E+04 0.  0.
        4    1    3    3  502    0  0.33809864054E+03 -0.53748467549E+03  0.33532954578E+03  0.71808633485E+03  0.12699999809E+01 0.  1.
       -4    1    3    3    0  502 -0.33809864054E+03  0.53748467549E+03 -0.27581284836E+03  0.69229676248E+03  0.12699999809E+01 0. -1.
</event>
<event>
 5   0  0.2760807E-03  0.1424532E+04  0.7818609E-02  0.8936250E-01
        2   -1    0    0  501    0  0.00000000000E+00  0.00000000000E+00  0.92887066950E+03  0.92887066950E+03  0.25500000920E-02 0. -1.
       -2   -1    0    0    0  501  0.00000000000E+00  0.00000000000E+00 -0.54617165809E+03  0.54617165810E+03  0.25500000920E-02 0.  1.
    10030    2    1    2    0    0  0.00000000000E+00  0.00000000000E+00  0.38269901141E+03  0.14750423276E+04  0.14245319705E+04 0.  0.
        4    1    3    3  502    0  0.54301516686E+03 -0.41183703000E+03 -0.22982720773E+02  0.68191277233E+03  0.12699999809E+01 0.  1.
       -4    1    3    3    0  502 -0.54301516686E+03  0.41183703000E+03  0.40568173218E+03  0.79312955527E+03  0.12699999809E+01 0. -1.
</event>
<event>
 5   0  0.1586022E-03  0.1473849E+04  0.7818609E-02  0.8902032E-01
        1   -1    0    0  501    0  0.00000000000E+00  0.00000000000E+00  0.12554564816E+04  0.12554564816E+04  0.50400001928E-02 0. -1.
       -1   -1    0    0    0  501  0.00000000000E+00  0.00000000000E+00 -0.43255793007E+03  0.43255793010E+03  0.50400001928E-02 0.  1.
    10030    2    1    2    0    0  0.00000000000E+00  0.00000000000E+00  0.82289855152E+03  0.16880144117E+04  0.14738489163E+04 0.  0.
        1    1    3    3  502    0  0.31150332168E+03 -0.40742728332E+03 -0.19462050575E+03  0.54855122996E+03  0.50400001928E-02 0.  1.
       -1    1    3    3    0  502 -0.31150332168E+03  0.40742728332E+03  0.10175190573E+04  0.11394631817E+04  0.50400001928E-02 0. -1.
</event>
<event>
 5   0  0.1631380E-03  0.1348560E+04  0.7818609E-02  0.8991919E-01
        1   -1    0    0  501    0  0.00000000000E+00  0.00000000000E+00  0.43668633163E+03  0.43668633166E+03  0.50400001928E-02 0.  1.
       -1   -1    0    0    0  501  0.00000000000E+00  0.00000000000E+00 -0.10411450248E+04  0.10411450248E+04  0.50400001928E-02 0. -1.
    10030    2    1    2    0    0  0.00000000000E+00  0.00000000000E+00 -0.60445869316E+03  0.14778313565E+04  0.13485604200E+04 0.  0.
        3    1    3    3  502    0 -0.46748837338E+03 -0.31247881900E+02 -0.83361560624E+03  0.95626188805E+03  0.10100000352E+00 0. -1.
       -3    1    3    3    0  502  0.46748837338E+03  0.31247881900E+02  0.22915691308E+03  0.52156946841E+03  0.10100000352E+00 0.  1.
</event>
<event>
 5   0  0.2917809E-03  0.1476693E+04  0.7818609E-02  0.8900101E-01
       -2   -1    0    0    0  501  0.00000000000E+00  0.00000000000E+00  0.43671204354E+03  0.43671204355E+03  0.25500000920E-02 0. -1.
        2   -1    0    0  501    0  0.00000000000E+00  0.00000000000E+00 -0.12483182413E+04  0.12483182413E+04  0.25500000920E-02 0.  1.
    10030    2    1    2    0    0  0.00000000000E+00  0.00000000000E+00 -0.81160619776E+03  0.16850302849E+04  0.14766930760E+04 0.  0.
        2    1    3    3  502    0  0.28219967324E+03  0.61062414186E+03 -0.75314474007E+03  0.10098145858E+04  0.25500000920E-02 0.  1.
       -2    1    3    3    0  502 -0.28219967324E+03 -0.61062414186E+03 -0.58461457694E+02  0.67521569905E+03  0.25500000920E-02 0. -1.
</event>
<event>
 5   0  0.3006737E-03  0.1396935E+04  0.7818609E-02  0.8956040E-01
       -2   -1    0    0    0  501  0.00000000000E+00  0.00000000000E+00  0.40395446715E+03  0.40395446716E+03  0.25500000920E-02 0. -1.
        2   -1    0    0  501    0  0.00000000000E+00  0.00000000000E+00 -0.12077031253E+04  0.12077031253E+04  0.25500000920E-02 0.  1.
    10030    2    1    2    0    0  0.00000000000E+00  0.00000000000E+00 -0.80374865819E+03  0.16116575925E+04  0.13969353206E+04 0.  0.
        1    1    3    3  502    0  0.30329319889E+03  0.33778901581E+03  0.21053669480E+03  0.50041371242E+03  0.50400001928E-02 0. -1.
       -1    1    3    3    0  502 -0.30329319889E+03 -0.33778901581E+03 -0.10142853530E+04  0.11112438801E+04  0.50400001928E-02 0.  1.
</event>
<event>
 5   0  0.2889469E-03  0.1295575E+04  0.7818609E-02  0.9033082E-01
       -2   -1    0    0    0  501  0.00000000000E+00  0.00000000000E+00  0.36883214728E+03  0.36883214729E+03  0.25500000920E-02 0.  1.
        2   -1    0    0  501    0  0.00000000000E+00  0.00000000000E+00 -0.11377223981E+04  0.11377223981E+04  0.25500000920E-02 0. -1.
    10030    2    1    2    0    0  0.00000000000E+00  0.00000000000E+00 -0.76889025078E+03  0.15065545454E+04  0.12955749227E+04 0.  0.
        5    1    3    3  502    0 -0.13476540986E+03 -0.48762895076E+03 -0.85487761705E+03  0.99336878320E+03  0.46999998093E+01 0. -1.
       -5    1    3    3    0  502  0.13476540986E+03  0.48762895076E+03  0.85987366270E+02  0.51318576215E+03  0.46999998093E+01 0.  1.
</event>
<event>
 5   0  0.1644571E-03  0.1302350E+04  0.7818609E-02  0.9027703E-01
        1   -1    0    0  501    0  0.00000000000E+00  0.00000000000E+00  0.97704924435E+03  0.97704924436E+03  0.50400001928E-02 0. -1.
       -1   -1    0    0    0  501  0.00000000000E+00  0.00000000000E+00 -0.43398943211E+03  0.43398943214E+03  0.50400001928E-02 0.  1.
    10030    2    1    2    0    0  0.00000000000E+00  0.00000000000E+00  0.54305981224E+03  0.14110386765E+04  0.13023502551E+04 0.  0.
        4    1    3    3  502    0 -0.36962218924E+03  0.34449211534E+03  0.71658104271E+03  0.87680407388E+03  0.12699999809E+01 0. -1.
       -4    1    3    3    0  502  0.36962218924E+03 -0.34449211534E+03 -0.17352123047E+03  0.53423460262E+03  0.12699999809E+01 0.  1.
</event>
<event>
 5   0  0.1586022E-03  0.1348307E+04  0.7818609E-02  0.8992111E-01
       -1   -1    0    0    0  501  0.00000000000E+00  0.00000000000E+00  0.11857136609E+04  0.11857136609E+04  0.50400001928E-02 0. -1.
        1   -1    0    0  501    0  0.00000000000E+00  0.00000000000E+00 -0.38329881070E+03  0.38329881074E+03  0.50400001928E-02 0.  1.
    10030    2    1    2    0    0  0.00000000000E+00  0.00000000000E+00  0.80241485019E+03  0.15690124716E+04  0.13483065469E+04 0.  0.
        1    1    3    3  502    0  0.62348851660E+03 -0.47053615307E+02  0.10789568509E+03  0.63450252319E+03  0.50400001928E-02 0.  1.
       -1    1    3    3    0  502 -0.62348851660E+03  0.47053615307E+02  0.69451916509E+03  0.93450994845E+03  0.50400001928E-02 0. -1.
</event>
<event>
 5   0  0.1631380E-03  0.1388740E+04  0.7818609E-02  0.8962010E-01
       -1   -1    0    0    0  501  0.00000000000E+00  0.00000000000E+00  0.62891294916E+03  0.62891294918E+03  0.50400001928E-02 0.  1.
        1   -1    0    0  501    0  0.00000000000E+00  0.00000000000E+00 -0.76663957719E+03  0.76663957721E+03  0.50400001928E-02 0. -1.
    10030    2    1    2    0    0  0.00000000000E+00  0.00000000000E+00 -0.13772662803E+03  0.13955525264E+04  0.13887397992E+04 0.  0.
        3    1    3    3  502    0  0.47293346004E+03  0.39601515001E+03 -0.38926199958E+03  0.72939630598E+03  0.10100000352E+00 0. -1.
       -3    1    3    3    0  502 -0.47293346004E+03 -0.39601515001E+03  0.25153537155E+03  0.66615622042E+03  0.10100000352E+00 0.  1.
</event>
<event>
 5   0  0.2993993E-03  0.1363589E+04  0.7818609E-02  0.8980605E-01
        2   -1    0    0  501    0  0.00000000000E+00  0.00000000000E+00  0.10447842272E+04  0.10447842272E+04  0.25500000920E-02 0. -1.
       -2   -1    0    0    0  501  0.00000000000E+00  0.00000000000E+00 -0.44491821944E+03  0.44491821945E+03  0.25500000920E-02 0.  1.
    10030    2    1    2    0    0  0.00000000000E+00  0.00000000000E+00  0.59986600778E+03  0.14897024467E+04  0.13635887035E+04 0.  0.
        3    1    3    3  502    0  0.61973782066E+02 -0.45198731491E+03  0.85345863689E+03  0.96774218550E+03  0.10100000352E+00 0. -1.
       -3    1    3    3    0  502 -0.61973782066E+02  0.45198731491E+03 -0.25359262911E+03  0.52196026117E+03  0.10100000352E+00 0.  1.
</event>
<event>
 5   0  0.2917809E-03  0.1547102E+04  0.7818609E-02  0.8853721E-01
        2   -1    0    0  501    0  0.00000000000E+00  0.00000000000E+00  0.79830109563E+03  0.79830109563E+03  0.25500000920E-02 0. -1.
       -2   -1    0    0    0  501  0.00000000000E+00  0.00000000000E+00 -0.74956857268E+03  0.74956857269E+03  0.25500000920E-02 0.  1.
    10030    2    1    2    0    0  0.00000000000E+00  0.00000000000E+00  0.48732522944E+02  0.15478696683E+04  0.15471023403E+04 0.  0.
        2    1    3    3  502    0 -0.12962348121E+02  0.29559209932E+03 -0.69071803838E+03  0.75142139988E+03  0.25500000920E-02 0.  1.
       -2    1    3    3    0  502  0.12962348121E+02 -0.29559209932E+03  0.73945056132E+03  0.79644826844E+03  0.25500000920E-02 0. -1.
</event>
<event>
 5   0  0.1104538E-03  0.1403720E+04  0.7818609E-02  0.8951130E-01
       -4   -1    0    0    0  501  0.00000000000E+00  0.00000000000E+00  0.63937319358E+03  0.63937445489E+03  0.12699999809E+01 0.  1.
        4   -1    0    0  501    0  0.00000000000E+00  0.00000000000E+00 -0.77045171091E+03  0.77045275763E+03  0.12699999809E+01 0. -1.
    10030    2    1    2    0    0  0.00000000000E+00  0.00000000000E+00 -0.13107851733E+03  0.14098272125E+04  0.14037204820E+04 0.  0.
        5    1    3    3  502    0 -0.13804488161E+03 -0.12685268629E+03 -0.74482302573E+03  0.76806993368E+03  0.46999998093E+01 0. -1.
       -5    1    3    3    0  502  0.13804488161E+03  0.12685268629E+03  0.61374450841E+03  0.64175727885E+03  0.46999998093E+01 0.  1.
</event>
<event>
 5   0  0.1700207E-03  0.1365592E+04  0.7818609E-02  0.8979109E-01
        1   -1    0    0  501    0  0.00000000000E+00  0.00000000000E+00  0.50706054966E+03  0.50706054968E+03  0.50400001928E-02 0. -1.
       -1   -1    0    0    0  501  0.00000000000E+00  0.00000000000E+00 -0.91943670200E+03  0.91943670201E+03  0.50400001928E-02 0.  1.
    10030    2    1    2    0    0  0.00000000000E+00  0.00000000000E+00 -0.41237615234E+03  0.14264972517E+04  0.13655915634E+04 0.  0.
        2    1    3    3  502    0  0.26113253587E+01  0.58559217952E+03  0.16059166462E+03  0.60721882587E+03  0.25500000920E-02 0. -1.
       -2    1    3    3    0  502 -0.26113253587E+01 -0.58559217952E+03 -0.57296781697E+03  0.81927842583E+03  0.25500000920E-02 0.  1.
</event>
<event>
 5   0  0.2760807E-03  0.1403327E+04  0.7818609E-02  0.8951414E-01
       -2   -1    0    0    0  501  0.00000000000E+00  0.00000000000E+00  0.31534354865E+03  0.31534354866E+03  0.25500000920E-02 0.  1.
        2   -1    0    0  501    0  0.00000000000E+00  0.00000000000E+00 -0.15612540655E+04  0.15612540655E+04  0.25500000920E-02 0. -1.
    10030    2    1    2    0    0  0.00000000000E+00  0.00000000000E+00 -0.12459105169E+04  0.18765976142E+04  0.14033266154E+04 0.  0.
        4    1    3    3  502    0 -0.37339925810E+03 -0.59094586369E+03 -0.70414033453E+03  0.99219919541E+03  0.12699999809E+01 0. -1.
       -4    1    3    3    0  502  0.37339925810E+03  0.59094586369E+03 -0.54177018235E+03  0.88439841879E+03  0.12699999809E+01 0.  1.
</event>
<event>
 5   0  0.1631380E-03  0.1433209E+04  0.7818609E-02  0.8930125E-01
        1   -1    0    0  501    0  0.00000000000E+00  0.00000000000E+00  0.79166058123E+03  0.79166058124E+03  0.50400001928E-02 0.  1.
       -1   -1    0    0    0  501  0.00000000000E+00  0.00000000000E+00 -0.64866416307E+03  0.64866416309E+03  0.50400001928E-02 0. -1.
    10030    2    1    2    0    0  0.00000000000E+00  0.00000000000E+00  0.14299641815E+03  0.14403247443E+04  0.14332087753E+04 0.  0.
        3    1    3    3  502    0  0.40362970066E+03  0.28654488920E+03  0.59223783272E+03  0.77186175542E+03  0.10100000352E+00 0.  1.
       -3    1    3    3    0  502 -0.40362970066E+03 -0.28654488920E+03 -0.44924141456E+03  0.66846298891E+03  0.10100000352E+00 0. -1.
</event>
<event>
 5   0  0.3006737E-03  0.1392830E+04  0.7818609E-02  0.8959025E-01
       -2   -1    0    0    0  501  0.00000000000E+00  0.00000000000E+00  0.45480652309E+03  0.45480652310E+03  0.25500000920E-02 0.  1.
        2   -1    0    0  501    0  0.00000000000E+00  0.00000000000E+00 -0.10663744591E+04  0.10663744591E+04  0.25500000920E-02 0. -1.
    10030    2    1    2    0    0  0.00000000000E+00  0.00000000000E+00 -0.61156793599E+03  0.15211809822E+04  0.13928302984E+04 0.  0.
        1    1    3    3  502    0  0.12505243215E+03 -0.59957813500E+03  0.56214264920E+02  0.61505454585E+03  0.50400001928E-02 0.  1.
       -1    1    3    3    0  502 -0.12505243215E+03  0.59957813500E+03 -0.66778220091E+03  0.90612643634E+03  0.50400001928E-02 0. -1.
</event>
<event>
 5   0  0.1104538E-03  0.1348030E+04  0.7818609E-02  0.8992320E-01
       -4   -1    0    0    0  501  0.00000000000E+00  0.00000000000E+00  0.66581597297E+03  0.66581718419E+03  0.12699999809E+01 0. -1.
        4   -1    0    0  501    0  0.00000000000E+00  0.00000000000E+00 -0.68231299873E+03  0.68231418067E+03  0.12699999809E+01 0.  1.
    10030    2    1    2    0    0  0.00000000000E+00  0.00000000000E+00 -0.16497025762E+02  0.13481313649E+04  0.13480304244E+04 0.  0.
        5    1    3    3  502    0 -0.45700173557E+03 -0.36921728191E+03  0.32208278820E+03  0.67002343245E+03  0.46999998093E+01 0. -1.
       -5    1    3    3    0  502  0.45700173557E+03  0.36921728191E+03 -0.33857981396E+03  0.67810793241E+03  0.46999998093E+01 0.  1.
</event>
<event>
 5   0  0.1644571E-03  0.1236365E+04  0.7818609E-02  0.9081609E-01
        1   -1    0    0  501    0  0.00000000000E+00  0.00000000000E+00  0.66906051451E+03  0.66906051453E+03  0.50400001928E-02 0.  1.
       -1   -1    0    0    0  501  0.00000000000E+00  0.00000000000E+00 -0.57117328091E+03  0.57117328094E+03  0.50400001928E-02 0. -1.
    10030    2    1    2    0    0  0.00000000000E+00  0.00000000000E+00  0.97887233598E+02  0.12402337955E+04  0.12363648155E+04 0.  0.
        4    1    3    3  502    0  0.58458807743E+03  0.96690561982E+02 -0.12783381702E+03  0.60616448487E+03  0.12699999809E+01 0. -1.
       -4    1    3    3    0  502 -0.58458807743E+03 -0.96690561982E+02  0.22572105062E+03  0.63406931060E+03  0.12699999809E+01 0.  1.
</event>
<event>
 5   0  0.2760807E-03  0.1364697E+04  0.7818609E-02  0.8979777E-01
        2   -1    0    0  501    0  0.00000000000E+00  0.00000000000E+00  0.17146928788E+04  0.17146928788E+04  0.25500000920E-02 0. -1.
       -2   -1    0    0    0  501  0.00000000000E+00  0.00000000000E+00 -0.27153511784E+03  0.27153511785E+03  0.25500000920E-02 0.  1.
    10030    2    1    2    0    0  0.00000000000E+00  0.00000000000E+00  0.14431577609E+04  0.19862279966E+04  0.13646967911E+04 0.  0.
        4    1    3    3  502    0 -0.21014809694E+03  0.11105991280E+03  0.16524901799E+04  0.16694975096E+04  0.12699999809E+01 0. -1.
       -4    1    3    3    0  502  0.21014809694E+03 -0.11105991280E+03 -0.20933241899E+03  0.31673048703E+03  0.12699999809E+01 0.  1.
</event>
<event>
 5   0  0.2917809E-03  0.1450952E+04  0.7818609E-02  0.8917741E-01
       -2   -1    0    0    0  501  0.00000000000E+00  0.00000000000E+00  0.34819074829E+03  0.34819074830E+03  0.25500000920E-02 0.  1.
        2   -1    0    0  501    0  0.00000000000E+00  0.00000000000E+00 -0.15115715029E+04  0.15115715029E+04  0.25500000920E-02 0. -1.
    10030    2    1    2    0    0  0.00000000000E+00  0.00000000000E+00 -0.11633807546E+04  0.18597622512E+04  0.14509517052E+04 0.  0.
        2    1    3    3  502    0 -0.26268247531E+02 -0.23621169172E+03 -0.14602565682E+04  0.14794712668E+04  0.25500000920E-02 0. -1.
       -2    1    3    3    0  502  0.26268247531E+02  0.23621169172E+03  0.29687581362E+03  0.38029098444E+03  0.25500000920E-02 0.  1.
</event>
<event>
 5   0  0.1560957E-03  0.1332705E+04  0.7818609E-02  0.9004024E-01
       -1   -1    0    0    0  501  0.00000000000E+00  0.00000000000E+00  0.24132188750E+04  0.24132188750E+04  0.50400001928E-02 0.  1.
        1   -1    0    0  501    0  0.00000000000E+00  0.00000000000E+00 -0.18399726044E+03  0.18399726050E+03  0.50400001928E-02 0. -1.
    10030    2    1    2    0    0  0.00000000000E+00  0.00000000000E+00  0.22292216145E+04  0.25972161355E+04  0.13327050115E+04 0.  0.
        5    1    3    3  502    0 -0.73798478867E+02 -0.34407234906E+03  0.22173313056E+04  0.22450862357E+04  0.46999998093E+01 0.  1.
       -5    1    3    3    0  502  0.73798478867E+02  0.34407234906E+03  0.11890308915E+02  0.35212989978E+03  0.46999998093E+01 0. -1.
</event>
<event>
 5   0  0.2889469E-03  0.1410396E+04  0.7818609E-02  0.8946328E-01
       -2   -1    0    0    0  501  0.00000000000E+00  0.00000000000E+00  0.15280011745E+04  0.15280011745E+04  0.25500000920E-02 0.  1.
        2   -1    0    0  501    0  0.00000000000E+00  0.00000000000E+00 -0.32546066886E+03  0.32546066887E+03  0.25500000920E-02 0. -1.
    10030    2    1    2    0    0  0.00000000000E+00  0.00000000000E+00  0.12025405057E+04  0.18534618434E+04  0.14103960923E+04 0.  0.
        5    1    3    3  502    0  0.21019788596E+03  0.88175266638E+02 -0.27569156522E+03  0.35775125163E+03  0.46999998093E+01 0. -1.
       -5    1    3    3    0  502 -0.21019788596E+03 -0.88175266638E+02  0.14782320709E+04  0.14957105918E+04  0.46999998093E+01 0.  1.
</event>
<event>
 5   0  0.2917809E-03  0.1905508E+04  0.7818609E-02  0.8652120E-01
       -2   -1    0    0    0  501  0.00000000000E+00  0.00000000000E+00  0.66265466091E+03  0.66265466092E+03  0.25500000920E-02 0.  1.
        2   -1    0    0  501    0  0.00000000000E+00  0.00000000000E+00 -0.13698541934E+04  0.13698541934E+04  0.25500000920E-02 0. -1.
    10030    2    1    2    0    0  0.00000000000E+00  0.00000000000E+00 -0.70719953247E+03  0.20325088543E+04  0.19055080856E+04 0.  0.
        2    1    3    3  502    0  0.93950325525E+03 -0.12745822074E+03 -0.45382111087E+03  0.10511258561E+04  0.25500000920E-02 0. -1.
       -2    1    3    3    0  502 -0.93950325525E+03  0.12745822074E+03 -0.25337842160E+03  0.98138299822E+03  0.25500000920E-02 0.  1.
</event>
<event>
 5   0  0.1104538E-03  0.1458847E+04  0.7818609E-02  0.8912290E-01
       -4   -1    0    0    0  501  0.00000000000E+00  0.00000000000E+00  0.83282641764E+03  0.83282738597E+03  0.12699999809E+01 0.  1.
        4   -1    0    0  501    0  0.00000000000E+00  0.00000000000E+00 -0.63885721756E+03  0.63885847989E+03  0.12699999809E+01 0. -1.
    10030    2    1    2    0    0  0.00000000000E+00  0.00000000000E+00  0.19396920008E+03  0.14716858659E+04  0.14588472289E+04 0.  0.
        2    1    3    3  502    0 -0.11522195853E+03  0.68862576895E+03  0.30997596117E+03  0.76391533948E+03  0.25500000920E-02 0. -1.
       -2    1    3    3    0  502  0.11522195853E+03 -0.68862576895E+03 -0.11600676109E+03  0.70777052638E+03  0.25500000920E-02 0.  1.
</event>
<event>
 5   0  0.1631380E-03  0.1393288E+04  0.7818609E-02  0.8958692E-01
       -1   -1    0    0    0  501  0.00000000000E+00  0.00000000000E+00  0.11184484437E+04  0.11184484437E+04  0.50400001928E-02 0.  1.
        1   -1    0    0  501    0  0.00000000000E+00  0.00000000000E+00 -0.43391592433E+03  0.43391592436E+03  0.50400001928E-02 0. -1.
    10030    2    1    2    0    0  0.00000000000E+00  0.00000000000E+00  0.68453251933E+03  0.15523643680E+04  0.13932876089E+04 0.  0.
        3    1    3    3  502    0 -0.35791078502E+03  0.31667801141E+03 -0.22248625784E+03  0.52714821263E+03  0.10100000352E+00 0. -1.
       -3    1    3    3    0  502  0.35791078502E+03 -0.31667801141E+03  0.90701877717E+03  0.10252161554E+04  0.10100000352E+00 0.  1.
</event>
<event>
 5   0  0.3006737E-03  0.1401824E+04  0.7818609E-02  0.8952500E-01
       -2   -1    0    0    0  501  0.00000000000E+00  0.00000000000E+00  0.92184225018E+03  0.92184225019E+03  0.25500000920E-02 0. -1.
        2   -1    0    0  501    0  0.00000000000E+00  0.00000000000E+00 -0.53293004262E+03  0.53293004263E+03  0.25500000920E-02 0.  1.
    10030    2    1    2    0    0  0.00000000000E+00  0.00000000000E+00  0.38891220756E+03  0.14547722928E+04  0.14018237117E+04 0.  0.
        1    1    3    3  502    0  0.64981528521E+02  0.61262344686E+03 -0.15245661460E+03  0.63464407825E+03  0.50400001928E-02 0.  1.
       -1    1    3    3    0  502 -0.64981528521E+02 -0.61262344686E+03  0.54136882216E+03  0.82012821457E+03  0.50400001928E-02 0. -1.
</event>
<event>
 5   0  0.1631380E-03  0.1254024E+04  0.7818609E-02  0.9066841E-01
        1   -1    0    0  501    0  0.00000000000E+00  0.00000000000E+00  0.58655910655E+03  0.58655910657E+03  0.50400001928E-02 0.  1.
       -1   -1    0    0    0  501  0.00000000000E+00  0.00000000000E+00 -0.67025464813E+03  0.67025464815E+03  0.50400001928E-02 0. -1.
    10030    2    1    2    0    0  0.00000000000E+00  0.00000000000E+00 -0.83695541578E+02  0.12568137547E+04  0.12540238715E+04 0.  0.
        3    1    3    3  502    0 -0.28342112152E+03  0.38673925160E+03  0.36309217548E+03  0.60144053650E+03  0.10100000352E+00 0.  1.
       -3    1    3    3    0  502  0.28342112152E+03 -0.38673925160E+03 -0.44678771706E+03  0.65537321822E+03  0.10100000352E+00 0. -1.
</event>
<event>
 5   0  0.2917809E-03  0.1399386E+04  0.7818609E-02  0.8954263E-01
        2   -1    0    0  501    0  0.00000000000E+00  0.00000000000E+00  0.53621135683E+03  0.53621135684E+03  0.25500000920E-02 0.  1.
       -2   -1    0    0    0  501  0.00000000000E+00  0.00000000000E+00 -0.91301774508E+03  0.91301774509E+03  0.25500000920E-02 0. -1.
    10030    2    1    2    0    0  0.00000000000E+00  0.00000000000E+00 -0.37680638825E+03  0.14492291019E+04  0.13993862711E+04 0.  0.
        2    1    3    3  502    0 -0.46146845793E+03 -0.33241531836E+03  0.23368869150E+03  0.61486867385E+03  0.25500000920E-02 0.  1.
       -2    1    3    3    0  502  0.46146845793E+03  0.33241531836E+03 -0.61049507975E+03  0.83436042808E+03  0.25500000920E-02 0. -1.
</event>
<event>
 5   0  0.2993993E-03  0.1378717E+04  0.7818609E-02  0.8969370E-01
       -2   -1    0    0    0  501  0.00000000000E+00  0.00000000000E+00  0.36137734012E+03  0.36137734013E+03  0.25500000920E-02 0.  1.
        2   -1    0    0  501    0  0.00000000000E+00  0.00000000000E+00 -0.13150117899E+04  0.13150117899E+04  0.25500000920E-02 0. -1.
    10030    2    1    2    0    0  0.00000000000E+00  0.00000000000E+00 -0.95363444974E+03  0.16763891300E+04  0.13787174661E+04 0.  0.
        3    1    3    3  502    0  0.11136895764E+03 -0.61716263561E+03 -0.12879926360E+03  0.64022029335E+03  0.10100000352E+00 0.  1.
       -3    1    3    3    0  502 -0.11136895764E+03  0.61716263561E+03 -0.82483518614E+03  0.10361688366E+04  0.10100000352E+00 0. -1.
</event>
<event>
 5   0  0.3006737E-03  0.1394230E+04  0.7818609E-02  0.8958006E-01
       -2   -1    0    0    0  501  0.00000000000E+00  0.00000000000E+00  0.58713451243E+03  0.58713451244E+03  0.25500000920E-02 0. -1.
        2   -1    0    0  501    0  0.00000000000E+00  0.00000000000E+00 -0.82769644785E+03  0.82769644785E+03  0.25500000920E-02 0.  1.
    10030    2    1    2    0    0  0.00000000000E+00  0.00000000000E+00 -0.24056193542E+03  0.14148309603E+04  0.13942297520E+04 0.  0.
        1    1    3    3  502    0 -0.30909537781E+03  0.13433307888E+03 -0.73953039132E+03  0.81270568373E+03  0.50400001928E-02 0.  1.
       -1    1    3    3    0  502  0.30909537781E+03 -0.13433307888E+03  0.49896845590E+03  0.60212527656E+03  0.50400001928E-02 0. -1.
</event>
<event>
 5   0  0.2889469E-03  0.1263239E+04  0.7818609E-02  0.9059236E-01
       -2   -1    0    0    0  501  0.00000000000E+00  0.00000000000E+00  0.26928477309E+03  0.26928477311E+03  0.25500000920E-02 0. -1.
        2   -1    0    0  501    0  0.00000000000E+00  0.00000000000E+00 -0.14814928523E+04  0.14814928523E+04  0.25500000920E-02 0.  1.
    10030    2    1    2    0    0  0.00000000000E+00  0.00000000000E+00 -0.12122080792E+04  0.17507776254E+04  0.12632394335E+04 0.  0.
        5    1    3    3  502    0 -0.46147015549E+03  0.10305811826E+03 -0.11864578888E+04  0.12772157578E+04  0.46999998093E+01 0.  1.
       -5    1    3    3    0  502  0.46147015549E+03 -0.10305811826E+03 -0.25750190436E+02  0.47356186761E+03  0.46999998093E+01 0. -1.
</event>
<event>
 5   0  0.1644571E-03  0.1225899E+04  0.7818609E-02  0.9090484E-01
        1   -1    0    0  501    0  0.00000000000E+00  0.00000000000E+00  0.10833186003E+04  0.10833186003E+04  0.50400001928E-02 0. -1.
       -1   -1    0    0    0  501  0.00000000000E+00  0.00000000000E+00 -0.34681134154E+03  0.34681134158E+03  0.50400001928E-02 0.  1.
    10030    2    1    2    0    0  0.00000000000E+00  0.00000000000E+00  0.73650725876E+03  0.14301299419E+04  0.12258991429E+04 0.  0.
        4    1    3    3  502    0 -0.34772927728E+03  0.49607884861E+03  0.47703957217E+03  0.77108899657E+03  0.12699999809E+01 0. -1.
       -4    1    3    3    0  502  0.34772927728E+03 -0.49607884861E+03  0.25946768659E+03  0.65904094531E+03  0.12699999809E+01 0.  1.
</event>
<event>
 5   0  0.1560957E-03  0.1372209E+04  0.7818609E-02  0.8974184E-01
        1   -1    0    0  501    0  0.00000000000E+00  0.00000000000E+00  0.10171171423E+04  0.10171171423E+04  0.50400001928E-02 0.  1.
       -1   -1    0    0    0  501  0.00000000000E+00  0.00000000000E+00 -0.46281738159E+03  0.46281738162E+03  0.50400001928E-02 0. -1.
    10030    2    1    2    0    0  0.00000000000E+00  0.00000000000E+00  0.55429976067E+03  0.14799345239E+04  0.13722091569E+04 0.  0.
        5    1    3    3  502    0  0.29002515835E+03 -0.35445218563E+03  0.82810285743E+03  0.94632308270E+03  0.46999998093E+01 0.  1.
       -5    1    3    3    0  502 -0.29002515835E+03  0.35445218563E+03 -0.27380309676E+03  0.53361144119E+03  0.46999998093E+01 0. -1.
</event>
<event>
 5   0  0.2760807E-03  0.1382517E+04  0.7818609E-02  0.8966572E-01
       -2   -1    0    0    0  501  0.00000000000E+00  0.00000000000E+00  0.83233355662E+03  0.83233355662E+03  0.25500000920E-02 0. -1.
        2   -1    0    0  501    0  0.00000000000E+00  0.00000000000E+00 -0.57409473545E+03  0.57409473546E+03  0.25500000920E-02 0.  1.
    10030    2    1    2    0    0  0.00000000000E+00  0.00000000000E+00  0.25823882117E+03  0.14064282921E+04  0.13825169988E+04 0.  0.
        4    1    3    3  502    0 -0.34305131496E+02  0.26618117609E+03 -0.51892850278E+03  0.58422398483E+03  0.12699999809E+01 0.  1.
       -4    1    3    3    0  502  0.34305131496E+02 -0.26618117609E+03  0.77716732395E+03  0.82220430725E+03  0.12699999809E+01 0. -1.
</event>
<event>
 5   0  0.1644571E-03  0.1397196E+04  0.7818609E-02  0.8955850E-01
        1   -1    0    0  501    0  0.00000000000E+00  0.00000000000E+00  0.12102206691E+04  0.12102206691E+04  0.50400001928E-02 0.  1.
       -1   -1    0    0    0  501  0.00000000000E+00  0.00000000000E+00 -0.40326489063E+03  0.40326489066E+03  0.50400001928E-02 0. -1.
    10030    2    1    2    0    0  0.00000000000E+00  0.00000000000E+00  0.80695577844E+03  0.16134855597E+04  0.13971964869E+04 0.  0.
        4    1    3    3  502    0 -0.42503175706E+03 -0.35543978079E+03  0.89484379187E+03  0.10524905971E+04  0.12699999809E+01 0.  1.
       -4    1    3    3    0  502  0.42503175706E+03  0.35543978079E+03 -0.87888013432E+02  0.56099496262E+03  0.12699999809E+01 0. -1.
</event>
<event>
 5   0  0.1586022E-03  0.1714092E+04  0.7818609E-02  0.8753368E-01
       -1   -1    0    0    0  501  0.00000000000E+00  0.00000000000E+00  0.46303551136E+03  0.46303551139E+03  0.50400001928E-02 0. -1.
        1   -1    0    0  501    0  0.00000000000E+00  0.00000000000E+00 -0.15863310387E+04  0.15863310388E+04  0.50400001928E-02 0.  1.
    10030    2    1    2    0    0  0.00000000000E+00  0.00000000000E+00 -0.11232955274E+04  0.20493665501E+04  0.17140917172E+04 0.  0.
        1    1    3    3  502    0  0.37477724312E+03 -0.61291054805E+03 -0.11204036698E+04  0.13309476718E+04  0.50400001928E-02 0.  1.
       -1    1    3    3    0  502 -0.37477724312E+03  0.61291054805E+03 -0.28918576250E+01  0.71841887833E+03  0.50400001928E-02 0. -1.
</event>
<event>
 5   0  0.3006737E-03  0.1362173E+04  0.7818609E-02  0.8981664E-01
        2   -1    0    0  501    0  0.00000000000E+00  0.00000000000E+00  0.12285306786E+04  0.12285306786E+04  0.25500000920E-02 0.  1.
       -2   -1    0    0    0  501  0.00000000000E+00  0.00000000000E+00 -0.37758852165E+03  0.37758852166E+03  0.25500000920E-02 0. -1.
    10030    2    1    2    0    0  0.00000000000E+00  0.00000000000E+00  0.85094215696E+03  0.16061192003E+04  0.13621733851E+04 0.  0.
        1    1    3    3  502    0 -0.61628120903E+03  0.62363484574E+02  0.91584998128E+02  0.62616255455E+03  0.50400001928E-02 0. -1.
       -1    1    3    3    0  502  0.61628120903E+03 -0.62363484574E+02  0.75935715883E+03  0.97995664573E+03  0.50400001928E-02 0.  1.
</event>
<event>
 5   0  0.1560957E-03  0.1398726E+04  0.7818609E-02  0.8954741E-01
        1   -1    0    0  501    0  0.00000000000E+00  0.00000000000E+00  0.79953713053E+03  0.79953713054E+03  0.50400001928E-02 0.  1.
       -1   -1    0    0    0  501  0.00000000000E+00  0.00000000000E+00 -0.61173982170E+03  0.61173982172E+03  0.50400001928E-02 0. -1.
    10030    2    1    2    0    0  0.00000000000E+00  0.00000000000E+00  0.18779730883E+03  0.14112769523E+04  0.13987261372E+04 0.  0.
        5    1    3    3  502    0  0.94240839405E+02  0.32558190869E+03  0.71110791679E+03  0.78776993748E+03  0.46999998093E+01 0.  1.
       -5    1    3    3    0  502 -0.94240839405E+02 -0.32558190869E+03 -0.52331060796E+03  0.62350701478E+03  0.46999998093E+01 0. -1.
</event>
<event>
 5   0  0.2760807E-03  0.1480438E+04  0.7818609E-02  0.8897567E-01
        2   -1    0    0  501    0  0.00000000000E+00  0.00000000000E+00  0.54001254951E+03  0.54001254951E+03  0.25500000920E-02 0. -1.
       -2   -1    0    0    0  501  0.00000000000E+00  0.00000000000E+00 -0.10146503557E+04  0.10146503557E+04  0.25500000920E-02 0.  1.
    10030    2    1    2    0    0  0.00000000000E+00  0.00000000000E+00 -0.47463780615E+03  0.15546629052E+04  0.14804376723E+04 0.  0.
        4    1    3    3  502    0 -0.12159415909E+03  0.70845703929E+03 -0.42288681060E+03  0.83398524179E+03  0.12699999809E+01 0.  1.
       -4    1    3    3    0  502  0.12159415909E+03 -0.70845703929E+03 -0.51750995551E+02  0.72067766338E+03  0.12699999809E+01 0. -1.
</event>
<event>
 5   0  0.3006737E-03  0.1415550E+04  0.7818609E-02  0.8942639E-01
       -2   -1    0    0    0  501  0.00000000000E+00  0.00000000000E+00  0.43616068834E+03  0.43616068834E+03  0.25500000920E-02 0. -1.
        2   -1    0    0  501    0  0.00000000000E+00  0.00000000000E+00 -0.11485344858E+04  0.11485344858E+04  0.25500000920E-02 0.  1.
    10030    2    1    2    0    0  0.00000000000E+00  0.00000000000E+00 -0.71237379746E+03  0.15846951741E+04  0.14155501996E+04 0.  0.
        1    1    3    3  502    0 -0.13531719590E+03 -0.29085241297E+03 -0.10624778907E+04  0.11098491509E+04  0.50400001928E-02 0.  1.
       -1    1    3    3    0  502  0.13531719590E+03  0.29085241297E+03  0.35010409322E+03  0.47484602320E+03  0.50400001928E-02 0. -1.
</event>
<event>
 5   0  0.2993993E-03  0.7916239E+03  0.7818609E-02  0.9572221E-01
       -2   -1    0    0    0  501  0.00000000000E+00  0.00000000000E+00  0.42731997610E+03  0.42731997611E+03  0.25500000920E-02 0. -1.
        2   -1    0    0  501    0  0.00000000000E+00  0.00000000000E+00 -0.36662713187E+03  0.36662713188E+03  0.25500000920E-02 0.  1.
    10030    2    1    2    0    0  0.00000000000E+00  0.00000000000E+00  0.60692844234E+02  0.79394710798E+03  0.79162389361E+03 0.  0.
        3    1    3    3  502    0 -0.26312586641E+03 -0.25458151485E+03  0.18118766692E+03  0.40850452889E+03  0.10100000352E+00 0. -1.
       -3    1    3    3    0  502  0.26312586641E+03  0.25458151485E+03 -0.12049482269E+03  0.38544257909E+03  0.10100000352E+00 0.  1.
</event>
<event>
 5   0  0.2917809E-03  0.9619780E+03  0.7818609E-02  0.9351259E-01
        2   -1    0    0  501    0  0.00000000000E+00  0.00000000000E+00  0.27820709888E+03  0.27820709889E+03  0.25500000920E-02 0. -1.
       -2   -1    0    0    0  501  0.00000000000E+00  0.00000000000E+00 -0.83157621635E+03  0.83157621635E+03  0.25500000920E-02 0.  1.
    10030    2    1    2    0    0  0.00000000000E+00  0.00000000000E+00 -0.55336911747E+03  0.11097833152E+04  0.96197797616E+03 0.  0.
        2    1    3    3  502    0 -0.21497608318E+02  0.20598773681E+03 -0.77750213016E+03  0.80461335888E+03  0.25500000920E-02 0.  1.
       -2    1    3    3    0  502  0.21497608318E+02 -0.20598773681E+03  0.22413301269E+03  0.30516995636E+03  0.25500000920E-02 0. -1.
</event>
<event>
 5   0  0.3006737E-03  0.1388700E+04  0.7818609E-02  0.8962039E-01
       -2   -1    0    0    0  501  0.00000000000E+00  0.00000000000E+00  0.19764515127E+03  0.19764515129E+03  0.25500000920E-02 0.  1.
        2   -1    0    0  501    0  0.00000000000E+00  0.00000000000E+00 -0.24393310531E+04  0.24393310531E+04  0.25500000920E-02 0. -1.
    10030    2    1    2    0    0  0.00000000000E+00  0.00000000000E+00 -0.22416859018E+04  0.26369762043E+04  0.13887000468E+04 0.  0.
        1    1    3    3  502    0  0.44093192840E+03  0.39840974881E+03 -0.18027783332E+04  0.18981994131E+04  0.50400001928E-02 0.  1.
       -1    1    3    3    0  502 -0.44093192840E+03 -0.39840974881E+03 -0.43890756863E+03  0.73877679123E+03  0.50400001928E-02 0. -1.
</event>
<event>
 5   0  0.2889469E-03  0.1400574E+04  0.7818609E-02  0.8953403E-01
       -2   -1    0    0    0  501  0.00000000000E+00  0.00000000000E+00  0.70081442987E+03  0.70081442988E+03  0.25500000920E-02 0. -1.
        2   -1    0    0  501    0  0.00000000000E+00  0.00000000000E+00 -0.69975984760E+03  0.69975984760E+03  0.25500000920E-02 0.  1.
    10030    2    1    2    0    0  0.00000000000E+00  0.00000000000E+00  0.10545822725E+01  0.14005742775E+04  0.14005738804E+04 0.  0.
        5    1    3    3  502    0 -0.59892458739E+02 -0.13383688606E+03 -0.68422124358E+03  0.69977154761E+03  0.46999998093E+01 0.  1.
       -5    1    3    3    0  502  0.59892458739E+02  0.13383688606E+03  0.68527582586E+03  0.70080272986E+03  0.46999998093E+01 0. -1.
</event>
<event>
 5   0  0.2917809E-03  0.7481804E+03  0.7818609E-02  0.9638209E-01
       -2   -1    0    0    0  501  0.00000000000E+00  0.00000000000E+00  0.18227129999E+03  0.18227130000E+03  0.25500000920E-02 0.  1.
        2   -1    0    0  501    0  0.00000000000E+00  0.00000000000E+00 -0.76777570912E+03  0.76777570913E+03  0.25500000920E-02 0. -1.
    10030    2    1    2    0    0  0.00000000000E+00  0.00000000000E+00 -0.58550440914E+03  0.95004700913E+03  0.74818039699E+03 0.  0.
        2    1    3    3  502    0 -0.83812490566E+02  0.32437539151E+03 -0.50408899835E+03  0.60526824339E+03  0.25500000920E-02 0. -1.
       -2    1    3    3    0  502  0.83812490566E+02 -0.32437539151E+03 -0.81415410788E+02  0.34477876575E+03  0.25500000920E-02 0.  1.
</event>
<event>
 5   0  0.1631380E-03  0.1386203E+04  0.7818609E-02  0.8963867E-01
       -1   -1    0    0    0  501  0.00000000000E+00  0.00000000000E+00  0.77570669017E+03  0.77570669019E+03  0.50400001928E-02 0. -1.
        1   -1    0    0  501    0  0.00000000000E+00  0.00000000000E+00 -0.61929262424E+03  0.61929262426E+03  0.50400001928E-02 0.  1.
    10030    2    1    2    0    0  0.00000000000E+00  0.00000000000E+00  0.15641406593E+03  0.13949993144E+04  0.13862026285E+04 0.  0.
        3    1    3    3  502    0 -0.48506365726E+03  0.43131153185E+03 -0.16638477607E+03  0.67007484135E+03  0.10100000352E+00 0.  1.
       -3    1    3    3    0  502  0.48506365726E+03 -0.43131153185E+03  0.32279884200E+03  0.72492447310E+03  0.10100000352E+00 0. -1.
</event>
<event>
 5   0  0.1586022E-03  0.1304918E+04  0.7818609E-02  0.9025674E-01
        1   -1    0    0  501    0  0.00000000000E+00  0.00000000000E+00  0.82901076474E+03  0.82901076476E+03  0.50400001928E-02 0. -1.
       -1   -1    0    0    0  501  0.00000000000E+00  0.00000000000E+00 -0.51350703388E+03  0.51350703391E+03  0.50400001928E-02 0.  1.
    10030    2    1    2    0    0  0.00000000000E+00  0.00000000000E+00  0.31550373086E+03  0.13425177987E+04  0.13049181720E+04 0.  0.
        1    1    3    3  502    0 -0.10957077296E+03 -0.63119316101E+03  0.30526663068E+02  0.64135983502E+03  0.50400001928E-02 0. -1.
       -1    1    3    3    0  502  0.10957077296E+03  0.63119316101E+03  0.28497706779E+03  0.70115796365E+03  0.50400001928E-02 0.  1.
</event>
<event>
 5   0  0.2917809E-03  0.1378120E+04  0.7818609E-02  0.8969810E-01
        2   -1    0    0  501    0  0.00000000000E+00  0.00000000000E+00  0.98169565856E+03  0.98169565856E+03  0.25500000920E-02 0. -1.
       -2   -1    0    0    0  501  0.00000000000E+00  0.00000000000E+00 -0.48365693822E+03  0.48365693823E+03  0.25500000920E-02 0.  1.
    10030    2    1    2    0    0  0.00000000000E+00  0.00000000000E+00  0.49803872033E+03  0.14653525968E+04  0.13781203380E+04 0.  0.
        2    1    3    3  502    0 -0.48659350426E+03  0.16846640932E+02  0.76747595032E+03  0.90888744189E+03  0.25500000920E-02 0. -1.
       -2    1    3    3    0  502  0.48659350426E+03 -0.16846640932E+02 -0.26943722999E+03  0.55646515490E+03  0.25500000920E-02 0.  1.
</event>
<event>
 5   0  0.2889469E-03  0.1399978E+04  0.7818609E-02  0.8953835E-01
       -2   -1    0    0    0  501  0.00000000000E+00  0.00000000000E+00  0.11661335183E+04  0.11661335183E+04  0.25500000920E-02 0.  1.
        2   -1    0    0  501    0  0.00000000000E+00  0.00000000000E+00 -0.42017870628E+03  0.42017870628E+03  0.25500000920E-02 0. -1.
    10030    2    1    2    0    0  0.00000000000E+00  0.00000000000E+00  0.74595481200E+03  0.15863122246E+04  0.13999778185E+04 0.  0.
        5    1    3    3  502    0  0.65464188798E+03  0.18782067689E+03  0.18981541721E+03  0.70702516983E+03  0.46999998093E+01 0.  1.
       -5    1    3    3    0  502 -0.65464188798E+03 -0.18782067689E+03  0.55613939479E+03  0.87928705473E+03  0.46999998093E+01 0. -1.
</event>
<event>
 5   0  0.2889469E-03  0.1338442E+04  0.7818609E-02  0.8999624E-01
       -2   -1    0    0    0  501  0.00000000000E+00  0.00000000000E+00  0.34746637531E+03  0.34746637532E+03  0.25500000920E-02 0.  1.
        2   -1    0    0  501    0  0.00000000000E+00  0.00000000000E+00 -0.12889202557E+04  0.12889202557E+04  0.25500000920E-02 0. -1.
    10030    2    1    2    0    0  0.00000000000E+00  0.00000000000E+00 -0.94145388040E+03  0.16363866310E+04  0.13384415554E+04 0.  0.
        5    1    3    3  502    0  0.10814549125E+03  0.97409496361E+02 -0.12693144980E+04  0.12776405762E+04  0.46999998093E+01 0. -1.
       -5    1    3    3    0  502 -0.10814549125E+03 -0.97409496361E+02  0.32786061759E+03  0.35874605478E+03  0.46999998093E+01 0.  1.
</event>
<event>
 5   0  0.1644571E-03  0.1342049E+04  0.7818609E-02  0.8996869E-01
        1   -1    0    0  501    0  0.00000000000E+00  0.00000000000E+00  0.21374297203E+04  0.21374297203E+04  0.50400001928E-02 0. -1.
       -1   -1    0    0    0  501  0.00000000000E+00  0.00000000000E+00 -0.21066131591E+03  0.21066131597E+03  0.50400001928E-02 0.  1.
    10030    2    1    2    0    0  0.00000000000E+00  0.00000000000E+00  0.19267684044E+04  0.23480910363E+04  0.13420488182E+04 0.  0.
        4    1    3    3  502    0  0.35031385909E+03 -0.39991565114E+03  0.16797078647E+04  0.17618378051E+04  0.12699999809E+01 0. -1.
       -4    1    3    3    0  502 -0.35031385909E+03  0.39991565114E+03  0.24706053973E+03  0.58625323119E+03  0.12699999809E+01 0.  1.
</event>
<event>
 5   0  0.1560957E-03  0.1083697E+04  0.7818609E-02  0.9221229E-01
       -1   -1    0    0    0  501  0.00000000000E+00  0.00000000000E+00  0.19534810736E+03  0.19534810742E+03  0.50400001928E-02 0. -1.
        1   -1    0    0  501    0  0.00000000000E+00  0.00000000000E+00 -0.15029566109E+04  0.15029566109E+04  0.50400001928E-02 0.  1.
    10030    2    1    2    0    0  0.00000000000E+00  0.00000000000E+00 -0.13076085036E+04  0.16983047184E+04  0.10836968754E+04 0.  0.
        5    1    3    3  502    0  0.37306012374E+03 -0.10884830490E+03 -0.62105999371E+02  0.39357471281E+03  0.46999998093E+01 0. -1.
       -5    1    3    3    0  502 -0.37306012374E+03  0.10884830490E+03 -0.12455025042E+04  0.13047300055E+04  0.46999998093E+01 0.  1.
</event>
<event>
 5   0  0.3006737E-03  0.1341755E+04  0.7818609E-02  0.8997093E-01
       -2   -1    0    0    0  501  0.00000000000E+00  0.00000000000E+00  0.76350840119E+03  0.76350840119E+03  0.25500000920E-02 0.  1.
        2   -1    0    0  501    0  0.00000000000E+00  0.00000000000E+00 -0.58948450124E+03  0.58948450125E+03  0.25500000920E-02 0. -1.
    10030    2    1    2    0    0  0.00000000000E+00  0.00000000000E+00  0.17402389995E+03  0.13529929024E+04  0.13417546260E+04 0.  0.
        1    1    3    3  502    0  0.39030579215E+03  0.73550059976E+02  0.63221431796E+03  0.74662116671E+03  0.50400001928E-02 0.  1.
       -1    1    3    3    0  502 -0.39030579215E+03 -0.73550059976E+02 -0.45819041802E+03  0.60637173574E+03  0.50400001928E-02 0. -1.
</event>
<event>
 5   0  0.2760807E-03  0.1387455E+04  0.7818609E-02  0.8962950E-01
        2   -1    0    0  501    0  0.00000000000E+00  0.00000000000E+00  0.65799684902E+03  0.65799684902E+03  0.25500000920E-02 0. -1.
       -2   -1    0    0    0  501  0.00000000000E+00  0.00000000000E+00 -0.73139827379E+03  0.73139827379E+03  0.25500000920E-02 0.  1.
    10030    2    1    2    0    0  0.00000000000E+00  0.00000000000E+00 -0.73401424772E+02  0.13893951228E+04  0.13874548779E+04 0.  0.
        4    1    3    3  502    0  0.52945198744E+03  0.43756371713E+02 -0.48344352641E+03  0.71829888152E+03  0.12699999809E+01 0.  1.
       -4    1    3    3    0  502 -0.52945198744E+03 -0.43756371713E+02  0.41004210164E+03  0.67109624130E+03  0.12699999809E+01 0. -1.
</event>
<event>
 5   0  0.2917809E-03  0.1413824E+04  0.7818609E-02  0.8943872E-01
       -2   -1    0    0    0  501  0.00000000000E+00  0.00000000000E+00  0.60221766246E+03  0.60221766246E+03  0.25500000920E-02 0. -1.
        2   -1    0    0  501    0  0.00000000000E+00  0.00000000000E+00 -0.82980722245E+03  0.82980722246E+03  0.25500000920E-02 0.  1.
    10030    2    1    2    0    0  0.00000000000E+00  0.00000000000E+00 -0.22758956000E+03  0.14320248849E+04  0.14138239859E+04 0.  0.
        2    1    3    3  502    0 -0.14669067846E+03 -0.46192171310E+03  0.40745117500E+03  0.63317160722E+03  0.25500000920E-02 0. -1.
       -2    1    3    3    0  502  0.14669067846E+03  0.46192171310E+03 -0.63504073499E+03  0.79885327770E+03  0.25500000920E-02 0.  1.
</event>
<event>
 5   0  0.2917809E-03  0.1306987E+04  0.7818609E-02  0.9024042E-01
        2   -1    0    0  501    0  0.00000000000E+00  0.00000000000E+00  0.47384538856E+03  0.47384538857E+03  0.25500000920E-02 0. -1.
       -2   -1    0    0    0  501  0.00000000000E+00  0.00000000000E+00 -0.90125170964E+03  0.90125170964E+03  0.25500000920E-02 0.  1.
    10030    2    1    2    0    0  0.00000000000E+00  0.00000000000E+00 -0.42740632108E+03  0.13750970982E+04  0.13069873244E+04 0.  0.
        2    1    3    3  502    0  0.52627642695E+03  0.24409931855E+03 -0.53021688469E+03  0.78592703204E+03  0.25500000920E-02 0.  1.
       -2    1    3    3    0  502 -0.52627642695E+03 -0.24409931855E+03  0.10281056361E+03  0.58917006617E+03  0.25500000920E-02 0. -1.
</event>
<event>
 5   0  0.1104538E-03  0.1385187E+04  0.7818609E-02  0.8964611E-01
       -4   -1    0    0    0  501  0.00000000000E+00  0.00000000000E+00  0.60235709519E+03  0.60235843402E+03  0.12699999809E+01 0. -1.
        4   -1    0    0  501    0  0.00000000000E+00  0.00000000000E+00 -0.79634534063E+03  0.79634635332E+03  0.12699999809E+01 0.  1.
    10030    2    1    2    0    0  0.00000000000E+00  0.00000000000E+00 -0.19398824544E+03  0.13987047873E+04  0.13851872230E+04 0.  0.
        3    1    3    3  502    0  0.12215202503E+02 -0.44440699332E+03  0.43926198907E+03  0.62497831332E+03  0.10100000352E+00 0. -1.
       -3    1    3    3    0  502 -0.12215202503E+02  0.44440699332E+03 -0.63325023451E+03  0.77372647401E+03  0.10100000352E+00 0.  1.
</event>
<event>
 5   0  0.1631380E-03  0.1397752E+04  0.7818609E-02  0.8955447E-01
        1   -1    0    0  501    0  0.00000000000E+00  0.00000000000E+00  0.37829998047E+03  0.37829998051E+03  0.50400001928E-02 0. -1.
       -1   -1    0    0    0  501  0.00000000000E+00  0.00000000000E+00 -0.12911121567E+04  0.12911121567E+04  0.50400001928E-02 0.  1.
    10030    2    1    2    0    0  0.00000000000E+00  0.00000000000E+00 -0.91281217620E+03  0.16694121372E+04  0.13977520577E+04 0.  0.
        3    1    3    3  502    0 -0.62185288329E+03  0.31796236744E+03 -0.42650859070E+03  0.81835851783E+03  0.10100000352E+00 0. -1.
       -3    1    3    3    0  502  0.62185288329E+03 -0.31796236744E+03 -0.48630358550E+03  0.85105361936E+03  0.10100000352E+00 0.  1.
</event>
<event>
 5   0  0.2889469E-03  0.1436106E+04  0.7818609E-02  0.8928090E-01
        2   -1    0    0  501    0  0.00000000000E+00  0.00000000000E+00  0.50258520779E+03  0.50258520780E+03  0.25500000920E-02 0. -1.
       -2   -1    0    0    0  501  0.00000000000E+00  0.00000000000E+00 -0.10258952482E+04  0.10258952482E+04  0.25500000920E-02 0.  1.
    10030    2    1    2    0    0  0.00000000000E+00  0.00000000000E+00 -0.52331004042E+03  0.15284804560E+04  0.14361055344E+04 0.  0.
        5    1    3    3  502    0 -0.65004756288E+02  0.67703231240E+03 -0.16677232646E+02  0.68036651186E+03  0.46999998093E+01 0. -1.
       -5    1    3    3    0  502  0.65004756288E+02 -0.67703231240E+03 -0.50663280777E+03  0.84811394416E+03  0.46999998093E+01 0.  1.
</event>
<event>
 5   0  0.3006737E-03  0.1431674E+04  0.7818609E-02  0.8931205E-01
        2   -1    0    0  501    0  0.00000000000E+00  0.00000000000E+00  0.13864476844E+04  0.13864476844E+04  0.25500000920E-02 0.  1.
       -2   -1    0    0    0  501  0.00000000000E+00  0.00000000000E+00 -0.36959369373E+03  0.36959369374E+03  0.25500000920E-02 0. -1.
    10030    2    1    2    0    0  0.00000000000E+00  0.00000000000E+00  0.10168539906E+04  0.17560413781E+04  0.14316735952E+04 0.  0.
        1    1    3    3  502    0 -0.46615880085E+03 -0.20057927927E+03 -0.11082003181E+03  0.51943926917E+03  0.50400001928E-02 0. -1.
       -1    1    3    3    0  502  0.46615880085E+03  0.20057927927E+03  0.11276740224E+04  0.12366021089E+04  0.50400001928E-02 0.  1.
</event>
<event>
 5   0  0.1644571E-03  0.1394713E+04  0.7818609E-02  0.8957655E-01
       -1   -1    0    0    0  501  0.00000000000E+00  0.00000000000E+00  0.90271109039E+03  0.90271109040E+03  0.50400001928E-02 0.  1.
        1   -1    0    0  501    0  0.00000000000E+00  0.00000000000E+00 -0.53871704083E+03  0.53871704085E+03  0.50400001928E-02 0. -1.
    10030    2    1    2    0    0  0.00000000000E+00  0.00000000000E+00  0.36399404956E+03  0.14414281313E+04  0.13947126548E+04 0.  0.
        4    1    3    3  502    0 -0.84746249290E+01 -0.15372535996E+03  0.88492609192E+03  0.89821996561E+03  0.12699999809E+01 0.  1.
       -4    1    3    3    0  502  0.84746249290E+01  0.15372535996E+03 -0.52093204236E+03  0.54320816564E+03  0.12699999809E+01 0. -1.
</event>
<event>
 5   0  0.1631380E-03  0.1396177E+04  0.7818609E-02  0.8956591E-01
       -1   -1    0    0    0  501  0.00000000000E+00  0.00000000000E+00  0.40125940875E+03  0.40125940878E+03  0.50400001928E-02 0. -1.
        1   -1    0    0  501    0  0.00000000000E+00  0.00000000000E+00 -0.12144945085E+04  0.12144945085E+04  0.50400001928E-02 0.  1.
    10030    2    1    2    0    0  0.00000000000E+00  0.00000000000E+00 -0.81323509976E+03  0.16157539173E+04  0.13961767058E+04 0.  0.
        3    1    3    3  502    0 -0.16649625290E+03 -0.66244981371E+03 -0.23984778249E+03  0.72393903533E+03  0.10100000352E+00 0. -1.
       -3    1    3    3    0  502  0.16649625290E+03  0.66244981371E+03 -0.57338731727E+03  0.89181488198E+03  0.10100000352E+00 0.  1.
</event>
<event>
 5   0  0.2889469E-03  0.1380880E+04  0.7818609E-02  0.8967776E-01
        2   -1    0    0  501    0  0.00000000000E+00  0.00000000000E+00  0.79747847095E+03  0.79747847096E+03  0.25500000920E-02 0. -1.
       -2   -1    0    0    0  501  0.00000000000E+00  0.00000000000E+00 -0.59776873953E+03  0.59776873954E+03  0.25500000920E-02 0.  1.
    10030    2    1    2    0    0  0.00000000000E+00  0.00000000000E+00  0.19970973142E+03  0.13952472105E+04  0.13808804443E+04 0.  0.
        5    1    3    3  502    0  0.26766991084E+03  0.62984118996E+03  0.75894014736E+01  0.68441712044E+03  0.46999998093E+01 0.  1.
       -5    1    3    3    0  502 -0.26766991084E+03 -0.62984118996E+03  0.19212032995E+03  0.71083009005E+03  0.46999998093E+01 0. -1.
</event>
<event>
 5   0  0.2889469E-03  0.1412381E+04  0.7818609E-02  0.8944905E-01
       -2   -1    0    0    0  501  0.00000000000E+00  0.00000000000E+00  0.33061803457E+03  0.33061803458E+03  0.25500000920E-02 0. -1.
        2   -1    0    0  501    0  0.00000000000E+00  0.00000000000E+00 -0.15084016547E+04  0.15084016547E+04  0.25500000920E-02 0.  1.
    10030    2    1    2    0    0  0.00000000000E+00  0.00000000000E+00 -0.11777836201E+04  0.18390196893E+04  0.14123806717E+04 0.  0.
        5    1    3    3  502    0  0.66479931083E+03 -0.53208038121E+01 -0.27885601269E+03  0.72095020663E+03  0.46999998093E+01 0. -1.
       -5    1    3    3    0  502 -0.66479931083E+03  0.53208038121E+01 -0.89892760744E+03  0.11180694827E+04  0.46999998093E+01 0.  1.
</event>
<event>
 5   0  0.2917809E-03  0.1428186E+04  0.7818609E-02  0.8933665E-01
        2   -1    0    0  501    0  0.00000000000E+00  0.00000000000E+00  0.66788932762E+03  0.66788932763E+03  0.25500000920E-02 0. -1.
       -2   -1    0    0    0  501  0.00000000000E+00  0.00000000000E+00 -0.76349252763E+03  0.76349252763E+03  0.25500000920E-02 0.  1.
    10030    2    1    2    0    0  0.00000000000E+00  0.00000000000E+00 -0.95603200006E+02  0.14313818553E+04  0.14281855775E+04 0.  0.
        2    1    3    3  502    0  0.66498811587E+02  0.70600953188E+03  0.36392118043E+02  0.71006755827E+03  0.25500000920E-02 0.  1.
       -2    1    3    3    0  502 -0.66498811587E+02 -0.70600953188E+03 -0.13199531805E+03  0.72131429699E+03  0.25500000920E-02 0. -1.
</event>
<event>
 5   0  0.2760807E-03  0.1417371E+04  0.7818609E-02  0.8941339E-01
       -2   -1    0    0    0  501  0.00000000000E+00  0.00000000000E+00  0.32574089002E+03  0.32574089003E+03  0.25500000920E-02 0. -1.
        2   -1    0    0  501    0  0.00000000000E+00  0.00000000000E+00 -0.15418250465E+04  0.15418250465E+04  0.25500000920E-02 0.  1.
    10030    2    1    2    0    0  0.00000000000E+00  0.00000000000E+00 -0.12160841565E+04  0.18675659365E+04  0.14173714586E+04 0.  0.
        4    1    3    3  502    0  0.20350548779E+03 -0.46079376485E+03 -0.12648605897E+04  0.13614768825E+04  0.12699999809E+01 0.  1.
       -4    1    3    3    0  502 -0.20350548779E+03  0.46079376485E+03  0.48776433223E+02  0.50608905404E+03  0.12699999809E+01 0. -1.
</event>
<event>
 5   0  0.1586022E-03  0.1402083E+04  0.7818609E-02  0.8952312E-01
       -1   -1    0    0    0  501  0.00000000000E+00  0.00000000000E+00  0.40530720193E+03  0.40530720196E+03  0.50400001928E-02 0.  1.
        1   -1    0    0  501    0  0.00000000000E+00  0.00000000000E+00 -0.12125596056E+04  0.12125596056E+04  0.50400001928E-02 0. -1.
    10030    2    1    2    0    0  0.00000000000E+00  0.00000000000E+00 -0.80725240368E+03  0.16178668076E+04  0.14020829376E+04 0.  0.
        1    1    3    3  502    0  0.39663828035E+03 -0.84127190046E+01 -0.10705642380E+04  0.11417094582E+04  0.50400001928E-02 0. -1.
       -1    1    3    3    0  502 -0.39663828035E+03  0.84127190046E+01  0.26331183428E+03  0.47615734939E+03  0.50400001928E-02 0.  1.
</event>
<event>
 5   0  0.1586022E-03  0.1410773E+04  0.7818609E-02  0.8946057E-01
       -1   -1    0    0    0  501  0.00000000000E+00  0.00000000000E+00  0.26210247524E+03  0.26210247529E+03  0.50400001928E-02 0. -1.
        1   -1    0    0  501    0  0.00000000000E+00  0.00000000000E+00 -0.18983799749E+04  0.18983799749E+04  0.50400001928E-02 0.  1.
    10030    2    1    2    0    0  0.00000000000E+00  0.00000000000E+00 -0.16362774996E+04  0.21604824502E+04  0.14107729660E+04 0.  0.
        1    1    3    3  502    0 -0.60869699113E+03  0.52438664684E+02 -0.13580763724E+04  0.14891720095E+04  0.50400001928E-02 0.  1.
       -1    1    3    3    0  502  0.60869699113E+03 -0.52438664684E+02 -0.27820112727E+03  0.67131044070E+03  0.50400001928E-02 0. -1.
</event>
<event>
 5   0  0.1631380E-03  0.1342918E+04  0.7818609E-02  0.8996207E-01
        1   -1    0    0  501    0  0.00000000000E+00  0.00000000000E+00  0.65600657127E+03  0.65600657129E+03  0.50400001928E-02 0. -1.
       -1   -1    0    0    0  501  0.00000000000E+00  0.00000000000E+00 -0.68727519271E+03  0.68727519273E+03  0.50400001928E-02 0.  1.
    10030    2    1    2    0    0  0.00000000000E+00  0.00000000000E+00 -0.31268621444E+02  0.13432817640E+04  0.13429177826E+04 0.  0.
        3    1    3    3  502    0 -0.38377985414E+03  0.60093330893E+02  0.53219912201E+03  0.65888853423E+03  0.10100000352E+00 0. -1.
       -3    1    3    3    0  502  0.38377985414E+03 -0.60093330893E+02 -0.56346774346E+03  0.68439322979E+03  0.10100000352E+00 0.  1.
</event>
<event>
 5   0  0.3006737E-03  0.1420887E+04  0.7818609E-02  0.8938837E-01
        2   -1    0    0  501    0  0.00000000000E+00  0.00000000000E+00  0.17829285532E+04  0.17829285533E+04  0.25500000920E-02 0. -1.
       -2   -1    0    0    0  501  0.00000000000E+00  0.00000000000E+00 -0.28309045549E+03  0.28309045551E+03  0.25500000920E-02 0.  1.
    10030    2    1    2    0    0  0.00000000000E+00  0.00000000000E+00  0.14998380978E+04  0.20660190088E+04  0.14208871261E+04 0.  0.
        1    1    3    3  502    0 -0.45921390258E+03  0.33580894366E+03  0.13686701344E+04  0.14821953285E+04  0.50400001928E-02 0. -1.
       -1    1    3    3    0  502  0.45921390258E+03 -0.33580894366E+03  0.13116796331E+03  0.58382368022E+03  0.50400001928E-02 0.  1.
</event>
<event>
 5   0  0.1104538E-03  0.1430743E+04  0.7818609E-02  0.8931861E-01
       -3   -1    0    0    0  501  0.00000000000E+00  0.00000000000E+00  0.51399012886E+03  0.51399013878E+03  0.10100000352E+00 0.  1.
        3   -1    0    0  501    0  0.00000000000E+00  0.00000000000E+00 -0.99565447190E+03  0.99565447702E+03  0.10100000352E+00 0. -1.
    10030    2    1    2    0    0  0.00000000000E+00  0.00000000000E+00 -0.48166434304E+03  0.15096446158E+04  0.14307432777E+04 0.  0.
        1    1    3    3  502    0  0.35714769505E+03  0.18352058016E+03  0.38386686494E+03  0.55550702016E+03  0.50400001928E-02 0.  1.
       -1    1    3    3    0  502 -0.35714769505E+03 -0.18352058016E+03 -0.86553120797E+03  0.95413759565E+03  0.50400001928E-02 0. -1.
</event>
<event>
 5   0  0.2760807E-03  0.1402245E+04  0.7818609E-02  0.8952195E-01
       -2   -1    0    0    0  501  0.00000000000E+00  0.00000000000E+00  0.35016618699E+03  0.35016618700E+03  0.25500000920E-02 0. -1.
        2   -1    0    0  501    0  0.00000000000E+00  0.00000000000E+00 -0.14038261935E+04  0.14038261935E+04  0.25500000920E-02 0.  1.
    10030    2    1    2    0    0  0.00000000000E+00  0.00000000000E+00 -0.10536600065E+04  0.17539923805E+04  0.14022445798E+04 0.  0.
        4    1    3    3  502    0 -0.38139273373E+03 -0.70929148845E+02 -0.12573493727E+04  0.13158344954E+04  0.12699999809E+01 0.  1.
       -4    1    3    3    0  502  0.38139273373E+03  0.70929148845E+02  0.20368936613E+03  0.43815788510E+03  0.12699999809E+01 0. -1.
</event>
<event>
 5   0  0.1644571E-03  0.1421092E+04  0.7818609E-02  0.8938691E-01
        1   -1    0    0  501    0  0.00000000000E+00  0.00000000000E+00  0.14134331844E+04  0.14134331845E+04  0.50400001928E-02 0.  1.
       -1   -1    0    0    0  501  0.00000000000E+00  0.00000000000E+00 -0.35719805096E+03  0.35719805100E+03  0.50400001928E-02 0. -1.
    10030    2    1    2    0    0  0.00000000000E+00  0.00000000000E+00  0.10562351335E+04  0.17706312354E+04  0.14210919445E+04 0.  0.
        4    1    3    3  502    0 -0.27352476247E+03 -0.39000780436E+03 -0.12876980041E+03  0.49346241756E+03  0.12699999809E+01 0. -1.
       -4    1    3    3    0  502  0.27352476247E+03  0.39000780436E+03  0.11850049339E+04  0.12771688179E+04  0.12699999809E+01 0.  1.
</event>
<event>
 5   0  0.1560957E-03  0.1327806E+04  0.7818609E-02  0.9007801E-01
       -1   -1    0    0    0  501  0.00000000000E+00  0.00000000000E+00  0.39092871735E+03  0.39092871738E+03  0.50400001928E-02 0.  1.
        1   -1    0    0  501    0  0.00000000000E+00  0.00000000000E+00 -0.11274875758E+04  0.11274875758E+04  0.50400001928E-02 0. -1.
    10030    2    1    2    0    0  0.00000000000E+00  0.00000000000E+00 -0.73655885847E+03  0.15184162932E+04  0.13278061182E+04 0.  0.
        5    1    3    3  502    0  0.57799488409E+03 -0.18515182477E+03 -0.60610831622E+02  0.60996315229E+03  0.46999998093E+01 0. -1.
       -5    1    3    3    0  502 -0.57799488409E+03  0.18515182477E+03 -0.67594802684E+03  0.90845314092E+03  0.46999998093E+01 0.  1.
</event>
<event>
 5   0  0.3006737E-03  0.1446697E+04  0.7818609E-02  0.8920693E-01
        2   -1    0    0  501    0  0.00000000000E+00  0.00000000000E+00  0.16734562408E+04  0.16734562408E+04  0.25500000920E-02 0.  1.
       -2   -1    0    0    0  501  0.00000000000E+00  0.00000000000E+00 -0.31266621761E+03  0.31266621762E+03  0.25500000920E-02 0. -1.
    10030    2    1    2    0    0  0.00000000000E+00  0.00000000000E+00  0.13607900232E+04  0.19861224585E+04  0.14466972498E+04 0.  0.
        1    1    3    3  502    0  0.37250477180E+03 -0.13363442686E+03 -0.15085878190E+03  0.42352843725E+03  0.50400001928E-02 0. -1.
       -1    1    3    3    0  502 -0.37250477180E+03  0.13363442686E+03  0.15116488051E+04  0.15625940212E+04  0.50400001928E-02 0.  1.
</event>
<event>
 5   0  0.1631380E-03  0.1334428E+04  0.7818609E-02  0.9002700E-01
       -1   -1    0    0    0  501  0.00000000000E+00  0.00000000000E+00  0.45246150764E+03  0.45246150767E+03  0.50400001928E-02 0.  1.
        1   -1    0    0  501    0  0.00000000000E+00  0.00000000000E+00 -0.98389540513E+03  0.98389540514E+03  0.50400001928E-02 0. -1.
    10030    2    1    2    0    0  0.00000000000E+00  0.00000000000E+00 -0.53143389749E+03  0.14363569128E+04  0.13344284146E+04 0.  0.
        3    1    3    3  502    0 -0.15092683223E+03 -0.37991554683E+03  0.30187521569E+03  0.50817653179E+03  0.10100000352E+00 0.  1.
       -3    1    3    3    0  502  0.15092683223E+03  0.37991554683E+03 -0.83330911318E+03  0.92818038102E+03  0.10100000352E+00 0. -1.
</event>
<event>
 5   0  0.2917809E-03  0.1383871E+04  0.7818609E-02  0.8965577E-01
       -2   -1    0    0    0  501  0.00000000000E+00  0.00000000000E+00  0.34605168859E+03  0.34605168860E+03  0.25500000920E-02 0. -1.
        2   -1    0    0  501    0  0.00000000000E+00  0.00000000000E+00 -0.13835361539E+04  0.13835361539E+04  0.25500000920E-02 0.  1.
    10030    2    1    2    0    0  0.00000000000E+00  0.00000000000E+00 -0.10374844653E+04  0.17295878425E+04  0.13838714135E+04 0.  0.
        2    1    3    3  502    0 -0.56006886201E+03  0.13744472112E+03 -0.40849163419E+02  0.57813219571E+03  0.25500000920E-02 0. -1.
       -2    1    3    3    0  502  0.56006886201E+03 -0.13744472112E+03 -0.99663530184E+03  0.11514556468E+04  0.25500000920E-02 0.  1.
</event>
<event>
 5   0  0.2917809E-03  0.1476503E+04  0.7818609E-02  0.8900230E-01
        2   -1    0    0  501    0  0.00000000000E+00  0.00000000000E+00  0.96738837397E+03  0.96738837398E+03  0.25500000920E-02 0.  1.
       -2   -1    0    0    0  501  0.00000000000E+00  0.00000000000E+00 -0.56338865537E+03  0.56338865537E+03  0.25500000920E-02 0. -1.
    10030    2    1    2    0    0  0.00000000000E+00  0.00000000000E+00  0.40399971861E+03  0.15307770293E+04  0.14765034849E+04 0.  0.
        2    1    3    3  502    0 -0.20082010238E+03 -0.29875149530E+03 -0.46623437677E+03  0.58902942503E+03  0.25500000920E-02 0. -1.
       -2    1    3    3    0  502  0.20082010238E+03  0.29875149530E+03  0.87023409538E+03  0.94174760431E+03  0.25500000920E-02 0.  1.
</event>
<event>
 5   0  0.2760807E-03  0.1394637E+04  0.7818609E-02  0.8957710E-01
       -2   -1    0    0    0  501  0.00000000000E+00  0.00000000000E+00  0.53140421875E+03  0.53140421875E+03  0.25500000920E-02 0.  1.
        2   -1    0    0  501    0  0.00000000000E+00  0.00000000000E+00 -0.91503371432E+03  0.91503371432E+03  0.25500000920E-02 0. -1.
    10030    2    1    2    0    0  0.00000000000E+00  0.00000000000E+00 -0.38362949557E+03  0.14464379331E+04  0.13946365492E+04 0.  0.
        4    1    3    3  502    0  0.29932080224E+03 -0.46595078847E+03 -0.63128465981E+03  0.83977676471E+03  0.12699999809E+01 0. -1.
       -4    1    3    3    0  502 -0.29932080224E+03  0.46595078847E+03  0.24765516423E+03  0.60666116837E+03  0.12699999809E+01 0.  1.
</event>
<event>
 5   0  0.2993993E-03  0.1371300E+04  0.7818609E-02  0.8974859E-01
        2   -1    0    0  501    0  0.00000000000E+00  0.00000000000E+00  0.36093317837E+03  0.36093317838E+03  0.25500000920E-02 0.  1.
       -2   -1    0    0    0  501  0.00000000000E+00  0.00000000000E+00 -0.13025006974E+04  0.13025006974E+04  0.25500000920E-02 0. -1.
    10030    2    1    2    0    0  0.00000000000E+00  0.00000000000E+00 -0.94156751898E+03  0.16634338757E+04  0.13712996996E+04 0.  0.
        3    1    3    3  502    0  0.60527744627E+03  0.32189822656E+03 -0.48495349356E+03  0.83973755206E+03  0.10100000352E+00 0. -1.
       -3    1    3    3    0  502 -0.60527744627E+03 -0.32189822656E+03 -0.45661402542E+03  0.82369632368E+03  0.10100000352E+00 0.  1.
</event>
<event>
 5   0  0.3006737E-03  0.1398148E+04  0.7818609E-02  0.8955160E-01
        2   -1    0    0  501    0  0.00000000000E+00  0.00000000000E+00  0.16730677964E+04  0.16730677964E+04  0.25500000920E-02 0. -1.
       -2   -1    0    0    0  501  0.00000000000E+00  0.00000000000E+00 -0.29210079328E+03  0.29210079330E+03  0.25500000920E-02 0.  1.
    10030    2    1    2    0    0  0.00000000000E+00  0.00000000000E+00  0.13809670031E+04  0.19651685897E+04  0.13981479615E+04 0.  0.
        1    1    3    3  502    0  0.56011987995E+02 -0.23026543223E+03  0.16148885045E+04  0.16321839339E+04  0.50400001928E-02 0. -1.
       -1    1    3    3    0  502 -0.56011987995E+02  0.23026543223E+03 -0.23392150146E+03  0.33298465573E+03  0.50400001928E-02 0.  1.
</event>
<event>
 5   0  0.2889469E-03  0.1009267E+04  0.7818609E-02  0.9298439E-01
        2   -1    0    0  501    0  0.00000000000E+00  0.00000000000E+00  0.72300317065E+03  0.72300317065E+03  0.25500000920E-02 0.  1.
       -2   -1    0    0    0  501  0.00000000000E+00  0.00000000000E+00 -0.35221837653E+03  0.35221837654E+03  0.25500000920E-02 0. -1.
    10030    2    1    2    0    0  0.00000000000E+00  0.00000000000E+00  0.37078479412E+03  0.10752215472E+04  0.10092670667E+04 0.  0.
        5    1    3    3  502    0  0.39638154629E+03  0.26066929361E+03  0.36857696871E+03  0.60078106056E+03  0.46999998093E+01 0.  1.
       -5    1    3    3    0  502 -0.39638154629E+03 -0.26066929361E+03  0.22078254054E+01  0.47444048663E+03  0.46999998093E+01 0. -1.
</event>
<event>
 5   0  0.1644571E-03  0.1414650E+04  0.7818609E-02  0.8943282E-01
        1   -1    0    0  501    0  0.00000000000E+00  0.00000000000E+00  0.99030227797E+03  0.99030227799E+03  0.50400001928E-02 0.  1.
       -1   -1    0    0    0  501  0.00000000000E+00  0.00000000000E+00 -0.50520783761E+03  0.50520783764E+03  0.50400001928E-02 0. -1.
    10030    2    1    2    0    0  0.00000000000E+00  0.00000000000E+00  0.48509444036E+03  0.14955101156E+04  0.14146497411E+04 0.  0.
        4    1    3    3  502    0  0.68322196248E+02 -0.93676702343E+02  0.98018659168E+03  0.98702108107E+03  0.12699999809E+01 0.  1.
       -4    1    3    3    0  502 -0.68322196248E+02  0.93676702343E+02 -0.49509215132E+03  0.50848903455E+03  0.12699999809E+01 0. -1.
</event>
<event>
 5   0  0.1560957E-03  0.1475024E+04  0.7818609E-02  0.8901233E-01
        1   -1    0    0  501    0  0.00000000000E+00  0.00000000000E+00  0.59071422954E+03  0.59071422956E+03  0.50400001928E-02 0.  1.
       -1   -1    0    0    0  501  0.00000000000E+00  0.00000000000E+00 -0.92079083149E+03  0.92079083150E+03  0.50400001928E-02 0. -1.
    10030    2    1    2    0    0  0.00000000000E+00  0.00000000000E+00 -0.33007660195E+03  0.15115050611E+04  0.14750244020E+04 0.  0.
        5    1    3    3  502    0 -0.60287334837E+03 -0.26181451518E+03 -0.50782470251E+03  0.83060889293E+03  0.46999998093E+01 0. -1.
       -5    1    3    3    0  502  0.60287334837E+03  0.26181451518E+03  0.17774810056E+03  0.68089616813E+03  0.46999998093E+01 0.  1.
</event>
<event>
 5   0  0.2760807E-03  0.1419165E+04  0.7818609E-02  0.8940062E-01
       -2   -1    0    0    0  501  0.00000000000E+00  0.00000000000E+00  0.59509163343E+03  0.59509163344E+03  0.25500000920E-02 0. -1.
        2   -1    0    0  501    0  0.00000000000E+00  0.00000000000E+00 -0.84609995923E+03  0.84609995923E+03  0.25500000920E-02 0.  1.
    10030    2    1    2    0    0  0.00000000000E+00  0.00000000000E+00 -0.25100832580E+03  0.14411915927E+04  0.14191645525E+04 0.  0.
        4    1    3    3  502    0 -0.29933632512E+03  0.28604970376E+03  0.45970280928E+03  0.61867192786E+03  0.12699999809E+01 0. -1.
       -4    1    3    3    0  502  0.29933632512E+03 -0.28604970376E+03 -0.71071113508E+03  0.82251966480E+03  0.12699999809E+01 0.  1.
</event>
<event>
 5   0  0.2917809E-03  0.1414153E+04  0.7818609E-02  0.8943637E-01
        2   -1    0    0  501    0  0.00000000000E+00  0.00000000000E+00  0.18932413584E+04  0.18932413584E+04  0.25500000920E-02 0. -1.
       -2   -1    0    0    0  501  0.00000000000E+00  0.00000000000E+00 -0.26407470203E+03  0.26407470204E+03  0.25500000920E-02 0.  1.
    10030    2    1    2    0    0  0.00000000000E+00  0.00000000000E+00  0.16291666563E+04  0.21573160604E+04  0.14141529586E+04 0.  0.
        2    1    3    3  502    0  0.17420510864E+03  0.48624422604E+03  0.15512305838E+04  0.16349609143E+04  0.25500000920E-02 0. -1.
       -2    1    3    3    0  502 -0.17420510864E+03 -0.48624422604E+03  0.77936072540E+02  0.52235514609E+03  0.25500000920E-02 0.  1.
</event>
<event>
 5   0  0.1560957E-03  0.1400898E+04  0.7818609E-02  0.8953168E-01
       -1   -1    0    0    0  501  0.00000000000E+00  0.00000000000E+00  0.73700295188E+03  0.73700295190E+03  0.50400001928E-02 0.  1.
        1   -1    0    0  501    0  0.00000000000E+00  0.00000000000E+00 -0.66570851488E+03  0.66570851490E+03  0.50400001928E-02 0. -1.
    10030    2    1    2    0    0  0.00000000000E+00  0.00000000000E+00  0.71294436997E+02  0.14027114668E+04  0.14008984840E+04 0.  0.
        5    1    3    3  502    0  0.11987344519E+03  0.39722729091E+03 -0.52939496018E+03  0.67263680940E+03  0.46999998093E+01 0. -1.
       -5    1    3    3    0  502 -0.11987344519E+03 -0.39722729091E+03  0.60068939717E+03  0.73007465740E+03  0.46999998093E+01 0.  1.
</event>
<event>
 5   0  0.1700207E-03  0.1399233E+04  0.7818609E-02  0.8954374E-01
       -1   -1    0    0    0  501  0.00000000000E+00  0.00000000000E+00  0.10810527116E+04  0.10810527117E+04  0.50400001928E-02 0.  1.
        1   -1    0    0  501    0  0.00000000000E+00  0.00000000000E+00 -0.45276514335E+03  0.45276514338E+03  0.50400001928E-02 0. -1.
    10030    2    1    2    0    0  0.00000000000E+00  0.00000000000E+00  0.62828756829E+03  0.15338178550E+04  0.13992326268E+04 0.  0.
        2    1    3    3  502    0 -0.15277375687E+03 -0.23564418362E+02  0.10620986166E+04  0.10732886722E+04  0.25500000920E-02 0.  1.
       -2    1    3    3    0  502  0.15277375687E+03  0.23564418362E+02 -0.43381104828E+03  0.46052918281E+03  0.25500000920E-02 0. -1.
</event>
<event>
 5   0  0.2889469E-03  0.1187033E+04  0.7818609E-02  0.9124283E-01
        2   -1    0    0  501    0  0.00000000000E+00  0.00000000000E+00  0.17582065310E+04  0.17582065310E+04  0.25500000920E-02 0. -1.
       -2   -1    0    0    0  501  0.00000000000E+00  0.00000000000E+00 -0.20035280374E+03  0.20035280376E+03  0.25500000920E-02 0.  1.
    10030    2    1    2    0    0  0.00000000000E+00  0.00000000000E+00  0.15578537273E+04  0.19585593348E+04  0.11870326164E+04 0.  0.
        5    1    3    3  502    0  0.16115919209E+03 -0.56480389908E+03  0.91954964221E+03  0.10911321479E+04  0.46999998093E+01 0. -1.
       -5    1    3    3    0  502 -0.16115919209E+03  0.56480389908E+03  0.63830408508E+03  0.86742718694E+03  0.46999998093E+01 0.  1.
</event>
<event>
 5   0  0.1700207E-03  0.1322309E+04  0.7818609E-02  0.9012059E-01
       -1   -1    0    0    0  501  0.00000000000E+00  0.00000000000E+00  0.93086380368E+03  0.93086380369E+03  0.50400001928E-02 0. -1.
        1   -1    0    0  501    0  0.00000000000E+00  0.00000000000E+00 -0.46959068299E+03  0.46959068302E+03  0.50400001928E-02 0.  1.
    10030    2    1    2    0    0  0.00000000000E+00  0.00000000000E+00  0.46127312069E+03  0.14004544867E+04  0.13223085410E+04 0.  0.
        2    1    3    3  502    0  0.59935522846E+03 -0.40535596458E+02 -0.61826332565E+02  0.60389760710E+03  0.25500000920E-02 0.  1.
       -2    1    3    3    0  502 -0.59935522846E+03  0.40535596458E+02  0.52309945325E+03  0.79655687961E+03  0.25500000920E-02 0. -1.
</event>
<event>
 5   0  0.1631380E-03  0.1343139E+04  0.7818609E-02  0.8996038E-01
        1   -1    0    0  501    0  0.00000000000E+00  0.00000000000E+00  0.13663320724E+04  0.13663320724E+04  0.50400001928E-02 0. -1.
       -1   -1    0    0    0  501  0.00000000000E+00  0.00000000000E+00 -0.33008498508E+03  0.33008498512E+03  0.50400001928E-02 0.  1.
    10030    2    1    2    0    0  0.00000000000E+00  0.00000000000E+00  0.10362470873E+04  0.16964170575E+04  0.13431391615E+04 0.  0.
        3    1    3    3  502    0  0.26443928408E+03 -0.39903771849E+03  0.11130151842E+04  0.12115948358E+04  0.10100000352E+00 0. -1.
       -3    1    3    3    0  502 -0.26443928408E+03  0.39903771849E+03 -0.76768096890E+02  0.48482222169E+03  0.10100000352E+00 0.  1.
</event>
<event>
 5   0  0.1586022E-03  0.1373905E+04  0.7818609E-02  0.8972927E-01
       -1   -1    0    0    0  501  0.00000000000E+00  0.00000000000E+00  0.10820307917E+04  0.10820307917E+04  0.50400001928E-02 0.  1.
        1   -1    0    0  501    0  0.00000000000E+00  0.00000000000E+00 -0.43612798526E+03  0.43612798529E+03  0.50400001928E-02 0. -1.
    10030    2    1    2    0    0  0.00000000000E+00  0.00000000000E+00  0.64590280639E+03  0.15181587770E+04  0.13739052503E+04 0.  0.
        1    1    3    3  502    0 -0.15684265104E+03  0.44655830707E+03 -0.22720970904E+03  0.52501256243E+03  0.50400001928E-02 0. -1.
       -1    1    3    3    0  502  0.15684265104E+03 -0.44655830707E+03  0.87311251543E+03  0.99314621453E+03  0.50400001928E-02 0.  1.
</event>
<event>
 5   0  0.3006737E-03  0.1424326E+04  0.7818609E-02  0.8936396E-01
        2   -1    0    0  501    0  0.00000000000E+00  0.00000000000E+00  0.14318538577E+04  0.14318538577E+04  0.25500000920E-02 0.  1.
       -2   -1    0    0    0  501  0.00000000000E+00  0.00000000000E+00 -0.35420934773E+03  0.35420934774E+03  0.25500000920E-02 0. -1.
    10030    2    1    2    0    0  0.00000000000E+00  0.00000000000E+00  0.10776445099E+04  0.17860632054E+04  0.14243258349E+04 0.  0.
        1    1    3    3  502    0  0.19843579459E+03  0.15896568273E+02  0.13962546798E+04  0.14103746298E+04  0.50400001928E-02 0.  1.
       -1    1    3    3    0  502 -0.19843579459E+03 -0.15896568273E+02 -0.31861016988E+03  0.37568857560E+03  0.50400001928E-02 0. -1.
</event>
<event>
 5   0  0.1104538E-03  0.1382978E+04  0.7818609E-02  0.8966233E-01
       -3   -1    0    0    0  501  0.00000000000E+00  0.00000000000E+00  0.93242491575E+03  0.93242492122E+03  0.10100000352E+00 0.  1.
        3   -1    0    0  501    0  0.00000000000E+00  0.00000000000E+00 -0.51281021606E+03  0.51281022601E+03  0.10100000352E+00 0. -1.
    10030    2    1    2    0    0  0.00000000000E+00  0.00000000000E+00  0.41961469969E+03  0.14452351472E+04  0.13829779950E+04 0.  0.
        3    1    3    3  502    0  0.18194896279E+03  0.41753212783E+03  0.75353601432E+03  0.88048568296E+03  0.10100000352E+00 0.  1.
       -3    1    3    3    0  502 -0.18194896279E+03 -0.41753212783E+03 -0.33392131463E+03  0.56474946427E+03  0.10100000352E+00 0. -1.
</event>
<event>
 5   0  0.2993993E-03  0.1392403E+04  0.7818609E-02  0.8959336E-01
        2   -1    0    0  501    0  0.00000000000E+00  0.00000000000E+00  0.15270036539E+04  0.15270036539E+04  0.25500000920E-02 0.  1.
       -2   -1    0    0    0  501  0.00000000000E+00  0.00000000000E+00 -0.31741658090E+03  0.31741658091E+03  0.25500000920E-02 0. -1.
    10030    2    1    2    0    0  0.00000000000E+00  0.00000000000E+00  0.12095870730E+04  0.18444202348E+04  0.13924026413E+04 0.  0.
        3    1    3    3  502    0  0.29386732489E+03 -0.63113844764E+03  0.60689795998E+03  0.92359021690E+03  0.10100000352E+00 0.  1.
       -3    1    3    3    0  502 -0.29386732489E+03  0.63113844764E+03  0.60268911303E+03  0.92083001792E+03  0.10100000352E+00 0. -1.
</event>
<event>
 5   0  0.2889469E-03  0.1317407E+04  0.7818609E-02  0.9015874E-01
        2   -1    0    0  501    0  0.00000000000E+00  0.00000000000E+00  0.13229709596E+04  0.13229709596E+04  0.25500000920E-02 0. -1.
       -2   -1    0    0    0  501  0.00000000000E+00  0.00000000000E+00 -0.32796646194E+03  0.32796646195E+03  0.25500000920E-02 0.  1.
    10030    2    1    2    0    0  0.00000000000E+00  0.00000000000E+00  0.99500449768E+03  0.16509374216E+04  0.13174067024E+04 0.  0.
        5    1    3    3  502    0  0.25729068363E+03 -0.48556658708E+03  0.42383984300E+02  0.55117320190E+03  0.46999998093E+01 0.  1.
       -5    1    3    3    0  502 -0.25729068363E+03  0.48556658708E+03  0.95262051338E+03  0.10997642197E+04  0.46999998093E+01 0. -1.
</event>
<event>
 5   0  0.2760807E-03  0.7370358E+03  0.7818609E-02  0.9655912E-01
       -2   -1    0    0    0  501  0.00000000000E+00  0.00000000000E+00  0.12872191983E+03  0.12872191986E+03  0.25500000920E-02 0.  1.
        2   -1    0    0  501    0  0.00000000000E+00  0.00000000000E+00 -0.10550296260E+04  0.10550296260E+04  0.25500000920E-02 0. -1.
    10030    2    1    2    0    0  0.00000000000E+00  0.00000000000E+00 -0.92630770621E+03  0.11837515459E+04  0.73703579006E+03 0.  0.
        4    1    3    3  502    0  0.24358513642E+03  0.21370055733E+03 -0.18127486548E+03  0.37130019748E+03  0.12699999809E+01 0.  1.
       -4    1    3    3    0  502 -0.24358513642E+03 -0.21370055733E+03 -0.74503284073E+03  0.81245134842E+03  0.12699999809E+01 0. -1.
</event>
<event>
 5   0  0.3006737E-03  0.1413136E+04  0.7818609E-02  0.8944365E-01
       -2   -1    0    0    0  501  0.00000000000E+00  0.00000000000E+00  0.22747131375E+04  0.22747131375E+04  0.25500000920E-02 0. -1.
        2   -1    0    0  501    0  0.00000000000E+00  0.00000000000E+00 -0.21947294291E+03  0.21947294292E+03  0.25500000920E-02 0.  1.
    10030    2    1    2    0    0  0.00000000000E+00  0.00000000000E+00  0.20552401946E+04  0.24941860804E+04  0.14131355018E+04 0.  0.
        1    1    3    3  502    0  0.14408154578E+03 -0.58556001847E+03  0.16775576356E+04  0.17826496144E+04  0.50400001928E-02 0.  1.
       -1    1    3    3    0  502 -0.14408154578E+03  0.58556001847E+03  0.37768255904E+03  0.71153646603E+03  0.50400001928E-02 0. -1.
</event>
<event>
 5   0  0.1700207E-03  0.1277325E+04  0.7818609E-02  0.9047742E-01
        1   -1    0    0  501    0  0.00000000000E+00  0.00000000000E+00  0.40585613146E+03  0.40585613150E+03  0.50400001928E-02 0.  1.
       -1   -1    0    0    0  501  0.00000000000E+00  0.00000000000E+00 -0.10050107699E+04  0.10050107699E+04  0.50400001928E-02 0. -1.
    10030    2    1    2    0    0  0.00000000000E+00  0.00000000000E+00 -0.59915463842E+03  0.14108669014E+04  0.12773249910E+04 0.  0.
        2    1    3    3  502    0  0.28192924769E+03 -0.24727050391E+03  0.27144625673E+03  0.46293614366E+03  0.25500000920E-02 0.  1.
       -2    1    3    3    0  502 -0.28192924769E+03  0.24727050391E+03 -0.87060089515E+03  0.94793075773E+03  0.25500000920E-02 0. -1.
</event>
<event>
 5   0  0.1631380E-03  0.1211459E+04  0.7818609E-02  0.9102885E-01
        1   -1    0    0  501    0  0.00000000000E+00  0.00000000000E+00  0.92056496742E+03  0.92056496744E+03  0.50400001928E-02 0.  1.
       -1   -1    0    0    0  501  0.00000000000E+00  0.00000000000E+00 -0.39856838136E+03  0.39856838139E+03  0.50400001928E-02 0. -1.
    10030    2    1    2    0    0  0.00000000000E+00  0.00000000000E+00  0.52199658606E+03  0.13191333488E+04  0.12114587719E+04 0.  0.
        3    1    3    3  502    0  0.38941334884E+03  0.26866029190E+03  0.67288720857E+03  0.82255596427E+03  0.10100000352E+00 0.  1.
       -3    1    3    3    0  502 -0.38941334884E+03 -0.26866029190E+03 -0.15089062250E+03  0.49657738456E+03  0.10100000352E+00 0. -1.
</event>
<event>
 5   0  0.2993993E-03  0.1520103E+04  0.7818609E-02  0.8871193E-01
        2   -1    0    0  501    0  0.00000000000E+00  0.00000000000E+00  0.97903833650E+03  0.97903833650E+03  0.25500000920E-02 0.  1.
       -2   -1    0    0    0  501  0.00000000000E+00  0.00000000000E+00 -0.59004687060E+03  0.59004687061E+03  0.25500000920E-02 0. -1.
    10030    2    1    2    0    0  0.00000000000E+00  0.00000000000E+00  0.38899146589E+03  0.15690852071E+04  0.15201032947E+04 0.  0.
        3    1    3    3  502    0 -0.24478494921E+03  0.51142150155E+03 -0.32798323820E+03  0.65501499093E+03  0.10100000352E+00 0. -1.
       -3    1    3    3    0  502  0.24478494921E+03 -0.51142150155E+03  0.71697470409E+03  0.91407021618E+03  0.10100000352E+00 0.  1.
</event>
<event>
 5   0  0.2993993E-03  0.1450820E+04  0.7818609E-02  0.8917832E-01
        2   -1    0    0  501    0  0.00000000000E+00  0.00000000000E+00  0.63774380076E+03  0.63774380077E+03  0.25500000920E-02 0. -1.
       -2   -1    0    0    0  501  0.00000000000E+00  0.00000000000E+00 -0.82512706637E+03  0.82512706637E+03  0.25500000920E-02 0.  1.
    10030    2    1    2    0    0  0.00000000000E+00  0.00000000000E+00 -0.18738326561E+03  0.14628708671E+04  0.14508200046E+04 0.  0.
        3    1    3    3  502    0  0.56886067264E+02  0.68615964141E+03 -0.32399324409E+03  0.76093541813E+03  0.10100000352E+00 0.  1.
       -3    1    3    3    0  502 -0.56886067264E+02 -0.68615964141E+03  0.13660997848E+03  0.70193544901E+03  0.10100000352E+00 0. -1.
</event>
<event>
 5   0  0.1700207E-03  0.1459453E+04  0.7818609E-02  0.8911873E-01
        1   -1    0    0  501    0  0.00000000000E+00  0.00000000000E+00  0.12713413474E+04  0.12713413474E+04  0.50400001928E-02 0. -1.
       -1   -1    0    0    0  501  0.00000000000E+00  0.00000000000E+00 -0.41884928036E+03  0.41884928039E+03  0.50400001928E-02 0.  1.
    10030    2    1    2    0    0  0.00000000000E+00  0.00000000000E+00  0.85249206701E+03  0.16901906278E+04  0.14594525117E+04 0.  0.
        2    1    3    3  502    0 -0.63600862711E+02 -0.76346590953E+02 -0.41097754294E+03  0.42281959805E+03  0.25500000920E-02 0.  1.
       -2    1    3    3    0  502  0.63600862711E+02  0.76346590953E+02  0.12634696100E+04  0.12673710297E+04  0.25500000920E-02 0. -1.
</event>
<event>
 5   0  0.1586022E-03  0.1374748E+04  0.7818609E-02  0.8972303E-01
        1   -1    0    0  501    0  0.00000000000E+00  0.00000000000E+00  0.18924728633E+04  0.18924728633E+04  0.50400001928E-02 0. -1.
       -1   -1    0    0    0  501  0.00000000000E+00  0.00000000000E+00 -0.24966444789E+03  0.24966444794E+03  0.50400001928E-02 0.  1.
    10030    2    1    2    0    0  0.00000000000E+00  0.00000000000E+00  0.16428084154E+04  0.21421373113E+04  0.13747482571E+04 0.  0.
        1    1    3    3  502    0  0.68180112029E+03 -0.55293272891E+02  0.92677699731E+03  0.11518792109E+04  0.50400001928E-02 0. -1.
       -1    1    3    3    0  502 -0.68180112029E+03  0.55293272891E+02  0.71603141812E+03  0.99025810040E+03  0.50400001928E-02 0.  1.
</event>
<event>
 5   0  0.2889469E-03  0.1395331E+04  0.7818609E-02  0.8957205E-01
        2   -1    0    0  501    0  0.00000000000E+00  0.00000000000E+00  0.51332582333E+03  0.51332582333E+03  0.25500000920E-02 0. -1.
       -2   -1    0    0    0  501  0.00000000000E+00  0.00000000000E+00 -0.94820379276E+03  0.94820379276E+03  0.25500000920E-02 0.  1.
    10030    2    1    2    0    0  0.00000000000E+00  0.00000000000E+00 -0.43487796943E+03  0.14615296161E+04  0.13953314912E+04 0.  0.
        5    1    3    3  502    0 -0.82802871153E+02  0.19283063751E+03 -0.91434294802E+03  0.93812850230E+03  0.46999998093E+01 0.  1.
       -5    1    3    3    0  502  0.82802871153E+02 -0.19283063751E+03  0.47946497859E+03  0.52340111380E+03  0.46999998093E+01 0. -1.
</event>
<event>
 5   0  0.1644571E-03  0.1363284E+04  0.7818609E-02  0.8980833E-01
        1   -1    0    0  501    0  0.00000000000E+00  0.00000000000E+00  0.61735695548E+03  0.61735695550E+03  0.50400001928E-02 0. -1.
       -1   -1    0    0    0  501  0.00000000000E+00  0.00000000000E+00 -0.75262129397E+03  0.75262129398E+03  0.50400001928E-02 0.  1.
    10030    2    1    2    0    0  0.00000000000E+00  0.00000000000E+00 -0.13526433849E+03  0.13699782495E+04  0.13632842560E+04 0.  0.
        4    1    3    3  502    0  0.58719497060E+03  0.17349745083E+03 -0.36866119790E+03  0.71471112393E+03  0.12699999809E+01 0.  1.
       -4    1    3    3    0  502 -0.58719497060E+03 -0.17349745083E+03  0.23339685941E+03  0.65526712555E+03  0.12699999809E+01 0. -1.
</event>
<event>
 5   0  0.1586022E-03  0.1415871E+04  0.7818609E-02  0.8942410E-01
        1   -1    0    0  501    0  0.00000000000E+00  0.00000000000E+00  0.11741609496E+04  0.11741609496E+04  0.50400001928E-02 0. -1.
       -1   -1    0    0    0  501  0.00000000000E+00  0.00000000000E+00 -0.42683476763E+03  0.42683476766E+03  0.50400001928E-02 0.  1.
    10030    2    1    2    0    0  0.00000000000E+00  0.00000000000E+00  0.74732618196E+03  0.16009957173E+04  0.14158710621E+04 0.  0.
        1    1    3    3  502    0  0.62314942694E+03 -0.22787725014E+03  0.94550034381E+02  0.67021112976E+03  0.50400001928E-02 0.  1.
       -1    1    3    3    0  502 -0.62314942694E+03  0.22787725014E+03  0.65277614758E+03  0.93078458749E+03  0.50400001928E-02 0. -1.
</event>
<event>
 5   0  0.2760807E-03  0.1399585E+04  0.7818609E-02  0.8954119E-01
       -2   -1    0    0    0  501  0.00000000000E+00  0.00000000000E+00  0.34623254271E+03  0.34623254272E+03  0.25500000920E-02 0. -1.
        2   -1    0    0  501    0  0.00000000000E+00  0.00000000000E+00 -0.14143957402E+04  0.14143957402E+04  0.25500000920E-02 0.  1.
    10030    2    1    2    0    0  0.00000000000E+00  0.00000000000E+00 -0.10681631975E+04  0.17606282830E+04  0.13995854151E+04 0.  0.
        4    1    3    3  502    0  0.63085269862E+03 -0.95942607213E+02 -0.17269735450E+03  0.66106436932E+03  0.12699999809E+01 0. -1.
       -4    1    3    3    0  502 -0.63085269862E+03  0.95942607213E+02 -0.89546584303E+03  0.10995639136E+04  0.12699999809E+01 0.  1.
</event>
<event>
 5   0  0.1586022E-03  0.1401950E+04  0.7818609E-02  0.8952408E-01
        1   -1    0    0  501    0  0.00000000000E+00  0.00000000000E+00  0.69113612377E+03  0.69113612379E+03  0.50400001928E-02 0. -1.
       -1   -1    0    0    0  501  0.00000000000E+00  0.00000000000E+00 -0.71095367913E+03  0.71095367915E+03  0.50400001928E-02 0.  1.
    10030    2    1    2    0    0  0.00000000000E+00  0.00000000000E+00 -0.19817555354E+02  0.14020898029E+04  0.14019497423E+04 0.  0.
        1    1    3    3  502    0  0.24535871108E+03 -0.53878324795E+03  0.36546521517E+03  0.69573925352E+03  0.50400001928E-02 0. -1.
       -1    1    3    3    0  502 -0.24535871108E+03  0.53878324795E+03 -0.38528277052E+03  0.70635054941E+03  0.50400001928E-02 0.  1.
</event>
<event>
 5   0  0.1586022E-03  0.1376572E+04  0.7818609E-02  0.8970954E-01
        1   -1    0    0  501    0  0.00000000000E+00  0.00000000000E+00  0.19407978974E+04  0.19407978974E+04  0.50400001928E-02 0.  1.
       -1   -1    0    0    0  501  0.00000000000E+00  0.00000000000E+00 -0.24409410403E+03  0.24409410409E+03  0.50400001928E-02 0. -1.
    10030    2    1    2    0    0  0.00000000000E+00  0.00000000000E+00  0.16967037934E+04  0.21848920015E+04  0.13765715731E+04 0.  0.
        1    1    3    3  502    0  0.30099571127E+03 -0.17093088487E+03 -0.95893061051E+02  0.35918138146E+03  0.50400001928E-02 0. -1.
       -1    1    3    3    0  502 -0.30099571127E+03  0.17093088487E+03  0.17925968545E+04  0.18257106201E+04  0.50400001928E-02 0.  1.
</event>
<event>
 5   0  0.1586022E-03  0.1378973E+04  0.7818609E-02  0.8969181E-01
        1   -1    0    0  501    0  0.00000000000E+00  0.00000000000E+00  0.86782466285E+03  0.86782466287E+03  0.50400001928E-02 0.  1.
       -1   -1    0    0    0  501  0.00000000000E+00  0.00000000000E+00 -0.54779715748E+03  0.54779715750E+03  0.50400001928E-02 0. -1.
    10030    2    1    2    0    0  0.00000000000E+00  0.00000000000E+00  0.32002750537E+03  0.14156218204E+04  0.13789733624E+04 0.  0.
        1    1    3    3  502    0 -0.17035747540E+03 -0.65557949241E+01  0.84584625944E+03  0.86285603812E+03  0.50400001928E-02 0.  1.
       -1    1    3    3    0  502  0.17035747540E+03  0.65557949241E+01 -0.52581875407E+03  0.55276578225E+03  0.50400001928E-02 0. -1.
</event>
<event>
 5   0  0.1560957E-03  0.1408882E+04  0.7818609E-02  0.8947414E-01
       -1   -1    0    0    0  501  0.00000000000E+00  0.00000000000E+00  0.51793574704E+03  0.51793574706E+03  0.50400001928E-02 0.  1.
        1   -1    0    0  501    0  0.00000000000E+00  0.00000000000E+00 -0.95810534312E+03  0.95810534313E+03  0.50400001928E-02 0. -1.
    10030    2    1    2    0    0  0.00000000000E+00  0.00000000000E+00 -0.44016959608E+03  0.14760410902E+04  0.14088818356E+04 0.  0.
        5    1    3    3  502    0 -0.42414483168E+03 -0.37627434295E+03  0.21785277866E+03  0.60742336354E+03  0.46999998093E+01 0.  1.
       -5    1    3    3    0  502  0.42414483168E+03  0.37627434295E+03 -0.65802237473E+03  0.86861772665E+03  0.46999998093E+01 0. -1.
</event>
<event>
 5   0  0.1560957E-03  0.1301933E+04  0.7818609E-02  0.9028034E-01
        1   -1    0    0  501    0  0.00000000000E+00  0.00000000000E+00  0.58589766587E+03  0.58589766590E+03  0.50400001928E-02 0. -1.
       -1   -1    0    0    0  501  0.00000000000E+00  0.00000000000E+00 -0.72326175700E+03  0.72326175702E+03  0.50400001928E-02 0.  1.
    10030    2    1    2    0    0  0.00000000000E+00  0.00000000000E+00 -0.13736409113E+03  0.13091594229E+04  0.13019329864E+04 0.  0.
        5    1    3    3  502    0 -0.12752104436E+03  0.62853401689E+03  0.43375534913E+02  0.64282202372E+03  0.46999998093E+01 0. -1.
       -5    1    3    3    0  502  0.12752104436E+03 -0.62853401689E+03 -0.18073962604E+03  0.66633739920E+03  0.46999998093E+01 0.  1.
</event>
<event>
 5   0  0.1700207E-03  0.1419422E+04  0.7818609E-02  0.8939879E-01
        1   -1    0    0  501    0  0.00000000000E+00  0.00000000000E+00  0.83311982079E+03  0.83311982080E+03  0.50400001928E-02 0.  1.
       -1   -1    0    0    0  501  0.00000000000E+00  0.00000000000E+00 -0.60458252250E+03  0.60458252253E+03  0.50400001928E-02 0. -1.
    10030    2    1    2    0    0  0.00000000000E+00  0.00000000000E+00  0.22853729828E+03  0.14377023433E+04  0.14194219708E+04 0.  0.
        2    1    3    3  502    0 -0.30039476192E+03 -0.33924643767E+03 -0.43899361461E+03  0.63090455073E+03  0.25500000920E-02 0. -1.
       -2    1    3    3    0  502  0.30039476192E+03  0.33924643767E+03  0.66753091290E+03  0.80679779260E+03  0.25500000920E-02 0.  1.
</event>
<event>
 5   0  0.1700207E-03  0.1374690E+04  0.7818609E-02  0.8972346E-01
       -1   -1    0    0    0  501  0.00000000000E+00  0.00000000000E+00  0.82799674398E+03  0.82799674399E+03  0.50400001928E-02 0.  1.
        1   -1    0    0  501    0  0.00000000000E+00  0.00000000000E+00 -0.57058561911E+03  0.57058561914E+03  0.50400001928E-02 0. -1.
    10030    2    1    2    0    0  0.00000000000E+00  0.00000000000E+00  0.25741112486E+03  0.13985823631E+04  0.13746898338E+04 0.  0.
        2    1    3    3  502    0  0.14420839196E+03  0.17629411656E+03 -0.53107741721E+03  0.57785716135E+03  0.25500000920E-02 0. -1.
       -2    1    3    3    0  502 -0.14420839196E+03 -0.17629411656E+03  0.78848854207E+03  0.82072520178E+03  0.25500000920E-02 0.  1.
</event>
<event>
 5   0  0.1700207E-03  0.1365117E+04  0.7818609E-02  0.8979463E-01
        1   -1    0    0  501    0  0.00000000000E+00  0.00000000000E+00  0.18502093149E+04  0.18502093149E+04  0.50400001928E-02 0. -1.
       -1   -1    0    0    0  501  0.00000000000E+00  0.00000000000E+00 -0.25180187550E+03  0.25180187555E+03  0.50400001928E-02 0.  1.
    10030    2    1    2    0    0  0.00000000000E+00  0.00000000000E+00  0.15984074394E+04  0.21020111905E+04  0.13651171021E+04 0.  0.
        2    1    3    3  502    0  0.39697467180E+03  0.10506056287E+02 -0.55611427715E+02  0.40098865092E+03  0.25500000920E-02 0.  1.
       -2    1    3    3    0  502 -0.39697467180E+03 -0.10506056287E+02  0.16540188671E+04  0.17010225396E+04  0.25500000920E-02 0. -1.
</event>
<event>
 5   0  0.2889469E-03  0.1365398E+04  0.7818609E-02  0.8979253E-01
       -2   -1    0    0    0  501  0.00000000000E+00  0.00000000000E+00  0.65548018381E+03  0.65548018381E+03  0.25500000920E-02 0. -1.
        2   -1    0    0  501    0  0.00000000000E+00  0.00000000000E+00 -0.71104781096E+03  0.71104781096E+03  0.25500000920E-02 0.  1.
    10030    2    1    2    0    0  0.00000000000E+00  0.00000000000E+00 -0.55567627148E+02  0.13665279948E+04  0.13653977440E+04 0.  0.
        5    1    3    3  502    0 -0.18329066191E+03 -0.62423294214E+03 -0.23482077539E+03  0.69168281701E+03  0.46999998093E+01 0.  1.
       -5    1    3    3    0  502  0.18329066191E+03  0.62423294214E+03  0.17925314824E+03  0.67484517776E+03  0.46999998093E+01 0. -1.
</event>
<event>
 5   0  0.1586022E-03  0.1472387E+04  0.7818609E-02  0.8903026E-01
       -1   -1    0    0    0  501  0.00000000000E+00  0.00000000000E+00  0.70536181791E+03  0.70536181793E+03  0.50400001928E-02 0. -1.
        1   -1    0    0  501    0  0.00000000000E+00  0.00000000000E+00 -0.76837251275E+03  0.76837251277E+03  0.50400001928E-02 0.  1.
    10030    2    1    2    0    0  0.00000000000E+00  0.00000000000E+00 -0.63010694839E+02  0.14737343307E+04  0.14723866781E+04 0.  0.
        1    1    3    3  502    0  0.48586604110E+03 -0.54084647190E+03  0.84358611857E+02  0.73191330872E+03  0.50400001928E-02 0. -1.
       -1    1    3    3    0  502 -0.48586604110E+03  0.54084647190E+03 -0.14736930670E+03  0.74182102198E+03  0.50400001928E-02 0.  1.
</event>
<event>
 5   0  0.1104538E-03  0.1421578E+04  0.7818609E-02  0.8938346E-01
        3   -1    0    0  501    0  0.00000000000E+00  0.00000000000E+00  0.10995520396E+04  0.10995520443E+04  0.10100000352E+00 0. -1.
       -3   -1    0    0    0  501  0.00000000000E+00  0.00000000000E+00 -0.45947887064E+03  0.45947888174E+03  0.10100000352E+00 0.  1.
    10030    2    1    2    0    0  0.00000000000E+00  0.00000000000E+00  0.64007316897E+03  0.15590309260E+04  0.14215779144E+04 0.  0.
        4    1    3    3  502    0 -0.34919371999E+03 -0.28153674081E+03 -0.28465682970E+03  0.53125353091E+03  0.12699999809E+01 0.  1.
       -4    1    3    3    0  502  0.34919371999E+03  0.28153674081E+03  0.92472999867E+03  0.10277773951E+04  0.12699999809E+01 0. -1.
</event>
<event>
 5   0  0.2993993E-03  0.1413164E+04  0.7818609E-02  0.8944345E-01
        2   -1    0    0  501    0  0.00000000000E+00  0.00000000000E+00  0.13160630770E+04  0.13160630770E+04  0.25500000920E-02 0.  1.
       -2   -1    0    0    0  501  0.00000000000E+00  0.00000000000E+00 -0.37935730773E+03  0.37935730774E+03  0.25500000920E-02 0. -1.
    10030    2    1    2    0    0  0.00000000000E+00  0.00000000000E+00  0.93670576922E+03  0.16954203847E+04  0.14131640325E+04 0.  0.
        3    1    3    3  502    0 -0.32065044188E+03 -0.38054062412E+03 -0.13346662292E+03  0.51520988162E+03  0.10100000352E+00 0. -1.
       -3    1    3    3    0  502  0.32065044188E+03  0.38054062412E+03  0.10701723921E+04  0.11802105031E+04  0.10100000352E+00 0.  1.
</event>
<event>
 5   0  0.1644571E-03  0.1391268E+04  0.7818609E-02  0.8960164E-01
        1   -1    0    0  501    0  0.00000000000E+00  0.00000000000E+00  0.75292597630E+03  0.75292597632E+03  0.50400001928E-02 0.  1.
       -1   -1    0    0    0  501  0.00000000000E+00  0.00000000000E+00 -0.64270137384E+03  0.64270137386E+03  0.50400001928E-02 0. -1.
    10030    2    1    2    0    0  0.00000000000E+00  0.00000000000E+00  0.11022460246E+03  0.13956273502E+04  0.13912678526E+04 0.  0.
        4    1    3    3  502    0  0.35601601131E+03  0.44162604028E+03  0.45902021180E+03  0.72971372983E+03  0.12699999809E+01 0.  1.
       -4    1    3    3    0  502 -0.35601601131E+03 -0.44162604028E+03 -0.34879560935E+03  0.66591362035E+03  0.12699999809E+01 0. -1.
</event>
<event>
 5   0  0.2760807E-03  0.8168803E+03  0.7818609E-02  0.9535900E-01
        2   -1    0    0  501    0  0.00000000000E+00  0.00000000000E+00  0.12998272535E+04  0.12998272535E+04  0.25500000920E-02 0. -1.
       -2   -1    0    0    0  501  0.00000000000E+00  0.00000000000E+00 -0.12834270376E+03  0.12834270378E+03  0.25500000920E-02 0.  1.
    10030    2    1    2    0    0  0.00000000000E+00  0.00000000000E+00  0.11714845497E+04  0.14281699573E+04  0.81688027067E+03 0.  0.
        4    1    3    3  502    0 -0.36367629201E+03 -0.72303379788E+01  0.91052111328E+03  0.98049122065E+03  0.12699999809E+01 0. -1.
       -4    1    3    3    0  502  0.36367629201E+03  0.72303379788E+01  0.26096343644E+03  0.44767873661E+03  0.12699999809E+01 0.  1.
</event>
<event>
 5   0  0.3006737E-03  0.9874762E+03  0.7818609E-02  0.9322388E-01
       -2   -1    0    0    0  501  0.00000000000E+00  0.00000000000E+00  0.79830781027E+03  0.79830781028E+03  0.25500000920E-02 0.  1.
        2   -1    0    0  501    0  0.00000000000E+00  0.00000000000E+00 -0.30536758305E+03  0.30536758306E+03  0.25500000920E-02 0. -1.
    10030    2    1    2    0    0  0.00000000000E+00  0.00000000000E+00  0.49294022723E+03  0.11036753933E+04  0.98747623072E+03 0.  0.
        1    1    3    3  502    0 -0.17724115032E+03  0.22990126038E+03  0.69285179983E+03  0.75120744901E+03  0.50400001928E-02 0.  1.
       -1    1    3    3    0  502  0.17724115032E+03 -0.22990126038E+03 -0.19991157261E+03  0.35246794433E+03  0.50400001928E-02 0. -1.
</event>
<event>
 5   0  0.1631380E-03  0.1425546E+04  0.7818609E-02  0.8935532E-01
        1   -1    0    0  501    0  0.00000000000E+00  0.00000000000E+00  0.15858414382E+04  0.15858414382E+04  0.50400001928E-02 0. -1.
       -1   -1    0    0    0  501  0.00000000000E+00  0.00000000000E+00 -0.32036334963E+03  0.32036334967E+03  0.50400001928E-02 0.  1.
    10030    2    1    2    0    0  0.00000000000E+00  0.00000000000E+00  0.12654780886E+04  0.19062047879E+04  0.14255461763E+04 0.  0.
        3    1    3    3  502    0  0.19482173081E+03 -0.68478566652E+03  0.58722499354E+03  0.92288683982E+03  0.10100000352E+00 0. -1.
       -3    1    3    3    0  502 -0.19482173081E+03  0.68478566652E+03  0.67825309505E+03  0.98331794808E+03  0.10100000352E+00 0.  1.
</event>
<event>
 5   0  0.2993993E-03  0.1390817E+04  0.7818609E-02  0.8960493E-01
        2   -1    0    0  501    0  0.00000000000E+00  0.00000000000E+00  0.10460022183E+04  0.10460022183E+04  0.25500000920E-02 0.  1.
       -2   -1    0    0    0  501  0.00000000000E+00  0.00000000000E+00 -0.46232480540E+03  0.46232480541E+03  0.25500000920E-02 0. -1.
    10030    2    1    2    0    0  0.00000000000E+00  0.00000000000E+00  0.58367741288E+03  0.15083270237E+04  0.13908166982E+04 0.  0.
        3    1    3    3  502    0 -0.28315234044E+03 -0.11838996436E+03  0.96858257752E+03  0.10160431345E+04  0.10100000352E+00 0.  1.
       -3    1    3    3    0  502  0.28315234044E+03  0.11838996436E+03 -0.38490516464E+03  0.49228388916E+03  0.10100000352E+00 0. -1.
</event>
<event>
 5   0  0.1644571E-03  0.1233293E+04  0.7818609E-02  0.9084204E-01
       -1   -1    0    0    0  501  0.00000000000E+00  0.00000000000E+00  0.51966679358E+03  0.51966679360E+03  0.50400001928E-02 0. -1.
        1   -1    0    0  501    0  0.00000000000E+00  0.00000000000E+00 -0.73172482731E+03  0.73172482733E+03  0.50400001928E-02 0.  1.
    10030    2    1    2    0    0  0.00000000000E+00  0.00000000000E+00 -0.21205803374E+03  0.12513916209E+04  0.12332933063E+04 0.  0.
        4    1    3    3  502    0 -0.61582462229E+03  0.24776802992E+02 -0.85795818179E+02  0.62226713773E+03  0.12699999809E+01 0.  1.
       -4    1    3    3    0  502  0.61582462229E+03 -0.24776802992E+02 -0.12626221556E+03  0.62912448320E+03  0.12699999809E+01 0. -1.
</event>
<event>
 5   0  0.2917809E-03  0.1417147E+04  0.7818609E-02  0.8941500E-01
       -2   -1    0    0    0  501  0.00000000000E+00  0.00000000000E+00  0.25677958724E+03  0.25677958725E+03  0.25500000920E-02 0. -1.
        2   -1    0    0  501    0  0.00000000000E+00  0.00000000000E+00 -0.19552803224E+04  0.19552803224E+04  0.25500000920E-02 0.  1.
    10030    2    1    2    0    0  0.00000000000E+00  0.00000000000E+00 -0.16985007352E+04  0.22120599097E+04  0.14171465332E+04 0.  0.
        2    1    3    3  502    0 -0.32625315527E+03 -0.69606269365E+02  0.12653387971E+03  0.35678701879E+03  0.25500000920E-02 0. -1.
       -2    1    3    3    0  502  0.32625315527E+03  0.69606269365E+02 -0.18250346149E+04  0.18552728909E+04  0.25500000920E-02 0.  1.
</event>
<event>
 5   0  0.1644571E-03  0.9070237E+03  0.7818609E-02  0.9416844E-01
       -1   -1    0    0    0  501  0.00000000000E+00  0.00000000000E+00  0.10818051856E+04  0.10818051856E+04  0.50400001928E-02 0.  1.
        1   -1    0    0  501    0  0.00000000000E+00  0.00000000000E+00 -0.19012018431E+03  0.19012018438E+03  0.50400001928E-02 0. -1.
    10030    2    1    2    0    0  0.00000000000E+00  0.00000000000E+00  0.89168500126E+03  0.12719253700E+04  0.90702370713E+03 0.  0.
        4    1    3    3  502    0  0.38919691230E+03  0.10406372365E+03  0.73787228939E+03  0.84069056344E+03  0.12699999809E+01 0.  1.
       -4    1    3    3    0  502 -0.38919691230E+03 -0.10406372365E+03  0.15381271187E+03  0.43123480652E+03  0.12699999809E+01 0. -1.
</event>
<event>
 5   0  0.1644571E-03  0.1394089E+04  0.7818609E-02  0.8958108E-01
       -1   -1    0    0    0  501  0.00000000000E+00  0.00000000000E+00  0.63141400863E+03  0.63141400865E+03  0.50400001928E-02 0. -1.
        1   -1    0    0  501    0  0.00000000000E+00  0.00000000000E+00 -0.76949670400E+03  0.76949670402E+03  0.50400001928E-02 0.  1.
    10030    2    1    2    0    0  0.00000000000E+00  0.00000000000E+00 -0.13808269538E+03  0.14009107127E+04  0.13940889477E+04 0.  0.
        4    1    3    3  502    0 -0.46665012633E+03 -0.44473795736E+03  0.19742634620E+03  0.67419060079E+03  0.12699999809E+01 0.  1.
       -4    1    3    3    0  502  0.46665012633E+03  0.44473795736E+03 -0.33550904157E+03  0.72672011187E+03  0.12699999809E+01 0. -1.
</event>
<event>
 5   0  0.1700207E-03  0.1410495E+04  0.7818609E-02  0.8946257E-01
       -1   -1    0    0    0  501  0.00000000000E+00  0.00000000000E+00  0.57437994878E+03  0.57437994880E+03  0.50400001928E-02 0.  1.
        1   -1    0    0  501    0  0.00000000000E+00  0.00000000000E+00 -0.86593206660E+03  0.86593206661E+03  0.50400001928E-02 0. -1.
    10030    2    1    2    0    0  0.00000000000E+00  0.00000000000E+00 -0.29155211782E+03  0.14403120154E+04  0.14104949714E+04 0.  0.
        2    1    3    3  502    0 -0.18549601875E+03  0.24813610544E+02  0.54856084848E+03  0.57960632565E+03  0.25500000920E-02 0.  1.
       -2    1    3    3    0  502  0.18549601875E+03 -0.24813610544E+02 -0.84011296630E+03  0.86070568976E+03  0.25500000920E-02 0. -1.
</event>
<event>
 5   0  0.2917809E-03  0.1390868E+04  0.7818609E-02  0.8960456E-01
        2   -1    0    0  501    0  0.00000000000E+00  0.00000000000E+00  0.42696820151E+03  0.42696820152E+03  0.25500000920E-02 0. -1.
       -2   -1    0    0    0  501  0.00000000000E+00  0.00000000000E+00 -0.11327028761E+04  0.11327028761E+04  0.25500000920E-02 0.  1.
    10030    2    1    2    0    0  0.00000000000E+00  0.00000000000E+00 -0.70573467461E+03  0.15596710776E+04  0.13908675133E+04 0.  0.
        2    1    3    3  502    0  0.14984540274E+02 -0.19757409902E+03 -0.11003801957E+04  0.11180772049E+04  0.25500000920E-02 0.  1.
       -2    1    3    3    0  502 -0.14984540274E+02  0.19757409902E+03  0.39464552113E+03  0.44159387269E+03  0.25500000920E-02 0. -1.
</event>
<event>
 5   0  0.3006737E-03  0.1383890E+04  0.7818609E-02  0.8965563E-01
        2   -1    0    0  501    0  0.00000000000E+00  0.00000000000E+00  0.14199566472E+04  0.14199566472E+04  0.25500000920E-02 0. -1.
       -2   -1    0    0    0  501  0.00000000000E+00  0.00000000000E+00 -0.33718487101E+03  0.33718487102E+03  0.25500000920E-02 0.  1.
    10030    2    1    2    0    0  0.00000000000E+00  0.00000000000E+00  0.10827717762E+04  0.17571415182E+04  0.13838900230E+04 0.  0.
        1    1    3    3  502    0  0.19167423626E+03 -0.32662865829E+03  0.12766823560E+04  0.13316693026E+04  0.50400001928E-02 0. -1.
       -1    1    3    3    0  502 -0.19167423626E+03  0.32662865829E+03 -0.19391057984E+03  0.42547221562E+03  0.50400001928E-02 0.  1.
</event>
<event>
 5   0  0.2889469E-03  0.1401588E+04  0.7818609E-02  0.8952670E-01
       -2   -1    0    0    0  501  0.00000000000E+00  0.00000000000E+00  0.12389812481E+04  0.12389812481E+04  0.25500000920E-02 0. -1.
        2   -1    0    0  501    0  0.00000000000E+00  0.00000000000E+00 -0.39638375121E+03  0.39638375122E+03  0.25500000920E-02 0.  1.
    10030    2    1    2    0    0  0.00000000000E+00  0.00000000000E+00  0.84259749686E+03  0.16353649993E+04  0.14015877208E+04 0.  0.
        5    1    3    3  502    0 -0.35988239995E+03  0.58138857713E+03  0.24219700940E+03  0.72540299198E+03  0.46999998093E+01 0.  1.
       -5    1    3    3    0  502  0.35988239995E+03 -0.58138857713E+03  0.60040048747E+03  0.90996200732E+03  0.46999998093E+01 0. -1.
</event>
<event>
 5   0  0.3006737E-03  0.1389227E+04  0.7818609E-02  0.8961654E-01
       -2   -1    0    0    0  501  0.00000000000E+00  0.00000000000E+00  0.30997469472E+03  0.30997469473E+03  0.25500000920E-02 0.  1.
        2   -1    0    0  501    0  0.00000000000E+00  0.00000000000E+00 -0.15565401105E+04  0.15565401105E+04  0.25500000920E-02 0. -1.
    10030    2    1    2    0    0  0.00000000000E+00  0.00000000000E+00 -0.12465654158E+04  0.18665148053E+04  0.13892271889E+04 0.  0.
        1    1    3    3  502    0 -0.41643339249E+03  0.53001622738E+03 -0.39784384367E+03  0.78269642623E+03  0.50400001928E-02 0. -1.
       -1    1    3    3    0  502  0.41643339249E+03 -0.53001622738E+03 -0.84872157214E+03  0.10838183790E+04  0.50400001928E-02 0.  1.
</event>
<event>
 5   0  0.1586022E-03  0.1407552E+04  0.7818609E-02  0.8948370E-01
        1   -1    0    0  501    0  0.00000000000E+00  0.00000000000E+00  0.10784556289E+04  0.10784556289E+04  0.50400001928E-02 0.  1.
       -1   -1    0    0    0  501  0.00000000000E+00  0.00000000000E+00 -0.45926859657E+03  0.45926859660E+03  0.50400001928E-02 0. -1.
    10030    2    1    2    0    0  0.00000000000E+00  0.00000000000E+00  0.61918703235E+03  0.15377242255E+04  0.14075522061E+04 0.  0.
        1    1    3    3  502    0 -0.66900960715E+03  0.15915817510E+03  0.14610188442E+03  0.70302982854E+03  0.50400001928E-02 0. -1.
       -1    1    3    3    0  502  0.66900960715E+03 -0.15915817510E+03  0.47308514794E+03  0.83469439700E+03  0.50400001928E-02 0.  1.
</event>
<event>
 5   0  0.2889469E-03  0.1354372E+04  0.7818609E-02  0.8987525E-01
        2   -1    0    0  501    0  0.00000000000E+00  0.00000000000E+00  0.12167076151E+04  0.12167076151E+04  0.25500000920E-02 0.  1.
       -2   -1    0    0    0  501  0.00000000000E+00  0.00000000000E+00 -0.37690288927E+03  0.37690288928E+03  0.25500000920E-02 0. -1.
    10030    2    1    2    0    0  0.00000000000E+00  0.00000000000E+00  0.83980472580E+03  0.15936105044E+04  0.13543716115E+04 0.  0.
        5    1    3    3  502    0 -0.66264782889E+03  0.13942993294E+03  0.41524396016E+03  0.79435035581E+03  0.46999998093E+01 0. -1.
       -5    1    3    3    0  502  0.66264782889E+03 -0.13942993294E+03  0.42456076564E+03  0.79926014854E+03  0.46999998093E+01 0.  1.
</event>
<event>
 5   0  0.1104538E-03  0.1428259E+04  0.7818609E-02  0.8933613E-01
        3   -1    0    0  501    0  0.00000000000E+00  0.00000000000E+00  0.46082885559E+03  0.46082886666E+03  0.10100000352E+00 0. -1.
       -3   -1    0    0    0  501  0.00000000000E+00  0.00000000000E+00 -0.11066603518E+04  0.11066603564E+04  0.10100000352E+00 0.  1.
    10030    2    1    2    0    0  0.00000000000E+00  0.00000000000E+00 -0.64583149618E+03  0.15674892230E+04  0.14282591302E+04 0.  0.
        1    1    3    3  502    0 -0.43067974393E+03  0.32384609165E+03  0.19140400513E+03  0.57183636306E+03  0.50400001928E-02 0. -1.
       -1    1    3    3    0  502  0.43067974393E+03 -0.32384609165E+03 -0.83723550131E+03  0.99565285998E+03  0.50400001928E-02 0.  1.
</event>
<event>
 5   0  0.2760807E-03  0.1394940E+04  0.7818609E-02  0.8957489E-01
       -2   -1    0    0    0  501  0.00000000000E+00  0.00000000000E+00  0.31834561102E+03  0.31834561103E+03  0.25500000920E-02 0. -1.
        2   -1    0    0  501    0  0.00000000000E+00  0.00000000000E+00 -0.15281018431E+04  0.15281018431E+04  0.25500000920E-02 0.  1.
    10030    2    1    2    0    0  0.00000000000E+00  0.00000000000E+00 -0.12097562320E+04  0.18464474541E+04  0.13949401635E+04 0.  0.
        4    1    3    3  502    0  0.24058109460E+03 -0.46128566528E+03 -0.12197806224E+04  0.13260958140E+04  0.12699999809E+01 0.  1.
       -4    1    3    3    0  502 -0.24058109460E+03  0.46128566528E+03  0.10024390399E+02  0.52035164012E+03  0.12699999809E+01 0. -1.
</event>
<event>
 5   0  0.2760807E-03  0.1375121E+04  0.7818609E-02  0.8972027E-01
       -2   -1    0    0    0  501  0.00000000000E+00  0.00000000000E+00  0.51432341942E+03  0.51432341943E+03  0.25500000920E-02 0.  1.
        2   -1    0    0  501    0  0.00000000000E+00  0.00000000000E+00 -0.91914820396E+03  0.91914820397E+03  0.25500000920E-02 0. -1.
    10030    2    1    2    0    0  0.00000000000E+00  0.00000000000E+00 -0.40482478454E+03  0.14334716234E+04  0.13751210088E+04 0.  0.
        4    1    3    3  502    0 -0.17087885749E+03  0.29475281653E+03  0.42013840488E+03  0.54092208214E+03  0.12699999809E+01 0.  1.
       -4    1    3    3    0  502  0.17087885749E+03 -0.29475281653E+03 -0.82496318942E+03  0.89254954125E+03  0.12699999809E+01 0. -1.
</event>
<event>
 5   0  0.1700207E-03  0.1383218E+04  0.7818609E-02  0.8966056E-01
       -1   -1    0    0    0  501  0.00000000000E+00  0.00000000000E+00  0.59119521563E+03  0.59119521565E+03  0.50400001928E-02 0. -1.
        1   -1    0    0  501    0  0.00000000000E+00  0.00000000000E+00 -0.80907832821E+03  0.80907832823E+03  0.50400001928E-02 0.  1.
    10030    2    1    2    0    0  0.00000000000E+00  0.00000000000E+00 -0.21788311259E+03  0.14002735439E+04  0.13832183294E+04 0.  0.
        2    1    3    3  502    0 -0.14227520434E+02  0.56111503163E+03 -0.51799148666E+03  0.76378510152E+03  0.25500000920E-02 0.  1.
       -2    1    3    3    0  502  0.14227520434E+02 -0.56111503163E+03  0.30010837407E+03  0.63648844235E+03  0.25500000920E-02 0. -1.
</event>
<event>
 5   0  0.1631380E-03  0.1396201E+04  0.7818609E-02  0.8956573E-01
       -1   -1    0    0    0  501  0.00000000000E+00  0.00000000000E+00  0.35833481954E+03  0.35833481957E+03  0.50400001928E-02 0.  1.
        1   -1    0    0  501    0  0.00000000000E+00  0.00000000000E+00 -0.13600244824E+04  0.13600244824E+04  0.50400001928E-02 0. -1.
    10030    2    1    2    0    0  0.00000000000E+00  0.00000000000E+00 -0.10016896629E+04  0.17183593020E+04  0.13962007413E+04 0.  0.
        3    1    3    3  502    0  0.38246624567E+03  0.56649374789E+03 -0.67554274139E+03  0.96101696193E+03  0.10100000352E+00 0.  1.
       -3    1    3    3    0  502 -0.38246624567E+03 -0.56649374789E+03 -0.32614692150E+03  0.75734234008E+03  0.10100000352E+00 0. -1.
</event>
<event>
 5   0  0.1560957E-03  0.1388389E+04  0.7818609E-02  0.8962266E-01
       -1   -1    0    0    0  501  0.00000000000E+00  0.00000000000E+00  0.46665399178E+03  0.46665399181E+03  0.50400001928E-02 0.  1.
        1   -1    0    0  501    0  0.00000000000E+00  0.00000000000E+00 -0.10326835655E+04  0.10326835655E+04  0.50400001928E-02 0. -1.
    10030    2    1    2    0    0  0.00000000000E+00  0.00000000000E+00 -0.56602957371E+03  0.14993375573E+04  0.13883888621E+04 0.  0.
        5    1    3    3  502    0 -0.32327504401E+03  0.37330141308E+03 -0.80987799226E+03  0.94857005616E+03  0.46999998093E+01 0. -1.
       -5    1    3    3    0  502  0.32327504401E+03 -0.37330141308E+03  0.24384841856E+03  0.55076750115E+03  0.46999998093E+01 0.  1.
</event>
<event>
 5   0  0.2760807E-03  0.1303224E+04  0.7818609E-02  0.9027012E-01
        2   -1    0    0  501    0  0.00000000000E+00  0.00000000000E+00  0.10709052031E+04  0.10709052031E+04  0.25500000920E-02 0.  1.
       -2   -1    0    0    0  501  0.00000000000E+00  0.00000000000E+00 -0.39648544901E+03  0.39648544902E+03  0.25500000920E-02 0. -1.
    10030    2    1    2    0    0  0.00000000000E+00  0.00000000000E+00  0.67441975406E+03  0.14673906521E+04  0.13032242022E+04 0.  0.
        4    1    3    3  502    0 -0.11363857274E+03  0.39779413938E+03 -0.22963810272E+03  0.47316928648E+03  0.12699999809E+01 0. -1.
       -4    1    3    3    0  502  0.11363857274E+03 -0.39779413938E+03  0.90405785678E+03  0.99422136562E+03  0.12699999809E+01 0.  1.
</event>
<event>
 5   0  0.2889469E-03  0.1389014E+04  0.7818609E-02  0.8961809E-01
        2   -1    0    0  501    0  0.00000000000E+00  0.00000000000E+00  0.73574434109E+03  0.73574434110E+03  0.25500000920E-02 0.  1.
       -2   -1    0    0    0  501  0.00000000000E+00  0.00000000000E+00 -0.65558133116E+03  0.65558133116E+03  0.25500000920E-02 0. -1.
    10030    2    1    2    0    0  0.00000000000E+00  0.00000000000E+00  0.80163009937E+02  0.13913256723E+04  0.13890144053E+04 0.  0.
        5    1    3    3  502    0  0.24919891617E+03  0.35908106308E+03 -0.50051910096E+03  0.66451544008E+03  0.46999998093E+01 0. -1.
       -5    1    3    3    0  502 -0.24919891617E+03 -0.35908106308E+03  0.58068211090E+03  0.72681023218E+03  0.46999998093E+01 0.  1.
</event>
<event>
 5   0  0.3006737E-03  0.1317705E+04  0.7818609E-02  0.9015641E-01
        2   -1    0    0  501    0  0.00000000000E+00  0.00000000000E+00  0.16712860894E+04  0.16712860894E+04  0.25500000920E-02 0. -1.
       -2   -1    0    0    0  501  0.00000000000E+00  0.00000000000E+00 -0.25973227641E+03  0.25973227642E+03  0.25500000920E-02 0.  1.
    10030    2    1    2    0    0  0.00000000000E+00  0.00000000000E+00  0.14115538130E+04  0.19310183658E+04  0.13177054914E+04 0.  0.
        1    1    3    3  502    0 -0.23320916490E+02  0.60883760399E+03  0.33836374505E+03  0.69693408380E+03  0.50400001928E-02 0.  1.
       -1    1    3    3    0  502  0.23320916490E+02 -0.60883760399E+03  0.10731900679E+04  0.12340842820E+04  0.50400001928E-02 0. -1.
</event>
<event>
 5   0  0.3006737E-03  0.1420473E+04  0.7818609E-02  0.8939131E-01
       -2   -1    0    0    0  501  0.00000000000E+00  0.00000000000E+00  0.52093704670E+03  0.52093704671E+03  0.25500000920E-02 0. -1.
        2   -1    0    0  501    0  0.00000000000E+00  0.00000000000E+00 -0.96832412294E+03  0.96832412294E+03  0.25500000920E-02 0.  1.
    10030    2    1    2    0    0  0.00000000000E+00  0.00000000000E+00 -0.44738707624E+03  0.14892611697E+04  0.14204730323E+04 0.  0.
        1    1    3    3  502    0  0.13057830734E+03  0.55273069567E+03  0.22342551133E+03  0.61031211313E+03  0.50400001928E-02 0. -1.
       -1    1    3    3    0  502 -0.13057830734E+03 -0.55273069567E+03 -0.67081258757E+03  0.87894905652E+03  0.50400001928E-02 0.  1.
</event>
<event>
 5   0  0.1560957E-03  0.1478645E+04  0.7818609E-02  0.8898779E-01
        1   -1    0    0  501    0  0.00000000000E+00  0.00000000000E+00  0.17754576402E+04  0.17754576402E+04  0.50400001928E-02 0.  1.
       -1   -1    0    0    0  501  0.00000000000E+00  0.00000000000E+00 -0.30786300212E+03  0.30786300216E+03  0.50400001928E-02 0. -1.
    10030    2    1    2    0    0  0.00000000000E+00  0.00000000000E+00  0.14675946381E+04  0.20833206424E+04  0.14786449463E+04 0.  0.
        5    1    3    3  502    0 -0.43763840054E+02 -0.51574985311E+03  0.14775549509E+04  0.15656001749E+04  0.46999998093E+01 0.  1.
       -5    1    3    3    0  502  0.43763840054E+02  0.51574985311E+03 -0.99603127582E+01  0.51772046754E+03  0.46999998093E+01 0. -1.
</event>
<event>
 5   0  0.1560957E-03  0.1283490E+04  0.7818609E-02  0.9042761E-01
       -1   -1    0    0    0  501  0.00000000000E+00  0.00000000000E+00  0.32771563934E+03  0.32771563938E+03  0.50400001928E-02 0. -1.
        1   -1    0    0  501    0  0.00000000000E+00  0.00000000000E+00 -0.12566896076E+04  0.12566896076E+04  0.50400001928E-02 0.  1.
    10030    2    1    2    0    0  0.00000000000E+00  0.00000000000E+00 -0.92897396825E+03  0.15844052470E+04  0.12834903011E+04 0.  0.
        5    1    3    3  502    0 -0.13362103577E+03 -0.23319487881E+03  0.25487077863E+03  0.37042629024E+03  0.46999998093E+01 0. -1.
       -5    1    3    3    0  502  0.13362103577E+03  0.23319487881E+03 -0.11838447469E+04  0.12139789567E+04  0.46999998093E+01 0.  1.
</event>
<event>
 5   0  0.2760807E-03  0.1366869E+04  0.7818609E-02  0.8978156E-01
        2   -1    0    0  501    0  0.00000000000E+00  0.00000000000E+00  0.11994716949E+04  0.11994716949E+04  0.25500000920E-02 0.  1.
       -2   -1    0    0    0  501  0.00000000000E+00  0.00000000000E+00 -0.38940676245E+03  0.38940676245E+03  0.25500000920E-02 0. -1.
    10030    2    1    2    0    0  0.00000000000E+00  0.00000000000E+00  0.81006493245E+03  0.15888784573E+04  0.13668685224E+04 0.  0.
        4    1    3    3  502    0  0.37792530701E+03 -0.19057953213E+03  0.10287808234E+04  0.11124476128E+04  0.12699999809E+01 0.  1.
       -4    1    3    3    0  502 -0.37792530701E+03  0.19057953213E+03 -0.21871589097E+03  0.47643084452E+03  0.12699999809E+01 0. -1.
</event>
<event>
 5   0  0.1644571E-03  0.1393904E+04  0.7818609E-02  0.8958243E-01
       -1   -1    0    0    0  501  0.00000000000E+00  0.00000000000E+00  0.49237058923E+03  0.49237058926E+03  0.50400001928E-02 0. -1.
        1   -1    0    0  501    0  0.00000000000E+00  0.00000000000E+00 -0.98653690375E+03  0.98653690376E+03  0.50400001928E-02 0.  1.
    10030    2    1    2    0    0  0.00000000000E+00  0.00000000000E+00 -0.49416631451E+03  0.14789074930E+04  0.13939035212E+04 0.  0.
        4    1    3    3  502    0  0.19720364715E+02 -0.17040971323E+03 -0.96378601257E+03  0.97893485691E+03  0.12699999809E+01 0.  1.
       -4    1    3    3    0  502 -0.19720364715E+02  0.17040971323E+03  0.46961969806E+03  0.49997263611E+03  0.12699999809E+01 0. -1.
</event>
<event>
 5   0  0.2760807E-03  0.1394429E+04  0.7818609E-02  0.8957861E-01
       -2   -1    0    0    0  501  0.00000000000E+00  0.00000000000E+00  0.46889331992E+03  0.46889331992E+03  0.25500000920E-02 0. -1.
        2   -1    0    0  501    0  0.00000000000E+00  0.00000000000E+00 -0.10367128116E+04  0.10367128116E+04  0.25500000920E-02 0.  1.
    10030    2    1    2    0    0  0.00000000000E+00  0.00000000000E+00 -0.56781949167E+03  0.15056061315E+04  0.13944285023E+04 0.  0.
        4    1    3    3  502    0  0.24339385192E+03 -0.11829878302E+03 -0.97769054487E+03  0.10144533423E+04  0.12699999809E+01 0.  1.
       -4    1    3    3    0  502 -0.24339385192E+03  0.11829878302E+03  0.40987105321E+03  0.49115278924E+03  0.12699999809E+01 0. -1.
</event>
<event>
 5   0  0.1631380E-03  0.1397822E+04  0.7818609E-02  0.8955397E-01
        1   -1    0    0  501    0  0.00000000000E+00  0.00000000000E+00  0.30287153163E+03  0.30287153167E+03  0.50400001928E-02 0.  1.
       -1   -1    0    0    0  501  0.00000000000E+00  0.00000000000E+00 -0.16128177447E+04  0.16128177447E+04  0.50400001928E-02 0. -1.
    10030    2    1    2    0    0  0.00000000000E+00  0.00000000000E+00 -0.13099462130E+04  0.19156892763E+04  0.13978219924E+04 0.  0.
        3    1    3    3  502    0  0.53594855577E+03  0.34569836677E+03 -0.10467687281E+04  0.12257540519E+04  0.10100000352E+00 0. -1.
       -3    1    3    3    0  502 -0.53594855577E+03 -0.34569836677E+03 -0.26317748489E+03  0.68993522448E+03  0.10100000352E+00 0.  1.
</event>
<event>
 5   0  0.1644571E-03  0.1417744E+04  0.7818609E-02  0.8941074E-01
        1   -1    0    0  501    0  0.00000000000E+00  0.00000000000E+00  0.12223020315E+04  0.12223020315E+04  0.50400001928E-02 0.  1.
       -1   -1    0    0    0  501  0.00000000000E+00  0.00000000000E+00 -0.41110899596E+03  0.41110899599E+03  0.50400001928E-02 0. -1.
    10030    2    1    2    0    0  0.00000000000E+00  0.00000000000E+00  0.81119303552E+03  0.16334110275E+04  0.14177437864E+04 0.  0.
        4    1    3    3  502    0 -0.89797500042E+02  0.37584886869E+03 -0.27908835197E+03  0.47667377126E+03  0.12699999809E+01 0. -1.
       -4    1    3    3    0  502  0.89797500042E+02 -0.37584886869E+03  0.10902813875E+04  0.11567372562E+04  0.12699999809E+01 0.  1.
</event>
<event>
 5   0  0.1700207E-03  0.1370689E+04  0.7818609E-02  0.8975313E-01
        1   -1    0    0  501    0  0.00000000000E+00  0.00000000000E+00  0.13622860956E+04  0.13622860956E+04  0.50400001928E-02 0. -1.
       -1   -1    0    0    0  501  0.00000000000E+00  0.00000000000E+00 -0.34478588307E+03  0.34478588311E+03  0.50400001928E-02 0.  1.
    10030    2    1    2    0    0  0.00000000000E+00  0.00000000000E+00  0.10175002125E+04  0.17070719787E+04  0.13706888991E+04 0.  0.
        2    1    3    3  502    0 -0.29311046772E+03  0.16395124612E+03 -0.23527603327E+03  0.41005922649E+03  0.25500000920E-02 0.  1.
       -2    1    3    3    0  502  0.29311046772E+03 -0.16395124612E+03  0.12527762458E+04  0.12970127522E+04  0.25500000920E-02 0. -1.
</event>
<event>
 5   0  0.3006737E-03  0.1415852E+04  0.7818609E-02  0.8942424E-01
       -2   -1    0    0    0  501  0.00000000000E+00  0.00000000000E+00  0.24760111546E+03  0.24760111547E+03  0.25500000920E-02 0. -1.
        2   -1    0    0  501    0  0.00000000000E+00  0.00000000000E+00 -0.20240576855E+04  0.20240576855E+04  0.25500000920E-02 0.  1.
    10030    2    1    2    0    0  0.00000000000E+00  0.00000000000E+00 -0.17764565700E+04  0.22716588009E+04  0.14158516034E+04 0.  0.
        1    1    3    3  502    0 -0.59612024491E+03 -0.36304186635E+03 -0.10780703489E+04  0.12842875147E+04  0.50400001928E-02 0.  1.
       -1    1    3    3    0  502  0.59612024491E+03  0.36304186635E+03 -0.69838622108E+03  0.98737128626E+03  0.50400001928E-02 0. -1.
</event>
<event>
 5   0  0.1586022E-03  0.1394806E+04  0.7818609E-02  0.8957587E-01
        1   -1    0    0  501    0  0.00000000000E+00  0.00000000000E+00  0.97935531333E+03  0.97935531335E+03  0.50400001928E-02 0.  1.
       -1   -1    0    0    0  501  0.00000000000E+00  0.00000000000E+00 -0.49662375759E+03  0.49662375761E+03  0.50400001928E-02 0. -1.
    10030    2    1    2    0    0  0.00000000000E+00  0.00000000000E+00  0.48273155575E+03  0.14759790710E+04  0.13948062457E+04 0.  0.
        1    1    3    3  502    0  0.59461854090E+03  0.30879962902E+03  0.36603538831E+02  0.67102029712E+03  0.50400001928E-02 0.  1.
       -1    1    3    3    0  502 -0.59461854090E+03 -0.30879962902E+03  0.44612801692E+03  0.80495877384E+03  0.50400001928E-02 0. -1.
</event>
<event>
 5   0  0.3006737E-03  0.1367059E+04  0.7818609E-02  0.8978014E-01
       -2   -1    0    0    0  501  0.00000000000E+00  0.00000000000E+00  0.33211686030E+03  0.33211686031E+03  0.25500000920E-02 0. -1.
        2   -1    0    0  501    0  0.00000000000E+00  0.00000000000E+00 -0.14067714899E+04  0.14067714899E+04  0.25500000920E-02 0.  1.
    10030    2    1    2    0    0  0.00000000000E+00  0.00000000000E+00 -0.10746546296E+04  0.17388883503E+04  0.13670589313E+04 0.  0.
        1    1    3    3  502    0  0.50353495467E+03 -0.27454268689E+03 -0.64304555923E+02  0.57711022642E+03  0.50400001928E-02 0. -1.
       -1    1    3    3    0  502 -0.50353495467E+03  0.27454268689E+03 -0.10103500737E+04  0.11617781238E+04  0.50400001928E-02 0.  1.
</event>
<event>
 5   0  0.2917809E-03  0.1396006E+04  0.7818609E-02  0.8956715E-01
       -2   -1    0    0    0  501  0.00000000000E+00  0.00000000000E+00  0.46803362579E+03  0.46803362580E+03  0.25500000920E-02 0. -1.
        2   -1    0    0  501    0  0.00000000000E+00  0.00000000000E+00 -0.10409682154E+04  0.10409682154E+04  0.25500000920E-02 0.  1.
    10030    2    1    2    0    0  0.00000000000E+00  0.00000000000E+00 -0.57293458959E+03  0.15090018412E+04  0.13960059143E+04 0.  0.
        2    1    3    3  502    0  0.19016871853E+03  0.33230136584E+03  0.34439918037E+03  0.51497488744E+03  0.25500000920E-02 0. -1.
       -2    1    3    3    0  502 -0.19016871853E+03 -0.33230136584E+03 -0.91733376996E+03  0.99402695374E+03  0.25500000920E-02 0.  1.
</event>
<event>
 5   0  0.2760807E-03  0.1449735E+04  0.7818609E-02  0.8918584E-01
       -2   -1    0    0    0  501  0.00000000000E+00  0.00000000000E+00  0.10480384079E+04  0.10480384079E+04  0.25500000920E-02 0. -1.
        2   -1    0    0  501    0  0.00000000000E+00  0.00000000000E+00 -0.50134902670E+03  0.50134902671E+03  0.25500000920E-02 0.  1.
    10030    2    1    2    0    0  0.00000000000E+00  0.00000000000E+00  0.54668938115E+03  0.15493874346E+04  0.14497351975E+04 0.  0.
        4    1    3    3  502    0 -0.42513426297E+03  0.55639269644E+03  0.47362819921E+03  0.84536220532E+03  0.12699999809E+01 0.  1.
       -4    1    3    3    0  502  0.42513426297E+03 -0.55639269644E+03  0.73061181944E+02  0.70402522924E+03  0.12699999809E+01 0. -1.
</event>
<event>
 5   0  0.1644571E-03  0.1434951E+04  0.7818609E-02  0.8928901E-01
        1   -1    0    0  501    0  0.00000000000E+00  0.00000000000E+00  0.96498806537E+03  0.96498806539E+03  0.50400001928E-02 0. -1.
       -1   -1    0    0    0  501  0.00000000000E+00  0.00000000000E+00 -0.53344797572E+03  0.53344797574E+03  0.50400001928E-02 0.  1.
    10030    2    1    2    0    0  0.00000000000E+00  0.00000000000E+00  0.43154008966E+03  0.14984360411E+04  0.14349507728E+04 0.  0.
        4    1    3    3  502    0  0.54092742749E+02  0.69735508228E+03  0.38265020041E+03  0.79727844845E+03  0.12699999809E+01 0. -1.
       -4    1    3    3    0  502 -0.54092742749E+02 -0.69735508228E+03  0.48889889250E+02  0.70115759268E+03  0.12699999809E+01 0.  1.
</event>
<event>
 5   0  0.1586022E-03  0.1409093E+04  0.7818609E-02  0.8947262E-01
        1   -1    0    0  501    0  0.00000000000E+00  0.00000000000E+00  0.94693933130E+03  0.94693933131E+03  0.50400001928E-02 0. -1.
       -1   -1    0    0    0  501  0.00000000000E+00  0.00000000000E+00 -0.52420053292E+03  0.52420053295E+03  0.50400001928E-02 0.  1.
    10030    2    1    2    0    0  0.00000000000E+00  0.00000000000E+00  0.42273879837E+03  0.14711398643E+04  0.14090934705E+04 0.  0.
        1    1    3    3  502    0  0.91755003697E+02 -0.22717441567E+03 -0.47829226178E+03  0.53739248556E+03  0.50400001928E-02 0.  1.
       -1    1    3    3    0  502 -0.91755003697E+02  0.22717441567E+03  0.90103106015E+03  0.93374737869E+03  0.50400001928E-02 0. -1.
</event>
<event>
 5   0  0.2760807E-03  0.1248876E+04  0.7818609E-02  0.9071119E-01
       -2   -1    0    0    0  501  0.00000000000E+00  0.00000000000E+00  0.94676980051E+03  0.94676980051E+03  0.25500000920E-02 0.  1.
        2   -1    0    0  501    0  0.00000000000E+00  0.00000000000E+00 -0.41184525589E+03  0.41184525590E+03  0.25500000920E-02 0. -1.
    10030    2    1    2    0    0  0.00000000000E+00  0.00000000000E+00  0.53492454461E+03  0.13586150564E+04  0.12488757356E+04 0.  0.
        4    1    3    3  502    0  0.16054273019E+03  0.78108111736E+02 -0.38348636968E+03  0.42301093835E+03  0.12699999809E+01 0. -1.
       -4    1    3    3    0  502 -0.16054273019E+03 -0.78108111736E+02  0.91841091429E+03  0.93560411806E+03  0.12699999809E+01 0.  1.
</event>
<event>
 5   0  0.2889469E-03  0.1351212E+04  0.7818609E-02  0.8989911E-01
        2   -1    0    0  501    0  0.00000000000E+00  0.00000000000E+00  0.62649280227E+03  0.62649280228E+03  0.25500000920E-02 0. -1.
       -2   -1    0    0    0  501  0.00000000000E+00  0.00000000000E+00 -0.72856899485E+03  0.72856899485E+03  0.25500000920E-02 0.  1.
    10030    2    1    2    0    0  0.00000000000E+00  0.00000000000E+00 -0.10207619258E+03  0.13550617971E+04  0.13512116507E+04 0.  0.
        5    1    3    3  502    0  0.85103237702E+02  0.46478131606E+03  0.43320101550E+03  0.64105338519E+03  0.46999998093E+01 0. -1.
       -5    1    3    3    0  502 -0.85103237702E+02 -0.46478131606E+03 -0.53527720808E+03  0.71400841194E+03  0.46999998093E+01 0.  1.
</event>
<event>
 5   0  0.1700207E-03  0.1267434E+04  0.7818609E-02  0.9055796E-01
       -1   -1    0    0    0  501  0.00000000000E+00  0.00000000000E+00  0.39123981470E+03  0.39123981473E+03  0.50400001928E-02 0. -1.
        1   -1    0    0  501    0  0.00000000000E+00  0.00000000000E+00 -0.10264735677E+04  0.10264735677E+04  0.50400001928E-02 0.  1.
    10030    2    1    2    0    0  0.00000000000E+00  0.00000000000E+00 -0.63523375298E+03  0.14177133824E+04  0.12674341457E+04 0.  0.
        2    1    3    3  502    0 -0.62014937810E+03  0.11064932825E+03 -0.24037234443E+03  0.67424579269E+03  0.25500000920E-02 0.  1.
       -2    1    3    3    0  502  0.62014937810E+03 -0.11064932825E+03 -0.39486140855E+03  0.74346758972E+03  0.25500000920E-02 0. -1.
</event>
<event>
 5   0  0.1104538E-03  0.1402541E+04  0.7818609E-02  0.8951981E-01
       -3   -1    0    0    0  501  0.00000000000E+00  0.00000000000E+00  0.53120708816E+03  0.53120709776E+03  0.10100000352E+00 0. -1.
        3   -1    0    0  501    0  0.00000000000E+00  0.00000000000E+00 -0.92577936289E+03  0.92577936840E+03  0.10100000352E+00 0.  1.
    10030    2    1    2    0    0  0.00000000000E+00  0.00000000000E+00 -0.39457227473E+03  0.14569864662E+04  0.14025413657E+04 0.  0.
        5    1    3    3  502    0 -0.81770547123E+01  0.39736518762E+02  0.52997065119E+03  0.53154194215E+03  0.46999998093E+01 0. -1.
       -5    1    3    3    0  502  0.81770547123E+01 -0.39736518762E+02 -0.92454292592E+03  0.92544452401E+03  0.46999998093E+01 0.  1.
</event>
<event>
 5   0  0.1631380E-03  0.1401831E+04  0.7818609E-02  0.8952494E-01
       -1   -1    0    0    0  501  0.00000000000E+00  0.00000000000E+00  0.43902172586E+03  0.43902172589E+03  0.50400001928E-02 0.  1.
        1   -1    0    0  501    0  0.00000000000E+00  0.00000000000E+00 -0.11190399201E+04  0.11190399201E+04  0.50400001928E-02 0. -1.
    10030    2    1    2    0    0  0.00000000000E+00  0.00000000000E+00 -0.68001819422E+03  0.15580616460E+04  0.14018314265E+04 0.  0.
        3    1    3    3  502    0  0.21140954946E+03  0.49692164302E+03 -0.83663788188E+03  0.99578515379E+03  0.10100000352E+00 0. -1.
       -3    1    3    3    0  502 -0.21140954946E+03 -0.49692164302E+03  0.15661968767E+03  0.56227649219E+03  0.10100000352E+00 0.  1.
</event>
<event>
 5   0  0.2917809E-03  0.1414967E+04  0.7818609E-02  0.8943055E-01
        2   -1    0    0  501    0  0.00000000000E+00  0.00000000000E+00  0.12890526911E+04  0.12890526911E+04  0.25500000920E-02 0.  1.
       -2   -1    0    0    0  501  0.00000000000E+00  0.00000000000E+00 -0.38829526178E+03  0.38829526178E+03  0.25500000920E-02 0. -1.
    10030    2    1    2    0    0  0.00000000000E+00  0.00000000000E+00  0.90075742931E+03  0.16773479529E+04  0.14149672111E+04 0.  0.
        2    1    3    3  502    0 -0.63365300616E+03  0.31260293923E+03  0.40769784279E+03  0.81575379917E+03  0.25500000920E-02 0.  1.
       -2    1    3    3    0  502  0.63365300616E+03 -0.31260293923E+03  0.49305958652E+03  0.86159415371E+03  0.25500000920E-02 0. -1.
</event>
<event>
 5   0  0.2760807E-03  0.1394169E+04  0.7818609E-02  0.8958050E-01
        2   -1    0    0  501    0  0.00000000000E+00  0.00000000000E+00  0.16900992753E+04  0.16900992753E+04  0.25500000920E-02 0. -1.
       -2   -1    0    0    0  501  0.00000000000E+00  0.00000000000E+00 -0.28751365002E+03  0.28751365003E+03  0.25500000920E-02 0.  1.
    10030    2    1    2    0    0  0.00000000000E+00  0.00000000000E+00  0.14025856253E+04  0.19776129253E+04  0.13941687294E+04 0.  0.
        4    1    3    3  502    0  0.58777548938E+03  0.40436828825E+02  0.12297819611E+04  0.13636276793E+04  0.12699999809E+01 0. -1.
       -4    1    3    3    0  502 -0.58777548938E+03 -0.40436828825E+02  0.17280366413E+03  0.61398524598E+03  0.12699999809E+01 0.  1.
</event>
<event>
 5   0  0.1586022E-03  0.1394006E+04  0.7818609E-02  0.8958169E-01
        1   -1    0    0  501    0  0.00000000000E+00  0.00000000000E+00  0.10248578430E+04  0.10248578430E+04  0.50400001928E-02 0. -1.
       -1   -1    0    0    0  501  0.00000000000E+00  0.00000000000E+00 -0.47402973632E+03  0.47402973635E+03  0.50400001928E-02 0.  1.
    10030    2    1    2    0    0  0.00000000000E+00  0.00000000000E+00  0.55082810669E+03  0.14988875794E+04  0.13940058725E+04 0.  0.
        1    1    3    3  502    0 -0.14089339104E+03  0.47748090365E+03 -0.24911474011E+03  0.55668403493E+03  0.50400001928E-02 0.  1.
       -1    1    3    3    0  502  0.14089339104E+03 -0.47748090365E+03  0.79994284680E+03  0.94220354444E+03  0.50400001928E-02 0. -1.
</event>
<event>
 5   0  0.1586022E-03  0.1396431E+04  0.7818609E-02  0.8956406E-01
       -1   -1    0    0    0  501  0.00000000000E+00  0.00000000000E+00  0.35246816996E+03  0.35246816999E+03  0.50400001928E-02 0.  1.
        1   -1    0    0  501    0  0.00000000000E+00  0.00000000000E+00 -0.13831164934E+04  0.13831164934E+04  0.50400001928E-02 0. -1.
    10030    2    1    2    0    0  0.00000000000E+00  0.00000000000E+00 -0.10306483234E+04  0.17355846634E+04  0.13964305057E+04 0.  0.
        1    1    3    3  502    0  0.14975481496E+03 -0.35905814157E+03  0.20527947304E+03  0.43987374974E+03  0.50400001928E-02 0.  1.
       -1    1    3    3    0  502 -0.14975481496E+03  0.35905814157E+03 -0.12359277965E+04  0.12957109136E+04  0.50400001928E-02 0. -1.
</event>
<event>
 5   0  0.2993993E-03  0.1338018E+04  0.7818609E-02  0.8999948E-01
       -2   -1    0    0    0  501  0.00000000000E+00  0.00000000000E+00  0.30918827391E+03  0.30918827392E+03  0.25500000920E-02 0. -1.
        2   -1    0    0  501    0  0.00000000000E+00  0.00000000000E+00 -0.14475739848E+04  0.14475739848E+04  0.25500000920E-02 0.  1.
    10030    2    1    2    0    0  0.00000000000E+00  0.00000000000E+00 -0.11383857109E+04  0.17567622588E+04  0.13380177902E+04 0.  0.
        3    1    3    3  502    0  0.98378390733E+02  0.18715110288E+03 -0.14025536329E+04  0.14184007002E+04  0.10100000352E+00 0.  1.
       -3    1    3    3    0  502 -0.98378390733E+02 -0.18715110288E+03  0.26416792198E+03  0.33836155851E+03  0.10100000352E+00 0. -1.
</event>
<event>
 5   0  0.1644571E-03  0.1402501E+04  0.7818609E-02  0.8952011E-01
        1   -1    0    0  501    0  0.00000000000E+00  0.00000000000E+00  0.86556192417E+03  0.86556192419E+03  0.50400001928E-02 0. -1.
       -1   -1    0    0    0  501  0.00000000000E+00  0.00000000000E+00 -0.56813026638E+03  0.56813026640E+03  0.50400001928E-02 0.  1.
    10030    2    1    2    0    0  0.00000000000E+00  0.00000000000E+00  0.29743165780E+03  0.14336921906E+04  0.14025005192E+04 0.  0.
        4    1    3    3  502    0 -0.24181089063E+03 -0.47904050109E+03  0.61019579627E+03  0.81258404563E+03  0.12699999809E+01 0. -1.
       -4    1    3    3    0  502  0.24181089063E+03  0.47904050109E+03 -0.31276413848E+03  0.62110814496E+03  0.12699999809E+01 0.  1.
</event>
<event>
 5   0  0.1586022E-03  0.1475764E+04  0.7818609E-02  0.8900732E-01
        1   -1    0    0  501    0  0.00000000000E+00  0.00000000000E+00  0.28638140128E+03  0.28638140132E+03  0.50400001928E-02 0.  1.
       -1   -1    0    0    0  501  0.00000000000E+00  0.00000000000E+00 -0.19012040655E+04  0.19012040655E+04  0.50400001928E-02 0. -1.
    10030    2    1    2    0    0  0.00000000000E+00  0.00000000000E+00 -0.16148226643E+04  0.21875854669E+04  0.14757635101E+04 0.  0.
        1    1    3    3  502    0 -0.46864999139E+03  0.54652732586E+03 -0.10470952332E+04  0.12707215902E+04  0.50400001928E-02 0. -1.
       -1    1    3    3    0  502  0.46864999139E+03 -0.54652732586E+03 -0.56772743103E+03  0.91686387666E+03  0.50400001928E-02 0.  1.
</event>
<event>
 5   0  0.1586022E-03  0.1406974E+04  0.7818609E-02  0.8948786E-01
        1   -1    0    0  501    0  0.00000000000E+00  0.00000000000E+00  0.30012796900E+03  0.30012796904E+03  0.50400001928E-02 0. -1.
       -1   -1    0    0    0  501  0.00000000000E+00  0.00000000000E+00 -0.16489424727E+04  0.16489424727E+04  0.50400001928E-02 0.  1.
    10030    2    1    2    0    0  0.00000000000E+00  0.00000000000E+00 -0.13488145037E+04  0.19490704417E+04  0.14069737103E+04 0.  0.
        1    1    3    3  502    0  0.58305565276E+03  0.39119700826E+03 -0.61394812148E+03  0.93269571103E+03  0.50400001928E-02 0. -1.
       -1    1    3    3    0  502 -0.58305565276E+03 -0.39119700826E+03 -0.73486638222E+03  0.10163747307E+04  0.50400001928E-02 0.  1.
</event>
<event>
 5   0  0.1631380E-03  0.1386486E+04  0.7818609E-02  0.8963659E-01
        1   -1    0    0  501    0  0.00000000000E+00  0.00000000000E+00  0.98788696200E+03  0.98788696201E+03  0.50400001928E-02 0. -1.
       -1   -1    0    0    0  501  0.00000000000E+00  0.00000000000E+00 -0.48647842814E+03  0.48647842817E+03  0.50400001928E-02 0.  1.
    10030    2    1    2    0    0  0.00000000000E+00  0.00000000000E+00  0.50140853386E+03  0.14743653902E+04  0.13864857684E+04 0.  0.
        3    1    3    3  502    0  0.65391031745E+03  0.22722372694E+03  0.28986739284E+03  0.75050145968E+03  0.10100000352E+00 0.  1.
       -3    1    3    3    0  502 -0.65391031745E+03 -0.22722372694E+03  0.21154114102E+03  0.72386393051E+03  0.10100000352E+00 0. -1.
</event>
<event>
 5   0  0.2889469E-03  0.1371212E+04  0.7818609E-02  0.8974925E-01
        2   -1    0    0  501    0  0.00000000000E+00  0.00000000000E+00  0.71272719352E+03  0.71272719353E+03  0.25500000920E-02 0.  1.
       -2   -1    0    0    0  501  0.00000000000E+00  0.00000000000E+00 -0.65951656407E+03  0.65951656407E+03  0.25500000920E-02 0. -1.
    10030    2    1    2    0    0  0.00000000000E+00  0.00000000000E+00  0.53210629456E+02  0.13722437576E+04  0.13712117120E+04 0.  0.
        5    1    3    3  502    0  0.66098485261E+03 -0.12900376541E+02  0.20830712293E+03  0.69316761505E+03  0.46999998093E+01 0.  1.
       -5    1    3    3    0  502 -0.66098485261E+03  0.12900376541E+02 -0.15509649348E+03  0.67907614255E+03  0.46999998093E+01 0. -1.
</event>
<event>
 5   0  0.1644571E-03  0.8253337E+03  0.7818609E-02  0.9524055E-01
       -1   -1    0    0    0  501  0.00000000000E+00  0.00000000000E+00  0.46603031812E+03  0.46603031814E+03  0.50400001928E-02 0.  1.
        1   -1    0    0  501    0  0.00000000000E+00  0.00000000000E+00 -0.36541385265E+03  0.36541385268E+03  0.50400001928E-02 0. -1.
    10030    2    1    2    0    0  0.00000000000E+00  0.00000000000E+00  0.10061646547E+03  0.83144417083E+03  0.82533371195E+03 0.  0.
        4    1    3    3  502    0 -0.25503132680E+03  0.29776732452E+03 -0.79431759071E+02  0.40002171747E+03  0.12699999809E+01 0. -1.
       -4    1    3    3    0  502  0.25503132680E+03 -0.29776732452E+03  0.18004822454E+03  0.43142245336E+03  0.12699999809E+01 0.  1.
</event>
<event>
 5   0  0.1586022E-03  0.1372233E+04  0.7818609E-02  0.8974167E-01
        1   -1    0    0  501    0  0.00000000000E+00  0.00000000000E+00  0.73678278973E+03  0.73678278975E+03  0.50400001928E-02 0. -1.
       -1   -1    0    0    0  501  0.00000000000E+00  0.00000000000E+00 -0.63893412631E+03  0.63893412633E+03  0.50400001928E-02 0.  1.
    10030    2    1    2    0    0  0.00000000000E+00  0.00000000000E+00  0.97848663424E+02  0.13757169161E+04  0.13722327325E+04 0.  0.
        1    1    3    3  502    0 -0.45769289490E+03 -0.31507612514E+03 -0.35458975393E+03  0.65915828470E+03  0.50400001928E-02 0.  1.
       -1    1    3    3    0  502  0.45769289490E+03  0.31507612514E+03  0.45243841736E+03  0.71655863137E+03  0.50400001928E-02 0. -1.
</event>
<event>
 5   0  0.1586022E-03  0.9037173E+03  0.7818609E-02  0.9420947E-01
       -1   -1    0    0    0  501  0.00000000000E+00  0.00000000000E+00  0.27132271147E+03  0.27132271151E+03  0.50400001928E-02 0. -1.
        1   -1    0    0  501    0  0.00000000000E+00  0.00000000000E+00 -0.75252174963E+03  0.75252174964E+03  0.50400001928E-02 0.  1.
    10030    2    1    2    0    0  0.00000000000E+00  0.00000000000E+00 -0.48119903816E+03  0.10238444612E+04  0.90371730442E+03 0.  0.
        1    1    3    3  502    0 -0.32798566925E+03  0.16109920605E+03 -0.54172911256E+03  0.65345082817E+03  0.50400001928E-02 0.  1.
       -1    1    3    3    0  502  0.32798566925E+03 -0.16109920605E+03  0.60530074396E+02  0.37039363298E+03  0.50400001928E-02 0. -1.
</event>
<event>
 5   0  0.2889469E-03  0.1376718E+04  0.7818609E-02  0.8970846E-01
        2   -1    0    0  501    0  0.00000000000E+00  0.00000000000E+00  0.34540257413E+03  0.34540257414E+03  0.25500000920E-02 0.  1.
       -2   -1    0    0    0  501  0.00000000000E+00  0.00000000000E+00 -0.13718431112E+04  0.13718431113E+04  0.25500000920E-02 0. -1.
    10030    2    1    2    0    0  0.00000000000E+00  0.00000000000E+00 -0.10264405371E+04  0.17172456854E+04  0.13767180422E+04 0.  0.
        5    1    3    3  502    0  0.44305500849E+03  0.22603167339E+03  0.80323144131E+02  0.50384715480E+03  0.46999998093E+01 0.  1.
       -5    1    3    3    0  502 -0.44305500849E+03 -0.22603167339E+03 -0.11067636812E+04  0.12133985306E+04  0.46999998093E+01 0. -1.
</event>
<event>
 5   0  0.2760807E-03  0.1403618E+04  0.7818609E-02  0.8951204E-01
       -2   -1    0    0    0  501  0.00000000000E+00  0.00000000000E+00  0.29840038770E+03  0.29840038771E+03  0.25500000920E-02 0.  1.
        2   -1    0    0  501    0  0.00000000000E+00  0.00000000000E+00 -0.16505874717E+04  0.16505874717E+04  0.25500000920E-02 0. -1.
    10030    2    1    2    0    0  0.00000000000E+00  0.00000000000E+00 -0.13521870840E+04  0.19489878594E+04  0.14036180983E+04 0.  0.
        4    1    3    3  502    0 -0.13642826897E+03  0.12224041486E+03  0.26461817267E+03  0.32183812982E+03  0.12699999809E+01 0.  1.
       -4    1    3    3    0  502  0.13642826897E+03 -0.12224041486E+03 -0.16168052567E+04  0.16271497296E+04  0.12699999809E+01 0. -1.
</event>
<event>
 5   0  0.1560957E-03  0.1476682E+04  0.7818609E-02  0.8900109E-01
        1   -1    0    0  501    0  0.00000000000E+00  0.00000000000E+00  0.50488452686E+03  0.50488452688E+03  0.50400001928E-02 0.  1.
       -1   -1    0    0    0  501  0.00000000000E+00  0.00000000000E+00 -0.10797469225E+04  0.10797469225E+04  0.50400001928E-02 0. -1.
    10030    2    1    2    0    0  0.00000000000E+00  0.00000000000E+00 -0.57486239565E+03  0.15846314494E+04  0.14766821109E+04 0.  0.
        5    1    3    3  502    0  0.43332725005E+02  0.54882763550E+03  0.24050467618E+03  0.60079454709E+03  0.46999998093E+01 0.  1.
       -5    1    3    3    0  502 -0.43332725005E+02 -0.54882763550E+03 -0.81536707183E+03  0.98383690232E+03  0.46999998093E+01 0. -1.
</event>
<event>
 5   0  0.2760807E-03  0.1371984E+04  0.7818609E-02  0.8974351E-01
        2   -1    0    0  501    0  0.00000000000E+00  0.00000000000E+00  0.14324070621E+04  0.14324070621E+04  0.25500000920E-02 0. -1.
       -2   -1    0    0    0  501  0.00000000000E+00  0.00000000000E+00 -0.32852749541E+03  0.32852749542E+03  0.25500000920E-02 0.  1.
    10030    2    1    2    0    0  0.00000000000E+00  0.00000000000E+00  0.11038795667E+04  0.17609345575E+04  0.13719841173E+04 0.  0.
        4    1    3    3  502    0  0.75946832292E+02 -0.51505914140E+03 -0.21381222580E+02  0.52106871913E+03  0.12699999809E+01 0.  1.
       -4    1    3    3    0  502 -0.75946832292E+02  0.51505914140E+03  0.11252607893E+04  0.12398658384E+04  0.12699999809E+01 0. -1.
</event>
<event>
 5   0  0.1631380E-03  0.1478276E+04  0.7818609E-02  0.8899029E-01
        1   -1    0    0  501    0  0.00000000000E+00  0.00000000000E+00  0.22098938516E+04  0.22098938516E+04  0.50400001928E-02 0.  1.
       -1   -1    0    0    0  501  0.00000000000E+00  0.00000000000E+00 -0.24721780473E+03  0.24721780479E+03  0.50400001928E-02 0. -1.
    10030    2    1    2    0    0  0.00000000000E+00  0.00000000000E+00  0.19626760468E+04  0.24571116563E+04  0.14782761674E+04 0.  0.
        3    1    3    3  502    0  0.19575736007E+03  0.60303469616E+03  0.16128515929E+04  0.17329922273E+04  0.10100000352E+00 0.  1.
       -3    1    3    3    0  502 -0.19575736007E+03 -0.60303469616E+03  0.34982445388E+03  0.72411942905E+03  0.10100000352E+00 0. -1.
</event>
<event>
 5   0  0.2917809E-03  0.1426641E+04  0.7818609E-02  0.8934757E-01
       -2   -1    0    0    0  501  0.00000000000E+00  0.00000000000E+00  0.25271256885E+03  0.25271256887E+03  0.25500000920E-02 0.  1.
        2   -1    0    0  501    0  0.00000000000E+00  0.00000000000E+00 -0.20134583358E+04  0.20134583358E+04  0.25500000920E-02 0. -1.
    10030    2    1    2    0    0  0.00000000000E+00  0.00000000000E+00 -0.17607457670E+04  0.22661709047E+04  0.14266411298E+04 0.  0.
        2    1    3    3  502    0  0.50709393707E+02  0.55596326368E+03 -0.17505170941E+03  0.58507238368E+03  0.25500000920E-02 0.  1.
       -2    1    3    3    0  502 -0.50709393707E+02 -0.55596326368E+03 -0.15856940576E+04  0.16810985210E+04  0.25500000920E-02 0. -1.
</event>
<event>
 5   0  0.3006737E-03  0.1396753E+04  0.7818609E-02  0.8956172E-01
        2   -1    0    0  501    0  0.00000000000E+00  0.00000000000E+00  0.48032174456E+03  0.48032174457E+03  0.25500000920E-02 0.  1.
       -2   -1    0    0    0  501  0.00000000000E+00  0.00000000000E+00 -0.10154225980E+04  0.10154225980E+04  0.25500000920E-02 0. -1.
    10030    2    1    2    0    0  0.00000000000E+00  0.00000000000E+00 -0.53510085343E+03  0.14957443426E+04  0.13967527394E+04 0.  0.
        1    1    3    3  502    0  0.10501734005E+03  0.59460537354E+03  0.10824099880E+03  0.61343321218E+03  0.50400001928E-02 0.  1.
       -1    1    3    3    0  502 -0.10501734005E+03 -0.59460537354E+03 -0.64334185223E+03  0.88231113039E+03  0.50400001928E-02 0. -1.
</event>
<event>
 5   0  0.1644571E-03  0.1366179E+04  0.7818609E-02  0.8978671E-01
        1   -1    0    0  501    0  0.00000000000E+00  0.00000000000E+00  0.65741463340E+03  0.65741463342E+03  0.50400001928E-02 0. -1.
       -1   -1    0    0    0  501  0.00000000000E+00  0.00000000000E+00 -0.70976686709E+03  0.70976686711E+03  0.50400001928E-02 0.  1.
    10030    2    1    2    0    0  0.00000000000E+00  0.00000000000E+00 -0.52352233695E+02  0.13671815005E+04  0.13661787947E+04 0.  0.
        4    1    3    3  502    0  0.34233587050E+03 -0.20041669374E+02  0.56503154567E+03  0.66095217470E+03  0.12699999809E+01 0. -1.
       -4    1    3    3    0  502 -0.34233587050E+03  0.20041669374E+02 -0.61738377936E+03  0.70622932583E+03  0.12699999809E+01 0.  1.
</event>
<event>
 5   0  0.3006737E-03  0.1370685E+04  0.7818609E-02  0.8975316E-01
        2   -1    0    0  501    0  0.00000000000E+00  0.00000000000E+00  0.13262283006E+04  0.13262283006E+04  0.25500000920E-02 0.  1.
       -2   -1    0    0    0  501  0.00000000000E+00  0.00000000000E+00 -0.35415785361E+03  0.35415785362E+03  0.25500000920E-02 0. -1.
    10030    2    1    2    0    0  0.00000000000E+00  0.00000000000E+00  0.97207044701E+03  0.16803861542E+04  0.13706847462E+04 0.  0.
        1    1    3    3  502    0 -0.47191092327E+03 -0.32264144678E+02 -0.12195671174E+03  0.48848166199E+03  0.50400001928E-02 0. -1.
       -1    1    3    3    0  502  0.47191092327E+03  0.32264144678E+02  0.10940271587E+04  0.11919044922E+04  0.50400001928E-02 0.  1.
</event>
<event>
 5   0  0.1104538E-03  0.1394920E+04  0.7818609E-02  0.8957504E-01
        4   -1    0    0  501    0  0.00000000000E+00  0.00000000000E+00  0.48814173726E+03  0.48814338934E+03  0.12699999809E+01 0.  1.
       -4   -1    0    0    0  501  0.00000000000E+00  0.00000000000E+00 -0.99653164153E+03  0.99653245078E+03  0.12699999809E+01 0. -1.
    10030    2    1    2    0    0  0.00000000000E+00  0.00000000000E+00 -0.50838990427E+03  0.14846758401E+04  0.13949200893E+04 0.  0.
        5    1    3    3  502    0  0.12506216738E+03  0.63789323894E+03  0.14812979546E+02  0.65022291897E+03  0.46999998093E+01 0.  1.
       -5    1    3    3    0  502 -0.12506216738E+03 -0.63789323894E+03 -0.52320288381E+03  0.83445292115E+03  0.46999998093E+01 0. -1.
</event>
<event>
 5   0  0.2760807E-03  0.1743769E+04  0.7818609E-02  0.8736788E-01
        2   -1    0    0  501    0  0.00000000000E+00  0.00000000000E+00  0.11319585525E+04  0.11319585525E+04  0.25500000920E-02 0. -1.
       -2   -1    0    0    0  501  0.00000000000E+00  0.00000000000E+00 -0.67156394794E+03  0.67156394795E+03  0.25500000920E-02 0.  1.
    10030    2    1    2    0    0  0.00000000000E+00  0.00000000000E+00  0.46039460459E+03  0.18035225005E+04  0.17437689692E+04 0.  0.
        4    1    3    3  502    0 -0.84612186691E+03 -0.77872309727E+02  0.43232870076E+03  0.95336038762E+03  0.12699999809E+01 0. -1.
       -4    1    3    3    0  502  0.84612186691E+03  0.77872309727E+02  0.28065903823E+02  0.85016211286E+03  0.12699999809E+01 0.  1.
</event>
<event>
 5   0  0.2993993E-03  0.1410937E+04  0.7818609E-02  0.8945939E-01
        2   -1    0    0  501    0  0.00000000000E+00  0.00000000000E+00  0.23598266471E+04  0.23598266471E+04  0.25500000920E-02 0. -1.
       -2   -1    0    0    0  501  0.00000000000E+00  0.00000000000E+00 -0.21089936225E+03  0.21089936226E+03  0.25500000920E-02 0.  1.
    10030    2    1    2    0    0  0.00000000000E+00  0.00000000000E+00  0.21489272849E+04  0.25707260094E+04  0.14109371849E+04 0.  0.
        3    1    3    3  502    0 -0.76755976623E+02 -0.31703367163E+02  0.23508897350E+04  0.23523560827E+04  0.10100000352E+00 0. -1.
       -3    1    3    3    0  502  0.76755976623E+02  0.31703367163E+02 -0.20196245011E+03  0.21836992671E+03  0.10100000352E+00 0.  1.
</event>
<event>
 5   0  0.1700207E-03  0.1338972E+04  0.7818609E-02  0.8999218E-01
        1   -1    0    0  501    0  0.00000000000E+00  0.00000000000E+00  0.95229509076E+03  0.95229509077E+03  0.50400001928E-02 0.  1.
       -1   -1    0    0    0  501  0.00000000000E+00  0.00000000000E+00 -0.47066458381E+03  0.47066458384E+03  0.50400001928E-02 0. -1.
    10030    2    1    2    0    0  0.00000000000E+00  0.00000000000E+00  0.48163050695E+03  0.14229596746E+04  0.13389721022E+04 0.  0.
        2    1    3    3  502    0  0.34267449098E+03 -0.44721016180E+03 -0.14351662028E+03  0.58139466449E+03  0.25500000920E-02 0. -1.
       -2    1    3    3    0  502 -0.34267449098E+03  0.44721016180E+03  0.62514712723E+03  0.84156501013E+03  0.25500000920E-02 0.  1.
</event>
<event>
 5   0  0.1644571E-03  0.1419470E+04  0.7818609E-02  0.8939845E-01
       -1   -1    0    0    0  501  0.00000000000E+00  0.00000000000E+00  0.76804192144E+03  0.76804192146E+03  0.50400001928E-02 0. -1.
        1   -1    0    0  501    0  0.00000000000E+00  0.00000000000E+00 -0.65585436356E+03  0.65585436358E+03  0.50400001928E-02 0.  1.
    10030    2    1    2    0    0  0.00000000000E+00  0.00000000000E+00  0.11218755789E+03  0.14238962850E+04  0.14194698244E+04 0.  0.
        4    1    3    3  502    0 -0.44600113972E+03  0.37991831470E+03 -0.34573883376E+03  0.68028809819E+03  0.12699999809E+01 0.  1.
       -4    1    3    3    0  502  0.44600113972E+03 -0.37991831470E+03  0.45792639165E+03  0.74360818684E+03  0.12699999809E+01 0. -1.
</event>
<event>
 5   0  0.1631380E-03  0.1403370E+04  0.7818609E-02  0.8951383E-01
        1   -1    0    0  501    0  0.00000000000E+00  0.00000000000E+00  0.20446848826E+04  0.20446848826E+04  0.50400001928E-02 0. -1.
       -1   -1    0    0    0  501  0.00000000000E+00  0.00000000000E+00 -0.24080080963E+03  0.24080080969E+03  0.50400001928E-02 0.  1.
    10030    2    1    2    0    0  0.00000000000E+00  0.00000000000E+00  0.18038840729E+04  0.22854856922E+04  0.14033699088E+04 0.  0.
        3    1    3    3  502    0  0.34917550516E+03  0.40097686022E+03  0.15624953448E+03  0.55418399748E+03  0.10100000352E+00 0.  1.
       -3    1    3    3    0  502 -0.34917550516E+03 -0.40097686022E+03  0.16476345384E+04  0.17313016948E+04  0.10100000352E+00 0. -1.
</event>
<event>
 5   0  0.1631380E-03  0.1405961E+04  0.7818609E-02  0.8949515E-01
        1   -1    0    0  501    0  0.00000000000E+00  0.00000000000E+00  0.33931724584E+03  0.33931724588E+03  0.50400001928E-02 0. -1.
       -1   -1    0    0    0  501  0.00000000000E+00  0.00000000000E+00 -0.14564003366E+04  0.14564003366E+04  0.50400001928E-02 0.  1.
    10030    2    1    2    0    0  0.00000000000E+00  0.00000000000E+00 -0.11170830907E+04  0.17957175824E+04  0.14059612386E+04 0.  0.
        3    1    3    3  502    0  0.27616108142E+03 -0.64031176890E+03 -0.44489336945E+03  0.82716033794E+03  0.10100000352E+00 0.  1.
       -3    1    3    3    0  502 -0.27616108142E+03  0.64031176890E+03 -0.67218972128E+03  0.96855724450E+03  0.10100000352E+00 0. -1.
</event>
<event>
 5   0  0.3006737E-03  0.1403659E+04  0.7818609E-02  0.8951174E-01
       -2   -1    0    0    0  501  0.00000000000E+00  0.00000000000E+00  0.35543235314E+03  0.35543235315E+03  0.25500000920E-02 0.  1.
        2   -1    0    0  501    0  0.00000000000E+00  0.00000000000E+00 -0.13858180301E+04  0.13858180301E+04  0.25500000920E-02 0. -1.
    10030    2    1    2    0    0  0.00000000000E+00  0.00000000000E+00 -0.10303856770E+04  0.17412503833E+04  0.14036588809E+04 0.  0.
        1    1    3    3  502    0  0.27438905009E+03  0.60459498115E+03 -0.23302119418E+03  0.70364999752E+03  0.50400001928E-02 0.  1.
       -1    1    3    3    0  502 -0.27438905009E+03 -0.60459498115E+03 -0.79736448283E+03  0.10376003858E+04  0.50400001928E-02 0. -1.
</event>
<event>
 5   0  0.2889469E-03  0.1411232E+04  0.7818609E-02  0.8945728E-01
        2   -1    0    0  501    0  0.00000000000E+00  0.00000000000E+00  0.82371449110E+03  0.82371449111E+03  0.25500000920E-02 0.  1.
       -2   -1    0    0    0  501  0.00000000000E+00  0.00000000000E+00 -0.60444957900E+03  0.60444957900E+03  0.25500000920E-02 0. -1.
    10030    2    1    2    0    0  0.00000000000E+00  0.00000000000E+00  0.21926491211E+03  0.14281640701E+04  0.14112319120E+04 0.  0.
        5    1    3    3  502    0  0.32378239283E+02 -0.11726554651E+03 -0.59374063550E+03  0.60609371472E+03  0.46999998093E+01 0. -1.
       -5    1    3    3    0  502 -0.32378239283E+02  0.11726554651E+03  0.81300554761E+03  0.82207035539E+03  0.46999998093E+01 0.  1.
</event>
<event>
 5   0  0.2917809E-03  0.1315592E+04  0.7818609E-02  0.9017291E-01
        2   -1    0    0  501    0  0.00000000000E+00  0.00000000000E+00  0.11745628608E+04  0.11745628608E+04  0.25500000920E-02 0.  1.
       -2   -1    0    0    0  501  0.00000000000E+00  0.00000000000E+00 -0.36838877918E+03  0.36838877919E+03  0.25500000920E-02 0. -1.
    10030    2    1    2    0    0  0.00000000000E+00  0.00000000000E+00  0.80617408166E+03  0.15429516400E+04  0.13155923052E+04 0.  0.
        2    1    3    3  502    0  0.61242167874E+02 -0.40057277732E+02 -0.36359989360E+03  0.37089091557E+03  0.25500000920E-02 0. -1.
       -2    1    3    3    0  502 -0.61242167874E+02  0.40057277732E+02  0.11697739753E+04  0.11720607245E+04  0.25500000920E-02 0.  1.
</event>
<event>
 5   0  0.1586022E-03  0.1408697E+04  0.7818609E-02  0.8947547E-01
        1   -1    0    0  501    0  0.00000000000E+00  0.00000000000E+00  0.70117190512E+03  0.70117190514E+03  0.50400001928E-02 0. -1.
       -1   -1    0    0    0  501  0.00000000000E+00  0.00000000000E+00 -0.70753966109E+03  0.70753966110E+03  0.50400001928E-02 0.  1.
    10030    2    1    2    0    0  0.00000000000E+00  0.00000000000E+00 -0.63677559648E+01  0.14087115662E+04  0.14086971742E+04 0.  0.
        1    1    3    3  502    0 -0.10451713063E+03 -0.21879173465E+03  0.65811954262E+03  0.70136651342E+03  0.50400001928E-02 0. -1.
       -1    1    3    3    0  502  0.10451713063E+03  0.21879173465E+03 -0.66448729858E+03  0.70734505282E+03  0.50400001928E-02 0.  1.
</event>
<event>
 5   0  0.2917809E-03  0.1381453E+04  0.7818609E-02  0.8967354E-01
        2   -1    0    0  501    0  0.00000000000E+00  0.00000000000E+00  0.61008313885E+03  0.61008313885E+03  0.25500000920E-02 0.  1.
       -2   -1    0    0    0  501  0.00000000000E+00  0.00000000000E+00 -0.78202948729E+03  0.78202948730E+03  0.25500000920E-02 0. -1.
    10030    2    1    2    0    0  0.00000000000E+00  0.00000000000E+00 -0.17194634844E+03  0.13921126262E+04  0.13814528646E+04 0.  0.
        2    1    3    3  502    0  0.74945850656E+02 -0.68263187909E+03 -0.11240007732E+02  0.68682566978E+03  0.25500000920E-02 0.  1.
       -2    1    3    3    0  502 -0.74945850656E+02  0.68263187909E+03 -0.16070634071E+03  0.70528695638E+03  0.25500000920E-02 0. -1.
</event>
<event>
 5   0  0.1586022E-03  0.1431803E+04  0.7818609E-02  0.8931114E-01
        1   -1    0    0  501    0  0.00000000000E+00  0.00000000000E+00  0.65501105598E+03  0.65501105600E+03  0.50400001928E-02 0.  1.
       -1   -1    0    0    0  501  0.00000000000E+00  0.00000000000E+00 -0.78245236496E+03  0.78245236497E+03  0.50400001928E-02 0. -1.
    10030    2    1    2    0    0  0.00000000000E+00  0.00000000000E+00 -0.12744130898E+03  0.14374634210E+04  0.14318029890E+04 0.  0.
        1    1    3    3  502    0 -0.57414295758E+03  0.18536246680E+03  0.32318005890E+03  0.68443022313E+03  0.50400001928E-02 0.  1.
       -1    1    3    3    0  502  0.57414295758E+03 -0.18536246680E+03 -0.45062136787E+03  0.75303319784E+03  0.50400001928E-02 0. -1.
</event>
<event>
 5   0  0.1560957E-03  0.1381773E+04  0.7818609E-02  0.8967119E-01
       -1   -1    0    0    0  501  0.00000000000E+00  0.00000000000E+00  0.82056155716E+03  0.82056155718E+03  0.50400001928E-02 0.  1.
        1   -1    0    0  501    0  0.00000000000E+00  0.00000000000E+00 -0.58170391636E+03  0.58170391638E+03  0.50400001928E-02 0. -1.
    10030    2    1    2    0    0  0.00000000000E+00  0.00000000000E+00  0.23885764080E+03  0.14022654736E+04  0.13817725883E+04 0.  0.
        5    1    3    3  502    0  0.48220266198E+03 -0.48935410670E+03  0.45444013624E+02  0.68853038955E+03  0.46999998093E+01 0.  1.
       -5    1    3    3    0  502 -0.48220266198E+03  0.48935410670E+03  0.19341362718E+03  0.71373508400E+03  0.46999998093E+01 0. -1.
</event>
<event>
 5   0  0.2760807E-03  0.1407371E+04  0.7818609E-02  0.8948500E-01
        2   -1    0    0  501    0  0.00000000000E+00  0.00000000000E+00  0.10408212626E+04  0.10408212627E+04  0.25500000920E-02 0.  1.
       -2   -1    0    0    0  501  0.00000000000E+00  0.00000000000E+00 -0.47575271438E+03  0.47575271439E+03  0.25500000920E-02 0. -1.
    10030    2    1    2    0    0  0.00000000000E+00  0.00000000000E+00  0.56506854827E+03  0.15165739770E+04  0.14073713666E+04 0.  0.
        4    1    3    3  502    0 -0.13062021233E+02 -0.62935817656E+02  0.10376499718E+04  0.10396396542E+04  0.12699999809E+01 0.  1.
       -4    1    3    3    0  502  0.13062021233E+02  0.62935817656E+02 -0.47258142357E+03  0.47693432288E+03  0.12699999809E+01 0. -1.
</event>
<event>
 5   0  0.1631380E-03  0.1418142E+04  0.7818609E-02  0.8940790E-01
       -1   -1    0    0    0  501  0.00000000000E+00  0.00000000000E+00  0.75567702292E+03  0.75567702294E+03  0.50400001928E-02 0. -1.
        1   -1    0    0  501    0  0.00000000000E+00  0.00000000000E+00 -0.66533964403E+03  0.66533964405E+03  0.50400001928E-02 0.  1.
    10030    2    1    2    0    0  0.00000000000E+00  0.00000000000E+00  0.90337378895E+02  0.14210166670E+04  0.14181422798E+04 0.  0.
        3    1    3    3  502    0 -0.57308406738E+03  0.21119423926E+03  0.40611194790E+03  0.73345434718E+03  0.10100000352E+00 0. -1.
       -3    1    3    3    0  502  0.57308406738E+03 -0.21119423926E+03 -0.31577456900E+03  0.68756231980E+03  0.10100000352E+00 0.  1.
</event>
<event>
 5   0  0.1104538E-03  0.1397447E+04  0.7818609E-02  0.8955668E-01
       -3   -1    0    0    0  501  0.00000000000E+00  0.00000000000E+00  0.50647668496E+03  0.50647669503E+03  0.10100000352E+00 0.  1.
        3   -1    0    0  501    0  0.00000000000E+00  0.00000000000E+00 -0.96394298660E+03  0.96394299189E+03  0.10100000352E+00 0. -1.
    10030    2    1    2    0    0  0.00000000000E+00  0.00000000000E+00 -0.45746630164E+03  0.14704196869E+04  0.13974471863E+04 0.  0.
        4    1    3    3  502    0 -0.34482379770E+02 -0.58796624088E+02 -0.96043511210E+03  0.96285164743E+03  0.12699999809E+01 0. -1.
       -4    1    3    3    0  502  0.34482379770E+02  0.58796624088E+02  0.50296881045E+03  0.50756803949E+03  0.12699999809E+01 0.  1.
</event>
<event>
 5   0  0.1586022E-03  0.1413684E+04  0.7818609E-02  0.8943972E-01
        1   -1    0    0  501    0  0.00000000000E+00  0.00000000000E+00  0.91964399107E+03  0.91964399109E+03  0.50400001928E-02 0.  1.
       -1   -1    0    0    0  501  0.00000000000E+00  0.00000000000E+00 -0.54328188166E+03  0.54328188168E+03  0.50400001928E-02 0. -1.
    10030    2    1    2    0    0  0.00000000000E+00  0.00000000000E+00  0.37636210942E+03  0.14629258728E+04  0.14136844315E+04 0.  0.
        1    1    3    3  502    0 -0.22296859431E+02 -0.46316698661E+03  0.74024729808E+03  0.87349119616E+03  0.50400001928E-02 0.  1.
       -1    1    3    3    0  502  0.22296859431E+02  0.46316698661E+03 -0.36388518867E+03  0.58943467661E+03  0.50400001928E-02 0. -1.
</event>
<event>
 5   0  0.1700207E-03  0.1410767E+04  0.7818609E-02  0.8946061E-01
       -1   -1    0    0    0  501  0.00000000000E+00  0.00000000000E+00  0.34673772915E+03  0.34673772919E+03  0.50400001928E-02 0. -1.
        1   -1    0    0  501    0  0.00000000000E+00  0.00000000000E+00 -0.14349926295E+04  0.14349926295E+04  0.50400001928E-02 0.  1.
    10030    2    1    2    0    0  0.00000000000E+00  0.00000000000E+00 -0.10882549004E+04  0.17817303587E+04  0.14107672888E+04 0.  0.
        2    1    3    3  502    0 -0.46440376225E+03 -0.52291331716E+03 -0.66027018408E+03  0.96180346622E+03  0.25500000920E-02 0.  1.
       -2    1    3    3    0  502  0.46440376225E+03  0.52291331716E+03 -0.42798471629E+03  0.81992689250E+03  0.25500000920E-02 0. -1.
</event>
<event>
 5   0  0.1644571E-03  0.1409059E+04  0.7818609E-02  0.8947287E-01
       -1   -1    0    0    0  501  0.00000000000E+00  0.00000000000E+00  0.45763763494E+03  0.45763763497E+03  0.50400001928E-02 0.  1.
        1   -1    0    0  501    0  0.00000000000E+00  0.00000000000E+00 -0.10846173399E+04  0.10846173399E+04  0.50400001928E-02 0. -1.
    10030    2    1    2    0    0  0.00000000000E+00  0.00000000000E+00 -0.62697970495E+03  0.15422549749E+04  0.14090588551E+04 0.  0.
        4    1    3    3  502    0  0.31018614978E+03 -0.10511778452E+03  0.36924931523E+03  0.49357052772E+03  0.12699999809E+01 0.  1.
       -4    1    3    3    0  502 -0.31018614978E+03  0.10511778452E+03 -0.99622902018E+03  0.10486844471E+04  0.12699999809E+01 0. -1.
</event>
<event>
 5   0  0.1560957E-03  0.1397421E+04  0.7818609E-02  0.8955688E-01
       -1   -1    0    0    0  501  0.00000000000E+00  0.00000000000E+00  0.65982097730E+03  0.65982097732E+03  0.50400001928E-02 0.  1.
        1   -1    0    0  501    0  0.00000000000E+00  0.00000000000E+00 -0.73989179341E+03  0.73989179343E+03  0.50400001928E-02 0. -1.
    10030    2    1    2    0    0  0.00000000000E+00  0.00000000000E+00 -0.80070816110E+02  0.13997127707E+04  0.13974206614E+04 0.  0.
        5    1    3    3  502    0 -0.16721821466E+03  0.67774361150E+03 -0.10394606913E+02  0.69816077811E+03  0.46999998093E+01 0. -1.
       -5    1    3    3    0  502  0.16721821466E+03 -0.67774361150E+03 -0.69676209197E+02  0.70155199263E+03  0.46999998093E+01 0.  1.
</event>
<event>
 5   0  0.3006737E-03  0.1430939E+04  0.7818609E-02  0.8931723E-01
       -2   -1    0    0    0  501  0.00000000000E+00  0.00000000000E+00  0.42411383618E+03  0.42411383619E+03  0.25500000920E-02 0. -1.
        2   -1    0    0  501    0  0.00000000000E+00  0.00000000000E+00 -0.12069785097E+04  0.12069785097E+04  0.25500000920E-02 0.  1.
    10030    2    1    2    0    0  0.00000000000E+00  0.00000000000E+00 -0.78286467349E+03  0.16310923459E+04  0.14309385535E+04 0.  0.
        1    1    3    3  502    0 -0.49106766133E+03  0.55984747168E+02 -0.98110693869E+03  0.10985684162E+04  0.50400001928E-02 0.  1.
       -1    1    3    3    0  502  0.49106766133E+03 -0.55984747168E+02  0.19824226520E+03  0.53252392966E+03  0.50400001928E-02 0. -1.
</event>
<event>
 5   0  0.1700207E-03  0.1360149E+04  0.7818609E-02  0.8983181E-01
       -1   -1    0    0    0  501  0.00000000000E+00  0.00000000000E+00  0.53896016660E+03  0.53896016663E+03  0.50400001928E-02 0.  1.
        1   -1    0    0  501    0  0.00000000000E+00  0.00000000000E+00 -0.85813575385E+03  0.85813575387E+03  0.50400001928E-02 0. -1.
    10030    2    1    2    0    0  0.00000000000E+00  0.00000000000E+00 -0.31917558725E+03  0.13970959205E+04  0.13601485050E+04 0.  0.
        2    1    3    3  502    0  0.95168727935E+02 -0.62021694866E+03 -0.42896118021E+03  0.76008805037E+03  0.25500000920E-02 0. -1.
       -2    1    3    3    0  502 -0.95168727935E+02  0.62021694866E+03  0.10978559296E+03  0.63700787013E+03  0.25500000920E-02 0.  1.
</event>
<event>
 5   0  0.2993993E-03  0.1447751E+04  0.7818609E-02  0.8919961E-01
       -2   -1    0    0    0  501  0.00000000000E+00  0.00000000000E+00  0.21301311445E+03  0.21301311447E+03  0.25500000920E-02 0. -1.
        2   -1    0    0  501    0  0.00000000000E+00  0.00000000000E+00 -0.24599225350E+04  0.24599225350E+04  0.25500000920E-02 0.  1.
    10030    2    1    2    0    0  0.00000000000E+00  0.00000000000E+00 -0.22469094205E+04  0.26729356495E+04  0.14477510290E+04 0.  0.
        3    1    3    3  502    0 -0.16926069077E+03  0.10611418770E+03  0.16111015291E+03  0.25664351510E+03  0.10100000352E+00 0. -1.
       -3    1    3    3    0  502  0.16926069077E+03 -0.10611418770E+03 -0.24080195734E+04  0.24162921344E+04  0.10100000352E+00 0.  1.
</event>
<event>
 5   0  0.1644571E-03  0.7932268E+03  0.7818609E-02  0.9569873E-01
        1   -1    0    0  501    0  0.00000000000E+00  0.00000000000E+00  0.74330969192E+03  0.74330969194E+03  0.50400001928E-02 0.  1.
       -1   -1    0    0    0  501  0.00000000000E+00  0.00000000000E+00 -0.21162400616E+03  0.21162400622E+03  0.50400001928E-02 0. -1.
    10030    2    1    2    0    0  0.00000000000E+00  0.00000000000E+00  0.53168568577E+03  0.95493369816E+03  0.79322676419E+03 0.  0.
        4    1    3    3  502    0  0.19755206943E+03  0.32714578184E+03  0.13815776696E+03  0.40637465987E+03  0.12699999809E+01 0. -1.
       -4    1    3    3    0  502 -0.19755206943E+03 -0.32714578184E+03  0.39352791880E+03  0.54855903829E+03  0.12699999809E+01 0.  1.
</event>
<event>
 5   0  0.3006737E-03  0.1433203E+04  0.7818609E-02  0.8930129E-01
       -2   -1    0    0    0  501  0.00000000000E+00  0.00000000000E+00  0.28576048785E+03  0.28576048786E+03  0.25500000920E-02 0.  1.
        2   -1    0    0  501    0  0.00000000000E+00  0.00000000000E+00 -0.17970201753E+04  0.17970201753E+04  0.25500000920E-02 0. -1.
    10030    2    1    2    0    0  0.00000000000E+00  0.00000000000E+00 -0.15112596874E+04  0.20827806631E+04  0.14332025146E+04 0.  0.
        1    1    3    3  502    0  0.34104308224E+03 -0.62850494280E+03 -0.68764521562E+03  0.99206088001E+03  0.50400001928E-02 0.  1.
       -1    1    3    3    0  502 -0.34104308224E+03  0.62850494280E+03 -0.82361447179E+03  0.10907197831E+04  0.50400001928E-02 0. -1.
</event>
<event>
 5   0  0.1631380E-03  0.1345085E+04  0.7818609E-02  0.8994557E-01
       -1   -1    0    0    0  501  0.00000000000E+00  0.00000000000E+00  0.64782311387E+03  0.64782311389E+03  0.50400001928E-02 0. -1.
        1   -1    0    0  501    0  0.00000000000E+00  0.00000000000E+00 -0.69820535232E+03  0.69820535234E+03  0.50400001928E-02 0.  1.
    10030    2    1    2    0    0  0.00000000000E+00  0.00000000000E+00 -0.50382238452E+02  0.13460284662E+04  0.13450852248E+04 0.  0.
        3    1    3    3  502    0  0.13247311007E+03  0.29557280920E+03 -0.61501189371E+03  0.69509139690E+03  0.10100000352E+00 0.  1.
       -3    1    3    3    0  502 -0.13247311007E+03 -0.29557280920E+03  0.56462965526E+03  0.65093706933E+03  0.10100000352E+00 0. -1.
</event>
<event>
 5   0  0.2760807E-03  0.1403519E+04  0.7818609E-02  0.8951275E-01
       -2   -1    0    0    0  501  0.00000000000E+00  0.00000000000E+00  0.37613015137E+03  0.37613015138E+03  0.25500000920E-02 0. -1.
        2   -1    0    0  501    0  0.00000000000E+00  0.00000000000E+00 -0.13092972745E+04  0.13092972745E+04  0.25500000920E-02 0.  1.
    10030    2    1    2    0    0  0.00000000000E+00  0.00000000000E+00 -0.93316712317E+03  0.16854274259E+04  0.14035186954E+04 0.  0.
        4    1    3    3  502    0 -0.50904669394E+03  0.48289255727E+03 -0.48133070563E+03  0.85087873376E+03  0.12699999809E+01 0.  1.
       -4    1    3    3    0  502  0.50904669394E+03 -0.48289255727E+03 -0.45183641753E+03  0.83454869216E+03  0.12699999809E+01 0. -1.
</event>
<event>
 5   0  0.1104538E-03  0.1391569E+04  0.7818609E-02  0.8959944E-01
       -3   -1    0    0    0  501  0.00000000000E+00  0.00000000000E+00  0.41490847497E+03  0.41490848727E+03  0.10100000352E+00 0.  1.
        3   -1    0    0  501    0  0.00000000000E+00  0.00000000000E+00 -0.11668018097E+04  0.11668018141E+04  0.10100000352E+00 0. -1.
    10030    2    1    2    0    0  0.00000000000E+00  0.00000000000E+00 -0.75189333472E+03  0.15817103013E+04  0.13915688594E+04 0.  0.
        3    1    3    3  502    0  0.69177992800E+03  0.69678920026E+02 -0.34584524008E+03  0.77654591685E+03  0.10100000352E+00 0. -1.
       -3    1    3    3    0  502 -0.69177992800E+03 -0.69678920026E+02 -0.40604809464E+03  0.80516438449E+03  0.10100000352E+00 0.  1.
</event>
<event>
 5   0  0.2760807E-03  0.8988021E+03  0.7818609E-02  0.9427080E-01
       -2   -1    0    0    0  501  0.00000000000E+00  0.00000000000E+00  0.40385914459E+03  0.40385914460E+03  0.25500000920E-02 0. -1.
        2   -1    0    0  501    0  0.00000000000E+00  0.00000000000E+00 -0.50007855619E+03  0.50007855620E+03  0.25500000920E-02 0.  1.
    10030    2    1    2    0    0  0.00000000000E+00  0.00000000000E+00 -0.96219411602E+02  0.90393770080E+03  0.89880208709E+03 0.  0.
        4    1    3    3  502    0 -0.64019732947E+02 -0.34658140565E+03  0.23230684670E+03  0.42211998398E+03  0.12699999809E+01 0. -1.
       -4    1    3    3    0  502  0.64019732947E+02  0.34658140565E+03 -0.32852625830E+03  0.48181771682E+03  0.12699999809E+01 0.  1.
</event>
<event>
 5   0  0.2889469E-03  0.1410962E+04  0.7818609E-02  0.8945921E-01
       -2   -1    0    0    0  501  0.00000000000E+00  0.00000000000E+00  0.37675091234E+03  0.37675091235E+03  0.25500000920E-02 0.  1.
        2   -1    0    0  501    0  0.00000000000E+00  0.00000000000E+00 -0.13210418570E+04  0.13210418570E+04  0.25500000920E-02 0. -1.
    10030    2    1    2    0    0  0.00000000000E+00  0.00000000000E+00 -0.94429094469E+03  0.16977927694E+04  0.14109624019E+04 0.  0.
        5    1    3    3  502    0  0.16744089095E+03  0.24603241340E+03  0.29750050330E+03  0.42082899124E+03  0.46999998093E+01 0.  1.
       -5    1    3    3    0  502 -0.16744089095E+03 -0.24603241340E+03 -0.12417914480E+04  0.12769637781E+04  0.46999998093E+01 0. -1.
</event>
<event>
 5   0  0.2917809E-03  0.1415202E+04  0.7818609E-02  0.8942887E-01
       -2   -1    0    0    0  501  0.00000000000E+00  0.00000000000E+00  0.93699119916E+03  0.93699119916E+03  0.25500000920E-02 0.  1.
        2   -1    0    0  501    0  0.00000000000E+00  0.00000000000E+00 -0.53436940732E+03  0.53436940733E+03  0.25500000920E-02 0. -1.
    10030    2    1    2    0    0  0.00000000000E+00  0.00000000000E+00  0.40262179184E+03  0.14713606065E+04  0.14152023626E+04 0.  0.
        2    1    3    3  502    0  0.31247275619E+03  0.43424166920E+03 -0.28020268340E+03  0.60391936086E+03  0.25500000920E-02 0. -1.
       -2    1    3    3    0  502 -0.31247275619E+03 -0.43424166920E+03  0.68282447524E+03  0.86744124563E+03  0.25500000920E-02 0.  1.
</event>
<event>
 5   0  0.2993993E-03  0.1462787E+04  0.7818609E-02  0.8909583E-01
        2   -1    0    0  501    0  0.00000000000E+00  0.00000000000E+00  0.13527850862E+04  0.13527850862E+04  0.25500000920E-02 0.  1.
       -2   -1    0    0    0  501  0.00000000000E+00  0.00000000000E+00 -0.39543341571E+03  0.39543341572E+03  0.25500000920E-02 0. -1.
    10030    2    1    2    0    0  0.00000000000E+00  0.00000000000E+00  0.95735167052E+03  0.17482185020E+04  0.14627869666E+04 0.  0.
        3    1    3    3  502    0  0.33052014658E+03  0.38181752148E+03  0.11109747905E+04  0.12203660034E+04  0.10100000352E+00 0.  1.
       -3    1    3    3    0  502 -0.33052014658E+03 -0.38181752148E+03 -0.15362311998E+03  0.52785249852E+03  0.10100000352E+00 0. -1.
</event>
<event>
 5   0  0.2993993E-03  0.1402340E+04  0.7818609E-02  0.8952127E-01
        2   -1    0    0  501    0  0.00000000000E+00  0.00000000000E+00  0.14066855014E+04  0.14066855014E+04  0.25500000920E-02 0.  1.
       -2   -1    0    0    0  501  0.00000000000E+00  0.00000000000E+00 -0.34950186277E+03  0.34950186278E+03  0.25500000920E-02 0. -1.
    10030    2    1    2    0    0  0.00000000000E+00  0.00000000000E+00  0.10571836387E+04  0.17561873642E+04  0.14023397635E+04 0.  0.
        3    1    3    3  502    0 -0.16359728631E+03 -0.22639974453E+03 -0.27681900069E+03  0.39325524250E+03  0.10100000352E+00 0. -1.
       -3    1    3    3    0  502  0.16359728631E+03  0.22639974453E+03  0.13340026394E+04  0.13629321217E+04  0.10100000352E+00 0.  1.
</event>
<event>
 5   0  0.2917809E-03  0.1430001E+04  0.7818609E-02  0.8932384E-01
       -2   -1    0    0    0  501  0.00000000000E+00  0.00000000000E+00  0.35023758214E+03  0.35023758215E+03  0.25500000920E-02 0. -1.
        2   -1    0    0  501    0  0.00000000000E+00  0.00000000000E+00 -0.14596531929E+04  0.14596531929E+04  0.25500000920E-02 0.  1.
    10030    2    1    2    0    0  0.00000000000E+00  0.00000000000E+00 -0.11094156108E+04  0.18098907751E+04  0.14300005665E+04 0.  0.
        2    1    3    3  502    0  0.55701531259E+03 -0.37979062286E+03 -0.25328350956E+03  0.72018019404E+03  0.25500000920E-02 0. -1.
       -2    1    3    3    0  502 -0.55701531259E+03  0.37979062286E+03 -0.85613210122E+03  0.10897105810E+04  0.25500000920E-02 0.  1.
</event>
<event>
 5   0  0.1104538E-03  0.1389883E+04  0.7818609E-02  0.8961174E-01
        3   -1    0    0  501    0  0.00000000000E+00  0.00000000000E+00  0.76361999363E+03  0.76362000031E+03  0.10100000352E+00 0. -1.
       -3   -1    0    0    0  501  0.00000000000E+00  0.00000000000E+00 -0.63243996679E+03  0.63243997486E+03  0.10100000352E+00 0.  1.
    10030    2    1    2    0    0  0.00000000000E+00  0.00000000000E+00  0.13118002683E+03  0.13960599752E+04  0.13898831803E+04 0.  0.
        1    1    3    3  502    0 -0.16255558978E+02 -0.69426557585E+03  0.91683930019E+02  0.70048188846E+03  0.50400001928E-02 0.  1.
       -1    1    3    3    0  502  0.16255558978E+02  0.69426557585E+03  0.39496096816E+02  0.69557808670E+03  0.50400001928E-02 0. -1.
</event>
<event>
 5   0  0.2889469E-03  0.1367173E+04  0.7818609E-02  0.8977929E-01
       -2   -1    0    0    0  501  0.00000000000E+00  0.00000000000E+00  0.32285311642E+03  0.32285311643E+03  0.25500000920E-02 0.  1.
        2   -1    0    0  501    0  0.00000000000E+00  0.00000000000E+00 -0.14473773065E+04  0.14473773065E+04  0.25500000920E-02 0. -1.
    10030    2    1    2    0    0  0.00000000000E+00  0.00000000000E+00 -0.11245241901E+04  0.17702304230E+04  0.13671726651E+04 0.  0.
        5    1    3    3  502    0 -0.59713461597E+03  0.14021063894E+03 -0.17158211784E+03  0.63693899709E+03  0.46999998093E+01 0.  1.
       -5    1    3    3    0  502  0.59713461597E+03 -0.14021063894E+03 -0.95294207225E+03  0.11332914259E+04  0.46999998093E+01 0. -1.
</event>
<event>
 5   0  0.2993993E-03  0.1327548E+04  0.7818609E-02  0.9008000E-01
       -2   -1    0    0    0  501  0.00000000000E+00  0.00000000000E+00  0.53612661756E+03  0.53612661757E+03  0.25500000920E-02 0.  1.
        2   -1    0    0  501    0  0.00000000000E+00  0.00000000000E+00 -0.82181299864E+03  0.82181299864E+03  0.25500000920E-02 0. -1.
    10030    2    1    2    0    0  0.00000000000E+00  0.00000000000E+00 -0.28568638107E+03  0.13579396162E+04  0.13275478496E+04 0.  0.
        3    1    3    3  502    0 -0.22406630430E+03 -0.33651930469E+02  0.49534513336E+03  0.54470631765E+03  0.10100000352E+00 0.  1.
       -3    1    3    3    0  502  0.22406630430E+03  0.33651930469E+02 -0.78103151443E+03  0.81323329856E+03  0.10100000352E+00 0. -1.
</event>
<event>
 5   0  0.1644571E-03  0.1391143E+04  0.7818609E-02  0.8960255E-01
       -1   -1    0    0    0  501  0.00000000000E+00  0.00000000000E+00  0.11338415244E+04  0.11338415244E+04  0.50400001928E-02 0. -1.
        1   -1    0    0  501    0  0.00000000000E+00  0.00000000000E+00 -0.42670845244E+03  0.42670845247E+03  0.50400001928E-02 0.  1.
    10030    2    1    2    0    0  0.00000000000E+00  0.00000000000E+00  0.70713307192E+03  0.15605499768E+04  0.13911430727E+04 0.  0.
        4    1    3    3  502    0  0.10837473444E+03  0.37583480356E+02 -0.41602411327E+03  0.43154985434E+03  0.12699999809E+01 0.  1.
       -4    1    3    3    0  502 -0.10837473444E+03 -0.37583480356E+02  0.11231571852E+04  0.11290001225E+04  0.12699999809E+01 0. -1.
</event>
<event>
 5   0  0.3006737E-03  0.1381944E+04  0.7818609E-02  0.8966993E-01
       -2   -1    0    0    0  501  0.00000000000E+00  0.00000000000E+00  0.56089504121E+03  0.56089504121E+03  0.25500000920E-02 0. -1.
        2   -1    0    0  501    0  0.00000000000E+00  0.00000000000E+00 -0.85121504638E+03  0.85121504639E+03  0.25500000920E-02 0.  1.
    10030    2    1    2    0    0  0.00000000000E+00  0.00000000000E+00 -0.29032000518E+03  0.14121100876E+04  0.13819439909E+04 0.  0.
        1    1    3    3  502    0  0.16449687020E+02 -0.72658635054E+02 -0.84709939997E+03  0.85036889813E+03  0.50400001928E-02 0.  1.
       -1    1    3    3    0  502 -0.16449687020E+02  0.72658635054E+02  0.55677939479E+03  0.56174118947E+03  0.50400001928E-02 0. -1.
</event>
<event>
 5   0  0.2917809E-03  0.1458603E+04  0.7818609E-02  0.8912458E-01
       -2   -1    0    0    0  501  0.00000000000E+00  0.00000000000E+00  0.10030896801E+04  0.10030896801E+04  0.25500000920E-02 0. -1.
        2   -1    0    0  501    0  0.00000000000E+00  0.00000000000E+00 -0.53024231768E+03  0.53024231769E+03  0.25500000920E-02 0.  1.
    10030    2    1    2    0    0  0.00000000000E+00  0.00000000000E+00  0.47284736241E+03  0.15333319978E+04  0.14586028888E+04 0.  0.
        2    1    3    3  502    0  0.14373704857E+03 -0.68697240411E+03  0.44479386595E+03  0.83092298460E+03  0.25500000920E-02 0. -1.
       -2    1    3    3    0  502 -0.14373704857E+03  0.68697240411E+03  0.28053496458E+02  0.70240901319E+03  0.25500000920E-02 0.  1.
</event>
<event>
 5   0  0.1700207E-03  0.1422848E+04  0.7818609E-02  0.8937444E-01
       -1   -1    0    0    0  501  0.00000000000E+00  0.00000000000E+00  0.32382989117E+03  0.32382989121E+03  0.50400001928E-02 0.  1.
        1   -1    0    0  501    0  0.00000000000E+00  0.00000000000E+00 -0.15629318400E+04  0.15629318400E+04  0.50400001928E-02 0. -1.
    10030    2    1    2    0    0  0.00000000000E+00  0.00000000000E+00 -0.12391019488E+04  0.18867617312E+04  0.14228479155E+04 0.  0.
        2    1    3    3  502    0 -0.51982861287E+03  0.47930383038E+03 -0.51539009276E+03  0.87497479752E+03  0.25500000920E-02 0. -1.
       -2    1    3    3    0  502  0.51982861287E+03 -0.47930383038E+03 -0.72371185608E+03  0.10117869337E+04  0.25500000920E-02 0.  1.
</event>
<event>
 5   0  0.2889469E-03  0.1327139E+04  0.7818609E-02  0.9008317E-01
        2   -1    0    0  501    0  0.00000000000E+00  0.00000000000E+00  0.79736706395E+03  0.79736706395E+03  0.25500000920E-02 0. -1.
       -2   -1    0    0    0  501  0.00000000000E+00  0.00000000000E+00 -0.55222278581E+03  0.55222278582E+03  0.25500000920E-02 0.  1.
    10030    2    1    2    0    0  0.00000000000E+00  0.00000000000E+00  0.24514427813E+03  0.13495898498E+04  0.13271386685E+04 0.  0.
        5    1    3    3  502    0  0.59364425024E+03  0.24596951861E+03  0.29086397747E+03  0.70536405020E+03  0.46999998093E+01 0. -1.
       -5    1    3    3    0  502 -0.59364425024E+03 -0.24596951861E+03 -0.45719699334E+02  0.64422579957E+03  0.46999998093E+01 0.  1.
</event>
<event>
 5   0  0.1631380E-03  0.1375691E+04  0.7818609E-02  0.8971605E-01
       -1   -1    0    0    0  501  0.00000000000E+00  0.00000000000E+00  0.32164513225E+03  0.32164513229E+03  0.50400001928E-02 0.  1.
        1   -1    0    0  501    0  0.00000000000E+00  0.00000000000E+00 -0.14709742655E+04  0.14709742656E+04  0.50400001928E-02 0. -1.
    10030    2    1    2    0    0  0.00000000000E+00  0.00000000000E+00 -0.11493291333E+04  0.17926193978E+04  0.13756914076E+04 0.  0.
        3    1    3    3  502    0 -0.59758347918E+03  0.23720306244E+03 -0.89321176890E+03  0.11005446750E+04  0.10100000352E+00 0. -1.
       -3    1    3    3    0  502  0.59758347918E+03 -0.23720306244E+03 -0.25611736440E+03  0.69207472282E+03  0.10100000352E+00 0.  1.
</event>
<event>
 5   0  0.1631380E-03  0.1437293E+04  0.7818609E-02  0.8927258E-01
       -1   -1    0    0    0  501  0.00000000000E+00  0.00000000000E+00  0.29179219822E+03  0.29179219827E+03  0.50400001928E-02 0. -1.
        1   -1    0    0  501    0  0.00000000000E+00  0.00000000000E+00 -0.17699325982E+04  0.17699325982E+04  0.50400001928E-02 0.  1.
    10030    2    1    2    0    0  0.00000000000E+00  0.00000000000E+00 -0.14781404000E+04  0.20617247965E+04  0.14372926265E+04 0.  0.
        3    1    3    3  502    0 -0.52447600413E+03 -0.27600471202E+03 -0.13220976259E+04  0.14488601805E+04  0.10100000352E+00 0.  1.
       -3    1    3    3    0  502  0.52447600413E+03  0.27600471202E+03 -0.15604277404E+03  0.61286461596E+03  0.10100000352E+00 0. -1.
</event>
<event>
 5   0  0.1644571E-03  0.1256566E+04  0.7818609E-02  0.9064736E-01
        1   -1    0    0  501    0  0.00000000000E+00  0.00000000000E+00  0.18163681127E+04  0.18163681127E+04  0.50400001928E-02 0.  1.
       -1   -1    0    0    0  501  0.00000000000E+00  0.00000000000E+00 -0.21732351657E+03  0.21732351662E+03  0.50400001928E-02 0. -1.
    10030    2    1    2    0    0  0.00000000000E+00  0.00000000000E+00  0.15990445962E+04  0.20336916293E+04  0.12565659644E+04 0.  0.
        4    1    3    3  502    0  0.14283579440E+03  0.58368066682E+03  0.10964220374E+04  0.12502911989E+04  0.12699999809E+01 0.  1.
       -4    1    3    3    0  502 -0.14283579440E+03 -0.58368066682E+03  0.50262255870E+03  0.78340043043E+03  0.12699999809E+01 0. -1.
</event>
<event>
 5   0  0.2760807E-03  0.1366470E+04  0.7818609E-02  0.8978453E-01
        2   -1    0    0  501    0  0.00000000000E+00  0.00000000000E+00  0.17852348348E+04  0.17852348348E+04  0.25500000920E-02 0. -1.
       -2   -1    0    0    0  501  0.00000000000E+00  0.00000000000E+00 -0.26148393278E+03  0.26148393279E+03  0.25500000920E-02 0.  1.
    10030    2    1    2    0    0  0.00000000000E+00  0.00000000000E+00  0.15237509020E+04  0.20467187676E+04  0.13664702347E+04 0.  0.
        4    1    3    3  502    0  0.34365553597E+03 -0.28429642061E+03 -0.13357490602E+02  0.44621028409E+03  0.12699999809E+01 0.  1.
       -4    1    3    3    0  502 -0.34365553597E+03  0.28429642061E+03  0.15371083926E+04  0.16005084835E+04  0.12699999809E+01 0. -1.
</event>
<event>
 5   0  0.2917809E-03  0.1452910E+04  0.7818609E-02  0.8916385E-01
        2   -1    0    0  501    0  0.00000000000E+00  0.00000000000E+00  0.49255049619E+03  0.49255049619E+03  0.25500000920E-02 0. -1.
       -2   -1    0    0    0  501  0.00000000000E+00  0.00000000000E+00 -0.10714371866E+04  0.10714371866E+04  0.25500000920E-02 0.  1.
    10030    2    1    2    0    0  0.00000000000E+00  0.00000000000E+00 -0.57888669043E+03  0.15639876828E+04  0.14529100700E+04 0.  0.
        2    1    3    3  502    0 -0.64315487161E+03 -0.12316177957E+03  0.49117273795E+02  0.65668068300E+03  0.25500000920E-02 0. -1.
       -2    1    3    3    0  502  0.64315487161E+03  0.12316177957E+03 -0.62800396423E+03  0.90730699982E+03  0.25500000920E-02 0.  1.
</event>
<event>
 5   0  0.2760807E-03  0.1414612E+04  0.7818609E-02  0.8943309E-01
       -2   -1    0    0    0  501  0.00000000000E+00  0.00000000000E+00  0.46903906587E+03  0.46903906588E+03  0.25500000920E-02 0.  1.
        2   -1    0    0  501    0  0.00000000000E+00  0.00000000000E+00 -0.10666101176E+04  0.10666101176E+04  0.25500000920E-02 0. -1.
    10030    2    1    2    0    0  0.00000000000E+00  0.00000000000E+00 -0.59757105176E+03  0.15356491835E+04  0.14146120503E+04 0.  0.
        4    1    3    3  502    0  0.17986086401E+02  0.52114900923E+03 -0.81754383747E+03  0.96969032593E+03  0.12699999809E+01 0. -1.
       -4    1    3    3    0  502 -0.17986086401E+02 -0.52114900923E+03  0.21997278571E+03  0.56595885758E+03  0.12699999809E+01 0.  1.
</event>
<event>
 5   0  0.3006737E-03  0.1326847E+04  0.7818609E-02  0.9008542E-01
        2   -1    0    0  501    0  0.00000000000E+00  0.00000000000E+00  0.19270207844E+04  0.19270207844E+04  0.25500000920E-02 0.  1.
       -2   -1    0    0    0  501  0.00000000000E+00  0.00000000000E+00 -0.22839944842E+03  0.22839944843E+03  0.25500000920E-02 0. -1.
    10030    2    1    2    0    0  0.00000000000E+00  0.00000000000E+00  0.16986213360E+04  0.21554202328E+04  0.13268466140E+04 0.  0.
        1    1    3    3  502    0  0.92251869103E+01  0.66268114410E+03  0.80060149630E+03  0.10393238950E+04  0.50400001928E-02 0.  1.
       -1    1    3    3    0  502 -0.92251869103E+01 -0.66268114410E+03  0.89801983968E+03  0.11160963378E+04  0.50400001928E-02 0. -1.
</event>
<event>
 5   0  0.2993993E-03  0.1400203E+04  0.7818609E-02  0.8953672E-01
        2   -1    0    0  501    0  0.00000000000E+00  0.00000000000E+00  0.74942927610E+03  0.74942927610E+03  0.25500000920E-02 0. -1.
       -2   -1    0    0    0  501  0.00000000000E+00  0.00000000000E+00 -0.65402022832E+03  0.65402022833E+03  0.25500000920E-02 0.  1.
    10030    2    1    2    0    0  0.00000000000E+00  0.00000000000E+00  0.95409047772E+02  0.14034495044E+04  0.14002027086E+04 0.  0.
        3    1    3    3  502    0  0.38443731648E+03 -0.39705157130E+03 -0.38305927958E+03  0.67244064604E+03  0.10100000352E+00 0.  1.
       -3    1    3    3    0  502 -0.38443731648E+03  0.39705157130E+03  0.47846832735E+03  0.73100885839E+03  0.10100000352E+00 0. -1.
</event>
<event>
 5   0  0.1586022E-03  0.1425395E+04  0.7818609E-02  0.8935639E-01
        1   -1    0    0  501    0  0.00000000000E+00  0.00000000000E+00  0.11280578247E+04  0.11280578247E+04  0.50400001928E-02 0. -1.
       -1   -1    0    0    0  501  0.00000000000E+00  0.00000000000E+00 -0.45027618960E+03  0.45027618963E+03  0.50400001928E-02 0.  1.
    10030    2    1    2    0    0  0.00000000000E+00  0.00000000000E+00  0.67778163505E+03  0.15783340143E+04  0.14253947930E+04 0.  0.
        1    1    3    3  502    0  0.26456608363E+03  0.54467800862E+03  0.75507541644E+03  0.96788854225E+03  0.50400001928E-02 0. -1.
       -1    1    3    3    0  502 -0.26456608363E+03 -0.54467800862E+03 -0.77293781388E+02  0.61044547205E+03  0.50400001928E-02 0.  1.
</event>
<event>
 5   0  0.2917809E-03  0.1406098E+04  0.7818609E-02  0.8949416E-01
        2   -1    0    0  501    0  0.00000000000E+00  0.00000000000E+00  0.74679984951E+03  0.74679984952E+03  0.25500000920E-02 0. -1.
       -2   -1    0    0    0  501  0.00000000000E+00  0.00000000000E+00 -0.66186172946E+03  0.66186172946E+03  0.25500000920E-02 0.  1.
    10030    2    1    2    0    0  0.00000000000E+00  0.00000000000E+00  0.84938120055E+02  0.14086615790E+04  0.14060984887E+04 0.  0.
        2    1    3    3  502    0 -0.97858654880E+02  0.69611747070E+03  0.53552254986E+02  0.70499907331E+03  0.25500000920E-02 0.  1.
       -2    1    3    3    0  502  0.97858654880E+02 -0.69611747070E+03  0.31385865069E+02  0.70366250567E+03  0.25500000920E-02 0. -1.
</event>
<event>
 5   0  0.1700207E-03  0.1330261E+04  0.7818609E-02  0.9005906E-01
        1   -1    0    0  501    0  0.00000000000E+00  0.00000000000E+00  0.86621267419E+03  0.86621267421E+03  0.50400001928E-02 0.  1.
       -1   -1    0    0    0  501  0.00000000000E+00  0.00000000000E+00 -0.51072765237E+03  0.51072765239E+03  0.50400001928E-02 0. -1.
    10030    2    1    2    0    0  0.00000000000E+00  0.00000000000E+00  0.35548502183E+03  0.13769403266E+04  0.13302612759E+04 0.  0.
        2    1    3    3  502    0  0.60646414431E+03 -0.56212592351E+02  0.45440441046E+03  0.75989603376E+03  0.25500000920E-02 0.  1.
       -2    1    3    3    0  502 -0.60646414431E+03  0.56212592351E+02 -0.98919388638E+02  0.61704429284E+03  0.25500000920E-02 0. -1.
</event>
<event>
 5   0  0.2760807E-03  0.1432658E+04  0.7818609E-02  0.8930512E-01
       -2   -1    0    0    0  501  0.00000000000E+00  0.00000000000E+00  0.72666519562E+03  0.72666519563E+03  0.25500000920E-02 0.  1.
        2   -1    0    0  501    0  0.00000000000E+00  0.00000000000E+00 -0.70614010442E+03  0.70614010442E+03  0.25500000920E-02 0. -1.
    10030    2    1    2    0    0  0.00000000000E+00  0.00000000000E+00  0.20525091205E+02  0.14328053000E+04  0.14326582804E+04 0.  0.
        4    1    3    3  502    0  0.65278073509E+03  0.25620665720E+03  0.15643254709E+03  0.71849655114E+03  0.12699999809E+01 0.  1.
       -4    1    3    3    0  502 -0.65278073509E+03 -0.25620665720E+03 -0.13590745589E+03  0.71430874891E+03  0.12699999809E+01 0. -1.
</event>
<event>
 5   0  0.2760807E-03  0.1385368E+04  0.7818609E-02  0.8964479E-01
        2   -1    0    0  501    0  0.00000000000E+00  0.00000000000E+00  0.17107082512E+04  0.17107082512E+04  0.25500000920E-02 0.  1.
       -2   -1    0    0    0  501  0.00000000000E+00  0.00000000000E+00 -0.28047513558E+03  0.28047513559E+03  0.25500000920E-02 0. -1.
    10030    2    1    2    0    0  0.00000000000E+00  0.00000000000E+00  0.14302331156E+04  0.19911833868E+04  0.13853680070E+04 0.  0.
        4    1    3    3  502    0 -0.31246506389E+02 -0.68678186943E+03  0.83676846092E+03  0.10829721836E+04  0.12699999809E+01 0. -1.
       -4    1    3    3    0  502  0.31246506389E+02  0.68678186943E+03  0.59346465469E+03  0.90821120319E+03  0.12699999809E+01 0.  1.
</event>
<event>
 5   0  0.1586022E-03  0.8877577E+03  0.7818609E-02  0.9441016E-01
       -1   -1    0    0    0  501  0.00000000000E+00  0.00000000000E+00  0.24655660462E+03  0.24655660467E+03  0.50400001928E-02 0. -1.
        1   -1    0    0  501    0  0.00000000000E+00  0.00000000000E+00 -0.79912043523E+03  0.79912043525E+03  0.50400001928E-02 0.  1.
    10030    2    1    2    0    0  0.00000000000E+00  0.00000000000E+00 -0.55256383061E+03  0.10456770399E+04  0.88775767240E+03 0.  0.
        1    1    3    3  502    0 -0.16605496439E+03  0.63305050126E+02  0.20282464163E+03  0.26966574838E+03  0.50400001928E-02 0. -1.
       -1    1    3    3    0  502  0.16605496439E+03 -0.63305050126E+02 -0.75538847224E+03  0.77601129154E+03  0.50400001928E-02 0.  1.
</event>
<event>
 5   0  0.1631380E-03  0.1403430E+04  0.7818609E-02  0.8951340E-01
       -1   -1    0    0    0  501  0.00000000000E+00  0.00000000000E+00  0.43296585508E+03  0.43296585511E+03  0.50400001928E-02 0.  1.
        1   -1    0    0  501    0  0.00000000000E+00  0.00000000000E+00 -0.11372810618E+04  0.11372810618E+04  0.50400001928E-02 0. -1.
    10030    2    1    2    0    0  0.00000000000E+00  0.00000000000E+00 -0.70431520670E+03  0.15702469169E+04  0.14034298948E+04 0.  0.
        3    1    3    3  502    0  0.10579604282E+03 -0.67466705502E+03 -0.53269181550E+03  0.86609988934E+03  0.10100000352E+00 0. -1.
       -3    1    3    3    0  502 -0.10579604282E+03  0.67466705502E+03 -0.17162339119E+03  0.70414702756E+03  0.10100000352E+00 0.  1.
</event>
<event>
 5   0  0.2993993E-03  0.1383254E+04  0.7818609E-02  0.8966030E-01
        2   -1    0    0  501    0  0.00000000000E+00  0.00000000000E+00  0.13003927443E+04  0.13003927443E+04  0.25500000920E-02 0. -1.
       -2   -1    0    0    0  501  0.00000000000E+00  0.00000000000E+00 -0.36784864170E+03  0.36784864170E+03  0.25500000920E-02 0.  1.
    10030    2    1    2    0    0  0.00000000000E+00  0.00000000000E+00  0.93254410263E+03  0.16682413860E+04  0.13832537073E+04 0.  0.
        3    1    3    3  502    0  0.65406811172E+03 -0.21079586874E+03  0.37201888521E+03  0.78143333318E+03  0.10100000352E+00 0. -1.
       -3    1    3    3    0  502 -0.65406811172E+03  0.21079586874E+03  0.56052521741E+03  0.88680805285E+03  0.10100000352E+00 0.  1.
</event>
<event>
 5   0  0.1560957E-03  0.1427523E+04  0.7818609E-02  0.8934134E-01
       -1   -1    0    0    0  501  0.00000000000E+00  0.00000000000E+00  0.37683158984E+03  0.37683158987E+03  0.50400001928E-02 0. -1.
        1   -1    0    0  501    0  0.00000000000E+00  0.00000000000E+00 -0.13519443416E+04  0.13519443416E+04  0.50400001928E-02 0.  1.
    10030    2    1    2    0    0  0.00000000000E+00  0.00000000000E+00 -0.97511275176E+03  0.17287759315E+04  0.14275227993E+04 0.  0.
        5    1    3    3  502    0  0.34189259223E+03 -0.26087553554E+03  0.20229268158E+03  0.47527992666E+03  0.46999998093E+01 0. -1.
       -5    1    3    3    0  502 -0.34189259223E+03  0.26087553554E+03 -0.11774054333E+04  0.12534960048E+04  0.46999998093E+01 0.  1.
</event>
<event>
 5   0  0.1644571E-03  0.1299289E+04  0.7818609E-02  0.9030130E-01
        1   -1    0    0  501    0  0.00000000000E+00  0.00000000000E+00  0.14782370274E+04  0.14782370274E+04  0.50400001928E-02 0.  1.
       -1   -1    0    0    0  501  0.00000000000E+00  0.00000000000E+00 -0.28550070324E+03  0.28550070329E+03  0.50400001928E-02 0. -1.
    10030    2    1    2    0    0  0.00000000000E+00  0.00000000000E+00  0.11927363241E+04  0.17637377307E+04  0.12992885914E+04 0.  0.
        4    1    3    3  502    0  0.42537861898E+03 -0.46654664152E+03  0.80412387528E+03  0.10223646893E+04  0.12699999809E+01 0. -1.
       -4    1    3    3    0  502 -0.42537861898E+03  0.46654664152E+03  0.38861244885E+03  0.74137304139E+03  0.12699999809E+01 0.  1.
</event>
<event>
 5   0  0.2760807E-03  0.1416347E+04  0.7818609E-02  0.8942070E-01
       -2   -1    0    0    0  501  0.00000000000E+00  0.00000000000E+00  0.57585526650E+03  0.57585526651E+03  0.25500000920E-02 0.  1.
        2   -1    0    0  501    0  0.00000000000E+00  0.00000000000E+00 -0.87089531064E+03  0.87089531064E+03  0.25500000920E-02 0. -1.
    10030    2    1    2    0    0  0.00000000000E+00  0.00000000000E+00 -0.29504004414E+03  0.14467505771E+04  0.14163469225E+04 0.  0.
        4    1    3    3  502    0  0.64386795759E+03 -0.11237931072E+03  0.13093584027E+03  0.66658897640E+03  0.12699999809E+01 0.  1.
       -4    1    3    3    0  502 -0.64386795759E+03  0.11237931072E+03 -0.42597588441E+03  0.78016160075E+03  0.12699999809E+01 0. -1.
</event>
<event>
 5   0  0.3006737E-03  0.1394677E+04  0.7818609E-02  0.8957681E-01
        2   -1    0    0  501    0  0.00000000000E+00  0.00000000000E+00  0.97080446562E+03  0.97080446562E+03  0.25500000920E-02 0.  1.
       -2   -1    0    0    0  501  0.00000000000E+00  0.00000000000E+00 -0.50090522394E+03  0.50090522394E+03  0.25500000920E-02 0. -1.
    10030    2    1    2    0    0  0.00000000000E+00  0.00000000000E+00  0.46989924168E+03  0.14717096896E+04  0.13946770641E+04 0.  0.
        1    1    3    3  502    0  0.40333816505E+03  0.25159150768E+03  0.77332657831E+03  0.90775214617E+03  0.50400001928E-02 0.  1.
       -1    1    3    3    0  502 -0.40333816505E+03 -0.25159150768E+03 -0.30342733663E+03  0.56395754340E+03  0.50400001928E-02 0. -1.
</event>
<event>
 5   0  0.1700207E-03  0.1422091E+04  0.7818609E-02  0.8937981E-01
       -1   -1    0    0    0  501  0.00000000000E+00  0.00000000000E+00  0.52092250936E+03  0.52092250939E+03  0.50400001928E-02 0. -1.
        1   -1    0    0  501    0  0.00000000000E+00  0.00000000000E+00 -0.97055894658E+03  0.97055894659E+03  0.50400001928E-02 0.  1.
    10030    2    1    2    0    0  0.00000000000E+00  0.00000000000E+00 -0.44963643722E+03  0.14914814560E+04  0.14220914204E+04 0.  0.
        2    1    3    3  502    0  0.12112995841E+03 -0.49751146144E+03  0.29260623986E+03  0.58975294209E+03  0.25500000920E-02 0. -1.
       -2    1    3    3    0  502 -0.12112995841E+03  0.49751146144E+03 -0.74224267707E+03  0.90172851389E+03  0.25500000920E-02 0.  1.
</event>
<event>
 5   0  0.2917809E-03  0.1431104E+04  0.7818609E-02  0.8931607E-01
       -2   -1    0    0    0  501  0.00000000000E+00  0.00000000000E+00  0.66714865865E+03  0.66714865865E+03  0.25500000920E-02 0.  1.
        2   -1    0    0  501    0  0.00000000000E+00  0.00000000000E+00 -0.76746715577E+03  0.76746715577E+03  0.25500000920E-02 0. -1.
    10030    2    1    2    0    0  0.00000000000E+00  0.00000000000E+00 -0.10031849712E+03  0.14346158144E+04  0.14311040263E+04 0.  0.
        2    1    3    3  502    0 -0.10127122010E+03 -0.35764724180E+03 -0.66309015313E+03  0.76016837659E+03  0.25500000920E-02 0. -1.
       -2    1    3    3    0  502  0.10127122010E+03  0.35764724180E+03  0.56277165601E+03  0.67444743783E+03  0.25500000920E-02 0.  1.
</event>
<event>
 5   0  0.3006737E-03  0.1357563E+04  0.7818609E-02  0.8985123E-01
        2   -1    0    0  501    0  0.00000000000E+00  0.00000000000E+00  0.16149560226E+04  0.16149560226E+04  0.25500000920E-02 0.  1.
       -2   -1    0    0    0  501  0.00000000000E+00  0.00000000000E+00 -0.28529821369E+03  0.28529821370E+03  0.25500000920E-02 0. -1.
    10030    2    1    2    0    0  0.00000000000E+00  0.00000000000E+00  0.13296578089E+04  0.19002542363E+04  0.13575626224E+04 0.  0.
        1    1    3    3  502    0  0.20885307573E+03  0.59446391401E+03  0.31144396082E+03  0.70285438966E+03  0.50400001928E-02 0.  1.
       -1    1    3    3    0  502 -0.20885307573E+03 -0.59446391401E+03  0.10182138481E+04  0.11973998467E+04  0.50400001928E-02 0. -1.
</event>
<event>
 5   0  0.2993993E-03  0.1411415E+04  0.7818609E-02  0.8945597E-01
        2   -1    0    0  501    0  0.00000000000E+00  0.00000000000E+00  0.13888291738E+04  0.13888291738E+04  0.25500000920E-02 0. -1.
       -2   -1    0    0    0  501  0.00000000000E+00  0.00000000000E+00 -0.35859187404E+03  0.35859187405E+03  0.25500000920E-02 0.  1.
    10030    2    1    2    0    0  0.00000000000E+00  0.00000000000E+00  0.10302372998E+04  0.17474210479E+04  0.14114146891E+04 0.  0.
        3    1    3    3  502    0  0.50423667839E+03 -0.32585049886E+03  0.55882735152E+02  0.60295610597E+03  0.10100000352E+00 0.  1.
       -3    1    3    3    0  502 -0.50423667839E+03  0.32585049886E+03  0.97435456463E+03  0.11444649419E+04  0.10100000352E+00 0. -1.
</event>
<event>
 5   0  0.2917809E-03  0.1416678E+04  0.7818609E-02  0.8941834E-01
        2   -1    0    0  501    0  0.00000000000E+00  0.00000000000E+00  0.10272470906E+04  0.10272470906E+04  0.25500000920E-02 0. -1.
       -2   -1    0    0    0  501  0.00000000000E+00  0.00000000000E+00 -0.48843599554E+03  0.48843599554E+03  0.25500000920E-02 0.  1.
    10030    2    1    2    0    0  0.00000000000E+00  0.00000000000E+00  0.53881109508E+03  0.15156830862E+04  0.14166784468E+04 0.  0.
        2    1    3    3  502    0  0.13848170142E+03 -0.63961853686E+03  0.55937282086E+03  0.86092218408E+03  0.25500000920E-02 0.  1.
       -2    1    3    3    0  502 -0.13848170142E+03  0.63961853686E+03 -0.20561725776E+02  0.65476090208E+03  0.25500000920E-02 0. -1.
</event>
<event>
 5   0  0.1560957E-03  0.1385716E+04  0.7818609E-02  0.8964223E-01
        1   -1    0    0  501    0  0.00000000000E+00  0.00000000000E+00  0.15733627582E+04  0.15733627582E+04  0.50400001928E-02 0. -1.
       -1   -1    0    0    0  501  0.00000000000E+00  0.00000000000E+00 -0.30511228477E+03  0.30511228481E+03  0.50400001928E-02 0.  1.
    10030    2    1    2    0    0  0.00000000000E+00  0.00000000000E+00  0.12682504735E+04  0.18784750431E+04  0.13857161412E+04 0.  0.
        5    1    3    3  502    0  0.47639014023E+03 -0.50260892768E+03  0.60483313242E+03  0.91946098774E+03  0.46999998093E+01 0.  1.
       -5    1    3    3    0  502 -0.47639014023E+03  0.50260892768E+03  0.66341734104E+03  0.95901405532E+03  0.46999998093E+01 0. -1.
</event>
<event>
 5   0  0.2760807E-03  0.1806502E+04  0.7818609E-02  0.8702849E-01
       -2   -1    0    0    0  501  0.00000000000E+00  0.00000000000E+00  0.13895311688E+04  0.13895311688E+04  0.25500000920E-02 0.  1.
        2   -1    0    0  501    0  0.00000000000E+00  0.00000000000E+00 -0.58714961603E+03  0.58714961603E+03  0.25500000920E-02 0. -1.
    10030    2    1    2    0    0  0.00000000000E+00  0.00000000000E+00  0.80238155278E+03  0.19766807848E+04  0.18065023578E+04 0.  0.
        4    1    3    3  502    0  0.29869099959E+03 -0.59824627283E+02  0.13316276473E+04  0.13660267578E+04  0.12699999809E+01 0.  1.
       -4    1    3    3    0  502 -0.29869099959E+03  0.59824627283E+02 -0.52924609449E+03  0.61065402700E+03  0.12699999809E+01 0. -1.
</event>
<event>
 5   0  0.1631380E-03  0.1322538E+04  0.7818609E-02  0.9011881E-01
       -1   -1    0    0    0  501  0.00000000000E+00  0.00000000000E+00  0.49254111106E+03  0.49254111108E+03  0.50400001928E-02 0. -1.
        1   -1    0    0  501    0  0.00000000000E+00  0.00000000000E+00 -0.88779731425E+03  0.88779731426E+03  0.50400001928E-02 0.  1.
    10030    2    1    2    0    0  0.00000000000E+00  0.00000000000E+00 -0.39525620319E+03  0.13803384253E+04  0.13225379776E+04 0.  0.
        3    1    3    3  502    0 -0.54968114654E+03 -0.36127247351E+03 -0.26848864018E+03  0.71045993770E+03  0.10100000352E+00 0. -1.
       -3    1    3    3    0  502  0.54968114654E+03  0.36127247351E+03 -0.12676756301E+03  0.66987848764E+03  0.10100000352E+00 0.  1.
</event>
<event>
 5   0  0.1586022E-03  0.1363923E+04  0.7818609E-02  0.8980355E-01
        1   -1    0    0  501    0  0.00000000000E+00  0.00000000000E+00  0.18128784909E+04  0.18128784909E+04  0.50400001928E-02 0.  1.
       -1   -1    0    0    0  501  0.00000000000E+00  0.00000000000E+00 -0.25653747775E+03  0.25653747780E+03  0.50400001928E-02 0. -1.
    10030    2    1    2    0    0  0.00000000000E+00  0.00000000000E+00  0.15563410132E+04  0.20694159687E+04  0.13639226893E+04 0.  0.
        1    1    3    3  502    0  0.23281686165E+03 -0.28364140561E+03  0.16503141299E+04  0.16906190776E+04  0.50400001928E-02 0.  1.
       -1    1    3    3    0  502 -0.23281686165E+03  0.28364140561E+03 -0.93973116745E+02  0.37879689114E+03  0.50400001928E-02 0. -1.
</event>
<event>
 5   0  0.2993993E-03  0.1395792E+04  0.7818609E-02  0.8956870E-01
       -2   -1    0    0    0  501  0.00000000000E+00  0.00000000000E+00  0.63877889811E+03  0.63877889811E+03  0.25500000920E-02 0. -1.
        2   -1    0    0  501    0  0.00000000000E+00  0.00000000000E+00 -0.76248450594E+03  0.76248450595E+03  0.25500000920E-02 0.  1.
    10030    2    1    2    0    0  0.00000000000E+00  0.00000000000E+00 -0.12370560783E+03  0.14012634041E+04  0.13957922661E+04 0.  0.
        3    1    3    3  502    0  0.61411720218E+03  0.23619604771E+03  0.17171876450E+03  0.68001165817E+03  0.10100000352E+00 0. -1.
       -3    1    3    3    0  502 -0.61411720218E+03 -0.23619604771E+03 -0.29542437233E+03  0.72125174588E+03  0.10100000352E+00 0.  1.
</event>
<event>
 5   0  0.1104538E-03  0.8920220E+03  0.7818609E-02  0.9435610E-01
       -3   -1    0    0    0  501  0.00000000000E+00  0.00000000000E+00  0.30772524153E+03  0.30772525811E+03  0.10100000352E+00 0.  1.
        3   -1    0    0  501    0  0.00000000000E+00  0.00000000000E+00 -0.64643966071E+03  0.64643966860E+03  0.10100000352E+00 0. -1.
    10030    2    1    2    0    0  0.00000000000E+00  0.00000000000E+00 -0.33871441918E+03  0.95416492671E+03  0.89202200063E+03 0.  0.
        4    1    3    3  502    0  0.14783278044E+03 -0.38970286117E+03  0.45142623853E+00  0.41680291226E+03  0.12699999809E+01 0.  1.
       -4    1    3    3    0  502 -0.14783278044E+03  0.38970286117E+03 -0.33916584541E+03  0.53736201445E+03  0.12699999809E+01 0. -1.
</event>
<event>
 5   0  0.1631380E-03  0.1383191E+04  0.7818609E-02  0.8966076E-01
        1   -1    0    0  501    0  0.00000000000E+00  0.00000000000E+00  0.10936582453E+04  0.10936582453E+04  0.50400001928E-02 0. -1.
       -1   -1    0    0    0  501  0.00000000000E+00  0.00000000000E+00 -0.43734372742E+03  0.43734372745E+03  0.50400001928E-02 0.  1.
    10030    2    1    2    0    0  0.00000000000E+00  0.00000000000E+00  0.65631451790E+03  0.15310019728E+04  0.13831913440E+04 0.  0.
        3    1    3    3  502    0  0.58822037281E+03 -0.97021206391E+02  0.71617238252E+03  0.93183647340E+03  0.10100000352E+00 0. -1.
       -3    1    3    3    0  502 -0.58822037281E+03  0.97021206391E+02 -0.59857864620E+02  0.59916549937E+03  0.10100000352E+00 0.  1.
</event>
<event>
 5   0  0.1644571E-03  0.1408413E+04  0.7818609E-02  0.8947752E-01
       -1   -1    0    0    0  501  0.00000000000E+00  0.00000000000E+00  0.48707663074E+03  0.48707663076E+03  0.50400001928E-02 0. -1.
        1   -1    0    0  501    0  0.00000000000E+00  0.00000000000E+00 -0.10181282808E+04  0.10181282808E+04  0.50400001928E-02 0.  1.
    10030    2    1    2    0    0  0.00000000000E+00  0.00000000000E+00 -0.53105165010E+03  0.15052049116E+04  0.14084125713E+04 0.  0.
        4    1    3    3  502    0  0.30904339141E+03  0.55058001588E+03 -0.59882173350E+03  0.87019265285E+03  0.12699999809E+01 0.  1.
       -4    1    3    3    0  502 -0.30904339141E+03 -0.55058001588E+03  0.67770083406E+02  0.63501225876E+03  0.12699999809E+01 0. -1.
</event>
<event>
 5   0  0.1560957E-03  0.1475341E+04  0.7818609E-02  0.8901019E-01
        1   -1    0    0  501    0  0.00000000000E+00  0.00000000000E+00  0.46752918023E+03  0.46752918026E+03  0.50400001928E-02 0. -1.
       -1   -1    0    0    0  501  0.00000000000E+00  0.00000000000E+00 -0.11639009748E+04  0.11639009748E+04  0.50400001928E-02 0.  1.
    10030    2    1    2    0    0  0.00000000000E+00  0.00000000000E+00 -0.69637179452E+03  0.16314301550E+04  0.14753408672E+04 0.  0.
        5    1    3    3  502    0  0.67204816384E+03  0.15089266907E+03 -0.64016336702E+03  0.94034491468E+03  0.46999998093E+01 0.  1.
       -5    1    3    3    0  502 -0.67204816384E+03 -0.15089266907E+03 -0.56208427507E+02  0.69108524034E+03  0.46999998093E+01 0. -1.
</event>
<event>
 5   0  0.1644571E-03  0.1419361E+04  0.7818609E-02  0.8939922E-01
        1   -1    0    0  501    0  0.00000000000E+00  0.00000000000E+00  0.81031635471E+03  0.81031635473E+03  0.50400001928E-02 0.  1.
       -1   -1    0    0    0  501  0.00000000000E+00  0.00000000000E+00 -0.62154267943E+03  0.62154267945E+03  0.50400001928E-02 0. -1.
    10030    2    1    2    0    0  0.00000000000E+00  0.00000000000E+00  0.18877367528E+03  0.14318590342E+04  0.14193606988E+04 0.  0.
        4    1    3    3  502    0  0.42843029189E+02  0.17374222215E+03  0.78718198757E+03  0.80726636209E+03  0.12699999809E+01 0.  1.
       -4    1    3    3    0  502 -0.42843029189E+02 -0.17374222215E+03 -0.59840831229E+03  0.62459267209E+03  0.12699999809E+01 0. -1.
</event>
<event>
 5   0  0.2993993E-03  0.1376122E+04  0.7818609E-02  0.8971287E-01
       -2   -1    0    0    0  501  0.00000000000E+00  0.00000000000E+00  0.37552407889E+03  0.37552407890E+03  0.25500000920E-02 0.  1.
        2   -1    0    0  501    0  0.00000000000E+00  0.00000000000E+00 -0.12607119119E+04  0.12607119119E+04  0.25500000920E-02 0. -1.
    10030    2    1    2    0    0  0.00000000000E+00  0.00000000000E+00 -0.88518783300E+03  0.16362359908E+04  0.13761216218E+04 0.  0.
        3    1    3    3  502    0 -0.37404385413E+03 -0.57437489018E+03 -0.37113045751E+03  0.77945695582E+03  0.10100000352E+00 0. -1.
       -3    1    3    3    0  502  0.37404385413E+03  0.57437489018E+03 -0.51405737549E+03  0.85677903498E+03  0.10100000352E+00 0.  1.
</event>
<event>
 5   0  0.1586022E-03  0.1197066E+04  0.7818609E-02  0.9115429E-01
       -1   -1    0    0    0  501  0.00000000000E+00  0.00000000000E+00  0.40393210785E+03  0.40393210788E+03  0.50400001928E-02 0. -1.
        1   -1    0    0  501    0  0.00000000000E+00  0.00000000000E+00 -0.88688578779E+03  0.88688578781E+03  0.50400001928E-02 0.  1.
    10030    2    1    2    0    0  0.00000000000E+00  0.00000000000E+00 -0.48295367995E+03  0.12908178957E+04  0.11970658223E+04 0.  0.
        1    1    3    3  502    0  0.38952246163E+03  0.14846329159E+03  0.22166372424E+03  0.47212699958E+03  0.50400001928E-02 0. -1.
       -1    1    3    3    0  502 -0.38952246163E+03 -0.14846329159E+03 -0.70461740419E+03  0.81869089611E+03  0.50400001928E-02 0.  1.
</event>
<event>
 5   0  0.2993993E-03  0.1336036E+04  0.7818609E-02  0.9001467E-01
       -2   -1    0    0    0  501  0.00000000000E+00  0.00000000000E+00  0.47907440491E+03  0.47907440491E+03  0.25500000920E-02 0. -1.
        2   -1    0    0  501    0  0.00000000000E+00  0.00000000000E+00 -0.93147956883E+03  0.93147956884E+03  0.25500000920E-02 0.  1.
    10030    2    1    2    0    0  0.00000000000E+00  0.00000000000E+00 -0.45240516393E+03  0.14105539738E+04  0.13360359578E+04 0.  0.
        3    1    3    3  502    0  0.38340972039E+03  0.90630835040E+02 -0.79576486676E+03  0.88795196679E+03  0.10100000352E+00 0.  1.
       -3    1    3    3    0  502 -0.38340972039E+03 -0.90630835040E+02  0.34335970284E+03  0.52260200696E+03  0.10100000352E+00 0. -1.
</event>
<event>
 5   0  0.2760807E-03  0.1405390E+04  0.7818609E-02  0.8949926E-01
       -2   -1    0    0    0  501  0.00000000000E+00  0.00000000000E+00  0.79791838318E+03  0.79791838319E+03  0.25500000920E-02 0. -1.
        2   -1    0    0  501    0  0.00000000000E+00  0.00000000000E+00 -0.61883536918E+03  0.61883536918E+03  0.25500000920E-02 0.  1.
    10030    2    1    2    0    0  0.00000000000E+00  0.00000000000E+00  0.17908301400E+03  0.14167537524E+04  0.14053897925E+04 0.  0.
        4    1    3    3  502    0  0.86543229843E+02 -0.30183062781E+03  0.72326371500E+03  0.78848175176E+03  0.12699999809E+01 0. -1.
       -4    1    3    3    0  502 -0.86543229843E+02  0.30183062781E+03 -0.54418070100E+03  0.62827200061E+03  0.12699999809E+01 0.  1.
</event>
<event>
 5   0  0.1644571E-03  0.1388399E+04  0.7818609E-02  0.8962259E-01
        1   -1    0    0  501    0  0.00000000000E+00  0.00000000000E+00  0.10168980199E+04  0.10168980199E+04  0.50400001928E-02 0. -1.
       -1   -1    0    0    0  501  0.00000000000E+00  0.00000000000E+00 -0.47390484743E+03  0.47390484746E+03  0.50400001928E-02 0.  1.
    10030    2    1    2    0    0  0.00000000000E+00  0.00000000000E+00  0.54299317246E+03  0.14908028674E+04  0.13883989355E+04 0.  0.
        4    1    3    3  502    0  0.32189461680E+03  0.58174446863E+03  0.57098458705E+02  0.66731148499E+03  0.12699999809E+01 0. -1.
       -4    1    3    3    0  502 -0.32189461680E+03 -0.58174446863E+03  0.48589471376E+03  0.82349138239E+03  0.12699999809E+01 0.  1.
</event>
<event>
 5   0  0.1586022E-03  0.1390636E+04  0.7818609E-02  0.8960625E-01
        1   -1    0    0  501    0  0.00000000000E+00  0.00000000000E+00  0.10707588981E+04  0.10707588981E+04  0.50400001928E-02 0. -1.
       -1   -1    0    0    0  501  0.00000000000E+00  0.00000000000E+00 -0.45151788363E+03  0.45151788365E+03  0.50400001928E-02 0.  1.
    10030    2    1    2    0    0  0.00000000000E+00  0.00000000000E+00  0.61924101444E+03  0.15222767817E+04  0.13906355260E+04 0.  0.
        1    1    3    3  502    0  0.24947803923E+03 -0.45911709964E+03 -0.19254098489E+03  0.55686608276E+03  0.50400001928E-02 0.  1.
       -1    1    3    3    0  502 -0.24947803923E+03  0.45911709964E+03  0.81178199933E+03  0.96541069898E+03  0.50400001928E-02 0. -1.
</event>
<event>
 5   0  0.2917809E-03  0.1437788E+04  0.7818609E-02  0.8926911E-01
        2   -1    0    0  501    0  0.00000000000E+00  0.00000000000E+00  0.13973057548E+04  0.13973057548E+04  0.25500000920E-02 0. -1.
       -2   -1    0    0    0  501  0.00000000000E+00  0.00000000000E+00 -0.36986061715E+03  0.36986061716E+03  0.25500000920E-02 0.  1.
    10030    2    1    2    0    0  0.00000000000E+00  0.00000000000E+00  0.10274451377E+04  0.17671663720E+04  0.14377877018E+04 0.  0.
        2    1    3    3  502    0 -0.25504410238E+03 -0.13795738195E+03  0.13222420557E+04  0.13536630996E+04  0.25500000920E-02 0. -1.
       -2    1    3    3    0  502  0.25504410238E+03  0.13795738195E+03 -0.29479691801E+03  0.41350327238E+03  0.25500000920E-02 0.  1.
</event>
<event>
 5   0  0.2993993E-03  0.1343858E+04  0.7818609E-02  0.8995491E-01
        2   -1    0    0  501    0  0.00000000000E+00  0.00000000000E+00  0.54203769641E+03  0.54203769642E+03  0.25500000920E-02 0. -1.
       -2   -1    0    0    0  501  0.00000000000E+00  0.00000000000E+00 -0.83294662269E+03  0.83294662270E+03  0.25500000920E-02 0.  1.
    10030    2    1    2    0    0  0.00000000000E+00  0.00000000000E+00 -0.29090892628E+03  0.13749843191E+04  0.13438578327E+04 0.  0.
        3    1    3    3  502    0 -0.18498268709E+03  0.50315433700E+03  0.26902793178E+03  0.59979906605E+03  0.10100000352E+00 0. -1.
       -3    1    3    3    0  502  0.18498268709E+03 -0.50315433700E+03 -0.55993685806E+03  0.77518525307E+03  0.10100000352E+00 0.  1.
</event>
<event>
 5   0  0.1644571E-03  0.1245669E+04  0.7818609E-02  0.9073796E-01
        1   -1    0    0  501    0  0.00000000000E+00  0.00000000000E+00  0.34675852721E+03  0.34675852725E+03  0.50400001928E-02 0.  1.
       -1   -1    0    0    0  501  0.00000000000E+00  0.00000000000E+00 -0.11187118037E+04  0.11187118037E+04  0.50400001928E-02 0. -1.
    10030    2    1    2    0    0  0.00000000000E+00  0.00000000000E+00 -0.77195327652E+03  0.14654703310E+04  0.12456690692E+04 0.  0.
        4    1    3    3  502    0 -0.31960557055E+03 -0.94367088049E+02  0.23305240678E+03  0.40665452812E+03  0.12699999809E+01 0.  1.
       -4    1    3    3    0  502  0.31960557055E+03  0.94367088049E+02 -0.10050056833E+04  0.10588158029E+04  0.12699999809E+01 0. -1.
</event>
<event>
 5   0  0.1700207E-03  0.1379684E+04  0.7818609E-02  0.8968657E-01
        1   -1    0    0  501    0  0.00000000000E+00  0.00000000000E+00  0.69778059397E+03  0.69778059399E+03  0.50400001928E-02 0.  1.
       -1   -1    0    0    0  501  0.00000000000E+00  0.00000000000E+00 -0.68199324905E+03  0.68199324907E+03  0.50400001928E-02 0. -1.
    10030    2    1    2    0    0  0.00000000000E+00  0.00000000000E+00  0.15787344921E+02  0.13797738431E+04  0.13796835209E+04 0.  0.
        2    1    3    3  502    0 -0.60975942055E+03  0.29434679304E+03  0.13994423770E+03  0.69139784147E+03  0.25500000920E-02 0. -1.
       -2    1    3    3    0  502  0.60975942055E+03 -0.29434679304E+03 -0.12415689278E+03  0.68837600158E+03  0.25500000920E-02 0.  1.
</event>
<event>
 5   0  0.1586022E-03  0.1369737E+04  0.7818609E-02  0.8976021E-01
        1   -1    0    0  501    0  0.00000000000E+00  0.00000000000E+00  0.67918263092E+03  0.67918263094E+03  0.50400001928E-02 0.  1.
       -1   -1    0    0    0  501  0.00000000000E+00  0.00000000000E+00 -0.69060191492E+03  0.69060191493E+03  0.50400001928E-02 0. -1.
    10030    2    1    2    0    0  0.00000000000E+00  0.00000000000E+00 -0.11419283994E+02  0.13697845459E+04  0.13697369463E+04 0.  0.
        1    1    3    3  502    0 -0.49859813439E+03 -0.36888002891E+03 -0.29618875358E+03  0.68731386798E+03  0.50400001928E-02 0. -1.
       -1    1    3    3    0  502  0.49859813439E+03  0.36888002891E+03  0.28476946958E+03  0.68247067789E+03  0.50400001928E-02 0.  1.
</event>
<event>
 5   0  0.2917809E-03  0.1116939E+04  0.7818609E-02  0.9188838E-01
        2   -1    0    0  501    0  0.00000000000E+00  0.00000000000E+00  0.13407859444E+04  0.13407859444E+04  0.25500000920E-02 0.  1.
       -2   -1    0    0    0  501  0.00000000000E+00  0.00000000000E+00 -0.23261581141E+03  0.23261581142E+03  0.25500000920E-02 0. -1.
    10030    2    1    2    0    0  0.00000000000E+00  0.00000000000E+00  0.11081701330E+04  0.15734017559E+04  0.11169386920E+04 0.  0.
        2    1    3    3  502    0  0.23208072606E+02 -0.26008236403E+03  0.12494998267E+04  0.12764917812E+04  0.25500000920E-02 0.  1.
       -2    1    3    3    0  502 -0.23208072606E+02  0.26008236403E+03 -0.14132969365E+03  0.29690997462E+03  0.25500000920E-02 0. -1.
</event>
<event>
 5   0  0.1560957E-03  0.1391418E+04  0.7818609E-02  0.8960054E-01
        1   -1    0    0  501    0  0.00000000000E+00  0.00000000000E+00  0.20676559279E+04  0.20676559279E+04  0.50400001928E-02 0.  1.
       -1   -1    0    0    0  501  0.00000000000E+00  0.00000000000E+00 -0.23408675669E+03  0.23408675675E+03  0.50400001928E-02 0. -1.
    10030    2    1    2    0    0  0.00000000000E+00  0.00000000000E+00  0.18335691712E+04  0.23017426847E+04  0.13914177952E+04 0.  0.
        5    1    3    3  502    0 -0.55570365181E+03 -0.41805903327E+03  0.88333465921E+03  0.11242251172E+04  0.46999998093E+01 0.  1.
       -5    1    3    3    0  502  0.55570365181E+03  0.41805903327E+03  0.95023451200E+03  0.11775175675E+04  0.46999998093E+01 0. -1.
</event>
<event>
 5   0  0.1631380E-03  0.1432244E+04  0.7818609E-02  0.8930804E-01
        1   -1    0    0  501    0  0.00000000000E+00  0.00000000000E+00  0.90914372651E+03  0.90914372653E+03  0.50400001928E-02 0.  1.
       -1   -1    0    0    0  501  0.00000000000E+00  0.00000000000E+00 -0.56408067930E+03  0.56408067933E+03  0.50400001928E-02 0. -1.
    10030    2    1    2    0    0  0.00000000000E+00  0.00000000000E+00  0.34506304721E+03  0.14732244059E+04  0.14322435699E+04 0.  0.
        3    1    3    3  502    0  0.52365242928E+03 -0.20862485274E+03 -0.28180139875E+03  0.63019698064E+03  0.10100000352E+00 0. -1.
       -3    1    3    3    0  502 -0.52365242928E+03  0.20862485274E+03  0.62686444595E+03  0.84302742522E+03  0.10100000352E+00 0.  1.
</event>
<event>
 5   0  0.2993993E-03  0.1419006E+04  0.7818609E-02  0.8940174E-01
        2   -1    0    0  501    0  0.00000000000E+00  0.00000000000E+00  0.23362366080E+04  0.23362366080E+04  0.25500000920E-02 0. -1.
       -2   -1    0    0    0  501  0.00000000000E+00  0.00000000000E+00 -0.21547253795E+03  0.21547253796E+03  0.25500000920E-02 0.  1.
    10030    2    1    2    0    0  0.00000000000E+00  0.00000000000E+00  0.21207640700E+04  0.25517091459E+04  0.14190064569E+04 0.  0.
        3    1    3    3  502    0 -0.73632748894E+02  0.23126553061E+03  0.22592668264E+04  0.22722658582E+04  0.10100000352E+00 0. -1.
       -3    1    3    3    0  502  0.73632748894E+02 -0.23126553061E+03 -0.13850275633E+03  0.27944328776E+03  0.10100000352E+00 0.  1.
</event>
<event>
 5   0  0.2993993E-03  0.1401073E+04  0.7818609E-02  0.8953042E-01
        2   -1    0    0  501    0  0.00000000000E+00  0.00000000000E+00  0.13154261298E+04  0.13154261298E+04  0.25500000920E-02 0.  1.
       -2   -1    0    0    0  501  0.00000000000E+00  0.00000000000E+00 -0.37307393888E+03  0.37307393889E+03  0.25500000920E-02 0. -1.
    10030    2    1    2    0    0  0.00000000000E+00  0.00000000000E+00  0.94235219092E+03  0.16885000687E+04  0.14010727427E+04 0.  0.
        3    1    3    3  502    0 -0.40101928508E+03 -0.33995449220E+03  0.10291553084E+04  0.11556583331E+04  0.10100000352E+00 0.  1.
       -3    1    3    3    0  502  0.40101928508E+03  0.33995449220E+03 -0.86803117526E+02  0.53284173559E+03  0.10100000352E+00 0. -1.
</event>
<event>
 5   0  0.1586022E-03  0.1367806E+04  0.7818609E-02  0.8977457E-01
       -1   -1    0    0    0  501  0.00000000000E+00  0.00000000000E+00  0.22808073030E+03  0.22808073036E+03  0.50400001928E-02 0.  1.
        1   -1    0    0  501    0  0.00000000000E+00  0.00000000000E+00 -0.20506926374E+04  0.20506926374E+04  0.50400001928E-02 0. -1.
    10030    2    1    2    0    0  0.00000000000E+00  0.00000000000E+00 -0.18226119071E+04  0.22787733678E+04  0.13678062354E+04 0.  0.
        1    1    3    3  502    0  0.38171897996E+03 -0.55125437326E+03 -0.68696533017E+03  0.95995423254E+03  0.50400001928E-02 0. -1.
       -1    1    3    3    0  502 -0.38171897996E+03  0.55125437326E+03 -0.11356465769E+04  0.13188191352E+04  0.50400001928E-02 0.  1.
</event>
<event>
 5   0  0.3006737E-03  0.1399400E+04  0.7818609E-02  0.8954253E-01
       -2   -1    0    0    0  501  0.00000000000E+00  0.00000000000E+00  0.86227259374E+03  0.86227259374E+03  0.25500000920E-02 0.  1.
        2   -1    0    0  501    0  0.00000000000E+00  0.00000000000E+00 -0.56777852239E+03  0.56777852239E+03  0.25500000920E-02 0. -1.
    10030    2    1    2    0    0  0.00000000000E+00  0.00000000000E+00  0.29449407135E+03  0.14300511161E+04  0.13993996701E+04 0.  0.
        1    1    3    3  502    0 -0.42133965160E+03  0.52870746376E+03  0.33153327501E+03  0.75297609305E+03  0.50400001928E-02 0.  1.
       -1    1    3    3    0  502  0.42133965160E+03 -0.52870746376E+03 -0.37039203660E+02  0.67707502308E+03  0.50400001928E-02 0. -1.
</event>
<event>
 5   0  0.1700207E-03  0.1418506E+04  0.7818609E-02  0.8940531E-01
        1   -1    0    0  501    0  0.00000000000E+00  0.00000000000E+00  0.53144790978E+03  0.53144790981E+03  0.50400001928E-02 0. -1.
       -1   -1    0    0    0  501  0.00000000000E+00  0.00000000000E+00 -0.94654563795E+03  0.94654563797E+03  0.50400001928E-02 0.  1.
    10030    2    1    2    0    0  0.00000000000E+00  0.00000000000E+00 -0.41509772817E+03  0.14779935478E+04  0.14185058348E+04 0.  0.
        2    1    3    3  502    0 -0.42151955773E+03  0.38184034022E+03  0.23396556502E+03  0.61499647852E+03  0.25500000920E-02 0. -1.
       -2    1    3    3    0  502  0.42151955773E+03 -0.38184034022E+03 -0.64906329319E+03  0.86299706925E+03  0.25500000920E-02 0.  1.
</event>
<event>
 5   0  0.1586022E-03  0.1372758E+04  0.7818609E-02  0.8973777E-01
        1   -1    0    0  501    0  0.00000000000E+00  0.00000000000E+00  0.12085435161E+04  0.12085435162E+04  0.50400001928E-02 0. -1.
       -1   -1    0    0    0  501  0.00000000000E+00  0.00000000000E+00 -0.38982151553E+03  0.38982151556E+03  0.50400001928E-02 0.  1.
    10030    2    1    2    0    0  0.00000000000E+00  0.00000000000E+00  0.81872200061E+03  0.15983650317E+04  0.13727581944E+04 0.  0.
        1    1    3    3  502    0  0.13852052621E+03  0.13408726692E+03 -0.35764937322E+03  0.40630088054E+03  0.50400001928E-02 0.  1.
       -1    1    3    3    0  502 -0.13852052621E+03 -0.13408726692E+03  0.11763713738E+04  0.11920641512E+04  0.50400001928E-02 0. -1.
</event>
<event>
 5   0  0.1104538E-03  0.1445736E+04  0.7818609E-02  0.8921362E-01
        4   -1    0    0  501    0  0.00000000000E+00  0.00000000000E+00  0.77829731073E+03  0.77829834690E+03  0.12699999809E+01 0.  1.
       -4   -1    0    0    0  501  0.00000000000E+00  0.00000000000E+00 -0.67138457574E+03  0.67138577691E+03  0.12699999809E+01 0. -1.
    10030    2    1    2    0    0  0.00000000000E+00  0.00000000000E+00  0.10691273499E+03  0.14496841238E+04  0.14457363957E+04 0.  0.
        2    1    3    3  502    0  0.20995954372E+03  0.49157574018E+03 -0.43450237940E+03  0.68885559883E+03  0.25500000920E-02 0. -1.
       -2    1    3    3    0  502 -0.20995954372E+03 -0.49157574018E+03  0.54141511439E+03  0.76082852499E+03  0.25500000920E-02 0.  1.
</event>
<event>
 5   0  0.3006737E-03  0.1410074E+04  0.7818609E-02  0.8946559E-01
        2   -1    0    0  501    0  0.00000000000E+00  0.00000000000E+00  0.13215639286E+04  0.13215639286E+04  0.25500000920E-02 0. -1.
       -2   -1    0    0    0  501  0.00000000000E+00  0.00000000000E+00 -0.37612802658E+03  0.37612802659E+03  0.25500000920E-02 0.  1.
    10030    2    1    2    0    0  0.00000000000E+00  0.00000000000E+00  0.94543590204E+03  0.16976919552E+04  0.14100740867E+04 0.  0.
        1    1    3    3  502    0 -0.28798306649E+03  0.28352693018E+03 -0.22283652943E+03  0.46149527148E+03  0.50400001928E-02 0.  1.
       -1    1    3    3    0  502  0.28798306649E+03 -0.28352693018E+03  0.11682724315E+04  0.12361966837E+04  0.50400001928E-02 0. -1.
</event>
<event>
 5   0  0.1700207E-03  0.1365268E+04  0.7818609E-02  0.8979350E-01
       -1   -1    0    0    0  501  0.00000000000E+00  0.00000000000E+00  0.30412142099E+03  0.30412142103E+03  0.50400001928E-02 0. -1.
        1   -1    0    0  501    0  0.00000000000E+00  0.00000000000E+00 -0.15322467686E+04  0.15322467687E+04  0.50400001928E-02 0.  1.
    10030    2    1    2    0    0  0.00000000000E+00  0.00000000000E+00 -0.12281253477E+04  0.18363681897E+04  0.13652678340E+04 0.  0.
        2    1    3    3  502    0  0.48499396243E+02  0.62800603566E+03 -0.26011665686E+03  0.68147226462E+03  0.25500000920E-02 0.  1.
       -2    1    3    3    0  502 -0.48499396243E+02 -0.62800603566E+03 -0.96800869080E+03  0.11548959251E+04  0.25500000920E-02 0. -1.
</event>
<event>
 5   0  0.1700207E-03  0.1408731E+04  0.7818609E-02  0.8947523E-01
       -1   -1    0    0    0  501  0.00000000000E+00  0.00000000000E+00  0.56280605229E+03  0.56280605231E+03  0.50400001928E-02 0. -1.
        1   -1    0    0  501    0  0.00000000000E+00  0.00000000000E+00 -0.88153047353E+03  0.88153047354E+03  0.50400001928E-02 0.  1.
    10030    2    1    2    0    0  0.00000000000E+00  0.00000000000E+00 -0.31872442124E+03  0.14443365259E+04  0.14087308981E+04 0.  0.
        2    1    3    3  502    0 -0.28445321639E+02  0.22672520303E+03 -0.84247333191E+03  0.87291166163E+03  0.25500000920E-02 0.  1.
       -2    1    3    3    0  502  0.28445321639E+02 -0.22672520303E+03  0.52374891067E+03  0.57142486422E+03  0.25500000920E-02 0. -1.
</event>
<event>
 5   0  0.2917809E-03  0.1389961E+04  0.7818609E-02  0.8961117E-01
       -2   -1    0    0    0  501  0.00000000000E+00  0.00000000000E+00  0.39373216929E+03  0.39373216930E+03  0.25500000920E-02 0.  1.
        2   -1    0    0  501    0  0.00000000000E+00  0.00000000000E+00 -0.12267168992E+04  0.12267168992E+04  0.25500000920E-02 0. -1.
    10030    2    1    2    0    0  0.00000000000E+00  0.00000000000E+00 -0.83298472991E+03  0.16204490685E+04  0.13899610151E+04 0.  0.
        2    1    3    3  502    0 -0.83632741970E+01 -0.69491649590E+03 -0.42157744010E+03  0.81283849481E+03  0.25500000920E-02 0. -1.
       -2    1    3    3    0  502  0.83632741970E+01  0.69491649590E+03 -0.41140728981E+03  0.80761057370E+03  0.25500000920E-02 0.  1.
</event>
<event>
 5   0  0.1104538E-03  0.1090487E+04  0.7818609E-02  0.9214514E-01
        3   -1    0    0  501    0  0.00000000000E+00  0.00000000000E+00  0.27331697413E+03  0.27331699279E+03  0.10100000352E+00 0.  1.
       -3   -1    0    0    0  501  0.00000000000E+00  0.00000000000E+00 -0.10877134429E+04  0.10877134476E+04  0.10100000352E+00 0. -1.
    10030    2    1    2    0    0  0.00000000000E+00  0.00000000000E+00 -0.81439646880E+03  0.13610304404E+04  0.10904871624E+04 0.  0.
        5    1    3    3  502    0 -0.31021364518E+03 -0.10105174342E+03  0.13801245489E+03  0.35427882833E+03  0.46999998093E+01 0.  1.
       -5    1    3    3    0  502  0.31021364518E+03  0.10105174342E+03 -0.95240892369E+03  0.10067516121E+04  0.46999998093E+01 0. -1.
</event>
<event>
 5   0  0.1631380E-03  0.1436312E+04  0.7818609E-02  0.8927945E-01
       -1   -1    0    0    0  501  0.00000000000E+00  0.00000000000E+00  0.51524679786E+03  0.51524679789E+03  0.50400001928E-02 0.  1.
        1   -1    0    0  501    0  0.00000000000E+00  0.00000000000E+00 -0.10009729460E+04  0.10009729461E+04  0.50400001928E-02 0. -1.
    10030    2    1    2    0    0  0.00000000000E+00  0.00000000000E+00 -0.48572614818E+03  0.15162197439E+04  0.14363120903E+04 0.  0.
        3    1    3    3  502    0 -0.17197053542E+03 -0.30708037217E+03  0.41796364644E+03  0.54641178608E+03  0.10100000352E+00 0.  1.
       -3    1    3    3    0  502  0.17197053542E+03  0.30708037217E+03 -0.90368979462E+03  0.96980795786E+03  0.10100000352E+00 0. -1.
</event>
<event>
 5   0  0.2889469E-03  0.1409720E+04  0.7818609E-02  0.8946812E-01
       -2   -1    0    0    0  501  0.00000000000E+00  0.00000000000E+00  0.22061311181E+03  0.22061311182E+03  0.25500000920E-02 0.  1.
        2   -1    0    0  501    0  0.00000000000E+00  0.00000000000E+00 -0.22520324328E+04  0.22520324328E+04  0.25500000920E-02 0. -1.
    10030    2    1    2    0    0  0.00000000000E+00  0.00000000000E+00 -0.20314193210E+04  0.24726455446E+04  0.14097203736E+04 0.  0.
        5    1    3    3  502    0 -0.22857267389E+03  0.23999677448E+03  0.75386372751E+02  0.33992515971E+03  0.46999998093E+01 0.  1.
       -5    1    3    3    0  502  0.22857267389E+03 -0.23999677448E+03 -0.21068056937E+04  0.21327203849E+04  0.46999998093E+01 0. -1.
</event>
<event>
 5   0  0.1631380E-03  0.1384064E+04  0.7818609E-02  0.8965435E-01
       -1   -1    0    0    0  501  0.00000000000E+00  0.00000000000E+00  0.46016325151E+03  0.46016325153E+03  0.50400001928E-02 0.  1.
        1   -1    0    0  501    0  0.00000000000E+00  0.00000000000E+00 -0.10407361438E+04  0.10407361438E+04  0.50400001928E-02 0. -1.
    10030    2    1    2    0    0  0.00000000000E+00  0.00000000000E+00 -0.58057289228E+03  0.15008993953E+04  0.13840643452E+04 0.  0.
        3    1    3    3  502    0 -0.32572883531E+03 -0.54406158621E+03 -0.59082039454E+03  0.86670123604E+03  0.10100000352E+00 0. -1.
       -3    1    3    3    0  502  0.32572883531E+03  0.54406158621E+03  0.10247502264E+02  0.63419815929E+03  0.10100000352E+00 0.  1.
</event>
<event>
 5   0  0.2917809E-03  0.1618103E+04  0.7818609E-02  0.8809503E-01
        2   -1    0    0  501    0  0.00000000000E+00  0.00000000000E+00  0.90854609546E+03  0.90854609546E+03  0.25500000920E-02 0. -1.
       -2   -1    0    0    0  501  0.00000000000E+00  0.00000000000E+00 -0.72045272636E+03  0.72045272637E+03  0.25500000920E-02 0.  1.
    10030    2    1    2    0    0  0.00000000000E+00  0.00000000000E+00  0.18809336910E+03  0.16289988218E+04  0.16181032248E+04 0.  0.
        2    1    3    3  502    0  0.25291737455E+02 -0.78101387080E+03 -0.11698871562E+03  0.79013207628E+03  0.25500000920E-02 0.  1.
       -2    1    3    3    0  502 -0.25291737455E+02  0.78101387080E+03  0.30508208472E+03  0.83886674555E+03  0.25500000920E-02 0. -1.
</event>
<event>
 5   0  0.2917809E-03  0.1861860E+04  0.7818609E-02  0.8674078E-01
        2   -1    0    0  501    0  0.00000000000E+00  0.00000000000E+00  0.20370206127E+04  0.20370206127E+04  0.25500000920E-02 0. -1.
       -2   -1    0    0    0  501  0.00000000000E+00  0.00000000000E+00 -0.42544023897E+03  0.42544023898E+03  0.25500000920E-02 0.  1.
    10030    2    1    2    0    0  0.00000000000E+00  0.00000000000E+00  0.16115803738E+04  0.24624608517E+04  0.18618598618E+04 0.  0.
        2    1    3    3  502    0  0.80379796877E+03 -0.99811595472E+02  0.14127051148E+04  0.16284315370E+04  0.25500000920E-02 0. -1.
       -2    1    3    3    0  502 -0.80379796877E+03  0.99811595472E+02  0.19887525893E+03  0.83402931472E+03  0.25500000920E-02 0.  1.
</event>
<event>
 5   0  0.1586022E-03  0.6965852E+03  0.7818609E-02  0.9723090E-01
       -1   -1    0    0    0  501  0.00000000000E+00  0.00000000000E+00  0.81974254606E+02  0.81974254761E+02  0.50400001928E-02 0. -1.
        1   -1    0    0  501    0  0.00000000000E+00  0.00000000000E+00 -0.14798273618E+04  0.14798273618E+04  0.50400001928E-02 0.  1.
    10030    2    1    2    0    0  0.00000000000E+00  0.00000000000E+00 -0.13978531072E+04  0.15618016166E+04  0.69658522826E+03 0.  0.
        1    1    3    3  502    0  0.17467477351E+02  0.76000313307E+02 -0.14600024224E+04  0.14620835250E+04  0.50400001928E-02 0.  1.
       -1    1    3    3    0  502 -0.17467477351E+02 -0.76000313307E+02  0.62149315235E+02  0.99718091625E+02  0.50400001928E-02 0. -1.
</event>
<event>
 5   0  0.2993993E-03  0.1449330E+04  0.7818609E-02  0.8918865E-01
        2   -1    0    0  501    0  0.00000000000E+00  0.00000000000E+00  0.11615949703E+04  0.11615949703E+04  0.25500000920E-02 0. -1.
       -2   -1    0    0    0  501  0.00000000000E+00  0.00000000000E+00 -0.45208466362E+03  0.45208466363E+03  0.25500000920E-02 0.  1.
    10030    2    1    2    0    0  0.00000000000E+00  0.00000000000E+00  0.70951030669E+03  0.16136796340E+04  0.14493298747E+04 0.  0.
        3    1    3    3  502    0 -0.30288334954E+03 -0.32360791652E+03 -0.28356117752E+03  0.52618186843E+03  0.10100000352E+00 0.  1.
       -3    1    3    3    0  502  0.30288334954E+03  0.32360791652E+03  0.99307148421E+03  0.10874977655E+04  0.10100000352E+00 0. -1.
</event>
<event>
 5   0  0.2917809E-03  0.1427054E+04  0.7818609E-02  0.8934465E-01
        2   -1    0    0  501    0  0.00000000000E+00  0.00000000000E+00  0.19125580909E+04  0.19125580909E+04  0.25500000920E-02 0.  1.
       -2   -1    0    0    0  501  0.00000000000E+00  0.00000000000E+00 -0.26619877574E+03  0.26619877575E+03  0.25500000920E-02 0. -1.
    10030    2    1    2    0    0  0.00000000000E+00  0.00000000000E+00  0.16463593152E+04  0.21787568667E+04  0.14270537794E+04 0.  0.
        2    1    3    3  502    0  0.36299442667E+03 -0.33612900584E+03  0.38166482762E+02  0.49618982534E+03  0.25500000920E-02 0. -1.
       -2    1    3    3    0  502 -0.36299442667E+03  0.33612900584E+03  0.16081928324E+04  0.16825670414E+04  0.25500000920E-02 0.  1.
</event>
<event>
 5   0  0.1631380E-03  0.1417560E+04  0.7818609E-02  0.8941205E-01
       -1   -1    0    0    0  501  0.00000000000E+00  0.00000000000E+00  0.55143155852E+03  0.55143155855E+03  0.50400001928E-02 0. -1.
        1   -1    0    0  501    0  0.00000000000E+00  0.00000000000E+00 -0.91102751834E+03  0.91102751836E+03  0.50400001928E-02 0.  1.
    10030    2    1    2    0    0  0.00000000000E+00  0.00000000000E+00 -0.35959595982E+03  0.14624590769E+04  0.14175603329E+04 0.  0.
        3    1    3    3  502    0  0.48852713243E+03  0.13294951841E+03 -0.69152765161E+03  0.85705591224E+03  0.10100000352E+00 0.  1.
       -3    1    3    3    0  502 -0.48852713243E+03 -0.13294951841E+03  0.33193169179E+03  0.60540316466E+03  0.10100000352E+00 0. -1.
</event>
<event>
 5   0  0.1631380E-03  0.1365076E+04  0.7818609E-02  0.8979494E-01
        1   -1    0    0  501    0  0.00000000000E+00  0.00000000000E+00  0.14128746928E+04  0.14128746928E+04  0.50400001928E-02 0.  1.
       -1   -1    0    0    0  501  0.00000000000E+00  0.00000000000E+00 -0.32972362199E+03  0.32972362203E+03  0.50400001928E-02 0. -1.
    10030    2    1    2    0    0  0.00000000000E+00  0.00000000000E+00  0.10831510708E+04  0.17425983148E+04  0.13650760582E+04 0.  0.
        3    1    3    3  502    0 -0.58610132140E+03  0.30117617206E+03  0.76863171152E+03  0.10124310168E+04  0.10100000352E+00 0.  1.
       -3    1    3    3    0  502  0.58610132140E+03 -0.30117617206E+03  0.31451935924E+03  0.73016729802E+03  0.10100000352E+00 0. -1.
</event>
<event>
 5   0  0.1644571E-03  0.1014386E+04  0.7818609E-02  0.9292906E-01
        1   -1    0    0  501    0  0.00000000000E+00  0.00000000000E+00  0.82085056559E+03  0.82085056560E+03  0.50400001928E-02 0. -1.
       -1   -1    0    0    0  501  0.00000000000E+00  0.00000000000E+00 -0.31338773101E+03  0.31338773105E+03  0.50400001928E-02 0.  1.
    10030    2    1    2    0    0  0.00000000000E+00  0.00000000000E+00  0.50746283458E+03  0.11342382966E+04  0.10143855209E+04 0.  0.
        4    1    3    3  502    0  0.38820825886E+03  0.40722906330E+01 -0.11120580679E+03  0.40384474759E+03  0.12699999809E+01 0.  1.
       -4    1    3    3    0  502 -0.38820825886E+03 -0.40722906330E+01  0.61866864136E+03  0.73039354906E+03  0.12699999809E+01 0. -1.
</event>
<event>
 5   0  0.2993993E-03  0.1390899E+04  0.7818609E-02  0.8960433E-01
       -2   -1    0    0    0  501  0.00000000000E+00  0.00000000000E+00  0.29299000692E+03  0.29299000693E+03  0.25500000920E-02 0. -1.
        2   -1    0    0  501    0  0.00000000000E+00  0.00000000000E+00 -0.16507390000E+04  0.16507390000E+04  0.25500000920E-02 0.  1.
    10030    2    1    2    0    0  0.00000000000E+00  0.00000000000E+00 -0.13577489931E+04  0.19437290070E+04  0.13908990345E+04 0.  0.
        3    1    3    3  502    0 -0.19905472878E+02  0.36785727430E+02 -0.16489797248E+04  0.16495100972E+04  0.10100000352E+00 0.  1.
       -3    1    3    3    0  502  0.19905472878E+02 -0.36785727430E+02  0.29123073171E+03  0.29421890980E+03  0.10100000352E+00 0. -1.
</event>
<event>
 5   0  0.2917809E-03  0.1466973E+04  0.7818609E-02  0.8906718E-01
       -2   -1    0    0    0  501  0.00000000000E+00  0.00000000000E+00  0.52712011357E+03  0.52712011358E+03  0.25500000920E-02 0. -1.
        2   -1    0    0  501    0  0.00000000000E+00  0.00000000000E+00 -0.10206444178E+04  0.10206444178E+04  0.25500000920E-02 0.  1.
    10030    2    1    2    0    0  0.00000000000E+00  0.00000000000E+00 -0.49352430423E+03  0.15477645314E+04  0.14669726670E+04 0.  0.
        2    1    3    3  502    0  0.57876883889E+03  0.42672030271E+03 -0.39943325828E+03  0.82256337959E+03  0.25500000920E-02 0.  1.
       -2    1    3    3    0  502 -0.57876883889E+03 -0.42672030271E+03 -0.94091045952E+02  0.72520115179E+03  0.25500000920E-02 0. -1.
</event>
<event>
 5   0  0.2760807E-03  0.1273798E+04  0.7818609E-02  0.9050606E-01
       -2   -1    0    0    0  501  0.00000000000E+00  0.00000000000E+00  0.73234308080E+03  0.73234308081E+03  0.25500000920E-02 0. -1.
        2   -1    0    0  501    0  0.00000000000E+00  0.00000000000E+00 -0.55389346644E+03  0.55389346645E+03  0.25500000920E-02 0.  1.
    10030    2    1    2    0    0  0.00000000000E+00  0.00000000000E+00  0.17844961436E+03  0.12862365473E+04  0.12737975470E+04 0.  0.
        4    1    3    3  502    0 -0.47513029428E+03  0.27365347521E+03  0.41643147605E+03  0.68851420333E+03  0.12699999809E+01 0.  1.
       -4    1    3    3    0  502  0.47513029428E+03 -0.27365347521E+03 -0.23798186169E+03  0.59772234393E+03  0.12699999809E+01 0. -1.
</event>
<event>
 5   0  0.1700207E-03  0.1421970E+04  0.7818609E-02  0.8938068E-01
        1   -1    0    0  501    0  0.00000000000E+00  0.00000000000E+00  0.14770121268E+04  0.14770121268E+04  0.50400001928E-02 0.  1.
       -1   -1    0    0    0  501  0.00000000000E+00  0.00000000000E+00 -0.34224458155E+03  0.34224458159E+03  0.50400001928E-02 0. -1.
    10030    2    1    2    0    0  0.00000000000E+00  0.00000000000E+00  0.11347675452E+04  0.18192567084E+04  0.14219696161E+04 0.  0.
        2    1    3    3  502    0 -0.30102494745E+03  0.62553215543E+03  0.37086939082E+03  0.78705184170E+03  0.25500000920E-02 0. -1.
       -2    1    3    3    0  502  0.30102494745E+03 -0.62553215543E+03  0.76389815439E+03  0.10322048667E+04  0.25500000920E-02 0.  1.
</event>
<event>
 5   0  0.1104538E-03  0.1330486E+04  0.7818609E-02  0.9005733E-01
        3   -1    0    0  501    0  0.00000000000E+00  0.00000000000E+00  0.10242892615E+04  0.10242892665E+04  0.10100000352E+00 0.  1.
       -3   -1    0    0    0  501  0.00000000000E+00  0.00000000000E+00 -0.43205410864E+03  0.43205412044E+03  0.10100000352E+00 0. -1.
    10030    2    1    2    0    0  0.00000000000E+00  0.00000000000E+00  0.59223515285E+03  0.14563433869E+04  0.13304862210E+04 0.  0.
        4    1    3    3  502    0  0.24052201606E+03 -0.48813074167E+03 -0.12273386828E+03  0.55784198165E+03  0.12699999809E+01 0. -1.
       -4    1    3    3    0  502 -0.24052201606E+03  0.48813074167E+03  0.71496902114E+03  0.89850140526E+03  0.12699999809E+01 0.  1.
</event>
<event>
 5   0  0.3006737E-03  0.1368120E+04  0.7818609E-02  0.8977223E-01
        2   -1    0    0  501    0  0.00000000000E+00  0.00000000000E+00  0.44801719600E+03  0.44801719601E+03  0.25500000920E-02 0.  1.
       -2   -1    0    0    0  501  0.00000000000E+00  0.00000000000E+00 -0.10444651862E+04  0.10444651862E+04  0.25500000920E-02 0. -1.
    10030    2    1    2    0    0  0.00000000000E+00  0.00000000000E+00 -0.59644799015E+03  0.14924823822E+04  0.13681204100E+04 0.  0.
        1    1    3    3  502    0 -0.19154447894E+03 -0.65655360196E+03 -0.28332834372E+03  0.74028836952E+03  0.50400001928E-02 0.  1.
       -1    1    3    3    0  502  0.19154447894E+03  0.65655360196E+03 -0.31311964643E+03  0.75219401265E+03  0.50400001928E-02 0. -1.
</event>
<event>
 5   0  0.2917809E-03  0.1392984E+04  0.7818609E-02  0.8958913E-01
        2   -1    0    0  501    0  0.00000000000E+00  0.00000000000E+00  0.20333057551E+04  0.20333057551E+04  0.25500000920E-02 0.  1.
       -2   -1    0    0    0  501  0.00000000000E+00  0.00000000000E+00 -0.23857755324E+03  0.23857755325E+03  0.25500000920E-02 0. -1.
    10030    2    1    2    0    0  0.00000000000E+00  0.00000000000E+00  0.17947282019E+04  0.22718833084E+04  0.13929840086E+04 0.  0.
        2    1    3    3  502    0  0.27900657537E+03  0.45085625962E+03  0.16075159574E+03  0.55403710298E+03  0.25500000920E-02 0. -1.
       -2    1    3    3    0  502 -0.27900657537E+03 -0.45085625962E+03  0.16339766062E+04  0.17178462054E+04  0.25500000920E-02 0.  1.
</event>
<event>
 5   0  0.1586022E-03  0.1435756E+04  0.7818609E-02  0.8928335E-01
        1   -1    0    0  501    0  0.00000000000E+00  0.00000000000E+00  0.15297524203E+04  0.15297524203E+04  0.50400001928E-02 0. -1.
       -1   -1    0    0    0  501  0.00000000000E+00  0.00000000000E+00 -0.33688399304E+03  0.33688399308E+03  0.50400001928E-02 0.  1.
    10030    2    1    2    0    0  0.00000000000E+00  0.00000000000E+00  0.11928684272E+04  0.18666364134E+04  0.14357563912E+04 0.  0.
        1    1    3    3  502    0  0.15742222517E+03  0.43578845007E+03  0.13093098124E+04  0.13888792298E+04  0.50400001928E-02 0. -1.
       -1    1    3    3    0  502 -0.15742222517E+03 -0.43578845007E+03 -0.11644138518E+03  0.47775718351E+03  0.50400001928E-02 0.  1.
</event>
<event>
 5   0  0.1631380E-03  0.9588602E+03  0.7818609E-02  0.9354854E-01
       -1   -1    0    0    0  501  0.00000000000E+00  0.00000000000E+00  0.64022253511E+03  0.64022253513E+03  0.50400001928E-02 0. -1.
        1   -1    0    0  501    0  0.00000000000E+00  0.00000000000E+00 -0.35902084393E+03  0.35902084397E+03  0.50400001928E-02 0.  1.
    10030    2    1    2    0    0  0.00000000000E+00  0.00000000000E+00  0.28120169117E+03  0.99924337910E+03  0.95886022941E+03 0.  0.
        3    1    3    3  502    0  0.24260743703E+03 -0.16301101552E+03 -0.25543368079E+03  0.38817178564E+03  0.10100000352E+00 0.  1.
       -3    1    3    3    0  502 -0.24260743703E+03  0.16301101552E+03  0.53663537197E+03  0.61107159346E+03  0.10100000352E+00 0. -1.
</event>
<event>
 5   0  0.1644571E-03  0.1429877E+04  0.7818609E-02  0.8932471E-01
       -1   -1    0    0    0  501  0.00000000000E+00  0.00000000000E+00  0.32499354506E+03  0.32499354510E+03  0.50400001928E-02 0. -1.
        1   -1    0    0  501    0  0.00000000000E+00  0.00000000000E+00 -0.15727611710E+04  0.15727611711E+04  0.50400001928E-02 0.  1.
    10030    2    1    2    0    0  0.00000000000E+00  0.00000000000E+00 -0.12477676260E+04  0.18977547162E+04  0.14298772375E+04 0.  0.
        4    1    3    3  502    0 -0.55802469808E+03 -0.68657224912E+02 -0.12100115875E+04  0.13342544859E+04  0.12699999809E+01 0.  1.
       -4    1    3    3    0  502  0.55802469808E+03  0.68657224912E+02 -0.37756038464E+02  0.56350023030E+03  0.12699999809E+01 0. -1.
</event>
<event>
 5   0  0.1104538E-03  0.1384813E+04  0.7818609E-02  0.8964885E-01
        3   -1    0    0  501    0  0.00000000000E+00  0.00000000000E+00  0.55533572760E+03  0.55533573679E+03  0.10100000352E+00 0. -1.
       -3   -1    0    0    0  501  0.00000000000E+00  0.00000000000E+00 -0.86331018216E+03  0.86331018807E+03  0.10100000352E+00 0.  1.
    10030    2    1    2    0    0  0.00000000000E+00  0.00000000000E+00 -0.30797445455E+03  0.14186459249E+04  0.13848133432E+04 0.  0.
        5    1    3    3  502    0 -0.16960079245E+03  0.43753549935E+03 -0.67554560648E+03  0.82254829550E+03  0.46999998093E+01 0.  1.
       -5    1    3    3    0  502  0.16960079245E+03 -0.43753549935E+03  0.36757115193E+03  0.59609762935E+03  0.46999998093E+01 0. -1.
</event>
<event>
 5   0  0.1586022E-03  0.1371161E+04  0.7818609E-02  0.8974963E-01
        1   -1    0    0  501    0  0.00000000000E+00  0.00000000000E+00  0.11472503632E+04  0.11472503633E+04  0.50400001928E-02 0.  1.
       -1   -1    0    0    0  501  0.00000000000E+00  0.00000000000E+00 -0.40969293896E+03  0.40969293899E+03  0.50400001928E-02 0. -1.
    10030    2    1    2    0    0  0.00000000000E+00  0.00000000000E+00  0.73755742429E+03  0.15569433022E+04  0.13711606369E+04 0.  0.
        1    1    3    3  502    0  0.66315592727E+02 -0.45899095581E+03 -0.20456083427E+03  0.50686841517E+03  0.50400001928E-02 0. -1.
       -1    1    3    3    0  502 -0.66315592727E+02  0.45899095581E+03  0.94211825856E+03  0.10500748871E+04  0.50400001928E-02 0.  1.
</event>
<event>
 5   0  0.2993993E-03  0.1373787E+04  0.7818609E-02  0.8973015E-01
        2   -1    0    0  501    0  0.00000000000E+00  0.00000000000E+00  0.14622481088E+04  0.14622481088E+04  0.25500000920E-02 0.  1.
       -2   -1    0    0    0  501  0.00000000000E+00  0.00000000000E+00 -0.32266931726E+03  0.32266931727E+03  0.25500000920E-02 0. -1.
    10030    2    1    2    0    0  0.00000000000E+00  0.00000000000E+00  0.11395787916E+04  0.17849174261E+04  0.13737868815E+04 0.  0.
        3    1    3    3  502    0 -0.49143152908E+03 -0.22751578561E+03  0.11188038896E+04  0.12429764817E+04  0.10100000352E+00 0.  1.
       -3    1    3    3    0  502  0.49143152908E+03  0.22751578561E+03  0.20774901968E+02  0.54194094441E+03  0.10100000352E+00 0. -1.
</event>
<event>
 5   0  0.1700207E-03  0.1424085E+04  0.7818609E-02  0.8936567E-01
        1   -1    0    0  501    0  0.00000000000E+00  0.00000000000E+00  0.11082807514E+04  0.11082807514E+04  0.50400001928E-02 0. -1.
       -1   -1    0    0    0  501  0.00000000000E+00  0.00000000000E+00 -0.45746909327E+03  0.45746909330E+03  0.50400001928E-02 0.  1.
    10030    2    1    2    0    0  0.00000000000E+00  0.00000000000E+00  0.65081165815E+03  0.15657498447E+04  0.14240845347E+04 0.  0.
        2    1    3    3  502    0 -0.47017728766E+03  0.22252824670E+02 -0.26201019415E+03  0.53871255033E+03  0.25500000920E-02 0.  1.
       -2    1    3    3    0  502  0.47017728766E+03 -0.22252824670E+02  0.91282185230E+03  0.10270372944E+04  0.25500000920E-02 0. -1.
</event>
<event>
 5   0  0.3006737E-03  0.1418571E+04  0.7818609E-02  0.8940485E-01
        2   -1    0    0  501    0  0.00000000000E+00  0.00000000000E+00  0.70845227822E+03  0.70845227822E+03  0.25500000920E-02 0. -1.
       -2   -1    0    0    0  501  0.00000000000E+00  0.00000000000E+00 -0.71011972793E+03  0.71011972793E+03  0.25500000920E-02 0.  1.
    10030    2    1    2    0    0  0.00000000000E+00  0.00000000000E+00 -0.16674497108E+01  0.14185720062E+04  0.14185710262E+04 0.  0.
        1    1    3    3  502    0 -0.58666912594E+03 -0.25423541309E+02 -0.39865169568E+03  0.70975361519E+03  0.50400001928E-02 0.  1.
       -1    1    3    3    0  502  0.58666912594E+03  0.25423541309E+02  0.39698424597E+03  0.70881839096E+03  0.50400001928E-02 0. -1.
</event>
<event>
 5   0  0.1700207E-03  0.1361879E+04  0.7818609E-02  0.8981884E-01
       -1   -1    0    0    0  501  0.00000000000E+00  0.00000000000E+00  0.77723133527E+03  0.77723133529E+03  0.50400001928E-02 0. -1.
        1   -1    0    0  501    0  0.00000000000E+00  0.00000000000E+00 -0.59657774985E+03  0.59657774987E+03  0.50400001928E-02 0.  1.
    10030    2    1    2    0    0  0.00000000000E+00  0.00000000000E+00  0.18065358542E+03  0.13738090852E+04  0.13618794677E+04 0.  0.
        2    1    3    3  502    0 -0.50738793409E+03  0.25514600333E+03 -0.28864600110E+03  0.63707025722E+03  0.25500000920E-02 0.  1.
       -2    1    3    3    0  502  0.50738793409E+03 -0.25514600333E+03  0.46929958652E+03  0.73673882794E+03  0.25500000920E-02 0. -1.
</event>
<event>
 5   0  0.1631380E-03  0.1433216E+04  0.7818609E-02  0.8930120E-01
        1   -1    0    0  501    0  0.00000000000E+00  0.00000000000E+00  0.17587579216E+04  0.17587579216E+04  0.50400001928E-02 0. -1.
       -1   -1    0    0    0  501  0.00000000000E+00  0.00000000000E+00 -0.29198293349E+03  0.29198293353E+03  0.50400001928E-02 0.  1.
    10030    2    1    2    0    0  0.00000000000E+00  0.00000000000E+00  0.14667749881E+04  0.20507408552E+04  0.14332163791E+04 0.  0.
        3    1    3    3  502    0 -0.60085191004E+03 -0.39028868380E+03  0.75253185252E+03  0.10390632675E+04  0.10100000352E+00 0. -1.
       -3    1    3    3    0  502  0.60085191004E+03  0.39028868380E+03  0.71424313560E+03  0.10116775877E+04  0.10100000352E+00 0.  1.
</event>
<event>
 5   0  0.2760807E-03  0.1335178E+04  0.7818609E-02  0.9002125E-01
       -2   -1    0    0    0  501  0.00000000000E+00  0.00000000000E+00  0.53225964945E+03  0.53225964946E+03  0.25500000920E-02 0. -1.
        2   -1    0    0  501    0  0.00000000000E+00  0.00000000000E+00 -0.83732633746E+03  0.83732633747E+03  0.25500000920E-02 0.  1.
    10030    2    1    2    0    0  0.00000000000E+00  0.00000000000E+00 -0.30506668801E+03  0.13695859869E+04  0.13351779250E+04 0.  0.
        4    1    3    3  502    0 -0.28833184297E+03 -0.12962772624E+03  0.45061163269E+03  0.55044623306E+03  0.12699999809E+01 0. -1.
       -4    1    3    3    0  502  0.28833184297E+03  0.12962772624E+03 -0.75567832070E+03  0.81913975386E+03  0.12699999809E+01 0.  1.
</event>
<event>
 5   0  0.1644571E-03  0.1417765E+04  0.7818609E-02  0.8941059E-01
       -1   -1    0    0    0  501  0.00000000000E+00  0.00000000000E+00  0.44730880315E+03  0.44730880318E+03  0.50400001928E-02 0.  1.
        1   -1    0    0  501    0  0.00000000000E+00  0.00000000000E+00 -0.11234175416E+04  0.11234175417E+04  0.50400001928E-02 0. -1.
    10030    2    1    2    0    0  0.00000000000E+00  0.00000000000E+00 -0.67610873850E+03  0.15707263448E+04  0.14177652218E+04 0.  0.
        4    1    3    3  502    0  0.56912580146E+03  0.44357232286E+01 -0.80624602668E+03  0.98689316644E+03  0.12699999809E+01 0. -1.
       -4    1    3    3    0  502 -0.56912580146E+03 -0.44357232286E+01  0.13013728818E+03  0.58383317840E+03  0.12699999809E+01 0.  1.
</event>
<event>
 5   0  0.2917809E-03  0.1404156E+04  0.7818609E-02  0.8950816E-01
       -2   -1    0    0    0  501  0.00000000000E+00  0.00000000000E+00  0.13568347098E+04  0.13568347098E+04  0.25500000920E-02 0.  1.
        2   -1    0    0  501    0  0.00000000000E+00  0.00000000000E+00 -0.36328170983E+03  0.36328170984E+03  0.25500000920E-02 0. -1.
    10030    2    1    2    0    0  0.00000000000E+00  0.00000000000E+00  0.99355299993E+03  0.17201164196E+04  0.14041555944E+04 0.  0.
        2    1    3    3  502    0  0.50707234884E+03  0.24041781772E+03 -0.20045007333E+02  0.56153797410E+03  0.25500000920E-02 0. -1.
       -2    1    3    3    0  502 -0.50707234884E+03 -0.24041781772E+03  0.10135980073E+04  0.11585784455E+04  0.25500000920E-02 0.  1.
</event>
<event>
 5   0  0.1560957E-03  0.1365850E+04  0.7818609E-02  0.8978915E-01
        1   -1    0    0  501    0  0.00000000000E+00  0.00000000000E+00  0.12290279006E+04  0.12290279006E+04  0.50400001928E-02 0. -1.
       -1   -1    0    0    0  501  0.00000000000E+00  0.00000000000E+00 -0.37947623735E+03  0.37947623739E+03  0.50400001928E-02 0.  1.
    10030    2    1    2    0    0  0.00000000000E+00  0.00000000000E+00  0.84955166328E+03  0.16085041380E+04  0.13658504799E+04 0.  0.
        5    1    3    3  502    0 -0.54893774491E+03 -0.25256596497E+03  0.50061224982E+02  0.60634184310E+03  0.46999998093E+01 0.  1.
       -5    1    3    3    0  502  0.54893774491E+03  0.25256596497E+03  0.79949043830E+03  0.10021622949E+04  0.46999998093E+01 0. -1.
</event>
<event>
 5   0  0.2993993E-03  0.1377518E+04  0.7818609E-02  0.8970255E-01
       -2   -1    0    0    0  501  0.00000000000E+00  0.00000000000E+00  0.41181957964E+03  0.41181957965E+03  0.25500000920E-02 0.  1.
        2   -1    0    0  501    0  0.00000000000E+00  0.00000000000E+00 -0.11519338753E+04  0.11519338753E+04  0.25500000920E-02 0. -1.
    10030    2    1    2    0    0  0.00000000000E+00  0.00000000000E+00 -0.74011429565E+03  0.15637534549E+04  0.13775179481E+04 0.  0.
        3    1    3    3  502    0  0.56289331117E+03 -0.37351389177E+03 -0.21763866023E+03  0.70973805290E+03  0.10100000352E+00 0. -1.
       -3    1    3    3    0  502 -0.56289331117E+03  0.37351389177E+03 -0.52247563543E+03  0.85401540204E+03  0.10100000352E+00 0.  1.
</event>
<event>
 5   0  0.1700207E-03  0.1421951E+04  0.7818609E-02  0.8938081E-01
       -1   -1    0    0    0  501  0.00000000000E+00  0.00000000000E+00  0.26402971330E+03  0.26402971334E+03  0.50400001928E-02 0. -1.
        1   -1    0    0  501    0  0.00000000000E+00  0.00000000000E+00 -0.19145059647E+04  0.19145059647E+04  0.50400001928E-02 0.  1.
    10030    2    1    2    0    0  0.00000000000E+00  0.00000000000E+00 -0.16504762514E+04  0.21785356781E+04  0.14219514212E+04 0.  0.
        2    1    3    3  502    0 -0.67785960992E+03  0.18473612134E+03 -0.99212441757E+03  0.12157022437E+04  0.25500000920E-02 0.  1.
       -2    1    3    3    0  502  0.67785960992E+03 -0.18473612134E+03 -0.65835183387E+03  0.96283343443E+03  0.25500000920E-02 0. -1.
</event>
<event>
 5   0  0.2917809E-03  0.1347308E+04  0.7818609E-02  0.8992869E-01
        2   -1    0    0  501    0  0.00000000000E+00  0.00000000000E+00  0.84429450610E+03  0.84429450611E+03  0.25500000920E-02 0.  1.
       -2   -1    0    0    0  501  0.00000000000E+00  0.00000000000E+00 -0.53750156737E+03  0.53750156738E+03  0.25500000920E-02 0. -1.
    10030    2    1    2    0    0  0.00000000000E+00  0.00000000000E+00  0.30679293873E+03  0.13817960735E+04  0.13473078644E+04 0.  0.
        2    1    3    3  502    0  0.31814790277E+02  0.76342273767E+02 -0.53227480464E+03  0.53866203811E+03  0.25500000920E-02 0. -1.
       -2    1    3    3    0  502 -0.31814790277E+02 -0.76342273767E+02  0.83906774337E+03  0.84313403538E+03  0.25500000920E-02 0.  1.
</event>
<event>
 5   0  0.3006737E-03  0.1359999E+04  0.7818609E-02  0.8983293E-01
       -2   -1    0    0    0  501  0.00000000000E+00  0.00000000000E+00  0.32399088987E+03  0.32399088988E+03  0.25500000920E-02 0. -1.
        2   -1    0    0  501    0  0.00000000000E+00  0.00000000000E+00 -0.14271992575E+04  0.14271992575E+04  0.25500000920E-02 0.  1.
    10030    2    1    2    0    0  0.00000000000E+00  0.00000000000E+00 -0.11032083676E+04  0.17511901474E+04  0.13599993492E+04 0.  0.
        1    1    3    3  502    0 -0.10753544245E+03  0.12826835635E+03 -0.14002587888E+04  0.14102273995E+04  0.50400001928E-02 0.  1.
       -1    1    3    3    0  502  0.10753544245E+03 -0.12826835635E+03  0.29705042124E+03  0.34096274783E+03  0.50400001928E-02 0. -1.
</event>
<event>
 5   0  0.1631380E-03  0.1402528E+04  0.7818609E-02  0.8951991E-01
        1   -1    0    0  501    0  0.00000000000E+00  0.00000000000E+00  0.71632747465E+03  0.71632747467E+03  0.50400001928E-02 0.  1.
       -1   -1    0    0    0  501  0.00000000000E+00  0.00000000000E+00 -0.68651703367E+03  0.68651703369E+03  0.50400001928E-02 0. -1.
    10030    2    1    2    0    0  0.00000000000E+00  0.00000000000E+00  0.29810440981E+02  0.14028445084E+04  0.14025277367E+04 0.  0.
        3    1    3    3  502    0 -0.60216257512E+03 -0.28729718557E+03  0.23089741877E+03  0.70601208765E+03  0.10100000352E+00 0.  1.
       -3    1    3    3    0  502  0.60216257512E+03  0.28729718557E+03 -0.20108697778E+03  0.69683242071E+03  0.10100000352E+00 0. -1.
</event>
<event>
 5   0  0.1644571E-03  0.1456235E+04  0.7818609E-02  0.8914089E-01
       -1   -1    0    0    0  501  0.00000000000E+00  0.00000000000E+00  0.82711480683E+03  0.82711480685E+03  0.50400001928E-02 0. -1.
        1   -1    0    0  501    0  0.00000000000E+00  0.00000000000E+00 -0.64096912680E+03  0.64096912682E+03  0.50400001928E-02 0.  1.
    10030    2    1    2    0    0  0.00000000000E+00  0.00000000000E+00  0.18614568004E+03  0.14680839337E+04  0.14562349474E+04 0.  0.
        4    1    3    3  502    0 -0.44217216098E+03 -0.21732182587E+03  0.63353986314E+03  0.80257047481E+03  0.12699999809E+01 0. -1.
       -4    1    3    3    0  502  0.44217216098E+03  0.21732182587E+03 -0.44739418311E+03  0.66551345886E+03  0.12699999809E+01 0.  1.
</event>
<event>
 5   0  0.2917809E-03  0.1411983E+04  0.7818609E-02  0.8945190E-01
        2   -1    0    0  501    0  0.00000000000E+00  0.00000000000E+00  0.53184721940E+03  0.53184721941E+03  0.25500000920E-02 0.  1.
       -2   -1    0    0    0  501  0.00000000000E+00  0.00000000000E+00 -0.93715692672E+03  0.93715692672E+03  0.25500000920E-02 0. -1.
    10030    2    1    2    0    0  0.00000000000E+00  0.00000000000E+00 -0.40530970732E+03  0.14690041461E+04  0.14119834356E+04 0.  0.
        2    1    3    3  502    0  0.68881239861E+03  0.15398117531E+03 -0.21915675113E+03  0.73905507535E+03  0.25500000920E-02 0.  1.
       -2    1    3    3    0  502 -0.68881239861E+03 -0.15398117531E+03 -0.18615295619E+03  0.72994907078E+03  0.25500000920E-02 0. -1.
</event>
<event>
 5   0  0.2760807E-03  0.1398516E+04  0.7818609E-02  0.8954893E-01
       -2   -1    0    0    0  501  0.00000000000E+00  0.00000000000E+00  0.56696449049E+03  0.56696449049E+03  0.25500000920E-02 0.  1.
        2   -1    0    0  501    0  0.00000000000E+00  0.00000000000E+00 -0.86242099738E+03  0.86242099738E+03  0.25500000920E-02 0. -1.
    10030    2    1    2    0    0  0.00000000000E+00  0.00000000000E+00 -0.29545650690E+03  0.14293854879E+04  0.13985164731E+04 0.  0.
        4    1    3    3  502    0  0.61159252743E+03 -0.28107855900E+03  0.45953556515E+02  0.67465837147E+03  0.12699999809E+01 0.  1.
       -4    1    3    3    0  502 -0.61159252743E+03  0.28107855900E+03 -0.34141006341E+03  0.75472711641E+03  0.12699999809E+01 0. -1.
</event>
<event>
 5   0  0.2993993E-03  0.1244996E+04  0.7818609E-02  0.9074358E-01
        2   -1    0    0  501    0  0.00000000000E+00  0.00000000000E+00  0.16337587498E+04  0.16337587498E+04  0.25500000920E-02 0.  1.
       -2   -1    0    0    0  501  0.00000000000E+00  0.00000000000E+00 -0.23718561141E+03  0.23718561143E+03  0.25500000920E-02 0. -1.
    10030    2    1    2    0    0  0.00000000000E+00  0.00000000000E+00  0.13965731384E+04  0.18709443612E+04  0.12449964948E+04 0.  0.
        3    1    3    3  502    0  0.90979664631E+02 -0.54185903570E+03  0.25857382428E+03  0.60724702284E+03  0.10100000352E+00 0. -1.
       -3    1    3    3    0  502 -0.90979664631E+02  0.54185903570E+03  0.11379993141E+04  0.12636973384E+04  0.10100000352E+00 0.  1.
</event>
<event>
 5   0  0.2889469E-03  0.1446937E+04  0.7818609E-02  0.8920527E-01
       -2   -1    0    0    0  501  0.00000000000E+00  0.00000000000E+00  0.10796571014E+04  0.10796571014E+04  0.25500000920E-02 0.  1.
        2   -1    0    0  501    0  0.00000000000E+00  0.00000000000E+00 -0.48478981447E+03  0.48478981447E+03  0.25500000920E-02 0. -1.
    10030    2    1    2    0    0  0.00000000000E+00  0.00000000000E+00  0.59486728696E+03  0.15644469159E+04  0.14469371319E+04 0.  0.
        5    1    3    3  502    0  0.52662690605E+03 -0.26173267382E+03  0.75301414674E+03  0.95545396850E+03  0.46999998093E+01 0.  1.
       -5    1    3    3    0  502 -0.52662690605E+03  0.26173267382E+03 -0.15814685978E+03  0.60899294740E+03  0.46999998093E+01 0. -1.
</event>
<event>
 5   0  0.1644571E-03  0.1369819E+04  0.7818609E-02  0.8975960E-01
       -1   -1    0    0    0  501  0.00000000000E+00  0.00000000000E+00  0.35210394061E+03  0.35210394064E+03  0.50400001928E-02 0. -1.
        1   -1    0    0  501    0  0.00000000000E+00  0.00000000000E+00 -0.13322796713E+04  0.13322796713E+04  0.50400001928E-02 0.  1.
    10030    2    1    2    0    0  0.00000000000E+00  0.00000000000E+00 -0.98017573067E+03  0.16843836119E+04  0.13698188527E+04 0.  0.
        4    1    3    3  502    0  0.49899628749E+03 -0.30865646862E+03 -0.55634747792E+02  0.58937504919E+03  0.12699999809E+01 0. -1.
       -4    1    3    3    0  502 -0.49899628749E+03  0.30865646862E+03 -0.92454098288E+03  0.10950085627E+04  0.12699999809E+01 0.  1.
</event>
<event>
 5   0  0.1560957E-03  0.1374561E+04  0.7818609E-02  0.8972441E-01
        1   -1    0    0  501    0  0.00000000000E+00  0.00000000000E+00  0.97149657653E+03  0.97149657654E+03  0.50400001928E-02 0.  1.
       -1   -1    0    0    0  501  0.00000000000E+00  0.00000000000E+00 -0.48621322823E+03  0.48621322826E+03  0.50400001928E-02 0. -1.
    10030    2    1    2    0    0  0.00000000000E+00  0.00000000000E+00  0.48528334829E+03  0.14577098048E+04  0.13745610015E+04 0.  0.
        5    1    3    3  502    0 -0.30570259638E+03 -0.54208357132E+03 -0.66585114744E+02  0.62591081092E+03  0.46999998093E+01 0. -1.
       -5    1    3    3    0  502  0.30570259638E+03  0.54208357132E+03  0.55186846304E+03  0.83179899388E+03  0.46999998093E+01 0.  1.
</event>
<event>
 5   0  0.1586022E-03  0.1409658E+04  0.7818609E-02  0.8946857E-01
        1   -1    0    0  501    0  0.00000000000E+00  0.00000000000E+00  0.37868046767E+03  0.37868046771E+03  0.50400001928E-02 0. -1.
       -1   -1    0    0    0  501  0.00000000000E+00  0.00000000000E+00 -0.13118820753E+04  0.13118820754E+04  0.50400001928E-02 0.  1.
    10030    2    1    2    0    0  0.00000000000E+00  0.00000000000E+00 -0.93320160767E+03  0.16905625431E+04  0.14096582818E+04 0.  0.
        1    1    3    3  502    0  0.75666659695E+02  0.69059803437E+03 -0.32402854652E+03  0.76658045074E+03  0.50400001928E-02 0.  1.
       -1    1    3    3    0  502 -0.75666659695E+02 -0.69059803437E+03 -0.60917306115E+03  0.92398209232E+03  0.50400001928E-02 0. -1.
</event>
<event>
 5   0  0.2760807E-03  0.1356293E+04  0.7818609E-02  0.8986078E-01
        2   -1    0    0  501    0  0.00000000000E+00  0.00000000000E+00  0.91330611248E+03  0.91330611249E+03  0.25500000920E-02 0. -1.
       -2   -1    0    0    0  501  0.00000000000E+00  0.00000000000E+00 -0.50353587222E+03  0.50353587223E+03  0.25500000920E-02 0.  1.
    10030    2    1    2    0    0  0.00000000000E+00  0.00000000000E+00  0.40977024026E+03  0.14168419847E+04  0.13562925790E+04 0.  0.
        4    1    3    3  502    0 -0.12309427574E+03 -0.49560560085E+02  0.89961010095E+03  0.90934503708E+03  0.12699999809E+01 0. -1.
       -4    1    3    3    0  502  0.12309427574E+03  0.49560560085E+02 -0.48983986069E+03  0.50749694763E+03  0.12699999809E+01 0.  1.
</event>
<event>
 5   0  0.2760807E-03  0.1395589E+04  0.7818609E-02  0.8957017E-01
       -2   -1    0    0    0  501  0.00000000000E+00  0.00000000000E+00  0.67487292598E+03  0.67487292598E+03  0.25500000920E-02 0.  1.
        2   -1    0    0  501    0  0.00000000000E+00  0.00000000000E+00 -0.72149498222E+03  0.72149498222E+03  0.25500000920E-02 0. -1.
    10030    2    1    2    0    0  0.00000000000E+00  0.00000000000E+00 -0.46622056243E+02  0.13963679082E+04  0.13955893805E+04 0.  0.
        4    1    3    3  502    0 -0.44943040765E+03 -0.45323268985E+03 -0.30544040671E+03  0.70760371496E+03  0.12699999809E+01 0. -1.
       -4    1    3    3    0  502  0.44943040765E+03  0.45323268985E+03  0.25881835047E+03  0.68876419325E+03  0.12699999809E+01 0.  1.
</event>
<event>
 5   0  0.1560957E-03  0.9512306E+03  0.7818609E-02  0.9363713E-01
        1   -1    0    0  501    0  0.00000000000E+00  0.00000000000E+00  0.29362573650E+03  0.29362573654E+03  0.50400001928E-02 0.  1.
       -1   -1    0    0    0  501  0.00000000000E+00  0.00000000000E+00 -0.77040221030E+03  0.77040221032E+03  0.50400001928E-02 0. -1.
    10030    2    1    2    0    0  0.00000000000E+00  0.00000000000E+00 -0.47677647380E+03  0.10640279469E+04  0.95123060597E+03 0.  0.
        5    1    3    3  502    0 -0.21597603166E+03  0.36320585259E+03 -0.48249439499E+03  0.64139462798E+03  0.46999998093E+01 0.  1.
       -5    1    3    3    0  502  0.21597603166E+03 -0.36320585259E+03  0.57179211846E+01  0.42263331888E+03  0.46999998093E+01 0. -1.
</event>
<event>
 5   0  0.2917809E-03  0.1419796E+04  0.7818609E-02  0.8939612E-01
       -2   -1    0    0    0  501  0.00000000000E+00  0.00000000000E+00  0.19701604915E+03  0.19701604916E+03  0.25500000920E-02 0.  1.
        2   -1    0    0  501    0  0.00000000000E+00  0.00000000000E+00 -0.25579400826E+04  0.25579400826E+04  0.25500000920E-02 0. -1.
    10030    2    1    2    0    0  0.00000000000E+00  0.00000000000E+00 -0.23609240334E+04  0.27549561317E+04  0.14197961108E+04 0.  0.
        2    1    3    3  502    0  0.15105437689E+03 -0.61411751535E+03 -0.55471302473E+03  0.84122784502E+03  0.25500000920E-02 0.  1.
       -2    1    3    3    0  502 -0.15105437689E+03  0.61411751535E+03 -0.18062110087E+04  0.19137282867E+04  0.25500000920E-02 0. -1.
</event>
<event>
 5   0  0.1700207E-03  0.1395114E+04  0.7818609E-02  0.8957363E-01
       -1   -1    0    0    0  501  0.00000000000E+00  0.00000000000E+00  0.19747440133E+03  0.19747440140E+03  0.50400001928E-02 0. -1.
        1   -1    0    0  501    0  0.00000000000E+00  0.00000000000E+00 -0.24640459741E+04  0.24640459741E+04  0.50400001928E-02 0.  1.
    10030    2    1    2    0    0  0.00000000000E+00  0.00000000000E+00 -0.22665715728E+04  0.26615203755E+04  0.13951143375E+04 0.  0.
        2    1    3    3  502    0  0.50632844242E+03  0.31543604768E+03 -0.44354319260E+03  0.74336999905E+03  0.25500000920E-02 0. -1.
       -2    1    3    3    0  502 -0.50632844242E+03 -0.31543604768E+03 -0.18230283802E+04  0.19181503765E+04  0.25500000920E-02 0.  1.
</event>
<event>
 5   0  0.1631380E-03  0.1376612E+04  0.7818609E-02  0.8970924E-01
       -1   -1    0    0    0  501  0.00000000000E+00  0.00000000000E+00  0.10390543441E+04  0.10390543441E+04  0.50400001928E-02 0. -1.
        1   -1    0    0  501    0  0.00000000000E+00  0.00000000000E+00 -0.45595776162E+03  0.45595776165E+03  0.50400001928E-02 0.  1.
    10030    2    1    2    0    0  0.00000000000E+00  0.00000000000E+00  0.58309658247E+03  0.14950121057E+04  0.13766116271E+04 0.  0.
        3    1    3    3  502    0  0.43595697757E+03 -0.51331070833E+03  0.44596983281E+03  0.80773477798E+03  0.10100000352E+00 0. -1.
       -3    1    3    3    0  502 -0.43595697757E+03  0.51331070833E+03  0.13712674965E+03  0.68727732776E+03  0.10100000352E+00 0.  1.
</event>
<event>
 5   0  0.2889469E-03  0.1370839E+04  0.7818609E-02  0.8975202E-01
        2   -1    0    0  501    0  0.00000000000E+00  0.00000000000E+00  0.18504706089E+04  0.18504706089E+04  0.25500000920E-02 0.  1.
       -2   -1    0    0    0  501  0.00000000000E+00  0.00000000000E+00 -0.25388113558E+03  0.25388113559E+03  0.25500000920E-02 0. -1.
    10030    2    1    2    0    0  0.00000000000E+00  0.00000000000E+00  0.15965894733E+04  0.21043517445E+04  0.13708385457E+04 0.  0.
        5    1    3    3  502    0 -0.63633362580E+02  0.24563961453E+03 -0.17909608332E+03  0.31062118749E+03  0.46999998093E+01 0. -1.
       -5    1    3    3    0  502  0.63633362580E+02 -0.24563961453E+03  0.17756855566E+04  0.17937305570E+04  0.46999998093E+01 0.  1.
</event>
<event>
 5   0  0.3006737E-03  0.7815866E+03  0.7818609E-02  0.9587059E-01
       -2   -1    0    0    0  501  0.00000000000E+00  0.00000000000E+00  0.67702989338E+02  0.67702989386E+02  0.25500000920E-02 0.  1.
        2   -1    0    0  501    0  0.00000000000E+00  0.00000000000E+00 -0.22557259053E+04  0.22557259053E+04  0.25500000920E-02 0. -1.
    10030    2    1    2    0    0  0.00000000000E+00  0.00000000000E+00 -0.21880229159E+04  0.23234288946E+04  0.78158655815E+03 0.  0.
        1    1    3    3  502    0 -0.20926877703E+03 -0.76140157618E+02 -0.13936634323E+03  0.26270462937E+03  0.50400001928E-02 0.  1.
       -1    1    3    3    0  502  0.20926877703E+03  0.76140157618E+02 -0.20486565727E+04  0.20607242653E+04  0.50400001928E-02 0. -1.
</event>
<event>
 5   0  0.1644571E-03  0.1477612E+04  0.7818609E-02  0.8899479E-01
        1   -1    0    0  501    0  0.00000000000E+00  0.00000000000E+00  0.18579317536E+04  0.18579317536E+04  0.50400001928E-02 0.  1.
       -1   -1    0    0    0  501  0.00000000000E+00  0.00000000000E+00 -0.29378592975E+03  0.29378592979E+03  0.50400001928E-02 0. -1.
    10030    2    1    2    0    0  0.00000000000E+00  0.00000000000E+00  0.15641458239E+04  0.21517176834E+04  0.14776118674E+04 0.  0.
        4    1    3    3  502    0 -0.25401169665E+03 -0.17791849060E+03 -0.19441068515E+03  0.36602466957E+03  0.12699999809E+01 0. -1.
       -4    1    3    3    0  502  0.25401169665E+03  0.17791849060E+03  0.17585565090E+04  0.17856930138E+04  0.12699999809E+01 0.  1.
</event>
<event>
 5   0  0.1644571E-03  0.1422433E+04  0.7818609E-02  0.8937739E-01
        1   -1    0    0  501    0  0.00000000000E+00  0.00000000000E+00  0.55034660446E+03  0.55034660449E+03  0.50400001928E-02 0.  1.
       -1   -1    0    0    0  501  0.00000000000E+00  0.00000000000E+00 -0.91910987089E+03  0.91910987090E+03  0.50400001928E-02 0. -1.
    10030    2    1    2    0    0  0.00000000000E+00  0.00000000000E+00 -0.36876326642E+03  0.14694564754E+04  0.14224331219E+04 0.  0.
        4    1    3    3  502    0  0.39619155569E+03 -0.37782489587E+03 -0.65338102241E+03  0.85242464423E+03  0.12699999809E+01 0. -1.
       -4    1    3    3    0  502 -0.39619155569E+03  0.37782489587E+03  0.28461775599E+03  0.61703183116E+03  0.12699999809E+01 0.  1.
</event>
<event>
 5   0  0.1560957E-03  0.1401788E+04  0.7818609E-02  0.8952525E-01
        1   -1    0    0  501    0  0.00000000000E+00  0.00000000000E+00  0.99689896069E+03  0.99689896070E+03  0.50400001928E-02 0. -1.
       -1   -1    0    0    0  501  0.00000000000E+00  0.00000000000E+00 -0.49278042967E+03  0.49278042970E+03  0.50400001928E-02 0.  1.
    10030    2    1    2    0    0  0.00000000000E+00  0.00000000000E+00  0.50411853102E+03  0.14896793904E+04  0.14017878559E+04 0.  0.
        5    1    3    3  502    0  0.28896946126E+03 -0.16557543554E+03  0.90741985541E+03  0.96661856923E+03  0.46999998093E+01 0. -1.
       -5    1    3    3    0  502 -0.28896946126E+03  0.16557543554E+03 -0.40330132439E+03  0.52306082117E+03  0.46999998093E+01 0.  1.
</event>
<event>
 5   0  0.2760807E-03  0.1413165E+04  0.7818609E-02  0.8944344E-01
        2   -1    0    0  501    0  0.00000000000E+00  0.00000000000E+00  0.10675014023E+04  0.10675014023E+04  0.25500000920E-02 0.  1.
       -2   -1    0    0    0  501  0.00000000000E+00  0.00000000000E+00 -0.46768896087E+03  0.46768896088E+03  0.25500000920E-02 0. -1.
    10030    2    1    2    0    0  0.00000000000E+00  0.00000000000E+00  0.59981244139E+03  0.15351903632E+04  0.14131647060E+04 0.  0.
        4    1    3    3  502    0 -0.56667442779E+03  0.22859431413E+03 -0.85528490784E+02  0.61700243371E+03  0.12699999809E+01 0. -1.
       -4    1    3    3    0  502  0.56667442779E+03 -0.22859431413E+03  0.68534093218E+03  0.91818792945E+03  0.12699999809E+01 0.  1.
</event>
<event>
 5   0  0.1560957E-03  0.1399176E+04  0.7818609E-02  0.8954415E-01
       -1   -1    0    0    0  501  0.00000000000E+00  0.00000000000E+00  0.79026329581E+03  0.79026329583E+03  0.50400001928E-02 0. -1.
        1   -1    0    0  501    0  0.00000000000E+00  0.00000000000E+00 -0.61931689187E+03  0.61931689189E+03  0.50400001928E-02 0.  1.
    10030    2    1    2    0    0  0.00000000000E+00  0.00000000000E+00  0.17094640394E+03  0.14095801877E+04  0.13991760549E+04 0.  0.
        5    1    3    3  502    0 -0.47053605149E+03 -0.45046949851E+03 -0.17152046422E+03  0.67362326599E+03  0.46999998093E+01 0. -1.
       -5    1    3    3    0  502  0.47053605149E+03  0.45046949851E+03  0.34246686816E+03  0.73595692172E+03  0.46999998093E+01 0.  1.
</event>
<event>
 5   0  0.2993993E-03  0.1332443E+04  0.7818609E-02  0.9004226E-01
       -2   -1    0    0    0  501  0.00000000000E+00  0.00000000000E+00  0.12510566765E+04  0.12510566765E+04  0.25500000920E-02 0. -1.
        2   -1    0    0  501    0  0.00000000000E+00  0.00000000000E+00 -0.35478090850E+03  0.35478090851E+03  0.25500000920E-02 0.  1.
    10030    2    1    2    0    0  0.00000000000E+00  0.00000000000E+00  0.89627576803E+03  0.16058375851E+04  0.13324429058E+04 0.  0.
        3    1    3    3  502    0 -0.27035211392E+02  0.13943625250E+03  0.12325978472E+04  0.12407541394E+04  0.10100000352E+00 0. -1.
       -3    1    3    3    0  502  0.27035211392E+02 -0.13943625250E+03 -0.33632207919E+03  0.36508344569E+03  0.10100000352E+00 0.  1.
</event>
<event>
 5   0  0.2993993E-03  0.1367064E+04  0.7818609E-02  0.8978010E-01
       -2   -1    0    0    0  501  0.00000000000E+00  0.00000000000E+00  0.83246228637E+03  0.83246228638E+03  0.25500000920E-02 0.  1.
        2   -1    0    0  501    0  0.00000000000E+00  0.00000000000E+00 -0.56124602082E+03  0.56124602083E+03  0.25500000920E-02 0. -1.
    10030    2    1    2    0    0  0.00000000000E+00  0.00000000000E+00  0.27121626555E+03  0.13937083072E+04  0.13670642205E+04 0.  0.
        3    1    3    3  502    0  0.18623268371E+03  0.39562756735E+03  0.67121634836E+03  0.80108375407E+03  0.10100000352E+00 0.  1.
       -3    1    3    3    0  502 -0.18623268371E+03 -0.39562756735E+03 -0.40000008281E+03  0.59262455313E+03  0.10100000352E+00 0. -1.
</event>
<event>
 5   0  0.1104538E-03  0.1416955E+04  0.7818609E-02  0.8941636E-01
        3   -1    0    0  501    0  0.00000000000E+00  0.00000000000E+00  0.43846808651E+03  0.43846809814E+03  0.10100000352E+00 0. -1.
       -3   -1    0    0    0  501  0.00000000000E+00  0.00000000000E+00 -0.11447589076E+04  0.11447589120E+04  0.10100000352E+00 0.  1.
    10030    2    1    2    0    0  0.00000000000E+00  0.00000000000E+00 -0.70629082107E+03  0.15832270102E+04  0.14169548482E+04 0.  0.
        4    1    3    3  502    0  0.18262127917E+02  0.70500495531E+03 -0.27758485361E+03  0.75790530819E+03  0.12699999809E+01 0.  1.
       -4    1    3    3    0  502 -0.18262127917E+02 -0.70500495531E+03 -0.42870596746E+03  0.82532170199E+03  0.12699999809E+01 0. -1.
</event>
<event>
 5   0  0.1560957E-03  0.1414195E+04  0.7818609E-02  0.8943607E-01
        1   -1    0    0  501    0  0.00000000000E+00  0.00000000000E+00  0.75811715888E+03  0.75811715889E+03  0.50400001928E-02 0.  1.
       -1   -1    0    0    0  501  0.00000000000E+00  0.00000000000E+00 -0.65951126711E+03  0.65951126713E+03  0.50400001928E-02 0. -1.
    10030    2    1    2    0    0  0.00000000000E+00  0.00000000000E+00  0.98605891772E+02  0.14176284260E+04  0.14141949061E+04 0.  0.
        5    1    3    3  502    0 -0.21475358545E+03  0.22177614829E+03  0.68697707229E+03  0.75316887234E+03  0.46999998093E+01 0.  1.
       -5    1    3    3    0  502  0.21475358545E+03 -0.22177614829E+03 -0.58837118052E+03  0.66445955368E+03  0.46999998093E+01 0. -1.
</event>
<event>
 5   0  0.2993993E-03  0.1382677E+04  0.7818609E-02  0.8966454E-01
        2   -1    0    0  501    0  0.00000000000E+00  0.00000000000E+00  0.14500941797E+03  0.14500941799E+03  0.25500000920E-02 0.  1.
       -2   -1    0    0    0  501  0.00000000000E+00  0.00000000000E+00 -0.32959875358E+04  0.32959875358E+04  0.25500000920E-02 0. -1.
    10030    2    1    2    0    0  0.00000000000E+00  0.00000000000E+00 -0.31509781178E+04  0.34409969538E+04  0.13826774523E+04 0.  0.
        3    1    3    3  502    0 -0.26050302716E+02  0.63311436226E+03 -0.22635306391E+04  0.23505495907E+04  0.10100000352E+00 0. -1.
       -3    1    3    3    0  502  0.26050302716E+02 -0.63311436226E+03 -0.88744747869E+03  0.10904473631E+04  0.10100000352E+00 0.  1.
</event>
<event>
 5   0  0.1104538E-03  0.1401855E+04  0.7818609E-02  0.8952477E-01
       -3   -1    0    0    0  501  0.00000000000E+00  0.00000000000E+00  0.59310467442E+03  0.59310468302E+03  0.10100000352E+00 0.  1.
        3   -1    0    0  501    0  0.00000000000E+00  0.00000000000E+00 -0.82835136084E+03  0.82835136699E+03  0.10100000352E+00 0. -1.
    10030    2    1    2    0    0  0.00000000000E+00  0.00000000000E+00 -0.23524668642E+03  0.14214560500E+04  0.14018545925E+04 0.  0.
        1    1    3    3  502    0 -0.47723862788E+03 -0.37814135127E+03  0.23443670986E+03  0.65246314872E+03  0.50400001928E-02 0.  1.
       -1    1    3    3    0  502  0.47723862788E+03  0.37814135127E+03 -0.46968339628E+03  0.76899290130E+03  0.50400001928E-02 0. -1.
</event>
<event>
 5   0  0.2917809E-03  0.1399078E+04  0.7818609E-02  0.8954486E-01
        2   -1    0    0  501    0  0.00000000000E+00  0.00000000000E+00  0.10848132243E+04  0.10848132243E+04  0.25500000920E-02 0.  1.
       -2   -1    0    0    0  501  0.00000000000E+00  0.00000000000E+00 -0.45109579740E+03  0.45109579740E+03  0.25500000920E-02 0. -1.
    10030    2    1    2    0    0  0.00000000000E+00  0.00000000000E+00  0.63371742694E+03  0.15359090217E+04  0.13990778198E+04 0.  0.
        2    1    3    3  502    0 -0.63446741214E+03  0.29435035123E+03  0.30281457649E+03  0.76215988748E+03  0.25500000920E-02 0. -1.
       -2    1    3    3    0  502  0.63446741214E+03 -0.29435035123E+03  0.33090285045E+03  0.77374913427E+03  0.25500000920E-02 0.  1.
</event>
<event>
 5   0  0.3006737E-03  0.1360801E+04  0.7818609E-02  0.8982692E-01
       -2   -1    0    0    0  501  0.00000000000E+00  0.00000000000E+00  0.37537900703E+03  0.37537900704E+03  0.25500000920E-02 0.  1.
        2   -1    0    0  501    0  0.00000000000E+00  0.00000000000E+00 -0.12332728032E+04  0.12332728032E+04  0.25500000920E-02 0. -1.
    10030    2    1    2    0    0  0.00000000000E+00  0.00000000000E+00 -0.85789379618E+03  0.16086518103E+04  0.13608008235E+04 0.  0.
        1    1    3    3  502    0  0.36468885293E+03  0.56194269545E+03 -0.56965172882E+03  0.87936377262E+03  0.50400001928E-02 0.  1.
       -1    1    3    3    0  502 -0.36468885293E+03 -0.56194269545E+03 -0.28824206735E+03  0.72928803764E+03  0.50400001928E-02 0. -1.
</event>
<event>
 5   0  0.1586022E-03  0.1439023E+04  0.7818609E-02  0.8926046E-01
       -1   -1    0    0    0  501  0.00000000000E+00  0.00000000000E+00  0.55739281608E+03  0.55739281610E+03  0.50400001928E-02 0. -1.
        1   -1    0    0  501    0  0.00000000000E+00  0.00000000000E+00 -0.92878281208E+03  0.92878281209E+03  0.50400001928E-02 0.  1.
    10030    2    1    2    0    0  0.00000000000E+00  0.00000000000E+00 -0.37138999600E+03  0.14861756282E+04  0.14390230953E+04 0.  0.
        1    1    3    3  502    0  0.21609113296E+03 -0.36912800548E+03 -0.78322549000E+03  0.89240855575E+03  0.50400001928E-02 0.  1.
       -1    1    3    3    0  502 -0.21609113296E+03  0.36912800548E+03  0.41183549400E+03  0.59376707244E+03  0.50400001928E-02 0. -1.
</event>
<event>
 5   0  0.2760807E-03  0.1384026E+04  0.7818609E-02  0.8965463E-01
        2   -1    0    0  501    0  0.00000000000E+00  0.00000000000E+00  0.18565700463E+04  0.18565700463E+04  0.25500000920E-02 0. -1.
       -2   -1    0    0    0  501  0.00000000000E+00  0.00000000000E+00 -0.25793915833E+03  0.25793915835E+03  0.25500000920E-02 0.  1.
    10030    2    1    2    0    0  0.00000000000E+00  0.00000000000E+00  0.15986308880E+04  0.21145092047E+04  0.13840261777E+04 0.  0.
        4    1    3    3  502    0 -0.34744337787E+03  0.54555697684E+03  0.42343055346E+03  0.77307461626E+03  0.12699999809E+01 0. -1.
       -4    1    3    3    0  502  0.34744337787E+03 -0.54555697684E+03  0.11752003345E+04  0.13414345884E+04  0.12699999809E+01 0.  1.
</event>
<event>
 5   0  0.2760807E-03  0.9561876E+03  0.7818609E-02  0.9357947E-01
        2   -1    0    0  501    0  0.00000000000E+00  0.00000000000E+00  0.61180600753E+03  0.61180600754E+03  0.25500000920E-02 0. -1.
       -2   -1    0    0    0  501  0.00000000000E+00  0.00000000000E+00 -0.37360479586E+03  0.37360479587E+03  0.25500000920E-02 0.  1.
    10030    2    1    2    0    0  0.00000000000E+00  0.00000000000E+00  0.23820121167E+03  0.98541080341E+03  0.95618755181E+03 0.  0.
        4    1    3    3  502    0  0.27832982970E+03  0.37679183771E+03  0.20616037702E+02  0.46889894111E+03  0.12699999809E+01 0.  1.
       -4    1    3    3    0  502 -0.27832982970E+03 -0.37679183771E+03  0.21758517397E+03  0.51651186230E+03  0.12699999809E+01 0. -1.
</event>
<event>
 5   0  0.2889469E-03  0.1414661E+04  0.7818609E-02  0.8943274E-01
       -2   -1    0    0    0  501  0.00000000000E+00  0.00000000000E+00  0.15325091478E+03  0.15325091480E+03  0.25500000920E-02 0.  1.
        2   -1    0    0  501    0  0.00000000000E+00  0.00000000000E+00 -0.32646859083E+04  0.32646859083E+04  0.25500000920E-02 0. -1.
    10030    2    1    2    0    0  0.00000000000E+00  0.00000000000E+00 -0.31114349935E+04  0.34179368231E+04  0.14146605274E+04 0.  0.
        5    1    3    3  502    0 -0.21904836312E+03  0.21523912223E+03 -0.30951697579E+04  0.31103710366E+04  0.46999998093E+01 0. -1.
       -5    1    3    3    0  502  0.21904836312E+03 -0.21523912223E+03 -0.16265235599E+02  0.30756578648E+03  0.46999998093E+01 0.  1.
</event>
<event>
 5   0  0.1644571E-03  0.1301993E+04  0.7818609E-02  0.9027986E-01
        1   -1    0    0  501    0  0.00000000000E+00  0.00000000000E+00  0.18618147334E+04  0.18618147335E+04  0.50400001928E-02 0.  1.
       -1   -1    0    0    0  501  0.00000000000E+00  0.00000000000E+00 -0.22762534166E+03  0.22762534171E+03  0.50400001928E-02 0. -1.
    10030    2    1    2    0    0  0.00000000000E+00  0.00000000000E+00  0.16341893918E+04  0.20894400752E+04  0.13019926495E+04 0.  0.
        4    1    3    3  502    0  0.23982809729E+03 -0.59220232327E+03  0.10173640135E+04  0.12013543428E+04  0.12699999809E+01 0. -1.
       -4    1    3    3    0  502 -0.23982809729E+03  0.59220232327E+03  0.61682537825E+03  0.88808573240E+03  0.12699999809E+01 0.  1.
</event>
<event>
 5   0  0.1700207E-03  0.8368646E+03  0.7818609E-02  0.9508138E-01
        1   -1    0    0  501    0  0.00000000000E+00  0.00000000000E+00  0.36838325010E+03  0.36838325013E+03  0.50400001928E-02 0.  1.
       -1   -1    0    0    0  501  0.00000000000E+00  0.00000000000E+00 -0.47528109556E+03  0.47528109558E+03  0.50400001928E-02 0. -1.
    10030    2    1    2    0    0  0.00000000000E+00  0.00000000000E+00 -0.10689784546E+03  0.84366434572E+03  0.83686461203E+03 0.  0.
        2    1    3    3  502    0  0.20571839186E+03 -0.35741935651E+03  0.17956963427E+02  0.41278457541E+03  0.25500000920E-02 0.  1.
       -2    1    3    3    0  502 -0.20571839186E+03  0.35741935651E+03 -0.12485480888E+03  0.43087977031E+03  0.25500000920E-02 0. -1.
</event>
<event>
 5   0  0.2993993E-03  0.1374367E+04  0.7818609E-02  0.8972585E-01
       -2   -1    0    0    0  501  0.00000000000E+00  0.00000000000E+00  0.41177689845E+03  0.41177689846E+03  0.25500000920E-02 0.  1.
        2   -1    0    0  501    0  0.00000000000E+00  0.00000000000E+00 -0.11467889627E+04  0.11467889627E+04  0.25500000920E-02 0. -1.
    10030    2    1    2    0    0  0.00000000000E+00  0.00000000000E+00 -0.73501206423E+03  0.15585658611E+04  0.13743670576E+04 0.  0.
        3    1    3    3  502    0 -0.25017160784E+03 -0.63988633454E+03 -0.35225614162E+03  0.77209115654E+03  0.10100000352E+00 0. -1.
       -3    1    3    3    0  502  0.25017160784E+03  0.63988633454E+03 -0.38275592260E+03  0.78647470461E+03  0.10100000352E+00 0.  1.
</event>
<event>
 5   0  0.2760807E-03  0.1389541E+04  0.7818609E-02  0.8961424E-01
        2   -1    0    0  501    0  0.00000000000E+00  0.00000000000E+00  0.10994815922E+04  0.10994815922E+04  0.25500000920E-02 0.  1.
       -2   -1    0    0    0  501  0.00000000000E+00  0.00000000000E+00 -0.43903051311E+03  0.43903051312E+03  0.25500000920E-02 0. -1.
    10030    2    1    2    0    0  0.00000000000E+00  0.00000000000E+00  0.66045107908E+03  0.15385121053E+04  0.13895408847E+04 0.  0.
        4    1    3    3  502    0 -0.27830219322E+03  0.42116115543E+02  0.10335241743E+04  0.10711674518E+04  0.12699999809E+01 0.  1.
       -4    1    3    3    0  502  0.27830219322E+03 -0.42116115543E+02 -0.37307309522E+03  0.46734465356E+03  0.12699999809E+01 0. -1.
</event>
<event>
 5   0  0.2760807E-03  0.1386931E+04  0.7818609E-02  0.8963333E-01
        2   -1    0    0  501    0  0.00000000000E+00  0.00000000000E+00  0.10449011330E+04  0.10449011330E+04  0.25500000920E-02 0. -1.
       -2   -1    0    0    0  501  0.00000000000E+00  0.00000000000E+00 -0.46022986573E+03  0.46022986574E+03  0.25500000920E-02 0.  1.
    10030    2    1    2    0    0  0.00000000000E+00  0.00000000000E+00  0.58467126725E+03  0.15051309987E+04  0.13869314448E+04 0.  0.
        4    1    3    3  502    0  0.10914006556E+03 -0.44815878376E+03  0.85428379950E+03  0.97085543329E+03  0.12699999809E+01 0. -1.
       -4    1    3    3    0  502 -0.10914006556E+03  0.44815878376E+03 -0.26961253225E+03  0.53427556543E+03  0.12699999809E+01 0.  1.
</event>
<event>
 5   0  0.1631380E-03  0.1419886E+04  0.7818609E-02  0.8939549E-01
        1   -1    0    0  501    0  0.00000000000E+00  0.00000000000E+00  0.48755130251E+03  0.48755130254E+03  0.50400001928E-02 0. -1.
       -1   -1    0    0    0  501  0.00000000000E+00  0.00000000000E+00 -0.10337757446E+04  0.10337757446E+04  0.50400001928E-02 0.  1.
    10030    2    1    2    0    0  0.00000000000E+00  0.00000000000E+00 -0.54622444204E+03  0.15213270471E+04  0.14198855035E+04 0.  0.
        3    1    3    3  502    0 -0.61827182446E+03  0.22956627626E+03  0.84511690414E+01  0.65956967530E+03  0.10100000352E+00 0. -1.
       -3    1    3    3    0  502  0.61827182446E+03 -0.22956627626E+03 -0.55467561108E+03  0.86175737180E+03  0.10100000352E+00 0.  1.
</event>
<event>
 5   0  0.1586022E-03  0.1411540E+04  0.7818609E-02  0.8945508E-01
       -1   -1    0    0    0  501  0.00000000000E+00  0.00000000000E+00  0.63197977283E+03  0.63197977285E+03  0.50400001928E-02 0. -1.
        1   -1    0    0  501    0  0.00000000000E+00  0.00000000000E+00 -0.78817554972E+03  0.78817554974E+03  0.50400001928E-02 0.  1.
    10030    2    1    2    0    0  0.00000000000E+00  0.00000000000E+00 -0.15619577689E+03  0.14201553226E+04  0.14115395919E+04 0.  0.
        1    1    3    3  502    0 -0.28038059030E+03 -0.64305592859E+03 -0.15587955096E+03  0.71863247710E+03  0.50400001928E-02 0.  1.
       -1    1    3    3    0  502  0.28038059030E+03  0.64305592859E+03 -0.31622592698E+00  0.70152284548E+03  0.50400001928E-02 0. -1.
</event>
<event>
 5   0  0.1700207E-03  0.1426319E+04  0.7818609E-02  0.8934985E-01
        1   -1    0    0  501    0  0.00000000000E+00  0.00000000000E+00  0.95936958429E+03  0.95936958430E+03  0.50400001928E-02 0.  1.
       -1   -1    0    0    0  501  0.00000000000E+00  0.00000000000E+00 -0.53013587015E+03  0.53013587018E+03  0.50400001928E-02 0. -1.
    10030    2    1    2    0    0  0.00000000000E+00  0.00000000000E+00  0.42923371413E+03  0.14895054545E+04  0.14263186592E+04 0.  0.
        2    1    3    3  502    0 -0.16298719913E+03 -0.31388063691E+03 -0.43209984567E+03  0.55838710402E+03  0.25500000920E-02 0. -1.
       -2    1    3    3    0  502  0.16298719913E+03  0.31388063691E+03  0.86133355980E+03  0.93111835045E+03  0.25500000920E-02 0.  1.
</event>
<event>
 5   0  0.3006737E-03  0.1444420E+04  0.7818609E-02  0.8922278E-01
       -2   -1    0    0    0  501  0.00000000000E+00  0.00000000000E+00  0.38116824750E+03  0.38116824751E+03  0.25500000920E-02 0.  1.
        2   -1    0    0  501    0  0.00000000000E+00  0.00000000000E+00 -0.13683908982E+04  0.13683908982E+04  0.25500000920E-02 0. -1.
    10030    2    1    2    0    0  0.00000000000E+00  0.00000000000E+00 -0.98722265068E+03  0.17495591457E+04  0.14444198290E+04 0.  0.
        1    1    3    3  502    0  0.38593139644E+03  0.32453450131E+03  0.13264498022E+03  0.52140231693E+03  0.50400001928E-02 0.  1.
       -1    1    3    3    0  502 -0.38593139644E+03 -0.32453450131E+03 -0.11198676309E+04  0.12281568288E+04  0.50400001928E-02 0. -1.
</event>
<event>
 5   0  0.2760807E-03  0.1371153E+04  0.7818609E-02  0.8974968E-01
        2   -1    0    0  501    0  0.00000000000E+00  0.00000000000E+00  0.84782388652E+03  0.84782388652E+03  0.25500000920E-02 0. -1.
       -2   -1    0    0    0  501  0.00000000000E+00  0.00000000000E+00 -0.55437803289E+03  0.55437803289E+03  0.25500000920E-02 0.  1.
    10030    2    1    2    0    0  0.00000000000E+00  0.00000000000E+00  0.29344585363E+03  0.14022019194E+04  0.13711527099E+04 0.  0.
        4    1    3    3  502    0 -0.52785183065E+03  0.37742790806E+03 -0.79496472142E+02  0.65375888742E+03  0.12699999809E+01 0. -1.
       -4    1    3    3    0  502  0.52785183065E+03 -0.37742790806E+03  0.37294232577E+03  0.74844303200E+03  0.12699999809E+01 0.  1.
</event>
<event>
 5   0  0.1560957E-03  0.7761816E+03  0.7818609E-02  0.9595148E-01
        1   -1    0    0  501    0  0.00000000000E+00  0.00000000000E+00  0.51510293309E+03  0.51510293312E+03  0.50400001928E-02 0. -1.
       -1   -1    0    0    0  501  0.00000000000E+00  0.00000000000E+00 -0.29239687282E+03  0.29239687286E+03  0.50400001928E-02 0.  1.
    10030    2    1    2    0    0  0.00000000000E+00  0.00000000000E+00  0.22270606027E+03  0.80749980598E+03  0.77618164586E+03 0.  0.
        5    1    3    3  502    0 -0.30778345346E+03  0.14950595121E+03  0.30179576652E+03  0.45627344691E+03  0.46999998093E+01 0. -1.
       -5    1    3    3    0  502  0.30778345346E+03 -0.14950595121E+03 -0.79089706243E+02  0.35122635907E+03  0.46999998093E+01 0.  1.
</event>
<event>
 5   0  0.3006737E-03  0.1383098E+04  0.7818609E-02  0.8966145E-01
       -2   -1    0    0    0  501  0.00000000000E+00  0.00000000000E+00  0.79468417231E+03  0.79468417232E+03  0.25500000920E-02 0.  1.
        2   -1    0    0  501    0  0.00000000000E+00  0.00000000000E+00 -0.60179905948E+03  0.60179905948E+03  0.25500000920E-02 0. -1.
    10030    2    1    2    0    0  0.00000000000E+00  0.00000000000E+00  0.19288511284E+03  0.13964832318E+04  0.13830982431E+04 0.  0.
        1    1    3    3  502    0 -0.47540774533E+02 -0.61560696328E+03  0.41091801551E+03  0.74167760785E+03  0.50400001928E-02 0.  1.
       -1    1    3    3    0  502  0.47540774533E+02  0.61560696328E+03 -0.21803290267E+03  0.65480562395E+03  0.50400001928E-02 0. -1.
</event>
<event>
 5   0  0.1631380E-03  0.1878372E+04  0.7818609E-02  0.8665698E-01
       -1   -1    0    0    0  501  0.00000000000E+00  0.00000000000E+00  0.12267843782E+04  0.12267843782E+04  0.50400001928E-02 0. -1.
        1   -1    0    0  501    0  0.00000000000E+00  0.00000000000E+00 -0.71900984587E+03  0.71900984589E+03  0.50400001928E-02 0.  1.
    10030    2    1    2    0    0  0.00000000000E+00  0.00000000000E+00  0.50777453230E+03  0.19457942241E+04  0.18783716849E+04 0.  0.
        3    1    3    3  502    0  0.58491632241E+03  0.72143361198E+03  0.10931980160E+03  0.93517078116E+03  0.10100000352E+00 0.  1.
       -3    1    3    3    0  502 -0.58491632241E+03 -0.72143361198E+03  0.39845473071E+03  0.10106234429E+04  0.10100000352E+00 0. -1.
</event>
<event>
 5   0  0.1560957E-03  0.1346450E+04  0.7818609E-02  0.8993520E-01
        1   -1    0    0  501    0  0.00000000000E+00  0.00000000000E+00  0.28290595969E+03  0.28290595974E+03  0.50400001928E-02 0. -1.
       -1   -1    0    0    0  501  0.00000000000E+00  0.00000000000E+00 -0.16020581330E+04  0.16020581330E+04  0.50400001928E-02 0.  1.
    10030    2    1    2    0    0  0.00000000000E+00  0.00000000000E+00 -0.13191521733E+04  0.18849640927E+04  0.13464498411E+04 0.  0.
        5    1    3    3  502    0  0.21636868478E+03 -0.43223009408E+03 -0.35806339460E+01  0.48339753094E+03  0.46999998093E+01 0. -1.
       -5    1    3    3    0  502 -0.21636868478E+03  0.43223009408E+03 -0.13155715393E+04  0.14015665618E+04  0.46999998093E+01 0.  1.
</event>
<event>
 5   0  0.1560957E-03  0.1378324E+04  0.7818609E-02  0.8969660E-01
       -1   -1    0    0    0  501  0.00000000000E+00  0.00000000000E+00  0.42839905983E+03  0.42839905986E+03  0.50400001928E-02 0.  1.
        1   -1    0    0  501    0  0.00000000000E+00  0.00000000000E+00 -0.11086483719E+04  0.11086483719E+04  0.50400001928E-02 0. -1.
    10030    2    1    2    0    0  0.00000000000E+00  0.00000000000E+00 -0.68024931210E+03  0.15370474318E+04  0.13783235038E+04 0.  0.
        5    1    3    3  502    0 -0.27776649765E+03 -0.13940142116E+03 -0.10260459409E+04  0.10720911092E+04  0.46999998093E+01 0. -1.
       -5    1    3    3    0  502  0.27776649765E+03  0.13940142116E+03  0.34579662884E+03  0.46495632263E+03  0.46999998093E+01 0.  1.
</event>
<event>
 5   0  0.2889469E-03  0.1390933E+04  0.7818609E-02  0.8960408E-01
       -2   -1    0    0    0  501  0.00000000000E+00  0.00000000000E+00  0.11373920760E+04  0.11373920760E+04  0.25500000920E-02 0. -1.
        2   -1    0    0  501    0  0.00000000000E+00  0.00000000000E+00 -0.42524803215E+03  0.42524803216E+03  0.25500000920E-02 0.  1.
    10030    2    1    2    0    0  0.00000000000E+00  0.00000000000E+00  0.71214404383E+03  0.15626401081E+04  0.13909331287E+04 0.  0.
        5    1    3    3  502    0 -0.95677828064E+02 -0.66938588250E+03  0.17346449459E+03  0.69810008406E+03  0.46999998093E+01 0.  1.
       -5    1    3    3    0  502  0.95677828064E+02  0.66938588250E+03  0.53867954924E+03  0.86454002408E+03  0.46999998093E+01 0. -1.
</event>
<event>
 5   0  0.2889469E-03  0.1379526E+04  0.7818609E-02  0.8968773E-01
        2   -1    0    0  501    0  0.00000000000E+00  0.00000000000E+00  0.61224658654E+03  0.61224658655E+03  0.25500000920E-02 0.  1.
       -2   -1    0    0    0  501  0.00000000000E+00  0.00000000000E+00 -0.77709430196E+03  0.77709430196E+03  0.25500000920E-02 0. -1.
    10030    2    1    2    0    0  0.00000000000E+00  0.00000000000E+00 -0.16484771542E+03  0.13893408885E+04  0.13795264895E+04 0.  0.
        5    1    3    3  502    0  0.29073631273E+03  0.13667460165E+03  0.53228204166E+03  0.62173451902E+03  0.46999998093E+01 0.  1.
       -5    1    3    3    0  502 -0.29073631273E+03 -0.13667460165E+03 -0.69712975708E+03  0.76760636949E+03  0.46999998093E+01 0. -1.
</event>
<event>
 5   0  0.2760807E-03  0.1345075E+04  0.7818609E-02  0.8994565E-01
        2   -1    0    0  501    0  0.00000000000E+00  0.00000000000E+00  0.10048190417E+04  0.10048190417E+04  0.25500000920E-02 0.  1.
       -2   -1    0    0    0  501  0.00000000000E+00  0.00000000000E+00 -0.45013753997E+03  0.45013753998E+03  0.25500000920E-02 0. -1.
    10030    2    1    2    0    0  0.00000000000E+00  0.00000000000E+00  0.55468150176E+03  0.14549565817E+04  0.13450751229E+04 0.  0.
        4    1    3    3  502    0 -0.54023845564E+03  0.13498723175E+03 -0.13059617317E+03  0.57195814098E+03  0.12699999809E+01 0. -1.
       -4    1    3    3    0  502  0.54023845564E+03 -0.13498723175E+03  0.68527767493E+03  0.88299844073E+03  0.12699999809E+01 0.  1.
</event>
<event>
 5   0  0.1586022E-03  0.1336147E+04  0.7818609E-02  0.9001381E-01
       -1   -1    0    0    0  501  0.00000000000E+00  0.00000000000E+00  0.73814570669E+03  0.73814570671E+03  0.50400001928E-02 0. -1.
        1   -1    0    0  501    0  0.00000000000E+00  0.00000000000E+00 -0.60465363557E+03  0.60465363559E+03  0.50400001928E-02 0.  1.
    10030    2    1    2    0    0  0.00000000000E+00  0.00000000000E+00  0.13349207113E+03  0.13427993423E+04  0.13361474247E+04 0.  0.
        1    1    3    3  502    0 -0.17295356795E+03  0.10233059090E+03  0.70705059452E+03  0.73505443998E+03  0.50400001928E-02 0. -1.
       -1    1    3    3    0  502  0.17295356795E+03 -0.10233059090E+03 -0.57355852340E+03  0.60774490231E+03  0.50400001928E-02 0.  1.
</event>
<event>
 5   0  0.2889469E-03  0.1377640E+04  0.7818609E-02  0.8970165E-01
       -2   -1    0    0    0  501  0.00000000000E+00  0.00000000000E+00  0.73811253044E+03  0.73811253045E+03  0.25500000920E-02 0.  1.
        2   -1    0    0  501    0  0.00000000000E+00  0.00000000000E+00 -0.64281926027E+03  0.64281926027E+03  0.25500000920E-02 0. -1.
    10030    2    1    2    0    0  0.00000000000E+00  0.00000000000E+00  0.95293270176E+02  0.13809317907E+04  0.13776399396E+04 0.  0.
        5    1    3    3  502    0  0.46885550142E+03  0.26980129679E+03  0.47508394171E+03  0.71996184803E+03  0.46999998093E+01 0.  1.
       -5    1    3    3    0  502 -0.46885550142E+03 -0.26980129679E+03 -0.37979067153E+03  0.66096994269E+03  0.46999998093E+01 0. -1.
</event>
<event>
 5   0  0.1560957E-03  0.1398056E+04  0.7818609E-02  0.8955227E-01
        1   -1    0    0  501    0  0.00000000000E+00  0.00000000000E+00  0.94777470199E+03  0.94777470201E+03  0.50400001928E-02 0. -1.
       -1   -1    0    0    0  501  0.00000000000E+00  0.00000000000E+00 -0.51556580070E+03  0.51556580073E+03  0.50400001928E-02 0.  1.
    10030    2    1    2    0    0  0.00000000000E+00  0.00000000000E+00  0.43220890129E+03  0.14633405027E+04  0.13980561121E+04 0.  0.
        5    1    3    3  502    0 -0.53335843967E+03  0.35514932854E+03 -0.76251708483E+02  0.64532060541E+03  0.46999998093E+01 0. -1.
       -5    1    3    3    0  502  0.53335843967E+03 -0.35514932854E+03  0.50846060977E+03  0.81801989732E+03  0.46999998093E+01 0.  1.
</event>
<event>
 5   0  0.2993993E-03  0.1520703E+04  0.7818609E-02  0.8870801E-01
       -2   -1    0    0    0  501  0.00000000000E+00  0.00000000000E+00  0.78446642182E+03  0.78446642182E+03  0.25500000920E-02 0.  1.
        2   -1    0    0  501    0  0.00000000000E+00  0.00000000000E+00 -0.73697798067E+03  0.73697798068E+03  0.25500000920E-02 0. -1.
    10030    2    1    2    0    0  0.00000000000E+00  0.00000000000E+00  0.47488441144E+02  0.15214444025E+04  0.15207030998E+04 0.  0.
        3    1    3    3  502    0  0.65156637151E+03 -0.24615767544E+03  0.32885539026E+03  0.77024555537E+03  0.10100000352E+00 0.  1.
       -3    1    3    3    0  502 -0.65156637151E+03  0.24615767544E+03 -0.28136694912E+03  0.75119884713E+03  0.10100000352E+00 0. -1.
</event>
<event>
 5   0  0.2889469E-03  0.1376721E+04  0.7818609E-02  0.8970843E-01
       -2   -1    0    0    0  501  0.00000000000E+00  0.00000000000E+00  0.50971953662E+03  0.50971953663E+03  0.25500000920E-02 0.  1.
        2   -1    0    0  501    0  0.00000000000E+00  0.00000000000E+00 -0.92960979692E+03  0.92960979692E+03  0.25500000920E-02 0. -1.
    10030    2    1    2    0    0  0.00000000000E+00  0.00000000000E+00 -0.41989026030E+03  0.14393293335E+04  0.13767211409E+04 0.  0.
        5    1    3    3  502    0 -0.45963319093E+03  0.51143599847E+03 -0.17707102243E+03  0.71007442406E+03  0.46999998093E+01 0. -1.
       -5    1    3    3    0  502  0.45963319093E+03 -0.51143599847E+03 -0.24281923787E+03  0.72925490948E+03  0.46999998093E+01 0.  1.
</event>
<event>
 5   0  0.1644571E-03  0.1390786E+04  0.7818609E-02  0.8960515E-01
       -1   -1    0    0    0  501  0.00000000000E+00  0.00000000000E+00  0.61599212938E+03  0.61599212941E+03  0.50400001928E-02 0. -1.
        1   -1    0    0  501    0  0.00000000000E+00  0.00000000000E+00 -0.78502878971E+03  0.78502878972E+03  0.50400001928E-02 0.  1.
    10030    2    1    2    0    0  0.00000000000E+00  0.00000000000E+00 -0.16903666032E+03  0.14010209191E+04  0.13907861889E+04 0.  0.
        4    1    3    3  502    0 -0.25341296790E+03 -0.63763193387E+03 -0.19838700448E+03  0.71424899848E+03  0.12699999809E+01 0.  1.
       -4    1    3    3    0  502  0.25341296790E+03  0.63763193387E+03  0.29350344162E+02  0.68677192065E+03  0.12699999809E+01 0. -1.
</event>
<event>
 5   0  0.2993993E-03  0.1403607E+04  0.7818609E-02  0.8951211E-01
        2   -1    0    0  501    0  0.00000000000E+00  0.00000000000E+00  0.19541629844E+04  0.19541629844E+04  0.25500000920E-02 0. -1.
       -2   -1    0    0    0  501  0.00000000000E+00  0.00000000000E+00 -0.25204062986E+03  0.25204062987E+03  0.25500000920E-02 0.  1.
    10030    2    1    2    0    0  0.00000000000E+00  0.00000000000E+00  0.17021223545E+04  0.22062036142E+04  0.14036074514E+04 0.  0.
        3    1    3    3  502    0  0.20672910056E+03  0.46059869118E+03  0.16172927606E+04  0.16942620692E+04  0.10100000352E+00 0. -1.
       -3    1    3    3    0  502 -0.20672910056E+03 -0.46059869118E+03  0.84829593862E+02  0.51194154503E+03  0.10100000352E+00 0.  1.
</event>
<event>
 5   0  0.2917809E-03  0.1459914E+04  0.7818609E-02  0.8911556E-01
       -2   -1    0    0    0  501  0.00000000000E+00  0.00000000000E+00  0.75671755121E+03  0.75671755122E+03  0.25500000920E-02 0.  1.
        2   -1    0    0  501    0  0.00000000000E+00  0.00000000000E+00 -0.70414258162E+03  0.70414258163E+03  0.25500000920E-02 0. -1.
    10030    2    1    2    0    0  0.00000000000E+00  0.00000000000E+00  0.52574969590E+02  0.14608601328E+04  0.14599137647E+04 0.  0.
        2    1    3    3  502    0  0.38218634885E+03 -0.49350467203E+02  0.64663707756E+03  0.75275585945E+03  0.25500000920E-02 0.  1.
       -2    1    3    3    0  502 -0.38218634885E+03  0.49350467203E+02 -0.59406210797E+03  0.70810427339E+03  0.25500000920E-02 0. -1.
</event>
<event>
 5   0  0.2760807E-03  0.1402161E+04  0.7818609E-02  0.8952255E-01
       -2   -1    0    0    0  501  0.00000000000E+00  0.00000000000E+00  0.23166483951E+03  0.23166483953E+03  0.25500000920E-02 0.  1.
        2   -1    0    0  501    0  0.00000000000E+00  0.00000000000E+00 -0.21216607002E+04  0.21216607002E+04  0.25500000920E-02 0. -1.
    10030    2    1    2    0    0  0.00000000000E+00  0.00000000000E+00 -0.18899958607E+04  0.23533255398E+04  0.14021614538E+04 0.  0.
        4    1    3    3  502    0  0.16247560518E+03 -0.63216601318E+03 -0.51552125049E+03  0.83174272651E+03  0.12699999809E+01 0.  1.
       -4    1    3    3    0  502 -0.16247560518E+03  0.63216601318E+03 -0.13744746102E+04  0.15215828133E+04  0.12699999809E+01 0. -1.
</event>
<event>
 5   0  0.2993993E-03  0.1334411E+04  0.7818609E-02  0.9002714E-01
        2   -1    0    0  501    0  0.00000000000E+00  0.00000000000E+00  0.52676299677E+03  0.52676299678E+03  0.25500000920E-02 0. -1.
       -2   -1    0    0    0  501  0.00000000000E+00  0.00000000000E+00 -0.84509163486E+03  0.84509163486E+03  0.25500000920E-02 0.  1.
    10030    2    1    2    0    0  0.00000000000E+00  0.00000000000E+00 -0.31832863809E+03  0.13718546316E+04  0.13344107346E+04 0.  0.
        3    1    3    3  502    0 -0.42233412975E+03 -0.47752489524E+03  0.43253536432E+02  0.63895776178E+03  0.10100000352E+00 0. -1.
       -3    1    3    3    0  502  0.42233412975E+03  0.47752489524E+03 -0.36158217452E+03  0.73289686986E+03  0.10100000352E+00 0.  1.
</event>
<event>
 5   0  0.3006737E-03  0.1410899E+04  0.7818609E-02  0.8945967E-01
        2   -1    0    0  501    0  0.00000000000E+00  0.00000000000E+00  0.60659683376E+03  0.60659683377E+03  0.25500000920E-02 0. -1.
       -2   -1    0    0    0  501  0.00000000000E+00  0.00000000000E+00 -0.82041114368E+03  0.82041114369E+03  0.25500000920E-02 0.  1.
    10030    2    1    2    0    0  0.00000000000E+00  0.00000000000E+00 -0.21381430992E+03  0.14270079775E+04  0.14108987237E+04 0.  0.
        1    1    3    3  502    0 -0.16417439906E+03 -0.41136268207E+03  0.44843975587E+03  0.63029414100E+03  0.50400001928E-02 0. -1.
       -1    1    3    3    0  502  0.16417439906E+03  0.41136268207E+03 -0.66225406579E+03  0.79671383645E+03  0.50400001928E-02 0.  1.
</event>
<event>
 5   0  0.3006737E-03  0.1393983E+04  0.7818609E-02  0.8958186E-01
       -2   -1    0    0    0  501  0.00000000000E+00  0.00000000000E+00  0.39992592433E+03  0.39992592434E+03  0.25500000920E-02 0. -1.
        2   -1    0    0  501    0  0.00000000000E+00  0.00000000000E+00 -0.12147170499E+04  0.12147170499E+04  0.25500000920E-02 0.  1.
    10030    2    1    2    0    0  0.00000000000E+00  0.00000000000E+00 -0.81479112556E+03  0.16146429742E+04  0.13939825522E+04 0.  0.
        1    1    3    3  502    0 -0.63410917996E+03  0.26541692916E+03 -0.27403440490E+03  0.74002395468E+03  0.50400001928E-02 0. -1.
       -1    1    3    3    0  502  0.63410917996E+03 -0.26541692916E+03 -0.54075672066E+03  0.87461901955E+03  0.50400001928E-02 0.  1.
</event>
<event>
 5   0  0.1586022E-03  0.1360794E+04  0.7818609E-02  0.8982697E-01
       -1   -1    0    0    0  501  0.00000000000E+00  0.00000000000E+00  0.60410747992E+03  0.60410747994E+03  0.50400001928E-02 0.  1.
        1   -1    0    0  501    0  0.00000000000E+00  0.00000000000E+00 -0.76632045613E+03  0.76632045615E+03  0.50400001928E-02 0. -1.
    10030    2    1    2    0    0  0.00000000000E+00  0.00000000000E+00 -0.16221297621E+03  0.13704279361E+04  0.13607937678E+04 0.  0.
        1    1    3    3  502    0  0.12084036181E+03  0.28482936340E+03 -0.69137505248E+03  0.75744941911E+03  0.50400001928E-02 0. -1.
       -1    1    3    3    0  502 -0.12084036181E+03 -0.28482936340E+03  0.52916207627E+03  0.61297851698E+03  0.50400001928E-02 0.  1.
</event>
<event>
 5   0  0.1700207E-03  0.1264886E+04  0.7818609E-02  0.9057884E-01
       -1   -1    0    0    0  501  0.00000000000E+00  0.00000000000E+00  0.98253048842E+03  0.98253048843E+03  0.50400001928E-02 0. -1.
        1   -1    0    0  501    0  0.00000000000E+00  0.00000000000E+00 -0.40709592408E+03  0.40709592411E+03  0.50400001928E-02 0.  1.
    10030    2    1    2    0    0  0.00000000000E+00  0.00000000000E+00  0.57543456434E+03  0.13896264125E+04  0.12648860141E+04 0.  0.
        2    1    3    3  502    0 -0.25317382128E+03 -0.52806578011E+03  0.55008624769E+03  0.80345835723E+03  0.25500000920E-02 0.  1.
       -2    1    3    3    0  502  0.25317382128E+03  0.52806578011E+03  0.25348316645E+02  0.58616805531E+03  0.25500000920E-02 0. -1.
</event>
<event>
 5   0  0.3006737E-03  0.1318909E+04  0.7818609E-02  0.9014703E-01
       -2   -1    0    0    0  501  0.00000000000E+00  0.00000000000E+00  0.63399427499E+03  0.63399427500E+03  0.25500000920E-02 0. -1.
        2   -1    0    0  501    0  0.00000000000E+00  0.00000000000E+00 -0.68593683676E+03  0.68593683677E+03  0.25500000920E-02 0.  1.
    10030    2    1    2    0    0  0.00000000000E+00  0.00000000000E+00 -0.51942561770E+02  0.13199311118E+04  0.13189086815E+04 0.  0.
        1    1    3    3  502    0 -0.29964126130E+03  0.54648746373E+03  0.18971050690E+03  0.65147794279E+03  0.50400001928E-02 0. -1.
       -1    1    3    3    0  502  0.29964126130E+03 -0.54648746373E+03 -0.24165306867E+03  0.66845316898E+03  0.50400001928E-02 0.  1.
</event>
<event>
 5   0  0.1560957E-03  0.1250444E+04  0.7818609E-02  0.9069814E-01
        1   -1    0    0  501    0  0.00000000000E+00  0.00000000000E+00  0.11086742769E+04  0.11086742769E+04  0.50400001928E-02 0.  1.
       -1   -1    0    0    0  501  0.00000000000E+00  0.00000000000E+00 -0.35258552857E+03  0.35258552861E+03  0.50400001928E-02 0. -1.
    10030    2    1    2    0    0  0.00000000000E+00  0.00000000000E+00  0.75608874833E+03  0.14612598055E+04  0.12504439307E+04 0.  0.
        5    1    3    3  502    0 -0.45275481465E+03  0.32817886044E+03  0.70481629841E+03  0.89970905916E+03  0.46999998093E+01 0. -1.
       -5    1    3    3    0  502  0.45275481465E+03 -0.32817886044E+03  0.51272449924E+02  0.56155074637E+03  0.46999998093E+01 0.  1.
</event>
<event>
 5   0  0.2889469E-03  0.1520386E+04  0.7818609E-02  0.8871008E-01
       -2   -1    0    0    0  501  0.00000000000E+00  0.00000000000E+00  0.58162703972E+03  0.58162703973E+03  0.25500000920E-02 0.  1.
        2   -1    0    0  501    0  0.00000000000E+00  0.00000000000E+00 -0.99358117208E+03  0.99358117209E+03  0.25500000920E-02 0. -1.
    10030    2    1    2    0    0  0.00000000000E+00  0.00000000000E+00 -0.41195413236E+03  0.15752082118E+04  0.15203863665E+04 0.  0.
        5    1    3    3  502    0 -0.75560511314E+03  0.75943919510E+02 -0.24134019474E+03  0.79685239882E+03  0.46999998093E+01 0. -1.
       -5    1    3    3    0  502  0.75560511314E+03 -0.75943919510E+02 -0.17061393762E+03  0.77835581299E+03  0.46999998093E+01 0.  1.
</event>
<event>
 5   0  0.1631380E-03  0.1355500E+04  0.7818609E-02  0.8986675E-01
        1   -1    0    0  501    0  0.00000000000E+00  0.00000000000E+00  0.79870515599E+03  0.79870515600E+03  0.50400001928E-02 0. -1.
       -1   -1    0    0    0  501  0.00000000000E+00  0.00000000000E+00 -0.57511196366E+03  0.57511196368E+03  0.50400001928E-02 0.  1.
    10030    2    1    2    0    0  0.00000000000E+00  0.00000000000E+00  0.22359319233E+03  0.13738171197E+04  0.13554997465E+04 0.  0.
        3    1    3    3  502    0  0.54634680051E+03  0.27966502658E+03  0.40314868709E+03  0.73432705767E+03  0.10100000352E+00 0. -1.
       -3    1    3    3    0  502 -0.54634680051E+03 -0.27966502658E+03 -0.17955549476E+03  0.63949006202E+03  0.10100000352E+00 0.  1.
</event>
<event>
 5   0  0.2917809E-03  0.1400390E+04  0.7818609E-02  0.8953536E-01
       -2   -1    0    0    0  501  0.00000000000E+00  0.00000000000E+00  0.78433533347E+03  0.78433533347E+03  0.25500000920E-02 0.  1.
        2   -1    0    0  501    0  0.00000000000E+00  0.00000000000E+00 -0.62508132946E+03  0.62508132947E+03  0.25500000920E-02 0. -1.
    10030    2    1    2    0    0  0.00000000000E+00  0.00000000000E+00  0.15925400400E+03  0.14094166629E+04  0.14003904784E+04 0.  0.
        2    1    3    3  502    0  0.39295953383E+03  0.55465828317E+03  0.24866900028E+03  0.72380886844E+03  0.25500000920E-02 0.  1.
       -2    1    3    3    0  502 -0.39295953383E+03 -0.55465828317E+03 -0.89414996277E+02  0.68560779451E+03  0.25500000920E-02 0. -1.
</event>
<event>
 5   0  0.1644571E-03  0.1365417E+04  0.7818609E-02  0.8979239E-01
       -1   -1    0    0    0  501  0.00000000000E+00  0.00000000000E+00  0.26778410469E+03  0.26778410474E+03  0.50400001928E-02 0.  1.
        1   -1    0    0  501    0  0.00000000000E+00  0.00000000000E+00 -0.17405462209E+04  0.17405462209E+04  0.50400001928E-02 0. -1.
    10030    2    1    2    0    0  0.00000000000E+00  0.00000000000E+00 -0.14727621162E+04  0.20083303257E+04  0.13654165833E+04 0.  0.
        4    1    3    3  502    0 -0.33997118577E+03 -0.33590796603E+03 -0.19311636054E+02  0.47831905772E+03  0.12699999809E+01 0.  1.
       -4    1    3    3    0  502  0.33997118577E+03  0.33590796603E+03 -0.14534504802E+04  0.15300112679E+04  0.12699999809E+01 0. -1.
</event>
<event>
 5   0  0.1560957E-03  0.1419138E+04  0.7818609E-02  0.8940081E-01
        1   -1    0    0  501    0  0.00000000000E+00  0.00000000000E+00  0.93548638825E+03  0.93548638826E+03  0.50400001928E-02 0. -1.
       -1   -1    0    0    0  501  0.00000000000E+00  0.00000000000E+00 -0.53821026086E+03  0.53821026088E+03  0.50400001928E-02 0.  1.
    10030    2    1    2    0    0  0.00000000000E+00  0.00000000000E+00  0.39727612739E+03  0.14736966491E+04  0.14191382922E+04 0.  0.
        5    1    3    3  502    0 -0.65493953216E+03 -0.27245419822E+03  0.21629779744E+03  0.74160899946E+03  0.46999998093E+01 0. -1.
       -5    1    3    3    0  502  0.65493953216E+03  0.27245419822E+03  0.18097832995E+03  0.73208764968E+03  0.46999998093E+01 0.  1.
</event>
<event>
 5   0  0.1586022E-03  0.1398944E+04  0.7818609E-02  0.8954583E-01
       -1   -1    0    0    0  501  0.00000000000E+00  0.00000000000E+00  0.40081442197E+03  0.40081442200E+03  0.50400001928E-02 0. -1.
        1   -1    0    0  501    0  0.00000000000E+00  0.00000000000E+00 -0.12206673899E+04  0.12206673899E+04  0.50400001928E-02 0.  1.
    10030    2    1    2    0    0  0.00000000000E+00  0.00000000000E+00 -0.81985296789E+03  0.16214818119E+04  0.13989440222E+04 0.  0.
        1    1    3    3  502    0  0.11241835804E+03 -0.66162048982E+03 -0.18137531701E+03  0.69518095875E+03  0.50400001928E-02 0. -1.
       -1    1    3    3    0  502 -0.11241835804E+03  0.66162048982E+03 -0.63847765088E+03  0.92630085311E+03  0.50400001928E-02 0.  1.
</event>
<event>
 5   0  0.1700207E-03  0.1394587E+04  0.7818609E-02  0.8957746E-01
        1   -1    0    0  501    0  0.00000000000E+00  0.00000000000E+00  0.15339227835E+04  0.15339227835E+04  0.50400001928E-02 0.  1.
       -1   -1    0    0    0  501  0.00000000000E+00  0.00000000000E+00 -0.31697700232E+03  0.31697700236E+03  0.50400001928E-02 0. -1.
    10030    2    1    2    0    0  0.00000000000E+00  0.00000000000E+00  0.12169457812E+04  0.18508997859E+04  0.13945870296E+04 0.  0.
        2    1    3    3  502    0  0.97268746046E+02 -0.58311195395E+02 -0.30465500948E+03  0.32507857400E+03  0.25500000920E-02 0. -1.
       -2    1    3    3    0  502 -0.97268746046E+02  0.58311195395E+02  0.15216007907E+04  0.15258212119E+04  0.25500000920E-02 0.  1.
</event>
<event>
 5   0  0.2993993E-03  0.1390182E+04  0.7818609E-02  0.8960956E-01
        2   -1    0    0  501    0  0.00000000000E+00  0.00000000000E+00  0.12894175914E+04  0.12894175914E+04  0.25500000920E-02 0. -1.
       -2   -1    0    0    0  501  0.00000000000E+00  0.00000000000E+00 -0.37470514524E+03  0.37470514525E+03  0.25500000920E-02 0.  1.
    10030    2    1    2    0    0  0.00000000000E+00  0.00000000000E+00  0.91471244620E+03  0.16641227367E+04  0.13901818671E+04 0.  0.
        3    1    3    3  502    0 -0.18181972634E+03  0.24913050318E+03  0.12030228291E+04  0.12419292886E+04  0.10100000352E+00 0. -1.
       -3    1    3    3    0  502  0.18181972634E+03 -0.24913050318E+03 -0.28831038288E+03  0.42219344805E+03  0.10100000352E+00 0.  1.
</event>
<event>
 5   0  0.3006737E-03  0.1571029E+04  0.7818609E-02  0.8838546E-01
        2   -1    0    0  501    0  0.00000000000E+00  0.00000000000E+00  0.13968134520E+04  0.13968134520E+04  0.25500000920E-02 0.  1.
       -2   -1    0    0    0  501  0.00000000000E+00  0.00000000000E+00 -0.44174320558E+03  0.44174320559E+03  0.25500000920E-02 0. -1.
    10030    2    1    2    0    0  0.00000000000E+00  0.00000000000E+00  0.95507024646E+03  0.18385566576E+04  0.15710287737E+04 0.  0.
        1    1    3    3  502    0  0.43946957715E+03  0.63795694890E+03  0.32535140154E+03  0.84022384661E+03  0.50400001928E-02 0.  1.
       -1    1    3    3    0  502 -0.43946957715E+03 -0.63795694890E+03  0.62971884492E+03  0.99833281102E+03  0.50400001928E-02 0. -1.
</event>
<event>
 5   0  0.1700207E-03  0.1371258E+04  0.7818609E-02  0.8974890E-01
        1   -1    0    0  501    0  0.00000000000E+00  0.00000000000E+00  0.84410947768E+03  0.84410947770E+03  0.50400001928E-02 0. -1.
       -1   -1    0    0    0  501  0.00000000000E+00  0.00000000000E+00 -0.55690330838E+03  0.55690330840E+03  0.50400001928E-02 0.  1.
    10030    2    1    2    0    0  0.00000000000E+00  0.00000000000E+00  0.28720616930E+03  0.14010127861E+04  0.13712583430E+04 0.  0.
        2    1    3    3  502    0  0.54315161837E+03  0.40550938328E+03  0.38235187760E+02  0.67890608338E+03  0.25500000920E-02 0.  1.
       -2    1    3    3    0  502 -0.54315161837E+03 -0.40550938328E+03  0.24897098154E+03  0.72210670272E+03  0.25500000920E-02 0. -1.
</event>
<event>
 5   0  0.1644571E-03  0.7224445E+03  0.7818609E-02  0.9679601E-01
        1   -1    0    0  501    0  0.00000000000E+00  0.00000000000E+00  0.16610722987E+03  0.16610722995E+03  0.50400001928E-02 0. -1.
       -1   -1    0    0    0  501  0.00000000000E+00  0.00000000000E+00 -0.78552572814E+03  0.78552572816E+03  0.50400001928E-02 0.  1.
    10030    2    1    2    0    0  0.00000000000E+00  0.00000000000E+00 -0.61941849827E+03  0.95163295810E+03  0.72244446911E+03 0.  0.
        4    1    3    3  502    0  0.86484968751E+02  0.97248559871E+02  0.13414982761E+03  0.18690832342E+03  0.12699999809E+01 0. -1.
       -4    1    3    3    0  502 -0.86484968751E+02 -0.97248559871E+02 -0.75356832588E+03  0.76472463468E+03  0.12699999809E+01 0.  1.
</event>
<event>
 5   0  0.1631380E-03  0.1387134E+04  0.7818609E-02  0.8963184E-01
        1   -1    0    0  501    0  0.00000000000E+00  0.00000000000E+00  0.22049889905E+04  0.22049889905E+04  0.50400001928E-02 0.  1.
       -1   -1    0    0    0  501  0.00000000000E+00  0.00000000000E+00 -0.21815771569E+03  0.21815771574E+03  0.50400001928E-02 0. -1.
    10030    2    1    2    0    0  0.00000000000E+00  0.00000000000E+00  0.19868312748E+04  0.24231467063E+04  0.13871342565E+04 0.  0.
        3    1    3    3  502    0 -0.57468555602E+03  0.37046336720E+03  0.79023133585E+03  0.10449747217E+04  0.10100000352E+00 0. -1.
       -3    1    3    3    0  502  0.57468555602E+03 -0.37046336720E+03  0.11965999390E+04  0.13781719845E+04  0.10100000352E+00 0.  1.
</event>
<event>
 5   0  0.1644571E-03  0.1406625E+04  0.7818609E-02  0.8949037E-01
       -1   -1    0    0    0  501  0.00000000000E+00  0.00000000000E+00  0.60269993627E+03  0.60269993629E+03  0.50400001928E-02 0. -1.
        1   -1    0    0  501    0  0.00000000000E+00  0.00000000000E+00 -0.82072147138E+03  0.82072147140E+03  0.50400001928E-02 0.  1.
    10030    2    1    2    0    0  0.00000000000E+00  0.00000000000E+00 -0.21802153511E+03  0.14234214077E+04  0.14066254349E+04 0.  0.
        4    1    3    3  502    0  0.53466064212E+03 -0.10080392499E+03  0.34198305786E+03  0.64263322221E+03  0.12699999809E+01 0. -1.
       -4    1    3    3    0  502 -0.53466064212E+03  0.10080392499E+03 -0.56000459297E+03  0.78078818547E+03  0.12699999809E+01 0.  1.
</event>
<event>
 5   0  0.2917809E-03  0.1397152E+04  0.7818609E-02  0.8955883E-01
        2   -1    0    0  501    0  0.00000000000E+00  0.00000000000E+00  0.12739956151E+04  0.12739956151E+04  0.25500000920E-02 0. -1.
       -2   -1    0    0    0  501  0.00000000000E+00  0.00000000000E+00 -0.38305327931E+03  0.38305327932E+03  0.25500000920E-02 0.  1.
    10030    2    1    2    0    0  0.00000000000E+00  0.00000000000E+00  0.89094233577E+03  0.16570488944E+04  0.13971516714E+04 0.  0.
        2    1    3    3  502    0 -0.69017295418E+03 -0.90023336906E+02  0.51628844409E+03  0.86660063777E+03  0.25500000920E-02 0.  1.
       -2    1    3    3    0  502  0.69017295418E+03  0.90023336906E+02  0.37465389168E+03  0.79044825664E+03  0.25500000920E-02 0. -1.
</event>
<event>
 5   0  0.3006737E-03  0.1384853E+04  0.7818609E-02  0.8964857E-01
       -2   -1    0    0    0  501  0.00000000000E+00  0.00000000000E+00  0.29215316653E+03  0.29215316654E+03  0.25500000920E-02 0.  1.
        2   -1    0    0  501    0  0.00000000000E+00  0.00000000000E+00 -0.16411054548E+04  0.16411054548E+04  0.25500000920E-02 0. -1.
    10030    2    1    2    0    0  0.00000000000E+00  0.00000000000E+00 -0.13489522883E+04  0.19332586214E+04  0.13848525629E+04 0.  0.
        1    1    3    3  502    0  0.12977781379E+03  0.67924506940E+03 -0.62535726068E+03  0.93235607402E+03  0.50400001928E-02 0.  1.
       -1    1    3    3    0  502 -0.12977781379E+03 -0.67924506940E+03 -0.72359502762E+03  0.10009025473E+04  0.50400001928E-02 0. -1.
</event>
<event>
 5   0  0.1586022E-03  0.1389872E+04  0.7818609E-02  0.8961182E-01
        1   -1    0    0  501    0  0.00000000000E+00  0.00000000000E+00  0.10475273485E+04  0.10475273485E+04  0.50400001928E-02 0. -1.
       -1   -1    0    0    0  501  0.00000000000E+00  0.00000000000E+00 -0.46102484999E+03  0.46102485002E+03  0.50400001928E-02 0.  1.
    10030    2    1    2    0    0  0.00000000000E+00  0.00000000000E+00  0.58650249850E+03  0.15085521985E+04  0.13898721362E+04 0.  0.
        1    1    3    3  502    0  0.94404602783E+02  0.48213820019E+03 -0.24021137379E+03  0.54687382204E+03  0.50400001928E-02 0.  1.
       -1    1    3    3    0  502 -0.94404602783E+02 -0.48213820019E+03  0.82671387229E+03  0.96167837647E+03  0.50400001928E-02 0. -1.
</event>
<event>
 5   0  0.2917809E-03  0.1384296E+04  0.7818609E-02  0.8965265E-01
        2   -1    0    0  501    0  0.00000000000E+00  0.00000000000E+00  0.24138926849E+04  0.24138926849E+04  0.25500000920E-02 0.  1.
       -2   -1    0    0    0  501  0.00000000000E+00  0.00000000000E+00 -0.19846308213E+03  0.19846308215E+03  0.25500000920E-02 0. -1.
    10030    2    1    2    0    0  0.00000000000E+00  0.00000000000E+00  0.22154296028E+04  0.26123557671E+04  0.13842956075E+04 0.  0.
        2    1    3    3  502    0  0.32872944747E+03  0.58877115229E+02 -0.36362069974E+02  0.33593416687E+03  0.25500000920E-02 0. -1.
       -2    1    3    3    0  502 -0.32872944747E+03 -0.58877115229E+02  0.22517916728E+04  0.22764216002E+04  0.25500000920E-02 0.  1.
</event>
<event>
 5   0  0.1631380E-03  0.1358044E+04  0.7818609E-02  0.8984761E-01
        1   -1    0    0  501    0  0.00000000000E+00  0.00000000000E+00  0.10192786845E+04  0.10192786845E+04  0.50400001928E-02 0.  1.
       -1   -1    0    0    0  501  0.00000000000E+00  0.00000000000E+00 -0.45235033552E+03  0.45235033555E+03  0.50400001928E-02 0. -1.
    10030    2    1    2    0    0  0.00000000000E+00  0.00000000000E+00  0.56692834898E+03  0.14716290201E+04  0.13580442628E+04 0.  0.
        3    1    3    3  502    0  0.27771086623E+03  0.36525802978E+02 -0.38682871337E+03  0.47759179557E+03  0.10100000352E+00 0. -1.
       -3    1    3    3    0  502 -0.27771086623E+03 -0.36525802978E+02  0.95375706235E+03  0.99403722450E+03  0.10100000352E+00 0.  1.
</event>
<event>
 5   0  0.3006737E-03  0.1416391E+04  0.7818609E-02  0.8942039E-01
        2   -1    0    0  501    0  0.00000000000E+00  0.00000000000E+00  0.99834619314E+03  0.99834619314E+03  0.25500000920E-02 0.  1.
       -2   -1    0    0    0  501  0.00000000000E+00  0.00000000000E+00 -0.50237140850E+03  0.50237140850E+03  0.25500000920E-02 0. -1.
    10030    2    1    2    0    0  0.00000000000E+00  0.00000000000E+00  0.49597478464E+03  0.15007176016E+04  0.14163906004E+04 0.  0.
        1    1    3    3  502    0  0.23848966065E+03  0.37564541702E+03  0.83174663122E+03  0.94328641257E+03  0.50400001928E-02 0.  1.
       -1    1    3    3    0  502 -0.23848966065E+03 -0.37564541702E+03 -0.33577184658E+03  0.55743118907E+03  0.50400001928E-02 0. -1.
</event>
<event>
 5   0  0.1631380E-03  0.1422415E+04  0.7818609E-02  0.8937751E-01
       -1   -1    0    0    0  501  0.00000000000E+00  0.00000000000E+00  0.33630866107E+03  0.33630866111E+03  0.50400001928E-02 0.  1.
        1   -1    0    0  501    0  0.00000000000E+00  0.00000000000E+00 -0.15040232633E+04  0.15040232633E+04  0.50400001928E-02 0. -1.
    10030    2    1    2    0    0  0.00000000000E+00  0.00000000000E+00 -0.11677146023E+04  0.18403319244E+04  0.14224149183E+04 0.  0.
        3    1    3    3  502    0  0.47630248474E+03  0.18363917315E+03  0.56843774997E+02  0.51363277528E+03  0.10100000352E+00 0.  1.
       -3    1    3    3    0  502 -0.47630248474E+03 -0.18363917315E+03 -0.12245583773E+04  0.13266991492E+04  0.10100000352E+00 0. -1.
</event>
<event>
 5   0  0.2889469E-03  0.1369175E+04  0.7818609E-02  0.8976439E-01
        2   -1    0    0  501    0  0.00000000000E+00  0.00000000000E+00  0.80099363872E+03  0.80099363873E+03  0.25500000920E-02 0.  1.
       -2   -1    0    0    0  501  0.00000000000E+00  0.00000000000E+00 -0.58509817298E+03  0.58509817298E+03  0.25500000920E-02 0. -1.
    10030    2    1    2    0    0  0.00000000000E+00  0.00000000000E+00  0.21589546575E+03  0.13860918117E+04  0.13691748093E+04 0.  0.
        5    1    3    3  502    0 -0.10382842381E+03  0.34171778334E+03  0.69918979710E+03  0.78513683356E+03  0.46999998093E+01 0.  1.
       -5    1    3    3    0  502  0.10382842381E+03 -0.34171778334E+03 -0.48329433136E+03  0.60095497815E+03  0.46999998093E+01 0. -1.
</event>
<event>
 5   0  0.3006737E-03  0.1429484E+04  0.7818609E-02  0.8932749E-01
       -2   -1    0    0    0  501  0.00000000000E+00  0.00000000000E+00  0.35910069174E+03  0.35910069175E+03  0.25500000920E-02 0. -1.
        2   -1    0    0  501    0  0.00000000000E+00  0.00000000000E+00 -0.14225985374E+04  0.14225985374E+04  0.25500000920E-02 0.  1.
    10030    2    1    2    0    0  0.00000000000E+00  0.00000000000E+00 -0.10634978456E+04  0.17816992291E+04  0.14294839892E+04 0.  0.
        1    1    3    3  502    0 -0.64392723198E+03 -0.20472725269E+03 -0.24130829032E+03  0.71748534416E+03  0.50400001928E-02 0. -1.
       -1    1    3    3    0  502  0.64392723198E+03  0.20472725269E+03 -0.82218955532E+03  0.10642138850E+04  0.50400001928E-02 0.  1.
</event>
<event>
 5   0  0.1700207E-03  0.1403582E+04  0.7818609E-02  0.8951229E-01
       -1   -1    0    0    0  501  0.00000000000E+00  0.00000000000E+00  0.55924254186E+03  0.55924254189E+03  0.50400001928E-02 0. -1.
        1   -1    0    0  501    0  0.00000000000E+00  0.00000000000E+00 -0.88067498173E+03  0.88067498174E+03  0.50400001928E-02 0.  1.
    10030    2    1    2    0    0  0.00000000000E+00  0.00000000000E+00 -0.32143243986E+03  0.14399175236E+04  0.14035824384E+04 0.  0.
        2    1    3    3  502    0  0.28055068655E+02 -0.21551997690E+03 -0.84527986574E+03  0.87277373858E+03  0.25500000920E-02 0.  1.
       -2    1    3    3    0  502 -0.28055068655E+02  0.21551997690E+03  0.52384742588E+03  0.56714378505E+03  0.25500000920E-02 0. -1.
</event>
<event>
 5   0  0.2917809E-03  0.1377831E+04  0.7818609E-02  0.8970024E-01
        2   -1    0    0  501    0  0.00000000000E+00  0.00000000000E+00  0.11888076885E+04  0.11888076885E+04  0.25500000920E-02 0.  1.
       -2   -1    0    0    0  501  0.00000000000E+00  0.00000000000E+00 -0.39922734478E+03  0.39922734479E+03  0.25500000920E-02 0. -1.
    10030    2    1    2    0    0  0.00000000000E+00  0.00000000000E+00  0.78958034369E+03  0.15880350333E+04  0.13778309576E+04 0.  0.
        2    1    3    3  502    0 -0.33839048535E+02  0.46503489188E+03 -0.18973243917E+03  0.50338944203E+03  0.25500000920E-02 0. -1.
       -2    1    3    3    0  502  0.33839048535E+02 -0.46503489188E+03  0.97931278286E+03  0.10846455912E+04  0.25500000920E-02 0.  1.
</event>
<event>
 5   0  0.3006737E-03  0.1361198E+04  0.7818609E-02  0.8982394E-01
        2   -1    0    0  501    0  0.00000000000E+00  0.00000000000E+00  0.37964039641E+03  0.37964039642E+03  0.25500000920E-02 0. -1.
       -2   -1    0    0    0  501  0.00000000000E+00  0.00000000000E+00 -0.12201420768E+04  0.12201420768E+04  0.25500000920E-02 0.  1.
    10030    2    1    2    0    0  0.00000000000E+00  0.00000000000E+00 -0.84050168041E+03  0.15997824732E+04  0.13611983275E+04 0.  0.
        1    1    3    3  502    0  0.14254862360E+03 -0.31669365382E+03  0.26766191136E+03  0.43847221039E+03  0.50400001928E-02 0. -1.
       -1    1    3    3    0  502 -0.14254862360E+03  0.31669365382E+03 -0.11081635918E+04  0.11613102629E+04  0.50400001928E-02 0.  1.
</event>
<event>
 5   0  0.1700207E-03  0.1400438E+04  0.7818609E-02  0.8953501E-01
       -1   -1    0    0    0  501  0.00000000000E+00  0.00000000000E+00  0.48797668320E+03  0.48797668323E+03  0.50400001928E-02 0.  1.
        1   -1    0    0  501    0  0.00000000000E+00  0.00000000000E+00 -0.10047749823E+04  0.10047749823E+04  0.50400001928E-02 0. -1.
    10030    2    1    2    0    0  0.00000000000E+00  0.00000000000E+00 -0.51679829907E+03  0.14927516655E+04  0.14004381646E+04 0.  0.
        2    1    3    3  502    0 -0.33738894270E+03 -0.20722381543E+03  0.35719363843E+03  0.53325444553E+03  0.25500000920E-02 0.  1.
       -2    1    3    3    0  502  0.33738894270E+03  0.20722381543E+03 -0.87399193749E+03  0.95949721998E+03  0.25500000920E-02 0. -1.
</event>
<event>
 5   0  0.1644571E-03  0.1379014E+04  0.7818609E-02  0.8969151E-01
        1   -1    0    0  501    0  0.00000000000E+00  0.00000000000E+00  0.63336776741E+03  0.63336776743E+03  0.50400001928E-02 0.  1.
       -1   -1    0    0    0  501  0.00000000000E+00  0.00000000000E+00 -0.75062175822E+03  0.75062175823E+03  0.50400001928E-02 0. -1.
    10030    2    1    2    0    0  0.00000000000E+00  0.00000000000E+00 -0.11725399081E+03  0.13839895257E+04  0.13790135999E+04 0.  0.
        4    1    3    3  502    0  0.33026240515E+03  0.95603746941E+02  0.54119560483E+03  0.64117675276E+03  0.12699999809E+01 0.  1.
       -4    1    3    3    0  502 -0.33026240515E+03 -0.95603746941E+02 -0.65844959564E+03  0.74281277290E+03  0.12699999809E+01 0. -1.
</event>
<event>
 5   0  0.2889469E-03  0.1329333E+04  0.7818609E-02  0.9006622E-01
        2   -1    0    0  501    0  0.00000000000E+00  0.00000000000E+00  0.65527302922E+03  0.65527302922E+03  0.25500000920E-02 0. -1.
       -2   -1    0    0    0  501  0.00000000000E+00  0.00000000000E+00 -0.67419480802E+03  0.67419480803E+03  0.25500000920E-02 0.  1.
    10030    2    1    2    0    0  0.00000000000E+00  0.00000000000E+00 -0.18921778804E+02  0.13294678372E+04  0.13293331774E+04 0.  0.
        5    1    3    3  502    0 -0.23979557265E+03  0.52116339995E+03  0.32620144251E+03  0.65995657222E+03  0.46999998093E+01 0. -1.
       -5    1    3    3    0  502  0.23979557265E+03 -0.52116339995E+03 -0.34512322132E+03  0.66951126503E+03  0.46999998093E+01 0.  1.
</event>
<event>
 5   0  0.1631380E-03  0.1371590E+04  0.7818609E-02  0.8974644E-01
        1   -1    0    0  501    0  0.00000000000E+00  0.00000000000E+00  0.96773531559E+03  0.96773531560E+03  0.50400001928E-02 0.  1.
       -1   -1    0    0    0  501  0.00000000000E+00  0.00000000000E+00 -0.48599521476E+03  0.48599521479E+03  0.50400001928E-02 0. -1.
    10030    2    1    2    0    0  0.00000000000E+00  0.00000000000E+00  0.48174010082E+03  0.14537305304E+04  0.13715899279E+04 0.  0.
        3    1    3    3  502    0 -0.17635731374E+03 -0.65493233100E+03  0.13342623165E+03  0.69126031985E+03  0.10100000352E+00 0.  1.
       -3    1    3    3    0  502  0.17635731374E+03  0.65493233100E+03  0.34831386917E+03  0.76247021054E+03  0.10100000352E+00 0. -1.
</event>
<event>
 5   0  0.1631380E-03  0.1379145E+04  0.7818609E-02  0.8969054E-01
       -1   -1    0    0    0  501  0.00000000000E+00  0.00000000000E+00  0.28503208196E+03  0.28503208201E+03  0.50400001928E-02 0. -1.
        1   -1    0    0  501    0  0.00000000000E+00  0.00000000000E+00 -0.16682703132E+04  0.16682703132E+04  0.50400001928E-02 0.  1.
    10030    2    1    2    0    0  0.00000000000E+00  0.00000000000E+00 -0.13832382312E+04  0.19533023952E+04  0.13791454756E+04 0.  0.
        3    1    3    3  502    0  0.38869469324E+03 -0.34144236536E+03 -0.45922885228E+02  0.51939905179E+03  0.10100000352E+00 0. -1.
       -3    1    3    3    0  502 -0.38869469324E+03  0.34144236536E+03 -0.13373153460E+04  0.14339033434E+04  0.10100000352E+00 0.  1.
</event>
<event>
 5   0  0.2993993E-03  0.1473499E+04  0.7818609E-02  0.8902270E-01
        2   -1    0    0  501    0  0.00000000000E+00  0.00000000000E+00  0.64887943997E+03  0.64887943998E+03  0.25500000920E-02 0. -1.
       -2   -1    0    0    0  501  0.00000000000E+00  0.00000000000E+00 -0.83651849725E+03  0.83651849725E+03  0.25500000920E-02 0.  1.
    10030    2    1    2    0    0  0.00000000000E+00  0.00000000000E+00 -0.18763905728E+03  0.14853979372E+04  0.14734987669E+04 0.  0.
        3    1    3    3  502    0 -0.67733280079E+02 -0.29978106477E+03 -0.76881104412E+03  0.82796552814E+03  0.10100000352E+00 0.  1.
       -3    1    3    3    0  502  0.67733280079E+02  0.29978106477E+03  0.58117198685E+03  0.65743240909E+03  0.10100000352E+00 0. -1.
</event>
<event>
 5   0  0.2889469E-03  0.1379302E+04  0.7818609E-02  0.8968939E-01
       -2   -1    0    0    0  501  0.00000000000E+00  0.00000000000E+00  0.65080672064E+03  0.65080672065E+03  0.25500000920E-02 0. -1.
        2   -1    0    0  501    0  0.00000000000E+00  0.00000000000E+00 -0.73081364875E+03  0.73081364875E+03  0.25500000920E-02 0.  1.
    10030    2    1    2    0    0  0.00000000000E+00  0.00000000000E+00 -0.80006928104E+02  0.13816203694E+04  0.13793019019E+04 0.  0.
        5    1    3    3  502    0  0.42473085374E+03  0.32072765095E+03  0.39929250783E+03  0.66537141583E+03  0.46999998093E+01 0. -1.
       -5    1    3    3    0  502 -0.42473085374E+03 -0.32072765095E+03 -0.47929943593E+03  0.71624895357E+03  0.46999998093E+01 0.  1.
</event>
<event>
 5   0  0.1560957E-03  0.1349563E+04  0.7818609E-02  0.8991159E-01
        1   -1    0    0  501    0  0.00000000000E+00  0.00000000000E+00  0.94263618690E+03  0.94263618691E+03  0.50400001928E-02 0.  1.
       -1   -1    0    0    0  501  0.00000000000E+00  0.00000000000E+00 -0.48303928879E+03  0.48303928881E+03  0.50400001928E-02 0. -1.
    10030    2    1    2    0    0  0.00000000000E+00  0.00000000000E+00  0.45959689811E+03  0.14256754757E+04  0.13495633565E+04 0.  0.
        5    1    3    3  502    0  0.60814672082E+03  0.47568020770E+02 -0.74918831483E+02  0.61460562311E+03  0.46999998093E+01 0. -1.
       -5    1    3    3    0  502 -0.60814672082E+03 -0.47568020770E+02  0.53451572960E+03  0.81106985262E+03  0.46999998093E+01 0.  1.
</event>
<event>
 5   0  0.1700207E-03  0.1292354E+04  0.7818609E-02  0.9035650E-01
       -1   -1    0    0    0  501  0.00000000000E+00  0.00000000000E+00  0.27098811822E+03  0.27098811827E+03  0.50400001928E-02 0. -1.
        1   -1    0    0  501    0  0.00000000000E+00  0.00000000000E+00 -0.15408232274E+04  0.15408232275E+04  0.50400001928E-02 0.  1.
    10030    2    1    2    0    0  0.00000000000E+00  0.00000000000E+00 -0.12698351092E+04  0.18118113457E+04  0.12923541109E+04 0.  0.
        2    1    3    3  502    0 -0.13871009053E+03  0.56151799648E+03 -0.10388188997E+04  0.11889859780E+04  0.25500000920E-02 0. -1.
       -2    1    3    3    0  502  0.13871009053E+03 -0.56151799648E+03 -0.23101620954E+03  0.62282536771E+03  0.25500000920E-02 0.  1.
</event>
<event>
 5   0  0.2760807E-03  0.1392210E+04  0.7818609E-02  0.8959477E-01
       -2   -1    0    0    0  501  0.00000000000E+00  0.00000000000E+00  0.43400067970E+03  0.43400067971E+03  0.25500000920E-02 0. -1.
        2   -1    0    0  501    0  0.00000000000E+00  0.00000000000E+00 -0.11165006021E+04  0.11165006021E+04  0.25500000920E-02 0.  1.
    10030    2    1    2    0    0  0.00000000000E+00  0.00000000000E+00 -0.68249992241E+03  0.15505012818E+04  0.13922097833E+04 0.  0.
        4    1    3    3  502    0  0.47750853838E+02 -0.39390028956E+03  0.29572575009E+03  0.49486656214E+03  0.12699999809E+01 0. -1.
       -4    1    3    3    0  502 -0.47750853838E+02  0.39390028956E+03 -0.97822567250E+03  0.10556347197E+04  0.12699999809E+01 0.  1.
</event>
<event>
 5   0  0.2889469E-03  0.1447524E+04  0.7818609E-02  0.8920119E-01
       -2   -1    0    0    0  501  0.00000000000E+00  0.00000000000E+00  0.60739168962E+03  0.60739168963E+03  0.25500000920E-02 0.  1.
        2   -1    0    0  501    0  0.00000000000E+00  0.00000000000E+00 -0.86242797410E+03  0.86242797411E+03  0.25500000920E-02 0. -1.
    10030    2    1    2    0    0  0.00000000000E+00  0.00000000000E+00 -0.25503628448E+03  0.14698196637E+04  0.14475242096E+04 0.  0.
        5    1    3    3  502    0  0.63388616280E+03 -0.13323461885E+03  0.20032694032E+03  0.67802367515E+03  0.46999998093E+01 0.  1.
       -5    1    3    3    0  502 -0.63388616280E+03  0.13323461885E+03 -0.45536322480E+03  0.79179598859E+03  0.46999998093E+01 0. -1.
</event>
<event>
 5   0  0.1586022E-03  0.1454274E+04  0.7818609E-02  0.8915442E-01
       -1   -1    0    0    0  501  0.00000000000E+00  0.00000000000E+00  0.12617498813E+04  0.12617498813E+04  0.50400001928E-02 0.  1.
        1   -1    0    0  501    0  0.00000000000E+00  0.00000000000E+00 -0.41904386776E+03  0.41904386779E+03  0.50400001928E-02 0. -1.
    10030    2    1    2    0    0  0.00000000000E+00  0.00000000000E+00  0.84270601353E+03  0.16807937491E+04  0.14542744589E+04 0.  0.
        1    1    3    3  502    0 -0.56041680470E+03 -0.42455936456E+03  0.63574870738E+03  0.94788926990E+03  0.50400001928E-02 0.  1.
       -1    1    3    3    0  502  0.56041680470E+03  0.42455936456E+03  0.20695730615E+03  0.73290447919E+03  0.50400001928E-02 0. -1.
</event>
<event>
 5   0  0.2917809E-03  0.1445193E+04  0.7818609E-02  0.8921740E-01
       -2   -1    0    0    0  501  0.00000000000E+00  0.00000000000E+00  0.28535050326E+03  0.28535050327E+03  0.25500000920E-02 0. -1.
        2   -1    0    0  501    0  0.00000000000E+00  0.00000000000E+00 -0.18298402430E+04  0.18298402430E+04  0.25500000920E-02 0.  1.
    10030    2    1    2    0    0  0.00000000000E+00  0.00000000000E+00 -0.15444897398E+04  0.21151907463E+04  0.14451931833E+04 0.  0.
        2    1    3    3  502    0  0.64720782135E+03 -0.26806592531E+03 -0.10316314112E+04  0.12469966611E+04  0.25500000920E-02 0. -1.
       -2    1    3    3    0  502 -0.64720782135E+03  0.26806592531E+03 -0.51285832859E+03  0.86819408517E+03  0.25500000920E-02 0.  1.
</event>
<event>
 5   0  0.1700207E-03  0.1388923E+04  0.7818609E-02  0.8961876E-01
        1   -1    0    0  501    0  0.00000000000E+00  0.00000000000E+00  0.35019574616E+03  0.35019574620E+03  0.50400001928E-02 0.  1.
       -1   -1    0    0    0  501  0.00000000000E+00  0.00000000000E+00 -0.13771626202E+04  0.13771626202E+04  0.50400001928E-02 0. -1.
    10030    2    1    2    0    0  0.00000000000E+00  0.00000000000E+00 -0.10269668740E+04  0.17273583664E+04  0.13889225916E+04 0.  0.
        2    1    3    3  502    0 -0.50537036139E+03  0.47564030620E+03 -0.48193277421E+03  0.84492135842E+03  0.25500000920E-02 0. -1.
       -2    1    3    3    0  502  0.50537036139E+03 -0.47564030620E+03 -0.54503409980E+03  0.88243700795E+03  0.25500000920E-02 0.  1.
</event>
<event>
 5   0  0.3006737E-03  0.1316993E+04  0.7818609E-02  0.9016197E-01
        2   -1    0    0  501    0  0.00000000000E+00  0.00000000000E+00  0.10937609405E+04  0.10937609405E+04  0.25500000920E-02 0. -1.
       -2   -1    0    0    0  501  0.00000000000E+00  0.00000000000E+00 -0.39644619463E+03  0.39644619464E+03  0.25500000920E-02 0.  1.
    10030    2    1    2    0    0  0.00000000000E+00  0.00000000000E+00  0.69731474591E+03  0.14902071352E+04  0.13169925782E+04 0.  0.
        1    1    3    3  502    0  0.23623671767E+03 -0.33321518124E+03 -0.23577959824E+03  0.47162714378E+03  0.50400001928E-02 0.  1.
       -1    1    3    3    0  502 -0.23623671767E+03  0.33321518124E+03  0.93309434415E+03  0.10185799914E+04  0.50400001928E-02 0. -1.
</event>
<event>
 5   0  0.1631380E-03  0.1419275E+04  0.7818609E-02  0.8939983E-01
        1   -1    0    0  501    0  0.00000000000E+00  0.00000000000E+00  0.12051307531E+04  0.12051307531E+04  0.50400001928E-02 0.  1.
       -1   -1    0    0    0  501  0.00000000000E+00  0.00000000000E+00 -0.41786774075E+03  0.41786774078E+03  0.50400001928E-02 0. -1.
    10030    2    1    2    0    0  0.00000000000E+00  0.00000000000E+00  0.78726301236E+03  0.16229984939E+04  0.14192748362E+04 0.  0.
        3    1    3    3  502    0 -0.60619347526E+03 -0.31543621971E+03  0.17481531529E+03  0.70535873342E+03  0.10100000352E+00 0. -1.
       -3    1    3    3    0  502  0.60619347526E+03  0.31543621971E+03  0.61244769707E+03  0.91763976047E+03  0.10100000352E+00 0.  1.
</event>
<event>
 5   0  0.1631380E-03  0.1389900E+04  0.7818609E-02  0.8961162E-01
       -1   -1    0    0    0  501  0.00000000000E+00  0.00000000000E+00  0.38251636046E+03  0.38251636049E+03  0.50400001928E-02 0. -1.
        1   -1    0    0  501    0  0.00000000000E+00  0.00000000000E+00 -0.12625749516E+04  0.12625749516E+04  0.50400001928E-02 0.  1.
    10030    2    1    2    0    0  0.00000000000E+00  0.00000000000E+00 -0.88005859113E+03  0.16450913121E+04  0.13899001048E+04 0.  0.
        3    1    3    3  502    0 -0.54972360316E+03  0.19626869178E+03 -0.88641926973E+03  0.10613465839E+04  0.10100000352E+00 0.  1.
       -3    1    3    3    0  502  0.54972360316E+03 -0.19626869178E+03  0.63606785961E+01  0.58374472818E+03  0.10100000352E+00 0. -1.
</event>
<event>
 5   0  0.2760807E-03  0.1397403E+04  0.7818609E-02  0.8955700E-01
       -2   -1    0    0    0  501  0.00000000000E+00  0.00000000000E+00  0.67732973905E+03  0.67732973905E+03  0.25500000920E-02 0.  1.
        2   -1    0    0  501    0  0.00000000000E+00  0.00000000000E+00 -0.72074791182E+03  0.72074791183E+03  0.25500000920E-02 0. -1.
    10030    2    1    2    0    0  0.00000000000E+00  0.00000000000E+00 -0.43418172773E+02  0.13980776509E+04  0.13974032990E+04 0.  0.
        4    1    3    3  502    0 -0.22287862554E+03 -0.49948518655E+03  0.41326738133E+03  0.68553036015E+03  0.12699999809E+01 0.  1.
       -4    1    3    3    0  502  0.22287862554E+03  0.49948518655E+03 -0.45668555411E+03  0.71254729074E+03  0.12699999809E+01 0. -1.
</event>
<event>
 5   0  0.3006737E-03  0.1444717E+04  0.7818609E-02  0.8922071E-01
       -2   -1    0    0    0  501  0.00000000000E+00  0.00000000000E+00  0.35682682445E+03  0.35682682446E+03  0.25500000920E-02 0. -1.
        2   -1    0    0  501    0  0.00000000000E+00  0.00000000000E+00 -0.14623387974E+04  0.14623387974E+04  0.25500000920E-02 0.  1.
    10030    2    1    2    0    0  0.00000000000E+00  0.00000000000E+00 -0.11055119729E+04  0.18191656218E+04  0.14447168710E+04 0.  0.
        1    1    3    3  502    0  0.37588497772E+03 -0.79082094882E+02  0.21757109636E+03  0.44145291505E+03  0.50400001928E-02 0. -1.
       -1    1    3    3    0  502 -0.37588497772E+03  0.79082094882E+02 -0.13230830693E+04  0.13777127068E+04  0.50400001928E-02 0.  1.
</event>
<event>
 5   0  0.1104538E-03  0.1044248E+04  0.7818609E-02  0.9261303E-01
       -4   -1    0    0    0  501  0.00000000000E+00  0.00000000000E+00  0.23537002652E+03  0.23537345280E+03  0.12699999809E+01 0.  1.
        4   -1    0    0  501    0  0.00000000000E+00  0.00000000000E+00 -0.11582211944E+04  0.11582218907E+04  0.12699999809E+01 0. -1.
    10030    2    1    2    0    0  0.00000000000E+00  0.00000000000E+00 -0.92285116789E+03  0.13935953435E+04  0.10442479128E+04 0.  0.
        4    1    3    3  502    0 -0.14624473926E+02  0.33199048091E+03 -0.99886815550E+03  0.10526968983E+04  0.12699999809E+01 0. -1.
       -4    1    3    3    0  502  0.14624473926E+02 -0.33199048091E+03  0.76016987607E+02  0.34089844522E+03  0.12699999809E+01 0.  1.
</event>
<event>
 5   0  0.1644571E-03  0.1131377E+04  0.7818609E-02  0.9175138E-01
       -1   -1    0    0    0  501  0.00000000000E+00  0.00000000000E+00  0.75059772431E+03  0.75059772433E+03  0.50400001928E-02 0. -1.
        1   -1    0    0  501    0  0.00000000000E+00  0.00000000000E+00 -0.42633187171E+03  0.42633187174E+03  0.50400001928E-02 0.  1.
    10030    2    1    2    0    0  0.00000000000E+00  0.00000000000E+00  0.32426585260E+03  0.11769295961E+04  0.11313774485E+04 0.  0.
        4    1    3    3  502    0 -0.16687041469E+03  0.12721206336E+03 -0.38435005021E+03  0.43789863937E+03  0.12699999809E+01 0.  1.
       -4    1    3    3    0  502  0.16687041469E+03 -0.12721206336E+03  0.70861590280E+03  0.73903095671E+03  0.12699999809E+01 0. -1.
</event>
<event>
 5   0  0.1560957E-03  0.1433204E+04  0.7818609E-02  0.8930128E-01
       -1   -1    0    0    0  501  0.00000000000E+00  0.00000000000E+00  0.75284150387E+03  0.75284150389E+03  0.50400001928E-02 0. -1.
        1   -1    0    0  501    0  0.00000000000E+00  0.00000000000E+00 -0.68210739547E+03  0.68210739549E+03  0.50400001928E-02 0.  1.
    10030    2    1    2    0    0  0.00000000000E+00  0.00000000000E+00  0.70734108399E+02  0.14349488994E+04  0.14332044619E+04 0.  0.
        5    1    3    3  502    0 -0.22937689389E+03 -0.15925067690E+03 -0.62537720367E+03  0.68490384318E+03  0.46999998093E+01 0.  1.
       -5    1    3    3    0  502  0.22937689389E+03  0.15925067690E+03  0.69611131207E+03  0.75004505620E+03  0.46999998093E+01 0. -1.
</event>
<event>
 5   0  0.2917809E-03  0.1480523E+04  0.7818609E-02  0.8897509E-01
        2   -1    0    0  501    0  0.00000000000E+00  0.00000000000E+00  0.11448960960E+04  0.11448960960E+04  0.25500000920E-02 0.  1.
       -2   -1    0    0    0  501  0.00000000000E+00  0.00000000000E+00 -0.47863471006E+03  0.47863471007E+03  0.25500000920E-02 0. -1.
    10030    2    1    2    0    0  0.00000000000E+00  0.00000000000E+00  0.66626138592E+03  0.16235308061E+04  0.14805228954E+04 0.  0.
        2    1    3    3  502    0 -0.37202589209E+03 -0.54903854389E+03  0.69374208270E+03  0.95975239743E+03  0.25500000920E-02 0.  1.
       -2    1    3    3    0  502  0.37202589209E+03  0.54903854389E+03 -0.27480696781E+02  0.66377840862E+03  0.25500000920E-02 0. -1.
</event>
<event>
 5   0  0.1644571E-03  0.1382200E+04  0.7818609E-02  0.8966805E-01
       -1   -1    0    0    0  501  0.00000000000E+00  0.00000000000E+00  0.28119564135E+03  0.28119564140E+03  0.50400001928E-02 0. -1.
        1   -1    0    0  501    0  0.00000000000E+00  0.00000000000E+00 -0.16985302698E+04  0.16985302698E+04  0.50400001928E-02 0.  1.
    10030    2    1    2    0    0  0.00000000000E+00  0.00000000000E+00 -0.14173346284E+04  0.19797259112E+04  0.13822001427E+04 0.  0.
        4    1    3    3  502    0  0.26643507212E+03  0.53170367768E+03 -0.20446246096E+03  0.62889026018E+03  0.12699999809E+01 0.  1.
       -4    1    3    3    0  502 -0.26643507212E+03 -0.53170367768E+03 -0.12128721674E+04  0.13508356510E+04  0.12699999809E+01 0. -1.
</event>
<event>
 5   0  0.2889469E-03  0.1383298E+04  0.7818609E-02  0.8965998E-01
        2   -1    0    0  501    0  0.00000000000E+00  0.00000000000E+00  0.62797032982E+03  0.62797032982E+03  0.25500000920E-02 0. -1.
       -2   -1    0    0    0  501  0.00000000000E+00  0.00000000000E+00 -0.76178504809E+03  0.76178504810E+03  0.25500000920E-02 0.  1.
    10030    2    1    2    0    0  0.00000000000E+00  0.00000000000E+00 -0.13381471827E+03  0.13897553779E+04  0.13832980993E+04 0.  0.
        5    1    3    3  502    0  0.14973957705E+02  0.65684704442E+03 -0.28398089804E+03  0.71577894606E+03  0.46999998093E+01 0.  1.
       -5    1    3    3    0  502 -0.14973957705E+02 -0.65684704442E+03  0.15016617976E+03  0.67397643187E+03  0.46999998093E+01 0. -1.
</event>
<event>
 5   0  0.1560957E-03  0.1320921E+04  0.7818609E-02  0.9013137E-01
       -1   -1    0    0    0  501  0.00000000000E+00  0.00000000000E+00  0.90671132806E+03  0.90671132807E+03  0.50400001928E-02 0.  1.
        1   -1    0    0  501    0  0.00000000000E+00  0.00000000000E+00 -0.48108816029E+03  0.48108816032E+03  0.50400001928E-02 0. -1.
    10030    2    1    2    0    0  0.00000000000E+00  0.00000000000E+00  0.42562316777E+03  0.13877994884E+04  0.13209210192E+04 0.  0.
        5    1    3    3  502    0 -0.19468514145E+03 -0.11691539874E+03 -0.43876082760E+03  0.49406949774E+03  0.46999998093E+01 0. -1.
       -5    1    3    3    0  502  0.19468514145E+03  0.11691539874E+03  0.86438399536E+03  0.89372999066E+03  0.46999998093E+01 0.  1.
</event>
<event>
 5   0  0.1586022E-03  0.1404210E+04  0.7818609E-02  0.8950777E-01
        1   -1    0    0  501    0  0.00000000000E+00  0.00000000000E+00  0.22235514827E+04  0.22235514827E+04  0.50400001928E-02 0. -1.
       -1   -1    0    0    0  501  0.00000000000E+00  0.00000000000E+00 -0.22169552985E+03  0.22169552991E+03  0.50400001928E-02 0.  1.
    10030    2    1    2    0    0  0.00000000000E+00  0.00000000000E+00  0.20018559528E+04  0.24452470126E+04  0.14042099903E+04 0.  0.
        1    1    3    3  502    0 -0.90898829597E+02  0.47646528458E+03  0.11698892634E+03  0.49896710667E+03  0.50400001928E-02 0.  1.
       -1    1    3    3    0  502  0.90898829597E+02 -0.47646528458E+03  0.18848670265E+04  0.19462799059E+04  0.50400001928E-02 0. -1.
</event>
<event>
 5   0  0.2917809E-03  0.1405821E+04  0.7818609E-02  0.8949616E-01
        2   -1    0    0  501    0  0.00000000000E+00  0.00000000000E+00  0.10813974604E+04  0.10813974604E+04  0.25500000920E-02 0. -1.
       -2   -1    0    0    0  501  0.00000000000E+00  0.00000000000E+00 -0.45689324209E+03  0.45689324210E+03  0.25500000920E-02 0.  1.
    10030    2    1    2    0    0  0.00000000000E+00  0.00000000000E+00  0.62450421829E+03  0.15382907025E+04  0.14058210294E+04 0.  0.
        2    1    3    3  502    0 -0.10799092711E+03 -0.61132359766E+02 -0.44481229855E+03  0.46179777685E+03  0.25500000920E-02 0.  1.
       -2    1    3    3    0  502  0.10799092711E+03  0.61132359766E+02  0.10693165168E+04  0.10764929256E+04  0.25500000920E-02 0. -1.
</event>
<event>
 5   0  0.1560957E-03  0.7087671E+03  0.7818609E-02  0.9702356E-01
        1   -1    0    0  501    0  0.00000000000E+00  0.00000000000E+00  0.10580279471E+04  0.10580279471E+04  0.50400001928E-02 0.  1.
       -1   -1    0    0    0  501  0.00000000000E+00  0.00000000000E+00 -0.11869977993E+03  0.11869978004E+03  0.50400001928E-02 0. -1.
    10030    2    1    2    0    0  0.00000000000E+00  0.00000000000E+00  0.93932816718E+03  0.11767277272E+04  0.70876705497E+03 0.  0.
        5    1    3    3  502    0 -0.18629343229E+03  0.28122732948E+03  0.64979535750E+03  0.73215445801E+03  0.46999998093E+01 0.  1.
       -5    1    3    3    0  502  0.18629343229E+03 -0.28122732948E+03  0.28953280969E+03  0.44457326916E+03  0.46999998093E+01 0. -1.
</event>
<event>
 5   0  0.3006737E-03  0.1388782E+04  0.7818609E-02  0.8961979E-01
       -2   -1    0    0    0  501  0.00000000000E+00  0.00000000000E+00  0.26244542734E+03  0.26244542736E+03  0.25500000920E-02 0. -1.
        2   -1    0    0  501    0  0.00000000000E+00  0.00000000000E+00 -0.18372551061E+04  0.18372551061E+04  0.25500000920E-02 0.  1.
    10030    2    1    2    0    0  0.00000000000E+00  0.00000000000E+00 -0.15748096787E+04  0.20997005334E+04  0.13887824905E+04 0.  0.
        1    1    3    3  502    0 -0.56046818855E+03  0.30429096972E+03 -0.37208165115E+03  0.73835109520E+03  0.50400001928E-02 0. -1.
       -1    1    3    3    0  502  0.56046818855E+03 -0.30429096972E+03 -0.12027280276E+04  0.13613494382E+04  0.50400001928E-02 0.  1.
</event>
<event>
 5   0  0.1586022E-03  0.1405445E+04  0.7818609E-02  0.8949887E-01
        1   -1    0    0  501    0  0.00000000000E+00  0.00000000000E+00  0.73501150591E+03  0.73501150593E+03  0.50400001928E-02 0.  1.
       -1   -1    0    0    0  501  0.00000000000E+00  0.00000000000E+00 -0.67185161187E+03  0.67185161189E+03  0.50400001928E-02 0. -1.
    10030    2    1    2    0    0  0.00000000000E+00  0.00000000000E+00  0.63159894041E+02  0.14068631178E+04  0.14054446485E+04 0.  0.
        1    1    3    3  502    0 -0.60241344693E+02  0.67629179299E+03 -0.14976319719E+03  0.69529031644E+03  0.50400001928E-02 0. -1.
       -1    1    3    3    0  502  0.60241344693E+02 -0.67629179299E+03  0.21292309123E+03  0.71157280139E+03  0.50400001928E-02 0.  1.
</event>
<event>
 5   0  0.1700207E-03  0.1394494E+04  0.7818609E-02  0.8957814E-01
       -1   -1    0    0    0  501  0.00000000000E+00  0.00000000000E+00  0.10178976884E+04  0.10178976884E+04  0.50400001928E-02 0.  1.
        1   -1    0    0  501    0  0.00000000000E+00  0.00000000000E+00 -0.47760508344E+03  0.47760508347E+03  0.50400001928E-02 0. -1.
    10030    2    1    2    0    0  0.00000000000E+00  0.00000000000E+00  0.54029260492E+03  0.14955027718E+04  0.13944936148E+04 0.  0.
        2    1    3    3  502    0 -0.69192969691E+03  0.32215384559E+02  0.35559565638E+03  0.77862237786E+03  0.25500000920E-02 0. -1.
       -2    1    3    3    0  502  0.69192969691E+03 -0.32215384559E+02  0.18469694854E+03  0.71688039398E+03  0.25500000920E-02 0.  1.
</event>
<event>
 5   0  0.2760807E-03  0.1524976E+04  0.7818609E-02  0.8868012E-01
        2   -1    0    0  501    0  0.00000000000E+00  0.00000000000E+00  0.22219796705E+04  0.22219796705E+04  0.25500000920E-02 0.  1.
       -2   -1    0    0    0  501  0.00000000000E+00  0.00000000000E+00 -0.26165330440E+03  0.26165330441E+03  0.25500000920E-02 0. -1.
    10030    2    1    2    0    0  0.00000000000E+00  0.00000000000E+00  0.19603263661E+04  0.24836329749E+04  0.15249764891E+04 0.  0.
        4    1    3    3  502    0  0.55756654565E+03  0.45521602214E+03  0.57045617398E+03  0.91843559327E+03  0.12699999809E+01 0. -1.
       -4    1    3    3    0  502 -0.55756654565E+03 -0.45521602214E+03  0.13898701921E+04  0.15651973816E+04  0.12699999809E+01 0.  1.
</event>
<event>
 5   0  0.2917809E-03  0.1398532E+04  0.7818609E-02  0.8954882E-01
        2   -1    0    0  501    0  0.00000000000E+00  0.00000000000E+00  0.85290768215E+03  0.85290768216E+03  0.25500000920E-02 0.  1.
       -2   -1    0    0    0  501  0.00000000000E+00  0.00000000000E+00 -0.57330135054E+03  0.57330135054E+03  0.25500000920E-02 0. -1.
    10030    2    1    2    0    0  0.00000000000E+00  0.00000000000E+00  0.27960633162E+03  0.14262090327E+04  0.13985322679E+04 0.  0.
        2    1    3    3  502    0  0.41229525364E+03 -0.22137528025E+03  0.66968065616E+03  0.81698627413E+03  0.25500000920E-02 0.  1.
       -2    1    3    3    0  502 -0.41229525364E+03  0.22137528025E+03 -0.39007432454E+03  0.60922275857E+03  0.25500000920E-02 0. -1.
</event>
<event>
 5   0  0.2760807E-03  0.1409447E+04  0.7818609E-02  0.8947008E-01
        2   -1    0    0  501    0  0.00000000000E+00  0.00000000000E+00  0.10624454452E+04  0.10624454452E+04  0.25500000920E-02 0. -1.
       -2   -1    0    0    0  501  0.00000000000E+00  0.00000000000E+00 -0.46744555003E+03  0.46744555003E+03  0.25500000920E-02 0.  1.
    10030    2    1    2    0    0  0.00000000000E+00  0.00000000000E+00  0.59499989515E+03  0.15298909952E+04  0.14094472612E+04 0.  0.
        4    1    3    3  502    0 -0.34934997627E+03  0.13421822703E+03  0.94566617726E+03  0.10170280577E+04  0.12699999809E+01 0. -1.
       -4    1    3    3    0  502  0.34934997627E+03 -0.13421822703E+03 -0.35066628211E+03  0.51286293753E+03  0.12699999809E+01 0.  1.
</event>
<event>
 5   0  0.1700207E-03  0.1396930E+04  0.7818609E-02  0.8956044E-01
        1   -1    0    0  501    0  0.00000000000E+00  0.00000000000E+00  0.97391572786E+03  0.97391572788E+03  0.50400001928E-02 0. -1.
       -1   -1    0    0    0  501  0.00000000000E+00  0.00000000000E+00 -0.50091928304E+03  0.50091928307E+03  0.50400001928E-02 0.  1.
    10030    2    1    2    0    0  0.00000000000E+00  0.00000000000E+00  0.47299644482E+03  0.14748350109E+04  0.13969297308E+04 0.  0.
        2    1    3    3  502    0  0.54165353023E+02  0.27002124554E+03  0.91417343755E+03  0.95475569254E+03  0.25500000920E-02 0. -1.
       -2    1    3    3    0  502 -0.54165353023E+02 -0.27002124554E+03 -0.44117699273E+03  0.52007931841E+03  0.25500000920E-02 0.  1.
</event>
<event>
 5   0  0.3006737E-03  0.1390920E+04  0.7818609E-02  0.8960417E-01
       -2   -1    0    0    0  501  0.00000000000E+00  0.00000000000E+00  0.69023818060E+03  0.69023818060E+03  0.25500000920E-02 0.  1.
        2   -1    0    0  501    0  0.00000000000E+00  0.00000000000E+00 -0.70072136471E+03  0.70072136471E+03  0.25500000920E-02 0. -1.
    10030    2    1    2    0    0  0.00000000000E+00  0.00000000000E+00 -0.10483184113E+02  0.13909595453E+04  0.13909200407E+04 0.  0.
        1    1    3    3  502    0  0.23308551400E+03  0.12292781392E+03 -0.64886264933E+03  0.70033052340E+03  0.50400001928E-02 0. -1.
       -1    1    3    3    0  502 -0.23308551400E+03 -0.12292781392E+03  0.63837946522E+03  0.69062902192E+03  0.50400001928E-02 0.  1.
</event>
<event>
 5   0  0.1644571E-03  0.1632111E+04  0.7818609E-02  0.8801060E-01
       -1   -1    0    0    0  501  0.00000000000E+00  0.00000000000E+00  0.93832596878E+03  0.93832596880E+03  0.50400001928E-02 0.  1.
        1   -1    0    0  501    0  0.00000000000E+00  0.00000000000E+00 -0.70971763581E+03  0.70971763583E+03  0.50400001928E-02 0. -1.
    10030    2    1    2    0    0  0.00000000000E+00  0.00000000000E+00  0.22860833297E+03  0.16480436046E+04  0.16321108886E+04 0.  0.
        4    1    3    3  502    0 -0.34682572132E+03 -0.29500477455E+03 -0.56952840320E+03  0.72916398219E+03  0.12699999809E+01 0. -1.
       -4    1    3    3    0  502  0.34682572132E+03  0.29500477455E+03  0.79813673617E+03  0.91887962243E+03  0.12699999809E+01 0.  1.
</event>
<event>
 5   0  0.1700207E-03  0.1405836E+04  0.7818609E-02  0.8949605E-01
       -1   -1    0    0    0  501  0.00000000000E+00  0.00000000000E+00  0.68985270618E+03  0.68985270619E+03  0.50400001928E-02 0. -1.
        1   -1    0    0  501    0  0.00000000000E+00  0.00000000000E+00 -0.71623064530E+03  0.71623064532E+03  0.50400001928E-02 0.  1.
    10030    2    1    2    0    0  0.00000000000E+00  0.00000000000E+00 -0.26377939122E+02  0.14060833515E+04  0.14058359064E+04 0.  0.
        2    1    3    3  502    0  0.19553526155E+03  0.62348410015E+03  0.24594578273E+03  0.69818034181E+03  0.25500000920E-02 0. -1.
       -2    1    3    3    0  502 -0.19553526155E+03 -0.62348410015E+03 -0.27232372186E+03  0.70790300970E+03  0.25500000920E-02 0.  1.
</event>
<event>
 5   0  0.1586022E-03  0.1425875E+04  0.7818609E-02  0.8935299E-01
       -1   -1    0    0    0  501  0.00000000000E+00  0.00000000000E+00  0.25195787225E+03  0.25195787230E+03  0.50400001928E-02 0. -1.
        1   -1    0    0  501    0  0.00000000000E+00  0.00000000000E+00 -0.20173221719E+04  0.20173221719E+04  0.50400001928E-02 0.  1.
    10030    2    1    2    0    0  0.00000000000E+00  0.00000000000E+00 -0.17653642996E+04  0.22692800442E+04  0.14258754534E+04 0.  0.
        1    1    3    3  502    0 -0.55702725300E+03  0.43373666638E+03 -0.72454326412E+03  0.10116174168E+04  0.50400001928E-02 0. -1.
       -1    1    3    3    0  502  0.55702725300E+03 -0.43373666638E+03 -0.10408210355E+04  0.12576626274E+04  0.50400001928E-02 0.  1.
</event>
<event>
 5   0  0.2760807E-03  0.1391629E+04  0.7818609E-02  0.8959900E-01
       -2   -1    0    0    0  501  0.00000000000E+00  0.00000000000E+00  0.80760023504E+03  0.80760023504E+03  0.25500000920E-02 0.  1.
        2   -1    0    0  501    0  0.00000000000E+00  0.00000000000E+00 -0.59950162336E+03  0.59950162336E+03  0.25500000920E-02 0. -1.
    10030    2    1    2    0    0  0.00000000000E+00  0.00000000000E+00  0.20809861169E+03  0.14071018584E+04  0.13916287607E+04 0.  0.
        4    1    3    3  502    0 -0.10207122460E+03  0.44094697426E+02 -0.59045982819E+03  0.60083882934E+03  0.12699999809E+01 0. -1.
       -4    1    3    3    0  502  0.10207122460E+03 -0.44094697426E+02  0.79855843988E+03  0.80626302906E+03  0.12699999809E+01 0.  1.
</event>
<event>
 5   0  0.1631380E-03  0.1284080E+04  0.7818609E-02  0.9042286E-01
        1   -1    0    0  501    0  0.00000000000E+00  0.00000000000E+00  0.10570907528E+04  0.10570907528E+04  0.50400001928E-02 0.  1.
       -1   -1    0    0    0  501  0.00000000000E+00  0.00000000000E+00 -0.38995254702E+03  0.38995254705E+03  0.50400001928E-02 0. -1.
    10030    2    1    2    0    0  0.00000000000E+00  0.00000000000E+00  0.66713820578E+03  0.14470432999E+04  0.12840797974E+04 0.  0.
        3    1    3    3  502    0 -0.30560789042E+03  0.88471109693E+02  0.96200944054E+03  0.10132549007E+04  0.10100000352E+00 0.  1.
       -3    1    3    3    0  502  0.30560789042E+03 -0.88471109693E+02 -0.29487123476E+03  0.43378839914E+03  0.10100000352E+00 0. -1.
</event>
<event>
 5   0  0.1560957E-03  0.1366296E+04  0.7818609E-02  0.8978583E-01
        1   -1    0    0  501    0  0.00000000000E+00  0.00000000000E+00  0.13470055001E+04  0.13470055001E+04  0.50400001928E-02 0.  1.
       -1   -1    0    0    0  501  0.00000000000E+00  0.00000000000E+00 -0.34646573800E+03  0.34646573804E+03  0.50400001928E-02 0. -1.
    10030    2    1    2    0    0  0.00000000000E+00  0.00000000000E+00  0.10005397621E+04  0.16934712381E+04  0.13662960949E+04 0.  0.
        5    1    3    3  502    0 -0.42740706706E+03  0.39397321531E+03  0.94505775746E+03  0.11095260025E+04  0.46999998093E+01 0.  1.
       -5    1    3    3    0  502  0.42740706706E+03 -0.39397321531E+03  0.55482004634E+02  0.58394523561E+03  0.46999998093E+01 0. -1.
</event>
<event>
 5   0  0.1631380E-03  0.1371136E+04  0.7818609E-02  0.8974981E-01
        1   -1    0    0  501    0  0.00000000000E+00  0.00000000000E+00  0.85038355713E+03  0.85038355715E+03  0.50400001928E-02 0.  1.
       -1   -1    0    0    0  501  0.00000000000E+00  0.00000000000E+00 -0.55269555038E+03  0.55269555040E+03  0.50400001928E-02 0. -1.
    10030    2    1    2    0    0  0.00000000000E+00  0.00000000000E+00  0.29768800675E+03  0.14030791076E+04  0.13711355997E+04 0.  0.
        3    1    3    3  502    0 -0.93358937501E+01 -0.25533429604E+03  0.79984149967E+03  0.83966016724E+03  0.10100000352E+00 0.  1.
       -3    1    3    3    0  502  0.93358937501E+01  0.25533429604E+03 -0.50215349292E+03  0.56341894031E+03  0.10100000352E+00 0. -1.
</event>
<event>
 5   0  0.2917809E-03  0.1433501E+04  0.7818609E-02  0.8929920E-01
       -2   -1    0    0    0  501  0.00000000000E+00  0.00000000000E+00  0.38433859588E+03  0.38433859589E+03  0.25500000920E-02 0.  1.
        2   -1    0    0  501    0  0.00000000000E+00  0.00000000000E+00 -0.13366631425E+04  0.13366631425E+04  0.25500000920E-02 0. -1.
    10030    2    1    2    0    0  0.00000000000E+00  0.00000000000E+00 -0.95232454662E+03  0.17210017384E+04  0.14335009388E+04 0.  0.
        2    1    3    3  502    0  0.64428043460E+03  0.12489484176E+03 -0.82211323166E+03  0.10519344873E+04  0.25500000920E-02 0. -1.
       -2    1    3    3    0  502 -0.64428043460E+03 -0.12489484176E+03 -0.13021131496E+03  0.66906725108E+03  0.25500000920E-02 0.  1.
</event>
<event>
 5   0  0.2917809E-03  0.1364488E+04  0.7818609E-02  0.8979933E-01
        2   -1    0    0  501    0  0.00000000000E+00  0.00000000000E+00  0.10320980720E+04  0.10320980720E+04  0.25500000920E-02 0. -1.
       -2   -1    0    0    0  501  0.00000000000E+00  0.00000000000E+00 -0.45098127519E+03  0.45098127520E+03  0.25500000920E-02 0.  1.
    10030    2    1    2    0    0  0.00000000000E+00  0.00000000000E+00  0.58111679683E+03  0.14830793472E+04  0.13644880427E+04 0.  0.
        2    1    3    3  502    0 -0.15999584660E+03  0.59469447129E+03 -0.28551313453E+02  0.61650252442E+03  0.25500000920E-02 0.  1.
       -2    1    3    3    0  502  0.15999584660E+03 -0.59469447129E+03  0.60966811029E+03  0.86657682280E+03  0.25500000920E-02 0. -1.
</event>
<event>
 5   0  0.2760807E-03  0.1405531E+04  0.7818609E-02  0.8949825E-01
        2   -1    0    0  501    0  0.00000000000E+00  0.00000000000E+00  0.22363192068E+04  0.22363192068E+04  0.25500000920E-02 0.  1.
       -2   -1    0    0    0  501  0.00000000000E+00  0.00000000000E+00 -0.22084471078E+03  0.22084471079E+03  0.25500000920E-02 0. -1.
    10030    2    1    2    0    0  0.00000000000E+00  0.00000000000E+00  0.20154744960E+04  0.24571639175E+04  0.14055308868E+04 0.  0.
        4    1    3    3  502    0 -0.80236121406E+02 -0.49729461351E+03  0.15104649615E+03  0.52588632299E+03  0.12699999809E+01 0. -1.
       -4    1    3    3    0  502  0.80236121406E+02  0.49729461351E+03  0.18644279998E+04  0.19312775946E+04  0.12699999809E+01 0.  1.
</event>
<event>
 5   0  0.1104538E-03  0.1468576E+04  0.7818609E-02  0.8905623E-01
        3   -1    0    0  501    0  0.00000000000E+00  0.00000000000E+00  0.95262594496E+03  0.95262595031E+03  0.10100000352E+00 0. -1.
       -3   -1    0    0    0  501  0.00000000000E+00  0.00000000000E+00 -0.56599209288E+03  0.56599210189E+03  0.10100000352E+00 0.  1.
    10030    2    1    2    0    0  0.00000000000E+00  0.00000000000E+00  0.38663385208E+03  0.15186180522E+04  0.14685758587E+04 0.  0.
        4    1    3    3  502    0  0.40190217447E+03  0.49242691678E+03 -0.18686227424E+03  0.66251697989E+03  0.12699999809E+01 0.  1.
       -4    1    3    3    0  502 -0.40190217447E+03 -0.49242691678E+03  0.57349612632E+03  0.85610107231E+03  0.12699999809E+01 0. -1.
</event>
<event>
 5   0  0.1631380E-03  0.1404192E+04  0.7818609E-02  0.8950790E-01
        1   -1    0    0  501    0  0.00000000000E+00  0.00000000000E+00  0.56945717530E+03  0.56945717532E+03  0.50400001928E-02 0. -1.
       -1   -1    0    0    0  501  0.00000000000E+00  0.00000000000E+00 -0.86562903431E+03  0.86562903433E+03  0.50400001928E-02 0.  1.
    10030    2    1    2    0    0  0.00000000000E+00  0.00000000000E+00 -0.29617185901E+03  0.14350862096E+04  0.14041918170E+04 0.  0.
        3    1    3    3  502    0 -0.11182174688E+03  0.49205848133E+03 -0.64699962116E+03  0.82050848387E+03  0.10100000352E+00 0.  1.
       -3    1    3    3    0  502  0.11182174688E+03 -0.49205848133E+03  0.35082776215E+03  0.61457772578E+03  0.10100000352E+00 0. -1.
</event>
<event>
 5   0  0.1644571E-03  0.8387761E+03  0.7818609E-02  0.9505526E-01
        1   -1    0    0  501    0  0.00000000000E+00  0.00000000000E+00  0.87515557690E+03  0.87515557692E+03  0.50400001928E-02 0.  1.
       -1   -1    0    0    0  501  0.00000000000E+00  0.00000000000E+00 -0.20097720727E+03  0.20097720733E+03  0.50400001928E-02 0. -1.
    10030    2    1    2    0    0  0.00000000000E+00  0.00000000000E+00  0.67417836964E+03  0.10761327842E+04  0.83877606978E+03 0.  0.
        4    1    3    3  502    0  0.30394146422E+02  0.35355320090E+03  0.50317960959E+02  0.35840923550E+03  0.12699999809E+01 0. -1.
       -4    1    3    3    0  502 -0.30394146422E+02 -0.35355320090E+03  0.62386040868E+03  0.71772354874E+03  0.12699999809E+01 0.  1.
</event>
<event>
 5   0  0.2889469E-03  0.1391168E+04  0.7818609E-02  0.8960237E-01
       -2   -1    0    0    0  501  0.00000000000E+00  0.00000000000E+00  0.32037896674E+03  0.32037896675E+03  0.25500000920E-02 0.  1.
        2   -1    0    0  501    0  0.00000000000E+00  0.00000000000E+00 -0.15102018574E+04  0.15102018574E+04  0.25500000920E-02 0. -1.
    10030    2    1    2    0    0  0.00000000000E+00  0.00000000000E+00 -0.11898228907E+04  0.18305808242E+04  0.13911677263E+04 0.  0.
        5    1    3    3  502    0 -0.16808300868E+03 -0.65736246763E+03 -0.39346243376E+03  0.78435456806E+03  0.46999998093E+01 0.  1.
       -5    1    3    3    0  502  0.16808300868E+03  0.65736246763E+03 -0.79636045694E+03  0.10462262561E+04  0.46999998093E+01 0. -1.
</event>
<event>
 5   0  0.1631380E-03  0.1382446E+04  0.7818609E-02  0.8966624E-01
       -1   -1    0    0    0  501  0.00000000000E+00  0.00000000000E+00  0.24142143264E+03  0.24142143269E+03  0.50400001928E-02 0.  1.
        1   -1    0    0  501    0  0.00000000000E+00  0.00000000000E+00 -0.19790674263E+04  0.19790674263E+04  0.50400001928E-02 0. -1.
    10030    2    1    2    0    0  0.00000000000E+00  0.00000000000E+00 -0.17376459937E+04  0.22204888590E+04  0.13824460835E+04 0.  0.
        3    1    3    3  502    0  0.50361755074E+03  0.46786829781E+03 -0.98529099951E+03  0.12013865928E+04  0.10100000352E+00 0.  1.
       -3    1    3    3    0  502 -0.50361755074E+03 -0.46786829781E+03 -0.75235499419E+03  0.10191022662E+04  0.10100000352E+00 0. -1.
</event>
<event>
 5   0  0.1700207E-03  0.1095268E+04  0.7818609E-02  0.9209816E-01
        1   -1    0    0  501    0  0.00000000000E+00  0.00000000000E+00  0.10715561936E+04  0.10715561936E+04  0.50400001928E-02 0. -1.
       -1   -1    0    0    0  501  0.00000000000E+00  0.00000000000E+00 -0.27987623079E+03  0.27987623083E+03  0.50400001928E-02 0.  1.
    10030    2    1    2    0    0  0.00000000000E+00  0.00000000000E+00  0.79167996283E+03  0.13514324245E+04  0.10952682020E+04 0.  0.
        2    1    3    3  502    0  0.79226334676E+02  0.83624470656E+02 -0.26475783676E+03  0.28873270742E+03  0.25500000920E-02 0.  1.
       -2    1    3    3    0  502 -0.79226334676E+02 -0.83624470656E+02  0.10564377996E+04  0.10626997171E+04  0.25500000920E-02 0. -1.
</event>
<event>
 5   0  0.2993993E-03  0.1397715E+04  0.7818609E-02  0.8955474E-01
       -2   -1    0    0    0  501  0.00000000000E+00  0.00000000000E+00  0.52053011888E+03  0.52053011889E+03  0.25500000920E-02 0. -1.
        2   -1    0    0  501    0  0.00000000000E+00  0.00000000000E+00 -0.93827765174E+03  0.93827765175E+03  0.25500000920E-02 0.  1.
    10030    2    1    2    0    0  0.00000000000E+00  0.00000000000E+00 -0.41774753286E+03  0.14588077706E+04  0.13977149604E+04 0.  0.
        3    1    3    3  502    0 -0.17205419439E+03 -0.55825714893E+03 -0.60923936184E+03  0.84405349378E+03  0.10100000352E+00 0. -1.
       -3    1    3    3    0  502  0.17205419439E+03  0.55825714893E+03  0.19149182898E+03  0.61475427685E+03  0.10100000352E+00 0.  1.
</event>
<event>
 5   0  0.1631380E-03  0.1347723E+04  0.7818609E-02  0.8992553E-01
       -1   -1    0    0    0  501  0.00000000000E+00  0.00000000000E+00  0.38886503544E+03  0.38886503547E+03  0.50400001928E-02 0.  1.
        1   -1    0    0  501    0  0.00000000000E+00  0.00000000000E+00 -0.11677306150E+04  0.11677306150E+04  0.50400001928E-02 0. -1.
    10030    2    1    2    0    0  0.00000000000E+00  0.00000000000E+00 -0.77886557956E+03  0.15565956505E+04  0.13477234242E+04 0.  0.
        3    1    3    3  502    0 -0.53662130392E+03  0.39725414090E+03 -0.28410556385E+03  0.72559579512E+03  0.10100000352E+00 0.  1.
       -3    1    3    3    0  502  0.53662130392E+03 -0.39725414090E+03 -0.49476001572E+03  0.83099985538E+03  0.10100000352E+00 0. -1.
</event>
<event>
 5   0  0.1631380E-03  0.1481696E+04  0.7818609E-02  0.8896717E-01
        1   -1    0    0  501    0  0.00000000000E+00  0.00000000000E+00  0.20918203337E+04  0.20918203337E+04  0.50400001928E-02 0.  1.
       -1   -1    0    0    0  501  0.00000000000E+00  0.00000000000E+00 -0.26238198354E+03  0.26238198359E+03  0.50400001928E-02 0. -1.
    10030    2    1    2    0    0  0.00000000000E+00  0.00000000000E+00  0.18294383501E+04  0.23542023173E+04  0.14816962825E+04 0.  0.
        3    1    3    3  502    0  0.35401574235E+03  0.48988435762E+03  0.23402431140E+03  0.64813672802E+03  0.10100000352E+00 0. -1.
       -3    1    3    3    0  502 -0.35401574235E+03 -0.48988435762E+03  0.15954140387E+04  0.17060655892E+04  0.10100000352E+00 0.  1.
</event>
<event>
 5   0  0.1631380E-03  0.1393763E+04  0.7818609E-02  0.8958345E-01
        1   -1    0    0  501    0  0.00000000000E+00  0.00000000000E+00  0.19616148475E+04  0.19616148475E+04  0.50400001928E-02 0. -1.
       -1   -1    0    0    0  501  0.00000000000E+00  0.00000000000E+00 -0.24757359958E+03  0.24757359963E+03  0.50400001928E-02 0.  1.
    10030    2    1    2    0    0  0.00000000000E+00  0.00000000000E+00  0.17140412479E+04  0.22091884472E+04  0.13937633212E+04 0.  0.
        3    1    3    3  502    0  0.93343444991E+02  0.65829917816E+03  0.11878877501E+04  0.13613038323E+04  0.10100000352E+00 0.  1.
       -3    1    3    3    0  502 -0.93343444991E+02 -0.65829917816E+03  0.52615349784E+03  0.84788461490E+03  0.10100000352E+00 0. -1.
</event>
<event>
 5   0  0.1104538E-03  0.1394982E+04  0.7818609E-02  0.8957459E-01
        4   -1    0    0  501    0  0.00000000000E+00  0.00000000000E+00  0.61258456395E+03  0.61258588042E+03  0.12699999809E+01 0.  1.
       -4   -1    0    0    0  501  0.00000000000E+00  0.00000000000E+00 -0.79416304383E+03  0.79416405930E+03  0.12699999809E+01 0. -1.
    10030    2    1    2    0    0  0.00000000000E+00  0.00000000000E+00 -0.18157847988E+03  0.14067499397E+04  0.13949819528E+04 0.  0.
        4    1    3    3  502    0 -0.66972939084E+03  0.14661065457E+03  0.38589233102E+02  0.68667523823E+03  0.12699999809E+01 0.  1.
       -4    1    3    3    0  502  0.66972939084E+03 -0.14661065457E+03 -0.22016771298E+03  0.72007470149E+03  0.12699999809E+01 0. -1.
</event>
<event>
 5   0  0.1644571E-03  0.1506219E+04  0.7818609E-02  0.8880328E-01
       -1   -1    0    0    0  501  0.00000000000E+00  0.00000000000E+00  0.67944339536E+03  0.67944339538E+03  0.50400001928E-02 0. -1.
        1   -1    0    0  501    0  0.00000000000E+00  0.00000000000E+00 -0.83476239284E+03  0.83476239285E+03  0.50400001928E-02 0.  1.
    10030    2    1    2    0    0  0.00000000000E+00  0.00000000000E+00 -0.15531899747E+03  0.15142057882E+04  0.15062188347E+04 0.  0.
        4    1    3    3  502    0 -0.23165332151E+03  0.71053968247E+03 -0.17111631716E+03  0.76668918645E+03  0.12699999809E+01 0.  1.
       -4    1    3    3    0  502  0.23165332151E+03 -0.71053968247E+03  0.15797319683E+02  0.74751660178E+03  0.12699999809E+01 0. -1.
</event>
<event>
 5   0  0.1644571E-03  0.1253309E+04  0.7818609E-02  0.9067434E-01
       -1   -1    0    0    0  501  0.00000000000E+00  0.00000000000E+00  0.17814970749E+03  0.17814970756E+03  0.50400001928E-02 0. -1.
        1   -1    0    0  501    0  0.00000000000E+00  0.00000000000E+00 -0.22043017922E+04  0.22043017922E+04  0.50400001928E-02 0.  1.
    10030    2    1    2    0    0  0.00000000000E+00  0.00000000000E+00 -0.20261520847E+04  0.23824514998E+04  0.12533087722E+04 0.  0.
        4    1    3    3  502    0  0.36818815431E+03 -0.24363843147E+03 -0.16770321023E+03  0.47227977078E+03  0.12699999809E+01 0. -1.
       -4    1    3    3    0  502 -0.36818815431E+03  0.24363843147E+03 -0.18584488745E+04  0.19101717290E+04  0.12699999809E+01 0.  1.
</event>
<event>
 5   0  0.2993993E-03  0.1410919E+04  0.7818609E-02  0.8945952E-01
        2   -1    0    0  501    0  0.00000000000E+00  0.00000000000E+00  0.19415299763E+04  0.19415299763E+04  0.25500000920E-02 0. -1.
       -2   -1    0    0    0  501  0.00000000000E+00  0.00000000000E+00 -0.25633043496E+03  0.25633043497E+03  0.25500000920E-02 0.  1.
    10030    2    1    2    0    0  0.00000000000E+00  0.00000000000E+00  0.16851995413E+04  0.21978604113E+04  0.14109191661E+04 0.  0.
        3    1    3    3  502    0 -0.23164026641E+03 -0.22733385840E+03 -0.13312352792E+03  0.35079877435E+03  0.10100000352E+00 0.  1.
       -3    1    3    3    0  502  0.23164026641E+03  0.22733385840E+03  0.18183230693E+04  0.18470616369E+04  0.10100000352E+00 0. -1.
</event>
<event>
 5   0  0.2760807E-03  0.1405969E+04  0.7818609E-02  0.8949509E-01
        2   -1    0    0  501    0  0.00000000000E+00  0.00000000000E+00  0.58735521811E+03  0.58735521812E+03  0.25500000920E-02 0.  1.
       -2   -1    0    0    0  501  0.00000000000E+00  0.00000000000E+00 -0.84137757432E+03  0.84137757432E+03  0.25500000920E-02 0. -1.
    10030    2    1    2    0    0  0.00000000000E+00  0.00000000000E+00 -0.25402235621E+03  0.14287327924E+04  0.14059694288E+04 0.  0.
        4    1    3    3  502    0  0.25467778319E+03  0.57517408758E+03 -0.44593944390E+03  0.77107042791E+03  0.12699999809E+01 0. -1.
       -4    1    3    3    0  502 -0.25467778319E+03 -0.57517408758E+03  0.19191708769E+03  0.65766236453E+03  0.12699999809E+01 0.  1.
</event>
<event>
 5   0  0.2760807E-03  0.1461885E+04  0.7818609E-02  0.8910202E-01
       -2   -1    0    0    0  501  0.00000000000E+00  0.00000000000E+00  0.22643421833E+04  0.22643421833E+04  0.25500000920E-02 0. -1.
        2   -1    0    0  501    0  0.00000000000E+00  0.00000000000E+00 -0.23595252973E+03  0.23595252974E+03  0.25500000920E-02 0.  1.
    10030    2    1    2    0    0  0.00000000000E+00  0.00000000000E+00  0.20283896536E+04  0.25002947130E+04  0.14618854488E+04 0.  0.
        4    1    3    3  502    0 -0.14409244342E+03 -0.14768217198E+03 -0.18510918681E+03  0.27719971160E+03  0.12699999809E+01 0.  1.
       -4    1    3    3    0  502  0.14409244342E+03  0.14768217198E+03  0.22134988404E+04  0.22230950014E+04  0.12699999809E+01 0. -1.
</event>
<event>
 5   0  0.1560957E-03  0.1344523E+04  0.7818609E-02  0.8994985E-01
        1   -1    0    0  501    0  0.00000000000E+00  0.00000000000E+00  0.84613380454E+03  0.84613380456E+03  0.50400001928E-02 0. -1.
       -1   -1    0    0    0  501  0.00000000000E+00  0.00000000000E+00 -0.53411817883E+03  0.53411817885E+03  0.50400001928E-02 0.  1.
    10030    2    1    2    0    0  0.00000000000E+00  0.00000000000E+00  0.31201562571E+03  0.13802519834E+04  0.13445228845E+04 0.  0.
        5    1    3    3  502    0  0.47161371455E+03  0.40173810495E+03  0.42390297604E+03  0.75068556921E+03  0.46999998093E+01 0. -1.
       -5    1    3    3    0  502 -0.47161371455E+03 -0.40173810495E+03 -0.11188735033E+03  0.62956641420E+03  0.46999998093E+01 0.  1.
</event>
<event>
 5   0  0.1631380E-03  0.1416031E+04  0.7818609E-02  0.8942295E-01
       -1   -1    0    0    0  501  0.00000000000E+00  0.00000000000E+00  0.51250496838E+03  0.51250496840E+03  0.50400001928E-02 0.  1.
        1   -1    0    0  501    0  0.00000000000E+00  0.00000000000E+00 -0.97810982639E+03  0.97810982640E+03  0.50400001928E-02 0. -1.
    10030    2    1    2    0    0  0.00000000000E+00  0.00000000000E+00 -0.46560485801E+03  0.14906147948E+04  0.14160312789E+04 0.  0.
        3    1    3    3  502    0  0.38628290495E+03  0.49123542295E+03 -0.58313692420E+03  0.85473703909E+03  0.10100000352E+00 0. -1.
       -3    1    3    3    0  502 -0.38628290495E+03 -0.49123542295E+03  0.11753206620E+03  0.63587775571E+03  0.10100000352E+00 0.  1.
</event>
<event>
 5   0  0.2760807E-03  0.1419519E+04  0.7818609E-02  0.8939810E-01
        2   -1    0    0  501    0  0.00000000000E+00  0.00000000000E+00  0.26018244665E+04  0.26018244665E+04  0.25500000920E-02 0. -1.
       -2   -1    0    0    0  501  0.00000000000E+00  0.00000000000E+00 -0.19361729284E+03  0.19361729286E+03  0.25500000920E-02 0.  1.
    10030    2    1    2    0    0  0.00000000000E+00  0.00000000000E+00  0.24082071737E+04  0.27954417594E+04  0.14195185236E+04 0.  0.
        4    1    3    3  502    0  0.53307407390E+03  0.84422851824E+02  0.29638879057E+03  0.61574598192E+03  0.12699999809E+01 0.  1.
       -4    1    3    3    0  502 -0.53307407390E+03 -0.84422851824E+02  0.21118183831E+04  0.21796957775E+04  0.12699999809E+01 0. -1.
</event>
<event>
 5   0  0.2889469E-03  0.1267712E+04  0.7818609E-02  0.9055569E-01
       -2   -1    0    0    0  501  0.00000000000E+00  0.00000000000E+00  0.18009519365E+03  0.18009519366E+03  0.25500000920E-02 0. -1.
        2   -1    0    0  501    0  0.00000000000E+00  0.00000000000E+00 -0.22308960815E+04  0.22308960815E+04  0.25500000920E-02 0.  1.
    10030    2    1    2    0    0  0.00000000000E+00  0.00000000000E+00 -0.20508008879E+04  0.24109912752E+04  0.12677123677E+04 0.  0.
        5    1    3    3  502    0 -0.70054016828E+02 -0.39879570625E+03 -0.97959409109E+02  0.41660978917E+03  0.46999998093E+01 0. -1.
       -5    1    3    3    0  502  0.70054016828E+02  0.39879570625E+03 -0.19528414788E+04  0.19943814860E+04  0.46999998093E+01 0.  1.
</event>
<event>
 5   0  0.1560957E-03  0.1078417E+04  0.7818609E-02  0.9226487E-01
        1   -1    0    0  501    0  0.00000000000E+00  0.00000000000E+00  0.10415390620E+04  0.10415390621E+04  0.50400001928E-02 0. -1.
       -1   -1    0    0    0  501  0.00000000000E+00  0.00000000000E+00 -0.27915041883E+03  0.27915041888E+03  0.50400001928E-02 0.  1.
    10030    2    1    2    0    0  0.00000000000E+00  0.00000000000E+00  0.76238864321E+03  0.13206894809E+04  0.10784174803E+04 0.  0.
        5    1    3    3  502    0 -0.40242313952E+03 -0.24109561841E+02 -0.57290908318E+02  0.40722228865E+03  0.46999998093E+01 0.  1.
       -5    1    3    3    0  502  0.40242313952E+03  0.24109561841E+02  0.81967955153E+03  0.91346719229E+03  0.46999998093E+01 0. -1.
</event>
<event>
 5   0  0.1631380E-03  0.1321477E+04  0.7818609E-02  0.9012705E-01
       -1   -1    0    0    0  501  0.00000000000E+00  0.00000000000E+00  0.74027319260E+03  0.74027319261E+03  0.50400001928E-02 0. -1.
        1   -1    0    0  501    0  0.00000000000E+00  0.00000000000E+00 -0.58974902713E+03  0.58974902716E+03  0.50400001928E-02 0.  1.
    10030    2    1    2    0    0  0.00000000000E+00  0.00000000000E+00  0.15052416546E+03  0.13300222198E+04  0.13214770451E+04 0.  0.
        3    1    3    3  502    0 -0.17884640672E+03  0.22254999116E+03  0.67498503006E+03  0.73288425878E+03  0.10100000352E+00 0. -1.
       -3    1    3    3    0  502  0.17884640672E+03 -0.22254999116E+03 -0.52446086460E+03  0.59713796099E+03  0.10100000352E+00 0.  1.
</event>
<event>
 5   0  0.2917809E-03  0.1440997E+04  0.7818609E-02  0.8924666E-01
       -2   -1    0    0    0  501  0.00000000000E+00  0.00000000000E+00  0.28496278824E+03  0.28496278825E+03  0.25500000920E-02 0.  1.
        2   -1    0    0  501    0  0.00000000000E+00  0.00000000000E+00 -0.18217041698E+04  0.18217041698E+04  0.25500000920E-02 0. -1.
    10030    2    1    2    0    0  0.00000000000E+00  0.00000000000E+00 -0.15367413816E+04  0.21066669581E+04  0.14409967378E+04 0.  0.
        2    1    3    3  502    0 -0.48524973611E+02 -0.60257422892E+03 -0.19527923387E+03  0.63528289258E+03  0.25500000920E-02 0. -1.
       -2    1    3    3    0  502  0.48524973611E+02  0.60257422892E+03 -0.13414621477E+04  0.14713840655E+04  0.25500000920E-02 0.  1.
</event>
<event>
 5   0  0.2889469E-03  0.1429609E+04  0.7818609E-02  0.8932660E-01
        2   -1    0    0  501    0  0.00000000000E+00  0.00000000000E+00  0.13048352620E+04  0.13048352621E+04  0.25500000920E-02 0.  1.
       -2   -1    0    0    0  501  0.00000000000E+00  0.00000000000E+00 -0.39157878408E+03  0.39157878409E+03  0.25500000920E-02 0. -1.
    10030    2    1    2    0    0  0.00000000000E+00  0.00000000000E+00  0.91325647797E+03  0.16964140461E+04  0.14296094646E+04 0.  0.
        5    1    3    3  502    0 -0.37313462177E+03  0.44961368195E+03  0.94522754751E+03  0.11112421498E+04  0.46999998093E+01 0. -1.
       -5    1    3    3    0  502  0.37313462177E+03 -0.44961368195E+03 -0.31971069538E+02  0.58517189632E+03  0.46999998093E+01 0.  1.
</event>
<event>
 5   0  0.3006737E-03  0.1380183E+04  0.7818609E-02  0.8968289E-01
       -2   -1    0    0    0  501  0.00000000000E+00  0.00000000000E+00  0.41349388590E+03  0.41349388591E+03  0.25500000920E-02 0.  1.
        2   -1    0    0  501    0  0.00000000000E+00  0.00000000000E+00 -0.11517137898E+04  0.11517137898E+04  0.25500000920E-02 0. -1.
    10030    2    1    2    0    0  0.00000000000E+00  0.00000000000E+00 -0.73821990389E+03  0.15652076757E+04  0.13801834811E+04 0.  0.
        1    1    3    3  502    0  0.20480274964E+03  0.29798234202E+03  0.29746998189E+03  0.46821579701E+03  0.50400001928E-02 0.  1.
       -1    1    3    3    0  502 -0.20480274964E+03 -0.29798234202E+03 -0.10356898858E+04  0.10969918787E+04  0.50400001928E-02 0. -1.
</event>
<event>
 5   0  0.2760807E-03  0.1413081E+04  0.7818609E-02  0.8944404E-01
       -2   -1    0    0    0  501  0.00000000000E+00  0.00000000000E+00  0.28177694417E+03  0.28177694418E+03  0.25500000920E-02 0. -1.
        2   -1    0    0  501    0  0.00000000000E+00  0.00000000000E+00 -0.17716113456E+04  0.17716113456E+04  0.25500000920E-02 0.  1.
    10030    2    1    2    0    0  0.00000000000E+00  0.00000000000E+00 -0.14898344014E+04  0.20533882897E+04  0.14130806505E+04 0.  0.
        4    1    3    3  502    0  0.41135202407E+03 -0.50272735905E+03 -0.11488042554E+04  0.13197341078E+04  0.12699999809E+01 0. -1.
       -4    1    3    3    0  502 -0.41135202407E+03  0.50272735905E+03 -0.34103014596E+03  0.73365418189E+03  0.12699999809E+01 0.  1.
</event>
<event>
 5   0  0.2889469E-03  0.1398495E+04  0.7818609E-02  0.8954909E-01
       -2   -1    0    0    0  501  0.00000000000E+00  0.00000000000E+00  0.30732337913E+03  0.30732337914E+03  0.25500000920E-02 0.  1.
        2   -1    0    0  501    0  0.00000000000E+00  0.00000000000E+00 -0.15909852882E+04  0.15909852882E+04  0.25500000920E-02 0. -1.
    10030    2    1    2    0    0  0.00000000000E+00  0.00000000000E+00 -0.12836619091E+04  0.18983086674E+04  0.13984948694E+04 0.  0.
        5    1    3    3  502    0  0.46486129244E+03 -0.52179953297E+03 -0.67378342131E+03  0.97076102242E+03  0.46999998093E+01 0. -1.
       -5    1    3    3    0  502 -0.46486129244E+03  0.52179953297E+03 -0.60987848780E+03  0.92754764497E+03  0.46999998093E+01 0.  1.
</event>
<event>
 5   0  0.2993993E-03  0.1392188E+04  0.7818609E-02  0.8959493E-01
       -2   -1    0    0    0  501  0.00000000000E+00  0.00000000000E+00  0.83123050448E+03  0.83123050449E+03  0.25500000920E-02 0. -1.
        2   -1    0    0  501    0  0.00000000000E+00  0.00000000000E+00 -0.58292717924E+03  0.58292717925E+03  0.25500000920E-02 0.  1.
    10030    2    1    2    0    0  0.00000000000E+00  0.00000000000E+00  0.24830332524E+03  0.14141576837E+04  0.13921879949E+04 0.  0.
        3    1    3    3  502    0  0.64650744459E+03  0.14225149198E+03  0.34281477835E+03  0.74547256512E+03  0.10100000352E+00 0. -1.
       -3    1    3    3    0  502 -0.64650744459E+03 -0.14225149198E+03 -0.94511453106E+02  0.66868511861E+03  0.10100000352E+00 0.  1.
</event>
<event>
 5   0  0.1644571E-03  0.1413449E+04  0.7818609E-02  0.8944141E-01
       -1   -1    0    0    0  501  0.00000000000E+00  0.00000000000E+00  0.23973232427E+03  0.23973232432E+03  0.50400001928E-02 0. -1.
        1   -1    0    0  501    0  0.00000000000E+00  0.00000000000E+00 -0.20834036091E+04  0.20834036091E+04  0.50400001928E-02 0.  1.
    10030    2    1    2    0    0  0.00000000000E+00  0.00000000000E+00 -0.18436712849E+04  0.23231359335E+04  0.14134485342E+04 0.  0.
        4    1    3    3  502    0 -0.31990793785E+03 -0.32271528617E+03 -0.32210219062E+02  0.45554950964E+03  0.12699999809E+01 0. -1.
       -4    1    3    3    0  502  0.31990793785E+03  0.32271528617E+03 -0.18114610658E+04  0.18675864238E+04  0.12699999809E+01 0.  1.
</event>
<event>
 5   0  0.2889469E-03  0.1375192E+04  0.7818609E-02  0.8971974E-01
       -2   -1    0    0    0  501  0.00000000000E+00  0.00000000000E+00  0.73880036140E+03  0.73880036141E+03  0.25500000920E-02 0. -1.
        2   -1    0    0  501    0  0.00000000000E+00  0.00000000000E+00 -0.63994081165E+03  0.63994081165E+03  0.25500000920E-02 0.  1.
    10030    2    1    2    0    0  0.00000000000E+00  0.00000000000E+00  0.98859549758E+02  0.13787411731E+04  0.13751923544E+04 0.  0.
        5    1    3    3  502    0  0.35032469172E+03  0.21036491152E+03  0.60383565799E+03  0.72912301944E+03  0.46999998093E+01 0. -1.
       -5    1    3    3    0  502 -0.35032469172E+03 -0.21036491152E+03 -0.50497610823E+03  0.64961815362E+03  0.46999998093E+01 0.  1.
</event>
<event>
 5   0  0.1560957E-03  0.1421232E+04  0.7818609E-02  0.8938592E-01
       -1   -1    0    0    0  501  0.00000000000E+00  0.00000000000E+00  0.46904611194E+03  0.46904611197E+03  0.50400001928E-02 0. -1.
        1   -1    0    0  501    0  0.00000000000E+00  0.00000000000E+00 -0.10766000548E+04  0.10766000548E+04  0.50400001928E-02 0.  1.
    10030    2    1    2    0    0  0.00000000000E+00  0.00000000000E+00 -0.60755394285E+03  0.15456461668E+04  0.14212319583E+04 0.  0.
        5    1    3    3  502    0  0.54410580092E+03  0.42043248399E+03 -0.10881175686E+03  0.69618724824E+03  0.46999998093E+01 0. -1.
       -5    1    3    3    0  502 -0.54410580092E+03 -0.42043248399E+03 -0.49874218599E+03  0.84945891853E+03  0.46999998093E+01 0.  1.
</event>
<event>
 5   0  0.1560957E-03  0.1388185E+04  0.7818609E-02  0.8962415E-01
       -1   -1    0    0    0  501  0.00000000000E+00  0.00000000000E+00  0.26214348596E+03  0.26214348601E+03  0.50400001928E-02 0.  1.
        1   -1    0    0  501    0  0.00000000000E+00  0.00000000000E+00 -0.18377889814E+04  0.18377889814E+04  0.50400001928E-02 0. -1.
    10030    2    1    2    0    0  0.00000000000E+00  0.00000000000E+00 -0.15756454955E+04  0.20999324674E+04  0.13881850166E+04 0.  0.
        5    1    3    3  502    0  0.15034740367E+03 -0.61635947524E+03 -0.12136440678E+04  0.13694733870E+04  0.46999998093E+01 0.  1.
       -5    1    3    3    0  502 -0.15034740367E+03  0.61635947524E+03 -0.36200142767E+03  0.73045908040E+03  0.46999998093E+01 0. -1.
</event>
<event>
 5   0  0.1560957E-03  0.1400387E+04  0.7818609E-02  0.8953538E-01
       -1   -1    0    0    0  501  0.00000000000E+00  0.00000000000E+00  0.42768838295E+03  0.42768838298E+03  0.50400001928E-02 0.  1.
        1   -1    0    0  501    0  0.00000000000E+00  0.00000000000E+00 -0.11463273899E+04  0.11463273899E+04  0.50400001928E-02 0. -1.
    10030    2    1    2    0    0  0.00000000000E+00  0.00000000000E+00 -0.71863900695E+03  0.15740157729E+04  0.14003869576E+04 0.  0.
        5    1    3    3  502    0 -0.27359176845E+03 -0.58735441113E+03 -0.65757040508E+03  0.92317852427E+03  0.46999998093E+01 0. -1.
       -5    1    3    3    0  502  0.27359176845E+03  0.58735441113E+03 -0.61068601867E+02  0.65083724861E+03  0.46999998093E+01 0.  1.
</event>
<event>
 5   0  0.1586022E-03  0.1457481E+04  0.7818609E-02  0.8913231E-01
       -1   -1    0    0    0  501  0.00000000000E+00  0.00000000000E+00  0.34603836366E+03  0.34603836370E+03  0.50400001928E-02 0. -1.
        1   -1    0    0  501    0  0.00000000000E+00  0.00000000000E+00 -0.15346930087E+04  0.15346930087E+04  0.50400001928E-02 0.  1.
    10030    2    1    2    0    0  0.00000000000E+00  0.00000000000E+00 -0.11886546450E+04  0.18807313724E+04  0.14574809193E+04 0.  0.
        1    1    3    3  502    0 -0.96858335002E+01  0.47565558686E+03 -0.13066467709E+04  0.13905638557E+04  0.50400001928E-02 0.  1.
       -1    1    3    3    0  502  0.96858335002E+01 -0.47565558686E+03  0.11799212588E+03  0.49016751675E+03  0.50400001928E-02 0. -1.
</event>
<event>
 5   0  0.2993993E-03  0.1391002E+04  0.7818609E-02  0.8960358E-01
        2   -1    0    0  501    0  0.00000000000E+00  0.00000000000E+00  0.97955845695E+03  0.97955845695E+03  0.25500000920E-02 0.  1.
       -2   -1    0    0    0  501  0.00000000000E+00  0.00000000000E+00 -0.49381598517E+03  0.49381598517E+03  0.25500000920E-02 0. -1.
    10030    2    1    2    0    0  0.00000000000E+00  0.00000000000E+00  0.48574247178E+03  0.14733744421E+04  0.13910019762E+04 0.  0.
        3    1    3    3  502    0  0.22322380494E+03 -0.62989798783E+03  0.44694952764E+03  0.80396780571E+03  0.10100000352E+00 0.  1.
       -3    1    3    3    0  502 -0.22322380494E+03  0.62989798783E+03  0.38792944136E+02  0.66940663641E+03  0.10100000352E+00 0. -1.
</event>
<event>
 5   0  0.1104538E-03  0.1387748E+04  0.7818609E-02  0.8962735E-01
       -4   -1    0    0    0  501  0.00000000000E+00  0.00000000000E+00  0.16775145607E+04  0.16775150414E+04  0.12699999809E+01 0.  1.
        4   -1    0    0  501    0  0.00000000000E+00  0.00000000000E+00 -0.28700653883E+03  0.28700934868E+03  0.12699999809E+01 0. -1.
    10030    2    1    2    0    0  0.00000000000E+00  0.00000000000E+00  0.13905080219E+04  0.19645243901E+04  0.13877476429E+04 0.  0.
        2    1    3    3  502    0 -0.97210452993E+01  0.40366752735E+03  0.14940692687E+04  0.15476708149E+04  0.25500000920E-02 0.  1.
       -2    1    3    3    0  502  0.97210452993E+01 -0.40366752735E+03 -0.10356124686E+03  0.41685357527E+03  0.25500000920E-02 0. -1.
</event>
<event>
 5   0  0.1644571E-03  0.1388063E+04  0.7818609E-02  0.8962505E-01
       -1   -1    0    0    0  501  0.00000000000E+00  0.00000000000E+00  0.25707787607E+03  0.25707787612E+03  0.50400001928E-02 0.  1.
        1   -1    0    0  501    0  0.00000000000E+00  0.00000000000E+00 -0.18736721490E+04  0.18736721490E+04  0.50400001928E-02 0. -1.
    10030    2    1    2    0    0  0.00000000000E+00  0.00000000000E+00 -0.16165942729E+04  0.21307500251E+04  0.13880629043E+04 0.  0.
        4    1    3    3  502    0  0.19203843479E+03 -0.58976293039E+02 -0.18280635179E+04  0.18390690041E+04  0.12699999809E+01 0. -1.
       -4    1    3    3    0  502 -0.19203843479E+03  0.58976293039E+02  0.21146924493E+03  0.29168102103E+03  0.12699999809E+01 0.  1.
</event>
<event>
 5   0  0.2917809E-03  0.1365340E+04  0.7818609E-02  0.8979296E-01
       -2   -1    0    0    0  501  0.00000000000E+00  0.00000000000E+00  0.30896539433E+03  0.30896539434E+03  0.25500000920E-02 0. -1.
        2   -1    0    0  501    0  0.00000000000E+00  0.00000000000E+00 -0.15083843398E+04  0.15083843398E+04  0.25500000920E-02 0.  1.
    10030    2    1    2    0    0  0.00000000000E+00  0.00000000000E+00 -0.11994189454E+04  0.18173497341E+04  0.13653403420E+04 0.  0.
        2    1    3    3  502    0 -0.32886310392E+03  0.29044271994E+02  0.19564090223E+03  0.38375757124E+03  0.25500000920E-02 0. -1.
       -2    1    3    3    0  502  0.32886310392E+03 -0.29044271994E+02 -0.13950598477E+04  0.14335921629E+04  0.25500000920E-02 0.  1.
</event>
<event>
 5   0  0.2917809E-03  0.1505622E+04  0.7818609E-02  0.8880723E-01
        2   -1    0    0  501    0  0.00000000000E+00  0.00000000000E+00  0.15846955810E+04  0.15846955810E+04  0.25500000920E-02 0.  1.
       -2   -1    0    0    0  501  0.00000000000E+00  0.00000000000E+00 -0.35762346227E+03  0.35762346228E+03  0.25500000920E-02 0. -1.
    10030    2    1    2    0    0  0.00000000000E+00  0.00000000000E+00  0.12270721187E+04  0.19423190433E+04  0.15056218919E+04 0.  0.
        2    1    3    3  502    0  0.43706163540E+03 -0.14405691022E+03 -0.15504142715E+03  0.48560592115E+03  0.25500000920E-02 0. -1.
       -2    1    3    3    0  502 -0.43706163540E+03  0.14405691022E+03  0.13821135459E+04  0.14567131221E+04  0.25500000920E-02 0.  1.
</event>
<event>
 5   0  0.1586022E-03  0.1364673E+04  0.7818609E-02  0.8979795E-01
       -1   -1    0    0    0  501  0.00000000000E+00  0.00000000000E+00  0.69364419599E+03  0.69364419601E+03  0.50400001928E-02 0.  1.
        1   -1    0    0  501    0  0.00000000000E+00  0.00000000000E+00 -0.67121316263E+03  0.67121316264E+03  0.50400001928E-02 0. -1.
    10030    2    1    2    0    0  0.00000000000E+00  0.00000000000E+00  0.22431033365E+02  0.13648573587E+04  0.13646730225E+04 0.  0.
        1    1    3    3  502    0  0.60198033736E+03 -0.26771231833E+03  0.18881456481E+03  0.68534746798E+03  0.50400001928E-02 0.  1.
       -1    1    3    3    0  502 -0.60198033736E+03  0.26771231833E+03 -0.16638353145E+03  0.67950989067E+03  0.50400001928E-02 0. -1.
</event>
<event>
 5   0  0.2889469E-03  0.1491575E+04  0.7818609E-02  0.8890075E-01
        2   -1    0    0  501    0  0.00000000000E+00  0.00000000000E+00  0.14947707919E+04  0.14947707919E+04  0.25500000920E-02 0. -1.
       -2   -1    0    0    0  501  0.00000000000E+00  0.00000000000E+00 -0.37209641432E+03  0.37209641433E+03  0.25500000920E-02 0.  1.
    10030    2    1    2    0    0  0.00000000000E+00  0.00000000000E+00  0.11226743776E+04  0.18668672063E+04  0.14915748079E+04 0.  0.
        5    1    3    3  502    0 -0.38516942214E+03 -0.27376812207E+03  0.12834535937E+04  0.13676913708E+04  0.46999998093E+01 0. -1.
       -5    1    3    3    0  502  0.38516942214E+03  0.27376812207E+03 -0.16077921611E+03  0.49917583550E+03  0.46999998093E+01 0.  1.
</event>
<event>
 5   0  0.1631380E-03  0.1425508E+04  0.7818609E-02  0.8935559E-01
        1   -1    0    0  501    0  0.00000000000E+00  0.00000000000E+00  0.16904974196E+04  0.16904974196E+04  0.50400001928E-02 0.  1.
       -1   -1    0    0    0  501  0.00000000000E+00  0.00000000000E+00 -0.30051409935E+03  0.30051409939E+03  0.50400001928E-02 0. -1.
    10030    2    1    2    0    0  0.00000000000E+00  0.00000000000E+00  0.13899833202E+04  0.19910115190E+04  0.14255080632E+04 0.  0.
        3    1    3    3  502    0  0.14099850513E+03  0.16099088526E+03  0.16445645331E+04  0.16584303293E+04  0.10100000352E+00 0.  1.
       -3    1    3    3    0  502 -0.14099850513E+03 -0.16099088526E+03 -0.25458121284E+03  0.33258118966E+03  0.10100000352E+00 0. -1.
</event>
<event>
 5   0  0.2760807E-03  0.1444294E+04  0.7818609E-02  0.8922366E-01
       -2   -1    0    0    0  501  0.00000000000E+00  0.00000000000E+00  0.71190362304E+03  0.71190362305E+03  0.25500000920E-02 0.  1.
        2   -1    0    0  501    0  0.00000000000E+00  0.00000000000E+00 -0.73253804523E+03  0.73253804524E+03  0.25500000920E-02 0. -1.
    10030    2    1    2    0    0  0.00000000000E+00  0.00000000000E+00 -0.20634422188E+02  0.14444416683E+04  0.14442942753E+04 0.  0.
        4    1    3    3  502    0 -0.46251048330E+03 -0.36016289941E+03 -0.43209667756E+03  0.72824612113E+03  0.12699999809E+01 0. -1.
       -4    1    3    3    0  502  0.46251048330E+03  0.36016289941E+03  0.41146225538E+03  0.71619554716E+03  0.12699999809E+01 0.  1.
</event>
<event>
 5   0  0.1104538E-03  0.1365741E+04  0.7818609E-02  0.8978997E-01
       -3   -1    0    0    0  501  0.00000000000E+00  0.00000000000E+00  0.12924240126E+04  0.12924240166E+04  0.10100000352E+00 0. -1.
        3   -1    0    0  501    0  0.00000000000E+00  0.00000000000E+00 -0.36080448612E+03  0.36080450026E+03  0.10100000352E+00 0.  1.
    10030    2    1    2    0    0  0.00000000000E+00  0.00000000000E+00  0.93161952650E+03  0.16532285168E+04  0.13657414055E+04 0.  0.
        3    1    3    3  502    0  0.54605955320E+01 -0.21847534165E+03 -0.31732887595E+03  0.38530367079E+03  0.10100000352E+00 0.  1.
       -3    1    3    3    0  502 -0.54605955320E+01  0.21847534165E+03  0.12489484025E+04  0.12679248460E+04  0.10100000352E+00 0. -1.
</event>
<event>
 5   0  0.1104538E-03  0.1398992E+04  0.7818609E-02  0.8954548E-01
        4   -1    0    0  501    0  0.00000000000E+00  0.00000000000E+00  0.39354225145E+03  0.39354430065E+03  0.12699999809E+01 0. -1.
       -4   -1    0    0    0  501  0.00000000000E+00  0.00000000000E+00 -0.12433042259E+04  0.12433048745E+04  0.12699999809E+01 0.  1.
    10030    2    1    2    0    0  0.00000000000E+00  0.00000000000E+00 -0.84976197443E+03  0.16368491752E+04  0.13989924264E+04 0.  0.
        2    1    3    3  502    0 -0.51599917379E+03 -0.46741948806E+03 -0.34588230247E+03  0.77741281976E+03  0.25500000920E-02 0. -1.
       -2    1    3    3    0  502  0.51599917379E+03  0.46741948806E+03 -0.50387967196E+03  0.85943635540E+03  0.25500000920E-02 0.  1.
</event>
<event>
 5   0  0.1586022E-03  0.1397806E+04  0.7818609E-02  0.8955408E-01
       -1   -1    0    0    0  501  0.00000000000E+00  0.00000000000E+00  0.52471318451E+03  0.52471318453E+03  0.50400001928E-02 0.  1.
        1   -1    0    0  501    0  0.00000000000E+00  0.00000000000E+00 -0.93091886528E+03  0.93091886530E+03  0.50400001928E-02 0. -1.
    10030    2    1    2    0    0  0.00000000000E+00  0.00000000000E+00 -0.40620568077E+03  0.14556320498E+04  0.13978059985E+04 0.  0.
        1    1    3    3  502    0 -0.14512750341E+03 -0.67945211028E+03 -0.28205647950E+03  0.74984866477E+03  0.50400001928E-02 0. -1.
       -1    1    3    3    0  502  0.14512750341E+03  0.67945211028E+03 -0.12414920128E+03  0.70578338505E+03  0.50400001928E-02 0.  1.
</event>
<event>
 5   0  0.1586022E-03  0.1344262E+04  0.7818609E-02  0.8995183E-01
        1   -1    0    0  501    0  0.00000000000E+00  0.00000000000E+00  0.11603645767E+04  0.11603645767E+04  0.50400001928E-02 0. -1.
       -1   -1    0    0    0  501  0.00000000000E+00  0.00000000000E+00 -0.38932624344E+03  0.38932624347E+03  0.50400001928E-02 0.  1.
    10030    2    1    2    0    0  0.00000000000E+00  0.00000000000E+00  0.77103833325E+03  0.15496908202E+04  0.13442624471E+04 0.  0.
        1    1    3    3  502    0  0.25258258251E+03  0.54859743000E+02 -0.32974217322E+03  0.41897190026E+03  0.50400001928E-02 0.  1.
       -1    1    3    3    0  502 -0.25258258251E+03 -0.54859743000E+02  0.11007805065E+04  0.11307189199E+04  0.50400001928E-02 0. -1.
</event>
<event>
 5   0  0.1631380E-03  0.1400528E+04  0.7818609E-02  0.8953436E-01
        1   -1    0    0  501    0  0.00000000000E+00  0.00000000000E+00  0.53815955072E+03  0.53815955075E+03  0.50400001928E-02 0. -1.
       -1   -1    0    0    0  501  0.00000000000E+00  0.00000000000E+00 -0.91119765309E+03  0.91119765310E+03  0.50400001928E-02 0.  1.
    10030    2    1    2    0    0  0.00000000000E+00  0.00000000000E+00 -0.37303810237E+03  0.14493572038E+04  0.14005280713E+04 0.  0.
        3    1    3    3  502    0  0.51032076128E+03  0.18683900076E+02  0.30934572622E+03  0.59705205472E+03  0.10100000352E+00 0. -1.
       -3    1    3    3    0  502 -0.51032076128E+03 -0.18683900076E+02 -0.68238382858E+03  0.85230514913E+03  0.10100000352E+00 0.  1.
</event>
<event>
 5   0  0.2760807E-03  0.1407615E+04  0.7818609E-02  0.8948325E-01
       -2   -1    0    0    0  501  0.00000000000E+00  0.00000000000E+00  0.53507483184E+03  0.53507483185E+03  0.25500000920E-02 0. -1.
        2   -1    0    0  501    0  0.00000000000E+00  0.00000000000E+00 -0.92574916035E+03  0.92574916036E+03  0.25500000920E-02 0.  1.
    10030    2    1    2    0    0  0.00000000000E+00  0.00000000000E+00 -0.39067432851E+03  0.14608239922E+04  0.14076151126E+04 0.  0.
        4    1    3    3  502    0  0.10401300241E+03  0.35082515163E+02  0.52613513809E+03  0.53746561190E+03  0.12699999809E+01 0. -1.
       -4    1    3    3    0  502 -0.10401300241E+03 -0.35082515163E+02 -0.91680946660E+03  0.92335838031E+03  0.12699999809E+01 0.  1.
</event>
<event>
 5   0  0.3006737E-03  0.1399017E+04  0.7818609E-02  0.8954530E-01
        2   -1    0    0  501    0  0.00000000000E+00  0.00000000000E+00  0.79007739263E+03  0.79007739263E+03  0.25500000920E-02 0. -1.
       -2   -1    0    0    0  501  0.00000000000E+00  0.00000000000E+00 -0.61932213100E+03  0.61932213101E+03  0.25500000920E-02 0.  1.
    10030    2    1    2    0    0  0.00000000000E+00  0.00000000000E+00  0.17075526162E+03  0.14093995236E+04  0.13990173901E+04 0.  0.
        1    1    3    3  502    0  0.59520880408E+03 -0.36096912326E+03  0.15473756950E+03  0.71310303873E+03  0.50400001928E-02 0. -1.
       -1    1    3    3    0  502 -0.59520880408E+03  0.36096912326E+03  0.16017692119E+02  0.69629648491E+03  0.50400001928E-02 0.  1.
</event>
<event>
 5   0  0.1104538E-03  0.1454927E+04  0.7818609E-02  0.8914992E-01
       -4   -1    0    0    0  501  0.00000000000E+00  0.00000000000E+00  0.45400431893E+03  0.45400609523E+03  0.12699999809E+01 0. -1.
        4   -1    0    0  501    0  0.00000000000E+00  0.00000000000E+00 -0.11656299810E+04  0.11656306729E+04  0.12699999809E+01 0.  1.
    10030    2    1    2    0    0  0.00000000000E+00  0.00000000000E+00 -0.71162566208E+03  0.16196367681E+04  0.14549268633E+04 0.  0.
        2    1    3    3  502    0  0.91134272950E+02 -0.12684395449E+03  0.43512011278E+03  0.46230331715E+03  0.25500000920E-02 0. -1.
       -2    1    3    3    0  502 -0.91134272950E+02  0.12684395449E+03 -0.11467457749E+04  0.11573334509E+04  0.25500000920E-02 0.  1.
</event>
<event>
 5   0  0.1700207E-03  0.1364653E+04  0.7818609E-02  0.8979809E-01
       -1   -1    0    0    0  501  0.00000000000E+00  0.00000000000E+00  0.52246675789E+03  0.52246675792E+03  0.50400001928E-02 0. -1.
        1   -1    0    0  501    0  0.00000000000E+00  0.00000000000E+00 -0.89109890009E+03  0.89109890010E+03  0.50400001928E-02 0.  1.
    10030    2    1    2    0    0  0.00000000000E+00  0.00000000000E+00 -0.36863214219E+03  0.14135656580E+04  0.13646531476E+04 0.  0.
        2    1    3    3  502    0  0.14416761076E+03 -0.35323296482E+03  0.40165564037E+03  0.55397209395E+03  0.25500000920E-02 0. -1.
       -2    1    3    3    0  502 -0.14416761076E+03  0.35323296482E+03 -0.77028778256E+03  0.85959356407E+03  0.25500000920E-02 0.  1.
</event>
<event>
 5   0  0.1560957E-03  0.1389297E+04  0.7818609E-02  0.8961603E-01
       -1   -1    0    0    0  501  0.00000000000E+00  0.00000000000E+00  0.68185226601E+03  0.68185226603E+03  0.50400001928E-02 0. -1.
        1   -1    0    0  501    0  0.00000000000E+00  0.00000000000E+00 -0.70768479204E+03  0.70768479206E+03  0.50400001928E-02 0.  1.
    10030    2    1    2    0    0  0.00000000000E+00  0.00000000000E+00 -0.25832526030E+02  0.13895370581E+04  0.13892969144E+04 0.  0.
        5    1    3    3  502    0 -0.35303876125E+03 -0.48528818360E+03  0.33696330171E+03  0.68826400805E+03  0.46999998093E+01 0. -1.
       -5    1    3    3    0  502  0.35303876125E+03  0.48528818360E+03 -0.36279582774E+03  0.70127305004E+03  0.46999998093E+01 0.  1.
</event>
<event>
 5   0  0.2760807E-03  0.8874547E+03  0.7818609E-02  0.9441401E-01
        2   -1    0    0  501    0  0.00000000000E+00  0.00000000000E+00  0.56066158265E+03  0.56066158265E+03  0.25500000920E-02 0. -1.
       -2   -1    0    0    0  501  0.00000000000E+00  0.00000000000E+00 -0.35118148336E+03  0.35118148337E+03  0.25500000920E-02 0.  1.
    10030    2    1    2    0    0  0.00000000000E+00  0.00000000000E+00  0.20948009928E+03  0.91184306602E+03  0.88745471155E+03 0.  0.
        4    1    3    3  502    0  0.94140563961E+02 -0.35188315019E-01 -0.34080063240E+03  0.35356630349E+03  0.12699999809E+01 0.  1.
       -4    1    3    3    0  502 -0.94140563961E+02  0.35188315019E-01  0.55028073168E+03  0.55827676253E+03  0.12699999809E+01 0. -1.
</event>
<event>
 5   0  0.1631380E-03  0.1373426E+04  0.7818609E-02  0.8973282E-01
       -1   -1    0    0    0  501  0.00000000000E+00  0.00000000000E+00  0.67823354909E+03  0.67823354911E+03  0.50400001928E-02 0.  1.
        1   -1    0    0  501    0  0.00000000000E+00  0.00000000000E+00 -0.69529819707E+03  0.69529819709E+03  0.50400001928E-02 0. -1.
    10030    2    1    2    0    0  0.00000000000E+00  0.00000000000E+00 -0.17064647975E+02  0.13735317462E+04  0.13734257372E+04 0.  0.
        3    1    3    3  502    0 -0.18006459394E+03  0.65539306548E+03  0.89512100576E+02  0.68554777705E+03  0.10100000352E+00 0.  1.
       -3    1    3    3    0  502  0.18006459394E+03 -0.65539306548E+03 -0.10657674855E+03  0.68798396915E+03  0.10100000352E+00 0. -1.
</event>
<event>
 5   0  0.2760807E-03  0.1337220E+04  0.7818609E-02  0.9000559E-01
       -2   -1    0    0    0  501  0.00000000000E+00  0.00000000000E+00  0.10291802447E+04  0.10291802447E+04  0.25500000920E-02 0. -1.
        2   -1    0    0  501    0  0.00000000000E+00  0.00000000000E+00 -0.43436458720E+03  0.43436458721E+03  0.25500000920E-02 0.  1.
    10030    2    1    2    0    0  0.00000000000E+00  0.00000000000E+00  0.59481565746E+03  0.14635448319E+04  0.13372201795E+04 0.  0.
        4    1    3    3  502    0  0.29708710795E+03  0.24244165857E+03 -0.30205617171E+03  0.48813753316E+03  0.12699999809E+01 0.  1.
       -4    1    3    3    0  502 -0.29708710795E+03 -0.24244165857E+03  0.89687182916E+03  0.97540729870E+03  0.12699999809E+01 0. -1.
</event>
<event>
 5   0  0.1631380E-03  0.1388097E+04  0.7818609E-02  0.8962480E-01
        1   -1    0    0  501    0  0.00000000000E+00  0.00000000000E+00  0.20026160579E+04  0.20026160579E+04  0.50400001928E-02 0.  1.
       -1   -1    0    0    0  501  0.00000000000E+00  0.00000000000E+00 -0.24053697614E+03  0.24053697620E+03  0.50400001928E-02 0. -1.
    10030    2    1    2    0    0  0.00000000000E+00  0.00000000000E+00  0.17620790817E+04  0.22431530341E+04  0.13880968424E+04 0.  0.
        3    1    3    3  502    0 -0.34132458767E+03 -0.35040844830E+03  0.16766831241E+04  0.17465837694E+04  0.10100000352E+00 0.  1.
       -3    1    3    3    0  502  0.34132458767E+03  0.35040844830E+03  0.85395957599E+02  0.49656926462E+03  0.10100000352E+00 0. -1.
</event>
<event>
 5   0  0.1586022E-03  0.1351917E+04  0.7818609E-02  0.8989378E-01
        1   -1    0    0  501    0  0.00000000000E+00  0.00000000000E+00  0.68295314161E+03  0.68295314163E+03  0.50400001928E-02 0. -1.
       -1   -1    0    0    0  501  0.00000000000E+00  0.00000000000E+00 -0.66903544730E+03  0.66903544732E+03  0.50400001928E-02 0.  1.
    10030    2    1    2    0    0  0.00000000000E+00  0.00000000000E+00  0.13917694318E+02  0.13519885889E+04  0.13519169510E+04 0.  0.
        1    1    3    3  502    0  0.50250172712E+02 -0.49642087030E+03 -0.44909283907E+03  0.67129958920E+03  0.50400001928E-02 0.  1.
       -1    1    3    3    0  502 -0.50250172712E+02  0.49642087030E+03  0.46301053339E+03  0.68068899975E+03  0.50400001928E-02 0. -1.
</event>
<event>
 5   0  0.2760807E-03  0.1395138E+04  0.7818609E-02  0.8957345E-01
       -2   -1    0    0    0  501  0.00000000000E+00  0.00000000000E+00  0.41966244167E+03  0.41966244167E+03  0.25500000920E-02 0. -1.
        2   -1    0    0  501    0  0.00000000000E+00  0.00000000000E+00 -0.11595096998E+04  0.11595096998E+04  0.25500000920E-02 0.  1.
    10030    2    1    2    0    0  0.00000000000E+00  0.00000000000E+00 -0.73984725815E+03  0.15791721415E+04  0.13951382322E+04 0.  0.
        4    1    3    3  502    0 -0.68835351353E+02  0.44805836966E+03 -0.97005681031E+03  0.10707504081E+04  0.12699999809E+01 0.  1.
       -4    1    3    3    0  502  0.68835351353E+02 -0.44805836966E+03  0.23020955216E+03  0.50842173343E+03  0.12699999809E+01 0. -1.
</event>
<event>
 5   0  0.3006737E-03  0.1437261E+04  0.7818609E-02  0.8927280E-01
       -2   -1    0    0    0  501  0.00000000000E+00  0.00000000000E+00  0.84731620665E+03  0.84731620666E+03  0.25500000920E-02 0.  1.
        2   -1    0    0  501    0  0.00000000000E+00  0.00000000000E+00 -0.60948861498E+03  0.60948861499E+03  0.25500000920E-02 0. -1.
    10030    2    1    2    0    0  0.00000000000E+00  0.00000000000E+00  0.23782759167E+03  0.14568048216E+04  0.14372607018E+04 0.  0.
        1    1    3    3  502    0 -0.42298484659E+03  0.47622673202E+03  0.45618697043E+03  0.78346322999E+03  0.50400001928E-02 0.  1.
       -1    1    3    3    0  502  0.42298484659E+03 -0.47622673202E+03 -0.21835937876E+03  0.67334159165E+03  0.50400001928E-02 0. -1.
</event>
<event>
 5   0  0.2760807E-03  0.1409837E+04  0.7818609E-02  0.8946729E-01
       -2   -1    0    0    0  501  0.00000000000E+00  0.00000000000E+00  0.28381912982E+03  0.28381912983E+03  0.25500000920E-02 0.  1.
        2   -1    0    0  501    0  0.00000000000E+00  0.00000000000E+00 -0.17507981158E+04  0.17507981158E+04  0.25500000920E-02 0. -1.
    10030    2    1    2    0    0  0.00000000000E+00  0.00000000000E+00 -0.14669789860E+04  0.20346172456E+04  0.14098368668E+04 0.  0.
        4    1    3    3  502    0 -0.68415618726E+03  0.11607156026E+03 -0.91238339328E+03  0.11462928792E+04  0.12699999809E+01 0. -1.
       -4    1    3    3    0  502  0.68415618726E+03 -0.11607156026E+03 -0.55459559272E+03  0.88832436645E+03  0.12699999809E+01 0.  1.
</event>
<event>
 5   0  0.2760807E-03  0.1423769E+04  0.7818609E-02  0.8936790E-01
       -2   -1    0    0    0  501  0.00000000000E+00  0.00000000000E+00  0.35663186870E+03  0.35663186871E+03  0.25500000920E-02 0.  1.
        2   -1    0    0  501    0  0.00000000000E+00  0.00000000000E+00 -0.14210168514E+04  0.14210168514E+04  0.25500000920E-02 0. -1.
    10030    2    1    2    0    0  0.00000000000E+00  0.00000000000E+00 -0.10643849827E+04  0.17776487201E+04  0.14237694971E+04 0.  0.
        4    1    3    3  502    0 -0.29788720935E+03 -0.21046696254E+03 -0.12954903486E+04  0.13458566001E+04  0.12699999809E+01 0. -1.
       -4    1    3    3    0  502  0.29788720935E+03  0.21046696254E+03  0.23110536594E+03  0.43179211999E+03  0.12699999809E+01 0.  1.
</event>
<event>
 5   0  0.1586022E-03  0.1382773E+04  0.7818609E-02  0.8966384E-01
        1   -1    0    0  501    0  0.00000000000E+00  0.00000000000E+00  0.14660129551E+04  0.14660129551E+04  0.50400001928E-02 0. -1.
       -1   -1    0    0    0  501  0.00000000000E+00  0.00000000000E+00 -0.32606480705E+03  0.32606480709E+03  0.50400001928E-02 0.  1.
    10030    2    1    2    0    0  0.00000000000E+00  0.00000000000E+00  0.11399481481E+04  0.17920777622E+04  0.13827729118E+04 0.  0.
        1    1    3    3  502    0  0.62310960391E+03  0.37404512796E+02  0.95519567274E+03  0.11410799487E+04  0.50400001928E-02 0. -1.
       -1    1    3    3    0  502 -0.62310960391E+03 -0.37404512796E+02  0.18475247534E+03  0.65099781354E+03  0.50400001928E-02 0.  1.
</event>
<event>
 5   0  0.1631380E-03  0.1410185E+04  0.7818609E-02  0.8946479E-01
       -1   -1    0    0    0  501  0.00000000000E+00  0.00000000000E+00  0.40418571842E+03  0.40418571845E+03  0.50400001928E-02 0. -1.
        1   -1    0    0  501    0  0.00000000000E+00  0.00000000000E+00 -0.12300166759E+04  0.12300166759E+04  0.50400001928E-02 0.  1.
    10030    2    1    2    0    0  0.00000000000E+00  0.00000000000E+00 -0.82583095744E+03  0.16342023943E+04  0.14101846316E+04 0.  0.
        3    1    3    3  502    0 -0.38099047044E+03 -0.59279636887E+03 -0.38467429378E+03  0.80282974285E+03  0.10100000352E+00 0.  1.
       -3    1    3    3    0  502  0.38099047044E+03  0.59279636887E+03 -0.44115666366E+03  0.83137265147E+03  0.10100000352E+00 0. -1.
</event>
<event>
 5   0  0.2917809E-03  0.1401116E+04  0.7818609E-02  0.8953011E-01
        2   -1    0    0  501    0  0.00000000000E+00  0.00000000000E+00  0.40658552891E+03  0.40658552892E+03  0.25500000920E-02 0. -1.
       -2   -1    0    0    0  501  0.00000000000E+00  0.00000000000E+00 -0.12070802930E+04  0.12070802930E+04  0.25500000920E-02 0.  1.
    10030    2    1    2    0    0  0.00000000000E+00  0.00000000000E+00 -0.80049476409E+03  0.16136658219E+04  0.14011158116E+04 0.  0.
        2    1    3    3  502    0 -0.67869343189E+03 -0.62041115083E+02 -0.21344629612E+03  0.71416608418E+03  0.25500000920E-02 0. -1.
       -2    1    3    3    0  502  0.67869343189E+03  0.62041115083E+02 -0.58704846798E+03  0.89949973775E+03  0.25500000920E-02 0.  1.
</event>
<event>
 5   0  0.1700207E-03  0.1388150E+04  0.7818609E-02  0.8962441E-01
       -1   -1    0    0    0  501  0.00000000000E+00  0.00000000000E+00  0.34257234710E+03  0.34257234714E+03  0.50400001928E-02 0.  1.
        1   -1    0    0  501    0  0.00000000000E+00  0.00000000000E+00 -0.14062426091E+04  0.14062426091E+04  0.50400001928E-02 0. -1.
    10030    2    1    2    0    0  0.00000000000E+00  0.00000000000E+00 -0.10636702620E+04  0.17488149562E+04  0.13881496047E+04 0.  0.
        2    1    3    3  502    0  0.40173728681E+03  0.14205034027E+03 -0.12220594802E+04  0.12942181115E+04  0.25500000920E-02 0. -1.
       -2    1    3    3    0  502 -0.40173728681E+03 -0.14205034027E+03  0.15838921828E+03  0.45459684475E+03  0.25500000920E-02 0.  1.
</event>
<event>
 5   0  0.1644571E-03  0.1337433E+04  0.7818609E-02  0.9000396E-01
        1   -1    0    0  501    0  0.00000000000E+00  0.00000000000E+00  0.76749114795E+03  0.76749114797E+03  0.50400001928E-02 0.  1.
       -1   -1    0    0    0  501  0.00000000000E+00  0.00000000000E+00 -0.58265426243E+03  0.58265426246E+03  0.50400001928E-02 0. -1.
    10030    2    1    2    0    0  0.00000000000E+00  0.00000000000E+00  0.18483688552E+03  0.13501454104E+04  0.13374333460E+04 0.  0.
        4    1    3    3  502    0  0.63795047093E+03 -0.19986664260E+03  0.76364533132E+02  0.67287490145E+03  0.12699999809E+01 0. -1.
       -4    1    3    3    0  502 -0.63795047093E+03  0.19986664260E+03  0.10847235238E+03  0.67727050897E+03  0.12699999809E+01 0.  1.
</event>
<event>
 5   0  0.1644571E-03  0.1394377E+04  0.7818609E-02  0.8957899E-01
       -1   -1    0    0    0  501  0.00000000000E+00  0.00000000000E+00  0.72254118982E+03  0.72254118984E+03  0.50400001928E-02 0. -1.
        1   -1    0    0  501    0  0.00000000000E+00  0.00000000000E+00 -0.67272523775E+03  0.67272523777E+03  0.50400001928E-02 0.  1.
    10030    2    1    2    0    0  0.00000000000E+00  0.00000000000E+00  0.49815952071E+02  0.13952664276E+04  0.13943768411E+04 0.  0.
        4    1    3    3  502    0  0.32693307707E+03  0.44279958790E+03 -0.40328250645E+03  0.68234529737E+03  0.12699999809E+01 0.  1.
       -4    1    3    3    0  502 -0.32693307707E+03 -0.44279958790E+03  0.45309845852E+03  0.71292113024E+03  0.12699999809E+01 0. -1.
</event>
<event>
 5   0  0.2917809E-03  0.1376929E+04  0.7818609E-02  0.8970690E-01
       -2   -1    0    0    0  501  0.00000000000E+00  0.00000000000E+00  0.38918161986E+03  0.38918161986E+03  0.25500000920E-02 0.  1.
        2   -1    0    0  501    0  0.00000000000E+00  0.00000000000E+00 -0.12178983669E+04  0.12178983669E+04  0.25500000920E-02 0. -1.
    10030    2    1    2    0    0  0.00000000000E+00  0.00000000000E+00 -0.82871674701E+03  0.16070799867E+04  0.13769294234E+04 0.  0.
        2    1    3    3  502    0  0.29542996236E+03  0.60806472383E+03 -0.56636603263E+03  0.88192519748E+03  0.25500000920E-02 0.  1.
       -2    1    3    3    0  502 -0.29542996236E+03 -0.60806472383E+03 -0.26235071438E+03  0.72515478925E+03  0.25500000920E-02 0. -1.
</event>
<event>
 5   0  0.1586022E-03  0.1402490E+04  0.7818609E-02  0.8952018E-01
       -1   -1    0    0    0  501  0.00000000000E+00  0.00000000000E+00  0.74800590165E+03  0.74800590166E+03  0.50400001928E-02 0. -1.
        1   -1    0    0  501    0  0.00000000000E+00  0.00000000000E+00 -0.65740725150E+03  0.65740725152E+03  0.50400001928E-02 0.  1.
    10030    2    1    2    0    0  0.00000000000E+00  0.00000000000E+00  0.90598650146E+02  0.14054131532E+04  0.14024899343E+04 0.  0.
        1    1    3    3  502    0 -0.41390823693E+03  0.54113884423E+03 -0.12115899383E+03  0.69197599608E+03  0.50400001928E-02 0.  1.
       -1    1    3    3    0  502  0.41390823693E+03 -0.54113884423E+03  0.21175764398E+03  0.71343715711E+03  0.50400001928E-02 0. -1.
</event>
<event>
 5   0  0.2917809E-03  0.1428972E+04  0.7818609E-02  0.8933110E-01
        2   -1    0    0  501    0  0.00000000000E+00  0.00000000000E+00  0.36423003197E+03  0.36423003198E+03  0.25500000920E-02 0.  1.
       -2   -1    0    0    0  501  0.00000000000E+00  0.00000000000E+00 -0.14015592243E+04  0.14015592243E+04  0.25500000920E-02 0. -1.
    10030    2    1    2    0    0  0.00000000000E+00  0.00000000000E+00 -0.10373291923E+04  0.17657892563E+04  0.14289716038E+04 0.  0.
        2    1    3    3  502    0  0.61726037506E+03  0.21405579217E+02 -0.96252472245E+03  0.11436443550E+04  0.25500000920E-02 0. -1.
       -2    1    3    3    0  502 -0.61726037506E+03 -0.21405579217E+02 -0.74804469896E+02  0.62214490126E+03  0.25500000920E-02 0.  1.
</event>
<event>
 5   0  0.2917809E-03  0.1381717E+04  0.7818609E-02  0.8967160E-01
       -2   -1    0    0    0  501  0.00000000000E+00  0.00000000000E+00  0.75920876294E+03  0.75920876294E+03  0.25500000920E-02 0.  1.
        2   -1    0    0  501    0  0.00000000000E+00  0.00000000000E+00 -0.62866163673E+03  0.62866163673E+03  0.25500000920E-02 0. -1.
    10030    2    1    2    0    0  0.00000000000E+00  0.00000000000E+00  0.13054712621E+03  0.13878703997E+04  0.13817169371E+04 0.  0.
        2    1    3    3  502    0  0.30007668251E+03 -0.48397718936E+03  0.45817474636E+03  0.73089262783E+03  0.25500000920E-02 0.  1.
       -2    1    3    3    0  502 -0.30007668251E+03  0.48397718936E+03 -0.32762762015E+03  0.65697777184E+03  0.25500000920E-02 0. -1.
</event>
<event>
 5   0  0.2917809E-03  0.1427245E+04  0.7818609E-02  0.8934330E-01
        2   -1    0    0  501    0  0.00000000000E+00  0.00000000000E+00  0.10662493895E+04  0.10662493895E+04  0.25500000920E-02 0. -1.
       -2   -1    0    0    0  501  0.00000000000E+00  0.00000000000E+00 -0.47761562410E+03  0.47761562411E+03  0.25500000920E-02 0.  1.
    10030    2    1    2    0    0  0.00000000000E+00  0.00000000000E+00  0.58863376537E+03  0.15438650136E+04  0.14272454135E+04 0.  0.
        2    1    3    3  502    0 -0.70161713982E+03  0.26419369704E+02  0.15624406711E+03  0.71928909521E+03  0.25500000920E-02 0. -1.
       -2    1    3    3    0  502  0.70161713982E+03 -0.26419369704E+02  0.43238969826E+03  0.82457591836E+03  0.25500000920E-02 0.  1.
</event>
<event>
 5   0  0.3006737E-03  0.1416359E+04  0.7818609E-02  0.8942061E-01
        2   -1    0    0  501    0  0.00000000000E+00  0.00000000000E+00  0.10669479804E+04  0.10669479804E+04  0.25500000920E-02 0. -1.
       -2   -1    0    0    0  501  0.00000000000E+00  0.00000000000E+00 -0.47004951071E+03  0.47004951071E+03  0.25500000920E-02 0.  1.
    10030    2    1    2    0    0  0.00000000000E+00  0.00000000000E+00  0.59689846970E+03  0.15369974911E+04  0.14163592428E+04 0.  0.
        1    1    3    3  502    0 -0.18063611288E+03  0.64513940989E+03  0.54752964517E+03  0.86523001325E+03  0.50400001928E-02 0. -1.
       -1    1    3    3    0  502  0.18063611288E+03 -0.64513940989E+03  0.49368824532E+02  0.67176747787E+03  0.50400001928E-02 0.  1.
</event>
<event>
 5   0  0.1700207E-03  0.1350469E+04  0.7818609E-02  0.8990473E-01
       -1   -1    0    0    0  501  0.00000000000E+00  0.00000000000E+00  0.59897889575E+03  0.59897889577E+03  0.50400001928E-02 0. -1.
        1   -1    0    0  501    0  0.00000000000E+00  0.00000000000E+00 -0.76119805040E+03  0.76119805042E+03  0.50400001928E-02 0.  1.
    10030    2    1    2    0    0  0.00000000000E+00  0.00000000000E+00 -0.16221915466E+03  0.13601769462E+04  0.13504689078E+04 0.  0.
        2    1    3    3  502    0  0.30475783875E+02 -0.67263739509E+03 -0.13218634693E+03  0.68618005582E+03  0.25500000920E-02 0. -1.
       -2    1    3    3    0  502 -0.30475783875E+02  0.67263739509E+03 -0.30032807728E+02  0.67399689037E+03  0.25500000920E-02 0.  1.
</event>
<event>
 5   0  0.2760807E-03  0.1516753E+04  0.7818609E-02  0.8873388E-01
        2   -1    0    0  501    0  0.00000000000E+00  0.00000000000E+00  0.70617358904E+03  0.70617358904E+03  0.25500000920E-02 0.  1.
       -2   -1    0    0    0  501  0.00000000000E+00  0.00000000000E+00 -0.81443858076E+03  0.81443858077E+03  0.25500000920E-02 0. -1.
    10030    2    1    2    0    0  0.00000000000E+00  0.00000000000E+00 -0.10826499173E+03  0.15206121698E+04  0.15167531317E+04 0.  0.
        4    1    3    3  502    0  0.20568458230E+03 -0.72990666054E+03 -0.62122858094E+02  0.76087498506E+03  0.12699999809E+01 0. -1.
       -4    1    3    3    0  502 -0.20568458230E+03  0.72990666054E+03 -0.46142133631E+02  0.75973718475E+03  0.12699999809E+01 0.  1.
</event>
<event>
 5   0  0.2889469E-03  0.1352037E+04  0.7818609E-02  0.8989287E-01
       -2   -1    0    0    0  501  0.00000000000E+00  0.00000000000E+00  0.24894139648E+03  0.24894139649E+03  0.25500000920E-02 0.  1.
        2   -1    0    0  501    0  0.00000000000E+00  0.00000000000E+00 -0.18357783522E+04  0.18357783522E+04  0.25500000920E-02 0. -1.
    10030    2    1    2    0    0  0.00000000000E+00  0.00000000000E+00 -0.15868369557E+04  0.20847197487E+04  0.13520373170E+04 0.  0.
        5    1    3    3  502    0  0.50285342446E+03 -0.44797247004E+03 -0.88383064060E+03  0.11111793697E+04  0.46999998093E+01 0. -1.
       -5    1    3    3    0  502 -0.50285342446E+03  0.44797247004E+03 -0.70300631509E+03  0.97354037895E+03  0.46999998093E+01 0.  1.
</event>
<event>
 5   0  0.1631380E-03  0.1419541E+04  0.7818609E-02  0.8939794E-01
        1   -1    0    0  501    0  0.00000000000E+00  0.00000000000E+00  0.75613252874E+03  0.75613252876E+03  0.50400001928E-02 0.  1.
       -1   -1    0    0    0  501  0.00000000000E+00  0.00000000000E+00 -0.66625110350E+03  0.66625110352E+03  0.50400001928E-02 0. -1.
    10030    2    1    2    0    0  0.00000000000E+00  0.00000000000E+00  0.89881425241E+02  0.14223836323E+04  0.14195409564E+04 0.  0.
        3    1    3    3  502    0 -0.39580929283E+03  0.49313066962E+03  0.36797002397E+03  0.73160426622E+03  0.10100000352E+00 0.  1.
       -3    1    3    3    0  502  0.39580929283E+03 -0.49313066962E+03 -0.27808859873E+03  0.69077936605E+03  0.10100000352E+00 0. -1.
</event>
<event>
 5   0  0.2889469E-03  0.1358737E+04  0.7818609E-02  0.8984241E-01
        2   -1    0    0  501    0  0.00000000000E+00  0.00000000000E+00  0.13762170457E+04  0.13762170457E+04  0.25500000920E-02 0.  1.
       -2   -1    0    0    0  501  0.00000000000E+00  0.00000000000E+00 -0.33536972752E+03  0.33536972753E+03  0.25500000920E-02 0. -1.
    10030    2    1    2    0    0  0.00000000000E+00  0.00000000000E+00  0.10408473182E+04  0.17115867733E+04  0.13587369659E+04 0.  0.
        5    1    3    3  502    0  0.41071712026E+03 -0.28263116255E+03 -0.60879765937E+02  0.50229210906E+03  0.46999998093E+01 0. -1.
       -5    1    3    3    0  502 -0.41071712026E+03  0.28263116255E+03  0.11017270842E+04  0.12092946642E+04  0.46999998093E+01 0.  1.
</event>
<event>
 5   0  0.1560957E-03  0.1452077E+04  0.7818609E-02  0.8916962E-01
       -1   -1    0    0    0  501  0.00000000000E+00  0.00000000000E+00  0.14891634383E+04  0.14891634383E+04  0.50400001928E-02 0.  1.
        1   -1    0    0  501    0  0.00000000000E+00  0.00000000000E+00 -0.35397859074E+03  0.35397859078E+03  0.50400001928E-02 0. -1.
    10030    2    1    2    0    0  0.00000000000E+00  0.00000000000E+00  0.11351848475E+04  0.18431420291E+04  0.14520770989E+04 0.  0.
        5    1    3    3  502    0  0.25339093855E+02 -0.72447893308E+03  0.51685015285E+03  0.89031902409E+03  0.46999998093E+01 0.  1.
       -5    1    3    3    0  502 -0.25339093855E+02  0.72447893308E+03  0.61833469467E+03  0.95282300497E+03  0.46999998093E+01 0. -1.
</event>
<event>
 5   0  0.2889469E-03  0.1418237E+04  0.7818609E-02  0.8940723E-01
       -2   -1    0    0    0  501  0.00000000000E+00  0.00000000000E+00  0.48271715083E+03  0.48271715083E+03  0.25500000920E-02 0.  1.
        2   -1    0    0  501    0  0.00000000000E+00  0.00000000000E+00 -0.10417049963E+04  0.10417049963E+04  0.25500000920E-02 0. -1.
    10030    2    1    2    0    0  0.00000000000E+00  0.00000000000E+00 -0.55898784550E+03  0.15244221472E+04  0.14182367473E+04 0.  0.
        5    1    3    3  502    0 -0.56341036723E+03  0.74494582508E+02 -0.73532824201E+03  0.92936020908E+03  0.46999998093E+01 0. -1.
       -5    1    3    3    0  502  0.56341036723E+03 -0.74494582508E+02  0.17634039651E+03  0.59506193809E+03  0.46999998093E+01 0.  1.
</event>
<event>
 5   0  0.2917809E-03  0.1358550E+04  0.7818609E-02  0.8984381E-01
        2   -1    0    0  501    0  0.00000000000E+00  0.00000000000E+00  0.18958575275E+04  0.18958575275E+04  0.25500000920E-02 0. -1.
       -2   -1    0    0    0  501  0.00000000000E+00  0.00000000000E+00 -0.24338054330E+03  0.24338054331E+03  0.25500000920E-02 0.  1.
    10030    2    1    2    0    0  0.00000000000E+00  0.00000000000E+00  0.16524769842E+04  0.21392380708E+04  0.13585504556E+04 0.  0.
        2    1    3    3  502    0 -0.12686668037E+02 -0.36566801672E+03  0.17274278183E+04  0.17657522243E+04  0.25500000920E-02 0. -1.
       -2    1    3    3    0  502  0.12686668037E+02  0.36566801672E+03 -0.74950834154E+02  0.37348584651E+03  0.25500000920E-02 0.  1.
</event>
<event>
 5   0  0.1586022E-03  0.1405829E+04  0.7818609E-02  0.8949610E-01
        1   -1    0    0  501    0  0.00000000000E+00  0.00000000000E+00  0.10847476149E+04  0.10847476149E+04  0.50400001928E-02 0. -1.
       -1   -1    0    0    0  501  0.00000000000E+00  0.00000000000E+00 -0.45548723794E+03  0.45548723797E+03  0.50400001928E-02 0.  1.
    10030    2    1    2    0    0  0.00000000000E+00  0.00000000000E+00  0.62926037695E+03  0.15402348529E+04  0.14058288587E+04 0.  0.
        1    1    3    3  502    0  0.18177750385E+03 -0.22773244015E+03 -0.38620126642E+03  0.48379390593E+03  0.50400001928E-02 0.  1.
       -1    1    3    3    0  502 -0.18177750385E+03  0.22773244015E+03  0.10154616434E+04  0.10564409469E+04  0.50400001928E-02 0. -1.
</event>
<event>
 5   0  0.1631380E-03  0.8864532E+03  0.7818609E-02  0.9442676E-01
        1   -1    0    0  501    0  0.00000000000E+00  0.00000000000E+00  0.10445927668E+04  0.10445927668E+04  0.50400001928E-02 0. -1.
       -1   -1    0    0    0  501  0.00000000000E+00  0.00000000000E+00 -0.18806352721E+03  0.18806352728E+03  0.50400001928E-02 0.  1.
    10030    2    1    2    0    0  0.00000000000E+00  0.00000000000E+00  0.85652923963E+03  0.12326562941E+04  0.88645315788E+03 0.  0.
        3    1    3    3  502    0  0.21053201282E+03  0.27168612597E+02 -0.11277843790E+03  0.24037647178E+03  0.10100000352E+00 0.  1.
       -3    1    3    3    0  502 -0.21053201282E+03 -0.27168612597E+02  0.96930767752E+03  0.99227982235E+03  0.10100000352E+00 0. -1.
</event>
<event>
 5   0  0.2760807E-03  0.1396471E+04  0.7818609E-02  0.8956377E-01
       -2   -1    0    0    0  501  0.00000000000E+00  0.00000000000E+00  0.85859636938E+03  0.85859636939E+03  0.25500000920E-02 0.  1.
        2   -1    0    0  501    0  0.00000000000E+00  0.00000000000E+00 -0.56782573110E+03  0.56782573111E+03  0.25500000920E-02 0. -1.
    10030    2    1    2    0    0  0.00000000000E+00  0.00000000000E+00  0.29077063828E+03  0.14264221005E+04  0.13964714264E+04 0.  0.
        4    1    3    3  502    0  0.14586586744E+03  0.64717487883E+03 -0.77044844179E+02  0.66786952018E+03  0.12699999809E+01 0. -1.
       -4    1    3    3    0  502 -0.14586586744E+03 -0.64717487883E+03  0.36781548246E+03  0.75855258032E+03  0.12699999809E+01 0.  1.
</event>
<event>
 5   0  0.2760807E-03  0.1413461E+04  0.7818609E-02  0.8944132E-01
        2   -1    0    0  501    0  0.00000000000E+00  0.00000000000E+00  0.96432663311E+03  0.96432663311E+03  0.25500000920E-02 0.  1.
       -2   -1    0    0    0  501  0.00000000000E+00  0.00000000000E+00 -0.51794447871E+03  0.51794447872E+03  0.25500000920E-02 0. -1.
    10030    2    1    2    0    0  0.00000000000E+00  0.00000000000E+00  0.44638215440E+03  0.14822711118E+04  0.14134605128E+04 0.  0.
        4    1    3    3  502    0  0.28680073975E+03 -0.29801651373E+03  0.82414878406E+03  0.92211243238E+03  0.12699999809E+01 0.  1.
       -4    1    3    3    0  502 -0.28680073975E+03  0.29801651373E+03 -0.37776662966E+03  0.56015867945E+03  0.12699999809E+01 0. -1.
</event>
<event>
 5   0  0.3006737E-03  0.1397686E+04  0.7818609E-02  0.8955495E-01
        2   -1    0    0  501    0  0.00000000000E+00  0.00000000000E+00  0.10030597185E+04  0.10030597185E+04  0.25500000920E-02 0.  1.
       -2   -1    0    0    0  501  0.00000000000E+00  0.00000000000E+00 -0.48689175673E+03  0.48689175674E+03  0.25500000920E-02 0. -1.
    10030    2    1    2    0    0  0.00000000000E+00  0.00000000000E+00  0.51616796177E+03  0.14899514752E+04  0.13976859568E+04 0.  0.
        1    1    3    3  502    0 -0.49962266999E+03 -0.47573888620E+03  0.13922850551E+03  0.70380031044E+03  0.50400001928E-02 0. -1.
       -1    1    3    3    0  502  0.49962266999E+03  0.47573888620E+03  0.37693945626E+03  0.78615116480E+03  0.50400001928E-02 0.  1.
</event>
<event>
 5   0  0.2889469E-03  0.1403238E+04  0.7818609E-02  0.8951478E-01
        2   -1    0    0  501    0  0.00000000000E+00  0.00000000000E+00  0.36394331356E+03  0.36394331357E+03  0.25500000920E-02 0. -1.
       -2   -1    0    0    0  501  0.00000000000E+00  0.00000000000E+00 -0.13525995442E+04  0.13525995442E+04  0.25500000920E-02 0.  1.
    10030    2    1    2    0    0  0.00000000000E+00  0.00000000000E+00 -0.98865623063E+03  0.17165428578E+04  0.14032384830E+04 0.  0.
        5    1    3    3  502    0 -0.26749320570E+03  0.32192192607E+03  0.19447430612E+03  0.46155030855E+03  0.46999998093E+01 0. -1.
       -5    1    3    3    0  502  0.26749320570E+03 -0.32192192607E+03 -0.11831305367E+04  0.12549925492E+04  0.46999998093E+01 0.  1.
</event>
<event>
 5   0  0.1631380E-03  0.1282701E+04  0.7818609E-02  0.9043397E-01
        1   -1    0    0  501    0  0.00000000000E+00  0.00000000000E+00  0.13324633488E+04  0.13324633488E+04  0.50400001928E-02 0. -1.
       -1   -1    0    0    0  501  0.00000000000E+00  0.00000000000E+00 -0.30869938490E+03  0.30869938494E+03  0.50400001928E-02 0.  1.
    10030    2    1    2    0    0  0.00000000000E+00  0.00000000000E+00  0.10237639639E+04  0.16411627338E+04  0.12827012376E+04 0.  0.
        3    1    3    3  502    0  0.55895928301E+03 -0.30006421403E+03  0.39147283298E+03  0.74546965181E+03  0.10100000352E+00 0. -1.
       -3    1    3    3    0  502 -0.55895928301E+03  0.30006421403E+03  0.63229113092E+03  0.89569308195E+03  0.10100000352E+00 0.  1.
</event>
<event>
 5   0  0.1586022E-03  0.1274967E+04  0.7818609E-02  0.9049656E-01
       -1   -1    0    0    0  501  0.00000000000E+00  0.00000000000E+00  0.68093601523E+03  0.68093601525E+03  0.50400001928E-02 0.  1.
        1   -1    0    0  501    0  0.00000000000E+00  0.00000000000E+00 -0.59680361842E+03  0.59680361844E+03  0.50400001928E-02 0. -1.
    10030    2    1    2    0    0  0.00000000000E+00  0.00000000000E+00  0.84132396807E+02  0.12777396337E+04  0.12749667883E+04 0.  0.
        1    1    3    3  502    0 -0.81128564263E+02  0.36148167638E+02  0.67470492550E+03  0.68052573094E+03  0.50400001928E-02 0.  1.
       -1    1    3    3    0  502  0.81128564263E+02 -0.36148167638E+02 -0.59057252869E+03  0.59721390274E+03  0.50400001928E-02 0. -1.
</event>
<event>
 5   0  0.2917809E-03  0.1383281E+04  0.7818609E-02  0.8966010E-01
        2   -1    0    0  501    0  0.00000000000E+00  0.00000000000E+00  0.11404990278E+04  0.11404990279E+04  0.25500000920E-02 0.  1.
       -2   -1    0    0    0  501  0.00000000000E+00  0.00000000000E+00 -0.41943618763E+03  0.41943618764E+03  0.25500000920E-02 0. -1.
    10030    2    1    2    0    0  0.00000000000E+00  0.00000000000E+00  0.72106284022E+03  0.15599352155E+04  0.13832809754E+04 0.  0.
        2    1    3    3  502    0  0.16024567578E+03  0.28213061900E+03  0.10493471877E+04  0.10983650956E+04  0.25500000920E-02 0.  1.
       -2    1    3    3    0  502 -0.16024567578E+03 -0.28213061900E+03 -0.32828434750E+03  0.46157011992E+03  0.25500000920E-02 0. -1.
</event>
<event>
 5   0  0.1560957E-03  0.1385298E+04  0.7818609E-02  0.8964530E-01
        1   -1    0    0  501    0  0.00000000000E+00  0.00000000000E+00  0.90398056346E+03  0.90398056347E+03  0.50400001928E-02 0.  1.
       -1   -1    0    0    0  501  0.00000000000E+00  0.00000000000E+00 -0.53072229924E+03  0.53072229926E+03  0.50400001928E-02 0. -1.
    10030    2    1    2    0    0  0.00000000000E+00  0.00000000000E+00  0.37325826422E+03  0.14347028627E+04  0.13852980086E+04 0.  0.
        5    1    3    3  502    0 -0.55040906164E+03  0.27944433658E+03  0.51200111129E+03  0.80200155881E+03  0.46999998093E+01 0.  1.
       -5    1    3    3    0  502  0.55040906164E+03 -0.27944433658E+03 -0.13874284707E+03  0.63270130393E+03  0.46999998093E+01 0. -1.
</event>
<event>
 5   0  0.1631380E-03  0.1512465E+04  0.7818609E-02  0.8876206E-01
        1   -1    0    0  501    0  0.00000000000E+00  0.00000000000E+00  0.32442119314E+03  0.32442119318E+03  0.50400001928E-02 0. -1.
       -1   -1    0    0    0  501  0.00000000000E+00  0.00000000000E+00 -0.17627924692E+04  0.17627924692E+04  0.50400001928E-02 0.  1.
    10030    2    1    2    0    0  0.00000000000E+00  0.00000000000E+00 -0.14383712761E+04  0.20872136624E+04  0.15124645267E+04 0.  0.
        3    1    3    3  502    0  0.18756666890E+03  0.31618772689E+03  0.19280182168E+03  0.41512466388E+03  0.10100000352E+00 0. -1.
       -3    1    3    3    0  502 -0.18756666890E+03 -0.31618772689E+03 -0.16311730978E+04  0.16720889985E+04  0.10100000352E+00 0.  1.
</event>
<event>
 5   0  0.1700207E-03  0.1392021E+04  0.7818609E-02  0.8959614E-01
       -1   -1    0    0    0  501  0.00000000000E+00  0.00000000000E+00  0.55430701208E+03  0.55430701210E+03  0.50400001928E-02 0.  1.
        1   -1    0    0  501    0  0.00000000000E+00  0.00000000000E+00 -0.87393925851E+03  0.87393925852E+03  0.50400001928E-02 0. -1.
    10030    2    1    2    0    0  0.00000000000E+00  0.00000000000E+00 -0.31963224643E+03  0.14282462706E+04  0.13920210618E+04 0.  0.
        2    1    3    3  502    0  0.66445801209E+03 -0.17886976985E+03 -0.52539912651E+02  0.69011541558E+03  0.25500000920E-02 0.  1.
       -2    1    3    3    0  502 -0.66445801209E+03  0.17886976985E+03 -0.26709233378E+03  0.73813085504E+03  0.25500000920E-02 0. -1.
</event>
<event>
 5   0  0.2917809E-03  0.1402690E+04  0.7818609E-02  0.8951874E-01
       -2   -1    0    0    0  501  0.00000000000E+00  0.00000000000E+00  0.43827190789E+03  0.43827190790E+03  0.25500000920E-02 0. -1.
        2   -1    0    0  501    0  0.00000000000E+00  0.00000000000E+00 -0.11223272822E+04  0.11223272822E+04  0.25500000920E-02 0.  1.
    10030    2    1    2    0    0  0.00000000000E+00  0.00000000000E+00 -0.68405537430E+03  0.15605991901E+04  0.14026895868E+04 0.  0.
        2    1    3    3  502    0  0.18028826911E+03  0.56968050206E+03  0.66523880820E+02  0.60121972783E+03  0.25500000920E-02 0.  1.
       -2    1    3    3    0  502 -0.18028826911E+03 -0.56968050206E+03 -0.75057925512E+03  0.95937946227E+03  0.25500000920E-02 0. -1.
</event>
<event>
 5   0  0.2993993E-03  0.1257998E+04  0.7818609E-02  0.9063553E-01
        2   -1    0    0  501    0  0.00000000000E+00  0.00000000000E+00  0.28329961165E+04  0.28329961165E+04  0.25500000920E-02 0. -1.
       -2   -1    0    0    0  501  0.00000000000E+00  0.00000000000E+00 -0.13965411254E+03  0.13965411256E+03  0.25500000920E-02 0.  1.
    10030    2    1    2    0    0  0.00000000000E+00  0.00000000000E+00  0.26933420039E+04  0.29726502290E+04  0.12579977083E+04 0.  0.
        3    1    3    3  502    0 -0.89884121572E+02  0.59899856965E+03  0.94592725235E+03  0.11232349793E+04  0.10100000352E+00 0. -1.
       -3    1    3    3    0  502  0.89884121572E+02 -0.59899856965E+03  0.17474147516E+04  0.18494152497E+04  0.10100000352E+00 0.  1.
</event>
<event>
 5   0  0.1560957E-03  0.1362661E+04  0.7818609E-02  0.8981299E-01
       -1   -1    0    0    0  501  0.00000000000E+00  0.00000000000E+00  0.48076483532E+03  0.48076483535E+03  0.50400001928E-02 0.  1.
        1   -1    0    0  501    0  0.00000000000E+00  0.00000000000E+00 -0.96556755504E+03  0.96556755506E+03  0.50400001928E-02 0. -1.
    10030    2    1    2    0    0  0.00000000000E+00  0.00000000000E+00 -0.48480271972E+03  0.14463323904E+04  0.13626605250E+04 0.  0.
        5    1    3    3  502    0  0.25569491375E+03 -0.52285950711E+02 -0.91039022375E+03  0.94707241490E+03  0.46999998093E+01 0. -1.
       -5    1    3    3    0  502 -0.25569491375E+03  0.52285950711E+02  0.42558750403E+03  0.49925997551E+03  0.46999998093E+01 0.  1.
</event>
<event>
 5   0  0.1586022E-03  0.1410125E+04  0.7818609E-02  0.8946522E-01
       -1   -1    0    0    0  501  0.00000000000E+00  0.00000000000E+00  0.16861499715E+04  0.16861499715E+04  0.50400001928E-02 0. -1.
        1   -1    0    0  501    0  0.00000000000E+00  0.00000000000E+00 -0.29482134453E+03  0.29482134457E+03  0.50400001928E-02 0.  1.
    10030    2    1    2    0    0  0.00000000000E+00  0.00000000000E+00  0.13913286270E+04  0.19809713161E+04  0.14101248196E+04 0.  0.
        1    1    3    3  502    0 -0.34935441989E+03  0.35019943531E+03  0.14014724830E+04  0.14862076826E+04  0.50400001928E-02 0. -1.
       -1    1    3    3    0  502  0.34935441989E+03 -0.35019943531E+03 -0.10143856011E+02  0.49476363349E+03  0.50400001928E-02 0.  1.
</event>
<event>
 5   0  0.1631380E-03  0.1412644E+04  0.7818609E-02  0.8944717E-01
       -1   -1    0    0    0  501  0.00000000000E+00  0.00000000000E+00  0.31347610228E+03  0.31347610232E+03  0.50400001928E-02 0. -1.
        1   -1    0    0  501    0  0.00000000000E+00  0.00000000000E+00 -0.15914795032E+04  0.15914795032E+04  0.50400001928E-02 0.  1.
    10030    2    1    2    0    0  0.00000000000E+00  0.00000000000E+00 -0.12780034009E+04  0.19049556055E+04  0.14126440338E+04 0.  0.
        3    1    3    3  502    0  0.17266972750E+02  0.72346938539E+02 -0.15861837314E+04  0.15879266570E+04  0.10100000352E+00 0.  1.
       -3    1    3    3    0  502 -0.17266972750E+02 -0.72346938539E+02  0.30818033054E+03  0.31702894852E+03  0.10100000352E+00 0. -1.
</event>
<event>
 5   0  0.2889469E-03  0.1388446E+04  0.7818609E-02  0.8962224E-01
       -2   -1    0    0    0  501  0.00000000000E+00  0.00000000000E+00  0.27917120967E+03  0.27917120968E+03  0.25500000920E-02 0.  1.
        2   -1    0    0  501    0  0.00000000000E+00  0.00000000000E+00 -0.17263451160E+04  0.17263451160E+04  0.25500000920E-02 0. -1.
    10030    2    1    2    0    0  0.00000000000E+00  0.00000000000E+00 -0.14471739063E+04  0.20055163256E+04  0.13884464042E+04 0.  0.
        5    1    3    3  502    0 -0.55169559874E+03 -0.40132413430E+03 -0.53807628231E+03  0.86889428012E+03  0.46999998093E+01 0.  1.
       -5    1    3    3    0  502  0.55169559874E+03  0.40132413430E+03 -0.90909762398E+03  0.11366220455E+04  0.46999998093E+01 0. -1.
</event>
<event>
 5   0  0.1104538E-03  0.1406885E+04  0.7818609E-02  0.8948850E-01
        3   -1    0    0  501    0  0.00000000000E+00  0.00000000000E+00  0.18393449431E+04  0.18393449458E+04  0.10100000352E+00 0.  1.
       -3   -1    0    0    0  501  0.00000000000E+00  0.00000000000E+00 -0.26902570597E+03  0.26902572493E+03  0.10100000352E+00 0. -1.
    10030    2    1    2    0    0  0.00000000000E+00  0.00000000000E+00  0.15703192371E+04  0.21083706708E+04  0.14068846360E+04 0.  0.
        4    1    3    3  502    0  0.21968394242E+03 -0.16774704857E+03  0.17545519104E+04  0.17761909036E+04  0.12699999809E+01 0.  1.
       -4    1    3    3    0  502 -0.21968394242E+03  0.16774704857E+03 -0.18423267334E+03  0.33217976712E+03  0.12699999809E+01 0. -1.
</event>
<event>
 5   0  0.2917809E-03  0.1191306E+04  0.7818609E-02  0.9120501E-01
        2   -1    0    0  501    0  0.00000000000E+00  0.00000000000E+00  0.16096908497E+04  0.16096908497E+04  0.25500000920E-02 0.  1.
       -2   -1    0    0    0  501  0.00000000000E+00  0.00000000000E+00 -0.22041642811E+03  0.22041642813E+03  0.25500000920E-02 0. -1.
    10030    2    1    2    0    0  0.00000000000E+00  0.00000000000E+00  0.13892744216E+04  0.18301072778E+04  0.11913056828E+04 0.  0.
        2    1    3    3  502    0  0.11172201045E+01  0.18994739310E+03  0.15619159627E+04  0.15734238891E+04  0.25500000920E-02 0.  1.
       -2    1    3    3    0  502 -0.11172201045E+01 -0.18994739310E+03 -0.17264154110E+03  0.25668338872E+03  0.25500000920E-02 0. -1.
</event>
<event>
 5   0  0.2917809E-03  0.1352162E+04  0.7818609E-02  0.8989193E-01
        2   -1    0    0  501    0  0.00000000000E+00  0.00000000000E+00  0.38473361667E+03  0.38473361668E+03  0.25500000920E-02 0.  1.
       -2   -1    0    0    0  501  0.00000000000E+00  0.00000000000E+00 -0.11880570391E+04  0.11880570391E+04  0.25500000920E-02 0. -1.
    10030    2    1    2    0    0  0.00000000000E+00  0.00000000000E+00 -0.80332342245E+03  0.15727906558E+04  0.13521619452E+04 0.  0.
        2    1    3    3  502    0 -0.15386778458E+03 -0.32958422352E+03  0.26122575736E+03  0.44781687310E+03  0.25500000920E-02 0.  1.
       -2    1    3    3    0  502  0.15386778458E+03  0.32958422352E+03 -0.10645491798E+04  0.11249737827E+04  0.25500000920E-02 0. -1.
</event>
<event>
 5   0  0.2889469E-03  0.1414072E+04  0.7818609E-02  0.8943695E-01
       -2   -1    0    0    0  501  0.00000000000E+00  0.00000000000E+00  0.34323222953E+03  0.34323222954E+03  0.25500000920E-02 0. -1.
        2   -1    0    0  501    0  0.00000000000E+00  0.00000000000E+00 -0.14564489954E+04  0.14564489954E+04  0.25500000920E-02 0.  1.
    10030    2    1    2    0    0  0.00000000000E+00  0.00000000000E+00 -0.11132167659E+04  0.17996812250E+04  0.14140724676E+04 0.  0.
        5    1    3    3  502    0  0.16380370157E+03  0.17609732726E+03  0.28955231566E+03  0.37643665445E+03  0.46999998093E+01 0. -1.
       -5    1    3    3    0  502 -0.16380370157E+03 -0.17609732726E+03 -0.14027690816E+04  0.14232445705E+04  0.46999998093E+01 0.  1.
</event>
<event>
 5   0  0.3006737E-03  0.1525608E+04  0.7818609E-02  0.8867600E-01
        2   -1    0    0  501    0  0.00000000000E+00  0.00000000000E+00  0.18007217974E+04  0.18007217974E+04  0.25500000920E-02 0.  1.
       -2   -1    0    0    0  501  0.00000000000E+00  0.00000000000E+00 -0.32313155701E+03  0.32313155702E+03  0.25500000920E-02 0. -1.
    10030    2    1    2    0    0  0.00000000000E+00  0.00000000000E+00  0.14775902404E+04  0.21238533545E+04  0.15256081255E+04 0.  0.
        1    1    3    3  502    0 -0.58162694430E+03 -0.47329416056E+03  0.93355868618E+03  0.11974260250E+04  0.50400001928E-02 0. -1.
       -1    1    3    3    0  502  0.58162694430E+03  0.47329416056E+03  0.54403155425E+03  0.92642732947E+03  0.50400001928E-02 0.  1.
</event>
<event>
 5   0  0.2917809E-03  0.1408406E+04  0.7818609E-02  0.8947756E-01
        2   -1    0    0  501    0  0.00000000000E+00  0.00000000000E+00  0.11871853498E+04  0.11871853498E+04  0.25500000920E-02 0. -1.
       -2   -1    0    0    0  501  0.00000000000E+00  0.00000000000E+00 -0.41771226670E+03  0.41771226670E+03  0.25500000920E-02 0.  1.
    10030    2    1    2    0    0  0.00000000000E+00  0.00000000000E+00  0.76947308315E+03  0.16048976165E+04  0.14084060259E+04 0.  0.
        2    1    3    3  502    0 -0.15418567872E+03 -0.25186344187E+03  0.11132176690E+04  0.11517213184E+04  0.25500000920E-02 0. -1.
       -2    1    3    3    0  502  0.15418567872E+03  0.25186344187E+03 -0.34374458582E+03  0.45317629810E+03  0.25500000920E-02 0.  1.
</event>
<event>
 5   0  0.3006737E-03  0.1340707E+04  0.7818609E-02  0.8997893E-01
       -2   -1    0    0    0  501  0.00000000000E+00  0.00000000000E+00  0.39858580358E+03  0.39858580359E+03  0.25500000920E-02 0. -1.
        2   -1    0    0  501    0  0.00000000000E+00  0.00000000000E+00 -0.11274204833E+04  0.11274204833E+04  0.25500000920E-02 0.  1.
    10030    2    1    2    0    0  0.00000000000E+00  0.00000000000E+00 -0.72883467974E+03  0.15260062869E+04  0.13407069767E+04 0.  0.
        1    1    3    3  502    0  0.57073311172E+03 -0.35161495017E+03 -0.36201862977E+03  0.76185749738E+03  0.50400001928E-02 0.  1.
       -1    1    3    3    0  502 -0.57073311172E+03  0.35161495017E+03 -0.36681604997E+03  0.76414878952E+03  0.50400001928E-02 0. -1.
</event>
<event>
 5   0  0.1644571E-03  0.1379493E+04  0.7818609E-02  0.8968798E-01
        1   -1    0    0  501    0  0.00000000000E+00  0.00000000000E+00  0.74534982404E+03  0.74534982406E+03  0.50400001928E-02 0. -1.
       -1   -1    0    0    0  501  0.00000000000E+00  0.00000000000E+00 -0.63829133975E+03  0.63829133977E+03  0.50400001928E-02 0.  1.
    10030    2    1    2    0    0  0.00000000000E+00  0.00000000000E+00  0.10705848430E+03  0.13836411638E+04  0.13794931501E+04 0.  0.
        4    1    3    3  502    0  0.41063160397E+03  0.40440934252E+03  0.43359276093E+03  0.72122779046E+03  0.12699999809E+01 0. -1.
       -4    1    3    3    0  502 -0.41063160397E+03 -0.40440934252E+03 -0.32653427663E+03  0.66241337337E+03  0.12699999809E+01 0.  1.
</event>
<event>
 5   0  0.1644571E-03  0.1392306E+04  0.7818609E-02  0.8959406E-01
       -1   -1    0    0    0  501  0.00000000000E+00  0.00000000000E+00  0.11305416098E+04  0.11305416098E+04  0.50400001928E-02 0.  1.
        1   -1    0    0  501    0  0.00000000000E+00  0.00000000000E+00 -0.42867003812E+03  0.42867003815E+03  0.50400001928E-02 0. -1.
    10030    2    1    2    0    0  0.00000000000E+00  0.00000000000E+00  0.70187157171E+03  0.15592116480E+04  0.13923064534E+04 0.  0.
        4    1    3    3  502    0  0.95338203823E+02  0.17452471447E+03  0.10980534546E+04  0.11159172241E+04  0.12699999809E+01 0.  1.
       -4    1    3    3    0  502 -0.95338203823E+02 -0.17452471447E+03 -0.39618188285E+03  0.44329442390E+03  0.12699999809E+01 0. -1.
</event>
<event>
 5   0  0.1644571E-03  0.1417364E+04  0.7818609E-02  0.8941344E-01
        1   -1    0    0  501    0  0.00000000000E+00  0.00000000000E+00  0.96351430740E+03  0.96351430741E+03  0.50400001928E-02 0.  1.
       -1   -1    0    0    0  501  0.00000000000E+00  0.00000000000E+00 -0.52124843560E+03  0.52124843563E+03  0.50400001928E-02 0. -1.
    10030    2    1    2    0    0  0.00000000000E+00  0.00000000000E+00  0.44226587179E+03  0.14847627430E+04  0.14173642093E+04 0.  0.
        4    1    3    3  502    0  0.67622944729E+03  0.15402518813E+03  0.37372602636E+03  0.78783423360E+03  0.12699999809E+01 0. -1.
       -4    1    3    3    0  502 -0.67622944729E+03 -0.15402518813E+03  0.68539845429E+02  0.69692850944E+03  0.12699999809E+01 0.  1.
</event>
<event>
 5   0  0.2760807E-03  0.1412828E+04  0.7818609E-02  0.8944585E-01
       -2   -1    0    0    0  501  0.00000000000E+00  0.00000000000E+00  0.37305783227E+03  0.37305783228E+03  0.25500000920E-02 0. -1.
        2   -1    0    0  501    0  0.00000000000E+00  0.00000000000E+00 -0.13376506935E+04  0.13376506935E+04  0.25500000920E-02 0.  1.
    10030    2    1    2    0    0  0.00000000000E+00  0.00000000000E+00 -0.96459286120E+03  0.17107085258E+04  0.14128284652E+04 0.  0.
        4    1    3    3  502    0  0.40026590674E+03 -0.40970542720E+03 -0.98292859722E+03  0.11376385952E+04  0.12699999809E+01 0.  1.
       -4    1    3    3    0  502 -0.40026590674E+03  0.40970542720E+03  0.18335736023E+02  0.57306993054E+03  0.12699999809E+01 0. -1.
</event>
<event>
 5   0  0.1560957E-03  0.1402680E+04  0.7818609E-02  0.8951881E-01
        1   -1    0    0  501    0  0.00000000000E+00  0.00000000000E+00  0.15459116428E+04  0.15459116428E+04  0.50400001928E-02 0. -1.
       -1   -1    0    0    0  501  0.00000000000E+00  0.00000000000E+00 -0.31817962082E+03  0.31817962086E+03  0.50400001928E-02 0.  1.
    10030    2    1    2    0    0  0.00000000000E+00  0.00000000000E+00  0.12277320220E+04  0.18640912636E+04  0.14026796931E+04 0.  0.
        5    1    3    3  502    0  0.32480616612E+03 -0.60182172181E+03  0.82046137475E+03  0.10681139395E+04  0.46999998093E+01 0. -1.
       -5    1    3    3    0  502 -0.32480616612E+03  0.60182172181E+03  0.40727064721E+03  0.79597732410E+03  0.46999998093E+01 0.  1.
</event>
<event>
 5   0  0.1700207E-03  0.1444732E+04  0.7818609E-02  0.8922061E-01
        1   -1    0    0  501    0  0.00000000000E+00  0.00000000000E+00  0.42295104834E+03  0.42295104837E+03  0.50400001928E-02 0. -1.
       -1   -1    0    0    0  501  0.00000000000E+00  0.00000000000E+00 -0.12337427624E+04  0.12337427624E+04  0.50400001928E-02 0.  1.
    10030    2    1    2    0    0  0.00000000000E+00  0.00000000000E+00 -0.81079171409E+03  0.16566938108E+04  0.14447322171E+04 0.  0.
        2    1    3    3  502    0  0.46555998163E+03  0.53355439974E+03 -0.56912469196E+03  0.90847636677E+03  0.25500000920E-02 0.  1.
       -2    1    3    3    0  502 -0.46555998163E+03 -0.53355439974E+03 -0.24166702213E+03  0.74821744404E+03  0.25500000920E-02 0. -1.
</event>
<event>
 5   0  0.1644571E-03  0.1439636E+04  0.7818609E-02  0.8925618E-01
        1   -1    0    0  501    0  0.00000000000E+00  0.00000000000E+00  0.50794012515E+03  0.50794012517E+03  0.50400001928E-02 0. -1.
       -1   -1    0    0    0  501  0.00000000000E+00  0.00000000000E+00 -0.10200764409E+04  0.10200764409E+04  0.50400001928E-02 0.  1.
    10030    2    1    2    0    0  0.00000000000E+00  0.00000000000E+00 -0.51213631573E+03  0.15280165661E+04  0.14396357249E+04 0.  0.
        4    1    3    3  502    0  0.11443441699E+03 -0.30395386705E+03  0.42574900026E+03  0.53548764057E+03  0.12699999809E+01 0. -1.
       -4    1    3    3    0  502 -0.11443441699E+03  0.30395386705E+03 -0.93788531599E+03  0.99252892549E+03  0.12699999809E+01 0.  1.
</event>
<event>
 5   0  0.1644571E-03  0.1411284E+04  0.7818609E-02  0.8945691E-01
       -1   -1    0    0    0  501  0.00000000000E+00  0.00000000000E+00  0.15167038540E+04  0.15167038540E+04  0.50400001928E-02 0.  1.
        1   -1    0    0  501    0  0.00000000000E+00  0.00000000000E+00 -0.32829785909E+03  0.32829785913E+03  0.50400001928E-02 0. -1.
    10030    2    1    2    0    0  0.00000000000E+00  0.00000000000E+00  0.11884059949E+04  0.18450017132E+04  0.14112839944E+04 0.  0.
        4    1    3    3  502    0 -0.47806646752E+03  0.35976893086E+03  0.10832666321E+04  0.12375174504E+04  0.12699999809E+01 0.  1.
       -4    1    3    3    0  502  0.47806646752E+03 -0.35976893086E+03  0.10513936285E+03  0.60748426276E+03  0.12699999809E+01 0. -1.
</event>
<event>
 5   0  0.2993993E-03  0.1400344E+04  0.7818609E-02  0.8953570E-01
       -2   -1    0    0    0  501  0.00000000000E+00  0.00000000000E+00  0.39749796722E+03  0.39749796723E+03  0.25500000920E-02 0. -1.
        2   -1    0    0  501    0  0.00000000000E+00  0.00000000000E+00 -0.12333158827E+04  0.12333158827E+04  0.25500000920E-02 0.  1.
    10030    2    1    2    0    0  0.00000000000E+00  0.00000000000E+00 -0.83581791548E+03  0.16308138499E+04  0.14003436097E+04 0.  0.
        3    1    3    3  502    0 -0.24026781390E+03 -0.65414668778E+03 -0.33888858639E+03  0.77490773368E+03  0.10100000352E+00 0.  1.
       -3    1    3    3    0  502  0.24026781390E+03  0.65414668778E+03 -0.49692932909E+03  0.85590611625E+03  0.10100000352E+00 0. -1.
</event>
<event>
 5   0  0.1700207E-03  0.1426978E+04  0.7818609E-02  0.8934519E-01
        1   -1    0    0  501    0  0.00000000000E+00  0.00000000000E+00  0.55343502150E+03  0.55343502152E+03  0.50400001928E-02 0.  1.
       -1   -1    0    0    0  501  0.00000000000E+00  0.00000000000E+00 -0.91983086640E+03  0.91983086641E+03  0.50400001928E-02 0. -1.
    10030    2    1    2    0    0  0.00000000000E+00  0.00000000000E+00 -0.36639584490E+03  0.14732658879E+04  0.14269780872E+04 0.  0.
        2    1    3    3  502    0 -0.57755018487E+03 -0.23965767981E+03  0.17155611751E+03  0.64840691005E+03  0.25500000920E-02 0.  1.
       -2    1    3    3    0  502  0.57755018487E+03  0.23965767981E+03 -0.53795196241E+03  0.82485897789E+03  0.25500000920E-02 0. -1.
</event>
<event>
 5   0  0.2993993E-03  0.1398940E+04  0.7818609E-02  0.8954586E-01
        2   -1    0    0  501    0  0.00000000000E+00  0.00000000000E+00  0.12091023165E+04  0.12091023165E+04  0.25500000920E-02 0.  1.
       -2   -1    0    0    0  501  0.00000000000E+00  0.00000000000E+00 -0.40464617236E+03  0.40464617237E+03  0.25500000920E-02 0. -1.
    10030    2    1    2    0    0  0.00000000000E+00  0.00000000000E+00  0.80445614418E+03  0.16137484889E+04  0.13989404911E+04 0.  0.
        3    1    3    3  502    0 -0.19270695054E+03  0.87759639495E+02 -0.36678521012E+03  0.42351992122E+03  0.10100000352E+00 0. -1.
       -3    1    3    3    0  502  0.19270695054E+03 -0.87759639495E+02  0.11712413543E+04  0.11902285677E+04  0.10100000352E+00 0.  1.
</event>
<event>
 5   0  0.1560957E-03  0.1458161E+04  0.7818609E-02  0.8912762E-01
        1   -1    0    0  501    0  0.00000000000E+00  0.00000000000E+00  0.69900377860E+03  0.69900377862E+03  0.50400001928E-02 0.  1.
       -1   -1    0    0    0  501  0.00000000000E+00  0.00000000000E+00 -0.76045109560E+03  0.76045109562E+03  0.50400001928E-02 0. -1.
    10030    2    1    2    0    0  0.00000000000E+00  0.00000000000E+00 -0.61447316997E+02  0.14594548742E+04  0.14581607446E+04 0.  0.
        5    1    3    3  502    0  0.23855802024E+03 -0.59973854092E+02 -0.71764851819E+03  0.75864898197E+03  0.46999998093E+01 0. -1.
       -5    1    3    3    0  502 -0.23855802024E+03  0.59973854092E+02  0.65620120119E+03  0.70080589227E+03  0.46999998093E+01 0.  1.
</event>
<event>
 5   0  0.2993993E-03  0.1379320E+04  0.7818609E-02  0.8968925E-01
       -2   -1    0    0    0  501  0.00000000000E+00  0.00000000000E+00  0.64429768257E+03  0.64429768258E+03  0.25500000920E-02 0. -1.
        2   -1    0    0  501    0  0.00000000000E+00  0.00000000000E+00 -0.73821612750E+03  0.73821612750E+03  0.25500000920E-02 0.  1.
    10030    2    1    2    0    0  0.00000000000E+00  0.00000000000E+00 -0.93918444920E+02  0.13825138101E+04  0.13793200357E+04 0.  0.
        3    1    3    3  502    0 -0.23156607623E+03 -0.41387513824E+03 -0.54883355411E+03  0.72535078275E+03  0.10100000352E+00 0.  1.
       -3    1    3    3    0  502  0.23156607623E+03  0.41387513824E+03  0.45491510919E+03  0.65716302733E+03  0.10100000352E+00 0. -1.
</event>
<event>
 5   0  0.1631380E-03  0.1419507E+04  0.7818609E-02  0.8939818E-01
        1   -1    0    0  501    0  0.00000000000E+00  0.00000000000E+00  0.29278896905E+03  0.29278896909E+03  0.50400001928E-02 0.  1.
       -1   -1    0    0    0  501  0.00000000000E+00  0.00000000000E+00 -0.17205237276E+04  0.17205237276E+04  0.50400001928E-02 0. -1.
    10030    2    1    2    0    0  0.00000000000E+00  0.00000000000E+00 -0.14277347586E+04  0.20133126967E+04  0.14195074758E+04 0.  0.
        3    1    3    3  502    0 -0.83619609541E+02 -0.20335959659E+03  0.24326385499E+03  0.32790955760E+03  0.10100000352E+00 0.  1.
       -3    1    3    3    0  502  0.83619609541E+02  0.20335959659E+03 -0.16709986135E+04  0.16854031391E+04  0.10100000352E+00 0. -1.
</event>
<event>
 5   0  0.1560957E-03  0.1381067E+04  0.7818609E-02  0.8967638E-01
       -1   -1    0    0    0  501  0.00000000000E+00  0.00000000000E+00  0.17534164742E+03  0.17534164749E+03  0.50400001928E-02 0. -1.
        1   -1    0    0  501    0  0.00000000000E+00  0.00000000000E+00 -0.27194705558E+04  0.27194705558E+04  0.50400001928E-02 0.  1.
    10030    2    1    2    0    0  0.00000000000E+00  0.00000000000E+00 -0.25441289084E+04  0.28948122033E+04  0.13810669028E+04 0.  0.
        5    1    3    3  502    0  0.55377492169E+03  0.40087354810E+03 -0.10683237821E+04  0.12683469789E+04  0.46999998093E+01 0.  1.
       -5    1    3    3    0  502 -0.55377492169E+03 -0.40087354810E+03 -0.14758051263E+04  0.16264652245E+04  0.46999998093E+01 0. -1.
</event>
<event>
 5   0  0.2889469E-03  0.1419353E+04  0.7818609E-02  0.8939928E-01
        2   -1    0    0  501    0  0.00000000000E+00  0.00000000000E+00  0.17393329228E+04  0.17393329228E+04  0.25500000920E-02 0.  1.
       -2   -1    0    0    0  501  0.00000000000E+00  0.00000000000E+00 -0.28955953283E+03  0.28955953284E+03  0.25500000920E-02 0. -1.
    10030    2    1    2    0    0  0.00000000000E+00  0.00000000000E+00  0.14497733900E+04  0.20288924556E+04  0.14193525687E+04 0.  0.
        5    1    3    3  502    0 -0.54977551613E+03 -0.19238616839E+03  0.13043918050E+04  0.14285396834E+04  0.46999998093E+01 0.  1.
       -5    1    3    3    0  502  0.54977551613E+03  0.19238616839E+03  0.14538158493E+03  0.60035277226E+03  0.46999998093E+01 0. -1.
</event>
<event>
 5   0  0.1631380E-03  0.1392300E+04  0.7818609E-02  0.8959411E-01
        1   -1    0    0  501    0  0.00000000000E+00  0.00000000000E+00  0.90940020609E+03  0.90940020611E+03  0.50400001928E-02 0.  1.
       -1   -1    0    0    0  501  0.00000000000E+00  0.00000000000E+00 -0.53290623525E+03  0.53290623527E+03  0.50400001928E-02 0. -1.
    10030    2    1    2    0    0  0.00000000000E+00  0.00000000000E+00  0.37649397084E+03  0.14423064414E+04  0.13923003127E+04 0.  0.
        3    1    3    3  502    0 -0.58120875016E+03 -0.29784252277E+03  0.43796779399E+03  0.78633935321E+03  0.10100000352E+00 0.  1.
       -3    1    3    3    0  502  0.58120875016E+03  0.29784252277E+03 -0.61473823150E+02  0.65596708817E+03  0.10100000352E+00 0. -1.
</event>
<event>
 5   0  0.1700207E-03  0.1386923E+04  0.7818609E-02  0.8963339E-01
       -1   -1    0    0    0  501  0.00000000000E+00  0.00000000000E+00  0.80500725064E+03  0.80500725066E+03  0.50400001928E-02 0.  1.
        1   -1    0    0  501    0  0.00000000000E+00  0.00000000000E+00 -0.59737227783E+03  0.59737227786E+03  0.50400001928E-02 0. -1.
    10030    2    1    2    0    0  0.00000000000E+00  0.00000000000E+00  0.20763497281E+03  0.14023795285E+04  0.13869232351E+04 0.  0.
        2    1    3    3  502    0  0.21650629771E+03 -0.42278117305E+03 -0.40705572339E+03  0.62555036503E+03  0.25500000920E-02 0.  1.
       -2    1    3    3    0  502 -0.21650629771E+03  0.42278117305E+03  0.61469069620E+03  0.77682916349E+03  0.25500000920E-02 0. -1.
</event>
<event>
 5   0  0.2917809E-03  0.1400991E+04  0.7818609E-02  0.8953101E-01
       -2   -1    0    0    0  501  0.00000000000E+00  0.00000000000E+00  0.44304224036E+03  0.44304224037E+03  0.25500000920E-02 0. -1.
        2   -1    0    0  501    0  0.00000000000E+00  0.00000000000E+00 -0.11075561577E+04  0.11075561577E+04  0.25500000920E-02 0.  1.
    10030    2    1    2    0    0  0.00000000000E+00  0.00000000000E+00 -0.66451391736E+03  0.15505983981E+04  0.14009913082E+04 0.  0.
        2    1    3    3  502    0  0.13805978187E+03  0.60352254154E+01  0.42780590689E+03  0.44957181995E+03  0.25500000920E-02 0. -1.
       -2    1    3    3    0  502 -0.13805978187E+03 -0.60352254154E+01 -0.10923198242E+04  0.11010265781E+04  0.25500000920E-02 0.  1.
</event>
<event>
 5   0  0.2917809E-03  0.1408736E+04  0.7818609E-02  0.8947519E-01
       -2   -1    0    0    0  501  0.00000000000E+00  0.00000000000E+00  0.25714678138E+03  0.25714678139E+03  0.25500000920E-02 0. -1.
        2   -1    0    0  501    0  0.00000000000E+00  0.00000000000E+00 -0.19293808122E+04  0.19293808122E+04  0.25500000920E-02 0.  1.
    10030    2    1    2    0    0  0.00000000000E+00  0.00000000000E+00 -0.16722340308E+04  0.21865275936E+04  0.14087356969E+04 0.  0.
        2    1    3    3  502    0 -0.68818571691E+03 -0.80330707259E+02 -0.63928841102E+03  0.94273128513E+03  0.25500000920E-02 0. -1.
       -2    1    3    3    0  502  0.68818571691E+03  0.80330707259E+02 -0.10329456198E+04  0.12437963085E+04  0.25500000920E-02 0.  1.
</event>
<event>
 5   0  0.2760807E-03  0.1399414E+04  0.7818609E-02  0.8954243E-01
       -2   -1    0    0    0  501  0.00000000000E+00  0.00000000000E+00  0.17858376126E+04  0.17858376126E+04  0.25500000920E-02 0.  1.
        2   -1    0    0  501    0  0.00000000000E+00  0.00000000000E+00 -0.27415127857E+03  0.27415127858E+03  0.25500000920E-02 0. -1.
    10030    2    1    2    0    0  0.00000000000E+00  0.00000000000E+00  0.15116863340E+04  0.20599888912E+04  0.13994136841E+04 0.  0.
        4    1    3    3  502    0 -0.35246178794E+03  0.57383806045E+03  0.10354086357E+04  0.12351486094E+04  0.12699999809E+01 0. -1.
       -4    1    3    3    0  502  0.35246178794E+03 -0.57383806045E+03  0.47627769832E+03  0.82484028175E+03  0.12699999809E+01 0.  1.
</event>
<event>
 5   0  0.3006737E-03  0.1400101E+04  0.7818609E-02  0.8953746E-01
       -2   -1    0    0    0  501  0.00000000000E+00  0.00000000000E+00  0.58330903941E+03  0.58330903942E+03  0.25500000920E-02 0. -1.
        2   -1    0    0  501    0  0.00000000000E+00  0.00000000000E+00 -0.84015586465E+03  0.84015586466E+03  0.25500000920E-02 0.  1.
    10030    2    1    2    0    0  0.00000000000E+00  0.00000000000E+00 -0.25684682524E+03  0.14234649041E+04  0.14001007255E+04 0.  0.
        1    1    3    3  502    0  0.11859142191E+03 -0.63349813870E+03  0.14942575439E+03  0.66159796946E+03  0.50400001928E-02 0. -1.
       -1    1    3    3    0  502 -0.11859142191E+03  0.63349813870E+03 -0.40627257962E+03  0.76186693462E+03  0.50400001928E-02 0.  1.
</event>
<event>
 5   0  0.1104538E-03  0.1368366E+04  0.7818609E-02  0.8977040E-01
       -4   -1    0    0    0  501  0.00000000000E+00  0.00000000000E+00  0.16341891151E+04  0.16341896086E+04  0.12699999809E+01 0. -1.
        4   -1    0    0  501    0  0.00000000000E+00  0.00000000000E+00 -0.28644388662E+03  0.28644670199E+03  0.12699999809E+01 0.  1.
    10030    2    1    2    0    0  0.00000000000E+00  0.00000000000E+00  0.13477452285E+04  0.19206363106E+04  0.13683664117E+04 0.  0.
        2    1    3    3  502    0 -0.57539848930E+03  0.26762538038E+02  0.15566735501E+03  0.59668415460E+03  0.25500000920E-02 0.  1.
       -2    1    3    3    0  502  0.57539848930E+03 -0.26762538038E+02  0.11920778735E+04  0.13239521560E+04  0.25500000920E-02 0. -1.
</event>
<event>
 5   0  0.2760807E-03  0.1123949E+04  0.7818609E-02  0.9182159E-01
       -2   -1    0    0    0  501  0.00000000000E+00  0.00000000000E+00  0.37407959951E+03  0.37407959952E+03  0.25500000920E-02 0. -1.
        2   -1    0    0  501    0  0.00000000000E+00  0.00000000000E+00 -0.84424694667E+03  0.84424694668E+03  0.25500000920E-02 0.  1.
    10030    2    1    2    0    0  0.00000000000E+00  0.00000000000E+00 -0.47016734716E+03  0.12183265462E+04  0.11239493934E+04 0.  0.
        4    1    3    3  502    0 -0.30776586898E+03 -0.46894539624E+03 -0.19777982069E+03  0.59476725291E+03  0.12699999809E+01 0.  1.
       -4    1    3    3    0  502  0.30776586898E+03  0.46894539624E+03 -0.27238752647E+03  0.62355929329E+03  0.12699999809E+01 0. -1.
</event>
<event>
 5   0  0.3006737E-03  0.1456309E+04  0.7818609E-02  0.8914038E-01
       -2   -1    0    0    0  501  0.00000000000E+00  0.00000000000E+00  0.52595003649E+03  0.52595003649E+03  0.25500000920E-02 0. -1.
        2   -1    0    0  501    0  0.00000000000E+00  0.00000000000E+00 -0.10080975689E+04  0.10080975689E+04  0.25500000920E-02 0.  1.
    10030    2    1    2    0    0  0.00000000000E+00  0.00000000000E+00 -0.48214753243E+03  0.15340476054E+04  0.14563089688E+04 0.  0.
        1    1    3    3  502    0  0.19769433961E+03 -0.69770104167E+03 -0.31046235074E+03  0.78883247063E+03  0.50400001928E-02 0.  1.
       -1    1    3    3    0  502 -0.19769433961E+03  0.69770104167E+03 -0.17168518168E+03  0.74521513478E+03  0.50400001928E-02 0. -1.
</event>
<event>
 5   0  0.1104538E-03  0.1369749E+04  0.7818609E-02  0.8976012E-01
        3   -1    0    0  501    0  0.00000000000E+00  0.00000000000E+00  0.10075006457E+04  0.10075006508E+04  0.10100000352E+00 0.  1.
       -3   -1    0    0    0  501  0.00000000000E+00  0.00000000000E+00 -0.46556100981E+03  0.46556102077E+03  0.10100000352E+00 0. -1.
    10030    2    1    2    0    0  0.00000000000E+00  0.00000000000E+00  0.54193963588E+03  0.14730616715E+04  0.13697489256E+04 0.  0.
        1    1    3    3  502    0 -0.39267871791E+03 -0.55587400178E+03  0.35329810699E+03  0.76681942711E+03  0.50400001928E-02 0.  1.
       -1    1    3    3    0  502  0.39267871791E+03  0.55587400178E+03  0.18864152889E+03  0.70624224442E+03  0.50400001928E-02 0. -1.
</event>
<event>
 5   0  0.1104538E-03  0.1411215E+04  0.7818609E-02  0.8945740E-01
        3   -1    0    0  501    0  0.00000000000E+00  0.00000000000E+00  0.55130668496E+03  0.55130669421E+03  0.10100000352E+00 0.  1.
       -3   -1    0    0    0  501  0.00000000000E+00  0.00000000000E+00 -0.90309475981E+03  0.90309476545E+03  0.10100000352E+00 0. -1.
    10030    2    1    2    0    0  0.00000000000E+00  0.00000000000E+00 -0.35178807485E+03  0.14544014597E+04  0.14112153472E+04 0.  0.
        4    1    3    3  502    0  0.54853952613E+03  0.91710563025E+02  0.27164618709E+03  0.61895048506E+03  0.12699999809E+01 0. -1.
       -4    1    3    3    0  502 -0.54853952613E+03 -0.91710563025E+02 -0.62343426194E+03  0.83545097460E+03  0.12699999809E+01 0.  1.
</event>
<event>
 5   0  0.1631380E-03  0.1377421E+04  0.7818609E-02  0.8970327E-01
       -1   -1    0    0    0  501  0.00000000000E+00  0.00000000000E+00  0.10442415903E+04  0.10442415903E+04  0.50400001928E-02 0. -1.
        1   -1    0    0  501    0  0.00000000000E+00  0.00000000000E+00 -0.45422631653E+03  0.45422631656E+03  0.50400001928E-02 0.  1.
    10030    2    1    2    0    0  0.00000000000E+00  0.00000000000E+00  0.59001527373E+03  0.14984679068E+04  0.13774207943E+04 0.  0.
        3    1    3    3  502    0  0.38713793340E+03 -0.52862666049E+03  0.64233342834E+02  0.65836757073E+03  0.10100000352E+00 0.  1.
       -3    1    3    3    0  502 -0.38713793340E+03  0.52862666049E+03  0.52578193089E+03  0.84010033610E+03  0.10100000352E+00 0. -1.
</event>
<event>
 5   0  0.2889469E-03  0.1407019E+04  0.7818609E-02  0.8948753E-01
       -2   -1    0    0    0  501  0.00000000000E+00  0.00000000000E+00  0.28764368334E+03  0.28764368336E+03  0.25500000920E-02 0.  1.
        2   -1    0    0  501    0  0.00000000000E+00  0.00000000000E+00 -0.17206213174E+04  0.17206213174E+04  0.25500000920E-02 0. -1.
    10030    2    1    2    0    0  0.00000000000E+00  0.00000000000E+00 -0.14329776340E+04  0.20082650007E+04  0.14070193366E+04 0.  0.
        5    1    3    3  502    0 -0.65583999852E+03  0.21022443263E+02 -0.10785208716E+04  0.12624568933E+04  0.46999998093E+01 0. -1.
       -5    1    3    3    0  502  0.65583999852E+03 -0.21022443263E+02 -0.35445676240E+03  0.74580810748E+03  0.46999998093E+01 0.  1.
</event>
<event>
 5   0  0.1644571E-03  0.1345618E+04  0.7818609E-02  0.8994152E-01
       -1   -1    0    0    0  501  0.00000000000E+00  0.00000000000E+00  0.44299808165E+03  0.44299808168E+03  0.50400001928E-02 0. -1.
        1   -1    0    0  501    0  0.00000000000E+00  0.00000000000E+00 -0.10218367462E+04  0.10218367462E+04  0.50400001928E-02 0.  1.
    10030    2    1    2    0    0  0.00000000000E+00  0.00000000000E+00 -0.57883866457E+03  0.14648348279E+04  0.13456176550E+04 0.  0.
        4    1    3    3  502    0  0.24208104505E+03  0.60609029847E+03 -0.46736883276E+03  0.80273527455E+03  0.12699999809E+01 0.  1.
       -4    1    3    3    0  502 -0.24208104505E+03 -0.60609029847E+03 -0.11146983181E+03  0.66209955337E+03  0.12699999809E+01 0. -1.
</event>
<event>
 5   0  0.3006737E-03  0.1404342E+04  0.7818609E-02  0.8950682E-01
        2   -1    0    0  501    0  0.00000000000E+00  0.00000000000E+00  0.11165736943E+04  0.11165736943E+04  0.25500000920E-02 0. -1.
       -2   -1    0    0    0  501  0.00000000000E+00  0.00000000000E+00 -0.44156866698E+03  0.44156866699E+03  0.25500000920E-02 0.  1.
    10030    2    1    2    0    0  0.00000000000E+00  0.00000000000E+00  0.67500502733E+03  0.15581423613E+04  0.14043417786E+04 0.  0.
        1    1    3    3  502    0  0.99748549631E+02  0.60485409253E+03  0.71741433018E+03  0.94365330899E+03  0.50400001928E-02 0. -1.
       -1    1    3    3    0  502 -0.99748549631E+02 -0.60485409253E+03 -0.42409302853E+02  0.61448905230E+03  0.50400001928E-02 0.  1.
</event>
<event>
 5   0  0.1104538E-03  0.8686888E+03  0.7818609E-02  0.9465591E-01
       -3   -1    0    0    0  501  0.00000000000E+00  0.00000000000E+00  0.33920571502E+03  0.33920573005E+03  0.10100000352E+00 0. -1.
        3   -1    0    0  501    0  0.00000000000E+00  0.00000000000E+00 -0.55616707802E+03  0.55616708719E+03  0.10100000352E+00 0.  1.
    10030    2    1    2    0    0  0.00000000000E+00  0.00000000000E+00 -0.21696136300E+03  0.89537281724E+03  0.86868881012E+03 0.  0.
        5    1    3    3  502    0 -0.37993618390E+03  0.15302994395E+03  0.40397559099E+02  0.41161112760E+03  0.46999998093E+01 0. -1.
       -5    1    3    3    0  502  0.37993618390E+03 -0.15302994395E+03 -0.25735892210E+03  0.48376168964E+03  0.46999998093E+01 0.  1.
</event>
<event>
 5   0  0.2917809E-03  0.1495964E+04  0.7818609E-02  0.8887141E-01
       -2   -1    0    0    0  501  0.00000000000E+00  0.00000000000E+00  0.38401156640E+03  0.38401156640E+03  0.25500000920E-02 0.  1.
        2   -1    0    0  501    0  0.00000000000E+00  0.00000000000E+00 -0.14569279742E+04  0.14569279742E+04  0.25500000920E-02 0. -1.
    10030    2    1    2    0    0  0.00000000000E+00  0.00000000000E+00 -0.10729164078E+04  0.18409395406E+04  0.14959641620E+04 0.  0.
        2    1    3    3  502    0 -0.72211739608E+03  0.56038207251E+02 -0.30661714690E+03  0.78651629937E+03  0.25500000920E-02 0. -1.
       -2    1    3    3    0  502  0.72211739608E+03 -0.56038207251E+02 -0.76629926091E+03  0.10544232412E+04  0.25500000920E-02 0.  1.
</event>
<event>
 5   0  0.1560957E-03  0.1411703E+04  0.7818609E-02  0.8945391E-01
        1   -1    0    0  501    0  0.00000000000E+00  0.00000000000E+00  0.87944659151E+03  0.87944659152E+03  0.50400001928E-02 0.  1.
       -1   -1    0    0    0  501  0.00000000000E+00  0.00000000000E+00 -0.56652247571E+03  0.56652247573E+03  0.50400001928E-02 0. -1.
    10030    2    1    2    0    0  0.00000000000E+00  0.00000000000E+00  0.31292411580E+03  0.14459690673E+04  0.14117028870E+04 0.  0.
        5    1    3    3  502    0  0.69930865766E+03  0.74906626731E+02  0.95343176655E+02  0.70975771412E+03  0.46999998093E+01 0.  1.
       -5    1    3    3    0  502 -0.69930865766E+03 -0.74906626731E+02  0.21758093914E+03  0.73621135314E+03  0.46999998093E+01 0. -1.
</event>
<event>
 5   0  0.2760807E-03  0.1042466E+04  0.7818609E-02  0.9263157E-01
        2   -1    0    0  501    0  0.00000000000E+00  0.00000000000E+00  0.50829419637E+03  0.50829419638E+03  0.25500000920E-02 0.  1.
       -2   -1    0    0    0  501  0.00000000000E+00  0.00000000000E+00 -0.53450148776E+03  0.53450148777E+03  0.25500000920E-02 0. -1.
    10030    2    1    2    0    0  0.00000000000E+00  0.00000000000E+00 -0.26207291396E+02  0.10427956841E+04  0.10424663144E+04 0.  0.
        4    1    3    3  502    0 -0.86604202010E+01  0.51637431115E+03  0.57381083634E+02  0.51962643674E+03  0.12699999809E+01 0. -1.
       -4    1    3    3    0  502  0.86604202010E+01 -0.51637431115E+03 -0.83588375030E+02  0.52316924741E+03  0.12699999809E+01 0.  1.
</event>
<event>
 5   0  0.2889469E-03  0.1385926E+04  0.7818609E-02  0.8964070E-01
       -2   -1    0    0    0  501  0.00000000000E+00  0.00000000000E+00  0.74229249946E+03  0.74229249946E+03  0.25500000920E-02 0.  1.
        2   -1    0    0  501    0  0.00000000000E+00  0.00000000000E+00 -0.64691131257E+03  0.64691131258E+03  0.25500000920E-02 0. -1.
    10030    2    1    2    0    0  0.00000000000E+00  0.00000000000E+00  0.95381186883E+02  0.13892038120E+04  0.13859255610E+04 0.  0.
        5    1    3    3  502    0  0.61516671304E+03 -0.22843076262E+03  0.27084834800E+03  0.70992366897E+03  0.46999998093E+01 0.  1.
       -5    1    3    3    0  502 -0.61516671304E+03  0.22843076262E+03 -0.17546716112E+03  0.67928014307E+03  0.46999998093E+01 0. -1.
</event>
<event>
 5   0  0.1644571E-03  0.1414671E+04  0.7818609E-02  0.8943267E-01
       -1   -1    0    0    0  501  0.00000000000E+00  0.00000000000E+00  0.48982655604E+03  0.48982655607E+03  0.50400001928E-02 0.  1.
        1   -1    0    0  501    0  0.00000000000E+00  0.00000000000E+00 -0.10214299122E+04  0.10214299122E+04  0.50400001928E-02 0. -1.
    10030    2    1    2    0    0  0.00000000000E+00  0.00000000000E+00 -0.53160335617E+03  0.15112564683E+04  0.14146709811E+04 0.  0.
        4    1    3    3  502    0 -0.69742556344E+03 -0.41130366955E+02 -0.14767277415E+03  0.71407491536E+03  0.12699999809E+01 0.  1.
       -4    1    3    3    0  502  0.69742556344E+03  0.41130366955E+02 -0.38393058202E+03  0.79718155293E+03  0.12699999809E+01 0. -1.
</event>
<event>
 5   0  0.3006737E-03  0.1423231E+04  0.7818609E-02  0.8937173E-01
       -2   -1    0    0    0  501  0.00000000000E+00  0.00000000000E+00  0.27130227826E+03  0.27130227827E+03  0.25500000920E-02 0. -1.
        2   -1    0    0  501    0  0.00000000000E+00  0.00000000000E+00 -0.18665392870E+04  0.18665392870E+04  0.25500000920E-02 0.  1.
    10030    2    1    2    0    0  0.00000000000E+00  0.00000000000E+00 -0.15952370087E+04  0.21378415653E+04  0.14232306363E+04 0.  0.
        1    1    3    3  502    0  0.11905013124E+03 -0.54268837035E+03 -0.12970906355E+03  0.57053312108E+03  0.50400001928E-02 0. -1.
       -1    1    3    3    0  502 -0.11905013124E+03  0.54268837035E+03 -0.14655279452E+04  0.15673084442E+04  0.50400001928E-02 0.  1.
</event>
<event>
 5   0  0.1560957E-03  0.1413413E+04  0.7818609E-02  0.8944167E-01
       -1   -1    0    0    0  501  0.00000000000E+00  0.00000000000E+00  0.21807008824E+03  0.21807008830E+03  0.50400001928E-02 0.  1.
        1   -1    0    0  501    0  0.00000000000E+00  0.00000000000E+00 -0.22902448344E+04  0.22902448344E+04  0.50400001928E-02 0. -1.
    10030    2    1    2    0    0  0.00000000000E+00  0.00000000000E+00 -0.20721747462E+04  0.25083149227E+04  0.14134127397E+04 0.  0.
        5    1    3    3  502    0 -0.53828026799E+03  0.30294868395E+03 -0.42676331891E+03  0.75078130796E+03  0.46999998093E+01 0.  1.
       -5    1    3    3    0  502  0.53828026799E+03 -0.30294868395E+03 -0.16454114273E+04  0.17575336147E+04  0.46999998093E+01 0. -1.
</event>
<event>
 5   0  0.1631380E-03  0.1399889E+04  0.7818609E-02  0.8953899E-01
       -1   -1    0    0    0  501  0.00000000000E+00  0.00000000000E+00  0.31953030090E+03  0.31953030094E+03  0.50400001928E-02 0.  1.
        1   -1    0    0  501    0  0.00000000000E+00  0.00000000000E+00 -0.15332582935E+04  0.15332582935E+04  0.50400001928E-02 0. -1.
    10030    2    1    2    0    0  0.00000000000E+00  0.00000000000E+00 -0.12137279926E+04  0.18527885945E+04  0.13998892584E+04 0.  0.
        3    1    3    3  502    0  0.14970284642E+03  0.60903073578E+03 -0.19551993944E+03  0.65693031310E+03  0.10100000352E+00 0.  1.
       -3    1    3    3    0  502 -0.14970284642E+03 -0.60903073578E+03 -0.10182080532E+04  0.11958582814E+04  0.10100000352E+00 0. -1.
</event>
<event>
 5   0  0.1631380E-03  0.1404790E+04  0.7818609E-02  0.8950359E-01
       -1   -1    0    0    0  501  0.00000000000E+00  0.00000000000E+00  0.60817605114E+03  0.60817605116E+03  0.50400001928E-02 0. -1.
        1   -1    0    0  501    0  0.00000000000E+00  0.00000000000E+00 -0.81120998374E+03  0.81120998375E+03  0.50400001928E-02 0.  1.
    10030    2    1    2    0    0  0.00000000000E+00  0.00000000000E+00 -0.20303393260E+03  0.14193860349E+04  0.14047896420E+04 0.  0.
        3    1    3    3  502    0  0.63517887449E+02 -0.31531305923E+03  0.52939208107E+03  0.61944558522E+03  0.10100000352E+00 0. -1.
       -3    1    3    3    0  502 -0.63517887449E+02  0.31531305923E+03 -0.73242601367E+03  0.79994044969E+03  0.10100000352E+00 0.  1.
</event>
<event>
 5   0  0.1586022E-03  0.1392895E+04  0.7818609E-02  0.8958978E-01
        1   -1    0    0  501    0  0.00000000000E+00  0.00000000000E+00  0.16103279463E+04  0.16103279463E+04  0.50400001928E-02 0. -1.
       -1   -1    0    0    0  501  0.00000000000E+00  0.00000000000E+00 -0.30120513752E+03  0.30120513756E+03  0.50400001928E-02 0.  1.
    10030    2    1    2    0    0  0.00000000000E+00  0.00000000000E+00  0.13091228088E+04  0.19115330838E+04  0.13928948999E+04 0.  0.
        1    1    3    3  502    0  0.31567178141E+03 -0.49399984768E+03  0.11705241347E+04  0.13091261487E+04  0.50400001928E-02 0. -1.
       -1    1    3    3    0  502 -0.31567178141E+03  0.49399984768E+03  0.13859867403E+03  0.60240693518E+03  0.50400001928E-02 0.  1.
</event>
<event>
 5   0  0.2993993E-03  0.1421630E+04  0.7818609E-02  0.8938308E-01
        2   -1    0    0  501    0  0.00000000000E+00  0.00000000000E+00  0.10233360834E+04  0.10233360834E+04  0.25500000920E-02 0.  1.
       -2   -1    0    0    0  501  0.00000000000E+00  0.00000000000E+00 -0.49373641019E+03  0.49373641020E+03  0.25500000920E-02 0. -1.
    10030    2    1    2    0    0  0.00000000000E+00  0.00000000000E+00  0.52959967317E+03  0.15170724936E+04  0.14216304502E+04 0.  0.
        3    1    3    3  502    0 -0.57642731767E+03  0.35729730560E+03  0.49199814017E+03  0.83784962689E+03  0.10100000352E+00 0.  1.
       -3    1    3    3    0  502  0.57642731767E+03 -0.35729730560E+03  0.37601532998E+02  0.67922286668E+03  0.10100000352E+00 0. -1.
</event>
<event>
 5   0  0.1104538E-03  0.1197938E+04  0.7818609E-02  0.9114663E-01
        3   -1    0    0  501    0  0.00000000000E+00  0.00000000000E+00  0.16182222752E+04  0.16182222784E+04  0.10100000352E+00 0. -1.
       -3   -1    0    0    0  501  0.00000000000E+00  0.00000000000E+00 -0.22170253084E+03  0.22170255384E+03  0.10100000352E+00 0.  1.
    10030    2    1    2    0    0  0.00000000000E+00  0.00000000000E+00  0.13965197444E+04  0.18399248322E+04  0.11979382253E+04 0.  0.
        2    1    3    3  502    0  0.38913249057E+02 -0.24915253645E+03  0.15327165673E+04  0.15533226655E+04  0.25500000920E-02 0. -1.
       -2    1    3    3    0  502 -0.38913249057E+02  0.24915253645E+03 -0.13619682295E+03  0.28660216671E+03  0.25500000920E-02 0.  1.
</event>
<event>
 5   0  0.2993993E-03  0.1154640E+04  0.7818609E-02  0.9153513E-01
        2   -1    0    0  501    0  0.00000000000E+00  0.00000000000E+00  0.12201247460E+04  0.12201247460E+04  0.25500000920E-02 0.  1.
       -2   -1    0    0    0  501  0.00000000000E+00  0.00000000000E+00 -0.27316765942E+03  0.27316765943E+03  0.25500000920E-02 0. -1.
    10030    2    1    2    0    0  0.00000000000E+00  0.00000000000E+00  0.94695708661E+03  0.14932924055E+04  0.11546404134E+04 0.  0.
        3    1    3    3  502    0 -0.27450647991E+03 -0.34472865034E+03 -0.88828419727E+01  0.44076134694E+03  0.10100000352E+00 0. -1.
       -3    1    3    3    0  502  0.27450647991E+03  0.34472865034E+03  0.95583992858E+03  0.10525310585E+04  0.10100000352E+00 0.  1.
</event>
<event>
 5   0  0.2889469E-03  0.1349578E+04  0.7818609E-02  0.8991147E-01
        2   -1    0    0  501    0  0.00000000000E+00  0.00000000000E+00  0.16827515713E+04  0.16827515713E+04  0.25500000920E-02 0.  1.
       -2   -1    0    0    0  501  0.00000000000E+00  0.00000000000E+00 -0.27059275630E+03  0.27059275631E+03  0.25500000920E-02 0. -1.
    10030    2    1    2    0    0  0.00000000000E+00  0.00000000000E+00  0.14121588150E+04  0.19533443276E+04  0.13495782835E+04 0.  0.
        5    1    3    3  502    0 -0.34128440442E+03  0.39594753433E+03  0.88491916725E+02  0.53019091275E+03  0.46999998093E+01 0. -1.
       -5    1    3    3    0  502  0.34128440442E+03 -0.39594753433E+03  0.13236668982E+04  0.14231534148E+04  0.46999998093E+01 0.  1.
</event>
<event>
 5   0  0.1700207E-03  0.1349470E+04  0.7818609E-02  0.8991229E-01
        1   -1    0    0  501    0  0.00000000000E+00  0.00000000000E+00  0.45578535722E+03  0.45578535725E+03  0.50400001928E-02 0.  1.
       -1   -1    0    0    0  501  0.00000000000E+00  0.00000000000E+00 -0.99886358729E+03  0.99886358730E+03  0.50400001928E-02 0. -1.
    10030    2    1    2    0    0  0.00000000000E+00  0.00000000000E+00 -0.54307823007E+03  0.14546489446E+04  0.13494701138E+04 0.  0.
        2    1    3    3  502    0 -0.53113870259E+03  0.34221156562E+03 -0.16337173974E+02  0.63204745099E+03  0.25500000920E-02 0.  1.
       -2    1    3    3    0  502  0.53113870259E+03 -0.34221156562E+03 -0.52674105609E+03  0.82260149357E+03  0.25500000920E-02 0. -1.
</event>
<event>
 5   0  0.1644571E-03  0.1368672E+04  0.7818609E-02  0.8976813E-01
        1   -1    0    0  501    0  0.00000000000E+00  0.00000000000E+00  0.74216996393E+03  0.74216996395E+03  0.50400001928E-02 0.  1.
       -1   -1    0    0    0  501  0.00000000000E+00  0.00000000000E+00 -0.63100864781E+03  0.63100864784E+03  0.50400001928E-02 0. -1.
    10030    2    1    2    0    0  0.00000000000E+00  0.00000000000E+00  0.11116131612E+03  0.13731786118E+04  0.13686718605E+04 0.  0.
        4    1    3    3  502    0  0.22670324525E+03  0.21164410917E+03 -0.55644970620E+03  0.63704433031E+03  0.12699999809E+01 0. -1.
       -4    1    3    3    0  502 -0.22670324525E+03 -0.21164410917E+03  0.66761102231E+03  0.73613428148E+03  0.12699999809E+01 0.  1.
</event>
<event>
 5   0  0.2917809E-03  0.1364633E+04  0.7818609E-02  0.8979825E-01
        2   -1    0    0  501    0  0.00000000000E+00  0.00000000000E+00  0.19755766995E+04  0.19755766995E+04  0.25500000920E-02 0. -1.
       -2   -1    0    0    0  501  0.00000000000E+00  0.00000000000E+00 -0.23565556954E+03  0.23565556955E+03  0.25500000920E-02 0.  1.
    10030    2    1    2    0    0  0.00000000000E+00  0.00000000000E+00  0.17399211300E+04  0.22112322691E+04  0.13646327745E+04 0.  0.
        2    1    3    3  502    0 -0.65489176663E+03  0.10247304794E+03  0.60781981420E+03  0.89934914137E+03  0.25500000920E-02 0. -1.
       -2    1    3    3    0  502  0.65489176663E+03 -0.10247304794E+03  0.11321013158E+04  0.13118831277E+04  0.25500000920E-02 0.  1.
</event>
<event>
 5   0  0.2993993E-03  0.1385849E+04  0.7818609E-02  0.8964126E-01
       -2   -1    0    0    0  501  0.00000000000E+00  0.00000000000E+00  0.44221478047E+03  0.44221478048E+03  0.25500000920E-02 0.  1.
        2   -1    0    0  501    0  0.00000000000E+00  0.00000000000E+00 -0.10857723385E+04  0.10857723385E+04  0.25500000920E-02 0. -1.
    10030    2    1    2    0    0  0.00000000000E+00  0.00000000000E+00 -0.64355755807E+03  0.15279871190E+04  0.13858493083E+04 0.  0.
        3    1    3    3  502    0 -0.34075132566E+03  0.31781540506E+03  0.24368320249E+03  0.52583230313E+03  0.10100000352E+00 0.  1.
       -3    1    3    3    0  502  0.34075132566E+03 -0.31781540506E+03 -0.88724076056E+03  0.10021548159E+04  0.10100000352E+00 0. -1.
</event>
<event>
 5   0  0.1586022E-03  0.1338688E+04  0.7818609E-02  0.8999436E-01
       -1   -1    0    0    0  501  0.00000000000E+00  0.00000000000E+00  0.57806750676E+03  0.57806750678E+03  0.50400001928E-02 0.  1.
        1   -1    0    0  501    0  0.00000000000E+00  0.00000000000E+00 -0.77503305144E+03  0.77503305146E+03  0.50400001928E-02 0. -1.
    10030    2    1    2    0    0  0.00000000000E+00  0.00000000000E+00 -0.19696554468E+03  0.13531005582E+04  0.13386880499E+04 0.  0.
        1    1    3    3  502    0  0.26849582074E+03 -0.37985304321E+03  0.38799203567E+03  0.60573604809E+03  0.50400001928E-02 0.  1.
       -1    1    3    3    0  502 -0.26849582074E+03  0.37985304321E+03 -0.58495758035E+03  0.74736451015E+03  0.50400001928E-02 0. -1.
</event>
<event>
 5   0  0.2889469E-03  0.1324660E+04  0.7818609E-02  0.9010235E-01
       -2   -1    0    0    0  501  0.00000000000E+00  0.00000000000E+00  0.25849113696E+03  0.25849113697E+03  0.25500000920E-02 0.  1.
        2   -1    0    0  501    0  0.00000000000E+00  0.00000000000E+00 -0.16970834831E+04  0.16970834831E+04  0.25500000920E-02 0. -1.
    10030    2    1    2    0    0  0.00000000000E+00  0.00000000000E+00 -0.14385923462E+04  0.19555746201E+04  0.13246600154E+04 0.  0.
        5    1    3    3  502    0  0.28401392715E+03 -0.37983645012E+02 -0.16008149640E+04  0.16262648330E+04  0.46999998093E+01 0. -1.
       -5    1    3    3    0  502 -0.28401392715E+03  0.37983645012E+02  0.16222261787E+03  0.32930978706E+03  0.46999998093E+01 0.  1.
</event>
<event>
 5   0  0.1644571E-03  0.1392574E+04  0.7818609E-02  0.8959211E-01
        1   -1    0    0  501    0  0.00000000000E+00  0.00000000000E+00  0.10022641049E+04  0.10022641049E+04  0.50400001928E-02 0.  1.
       -1   -1    0    0    0  501  0.00000000000E+00  0.00000000000E+00 -0.48372047614E+03  0.48372047617E+03  0.50400001928E-02 0. -1.
    10030    2    1    2    0    0  0.00000000000E+00  0.00000000000E+00  0.51854362872E+03  0.14859845810E+04  0.13925741202E+04 0.  0.
        4    1    3    3  502    0 -0.14290124358E+03  0.67308019206E+03  0.37298617300E+03  0.78267362835E+03  0.12699999809E+01 0. -1.
       -4    1    3    3    0  502  0.14290124358E+03 -0.67308019206E+03  0.14555745572E+03  0.70331095269E+03  0.12699999809E+01 0.  1.
</event>
<event>
 5   0  0.1560957E-03  0.1404246E+04  0.7818609E-02  0.8950751E-01
       -1   -1    0    0    0  501  0.00000000000E+00  0.00000000000E+00  0.35774217117E+03  0.35774217120E+03  0.50400001928E-02 0.  1.
        1   -1    0    0  501    0  0.00000000000E+00  0.00000000000E+00 -0.13780219193E+04  0.13780219194E+04  0.50400001928E-02 0. -1.
    10030    2    1    2    0    0  0.00000000000E+00  0.00000000000E+00 -0.10202797482E+04  0.17357640906E+04  0.14042457810E+04 0.  0.
        5    1    3    3  502    0  0.25320506444E+02  0.43095321927E+03 -0.11945689439E+04  0.12701885124E+04  0.46999998093E+01 0. -1.
       -5    1    3    3    0  502 -0.25320506444E+02 -0.43095321927E+03  0.17428919573E+03  0.46557557817E+03  0.46999998093E+01 0.  1.
</event>
<event>
 5   0  0.2917809E-03  0.1389183E+04  0.7818609E-02  0.8961686E-01
       -2   -1    0    0    0  501  0.00000000000E+00  0.00000000000E+00  0.53139941976E+03  0.53139941976E+03  0.25500000920E-02 0. -1.
        2   -1    0    0  501    0  0.00000000000E+00  0.00000000000E+00 -0.90789959253E+03  0.90789959253E+03  0.25500000920E-02 0.  1.
    10030    2    1    2    0    0  0.00000000000E+00  0.00000000000E+00 -0.37650017277E+03  0.14392990123E+04  0.13891829493E+04 0.  0.
        2    1    3    3  502    0 -0.17321707387E+03  0.32249681749E+03 -0.79984120832E+03  0.87963305446E+03  0.25500000920E-02 0.  1.
       -2    1    3    3    0  502  0.17321707387E+03 -0.32249681749E+03  0.42334103555E+03  0.55966595783E+03  0.25500000920E-02 0. -1.
</event>
<event>
 5   0  0.1586022E-03  0.1239600E+04  0.7818609E-02  0.9078884E-01
       -1   -1    0    0    0  501  0.00000000000E+00  0.00000000000E+00  0.27680191795E+03  0.27680191799E+03  0.50400001928E-02 0. -1.
        1   -1    0    0  501    0  0.00000000000E+00  0.00000000000E+00 -0.13878235969E+04  0.13878235969E+04  0.50400001928E-02 0.  1.
    10030    2    1    2    0    0  0.00000000000E+00  0.00000000000E+00 -0.11110216789E+04  0.16646255149E+04  0.12396003121E+04 0.  0.
        1    1    3    3  502    0 -0.40652507468E+03  0.46589401989E+03 -0.61299394033E+03  0.87067872664E+03  0.50400001928E-02 0.  1.
       -1    1    3    3    0  502  0.40652507468E+03 -0.46589401989E+03 -0.49802773859E+03  0.79394678823E+03  0.50400001928E-02 0. -1.
</event>
<event>
 5   0  0.1700207E-03  0.1406158E+04  0.7818609E-02  0.8949373E-01
       -1   -1    0    0    0  501  0.00000000000E+00  0.00000000000E+00  0.62997448912E+03  0.62997448914E+03  0.50400001928E-02 0. -1.
        1   -1    0    0  501    0  0.00000000000E+00  0.00000000000E+00 -0.78466707171E+03  0.78466707172E+03  0.50400001928E-02 0.  1.
    10030    2    1    2    0    0  0.00000000000E+00  0.00000000000E+00 -0.15469258259E+03  0.14146415609E+04  0.14061582239E+04 0.  0.
        2    1    3    3  502    0 -0.55038440633E+03  0.31747946992E+03  0.22547470040E+03  0.67420697792E+03  0.25500000920E-02 0. -1.
       -2    1    3    3    0  502  0.55038440633E+03 -0.31747946992E+03 -0.38016728299E+03  0.74043458294E+03  0.25500000920E-02 0.  1.
</event>
<event>
 5   0  0.2889469E-03  0.1446656E+04  0.7818609E-02  0.8920722E-01
       -2   -1    0    0    0  501  0.00000000000E+00  0.00000000000E+00  0.34467803977E+03  0.34467803978E+03  0.25500000920E-02 0. -1.
        2   -1    0    0  501    0  0.00000000000E+00  0.00000000000E+00 -0.15179485664E+04  0.15179485664E+04  0.25500000920E-02 0.  1.
    10030    2    1    2    0    0  0.00000000000E+00  0.00000000000E+00 -0.11732705267E+04  0.18626266062E+04  0.14466561946E+04 0.  0.
        5    1    3    3  502    0  0.35028838600E+03  0.43763009992E+03  0.19256482330E+01  0.56057814428E+03  0.46999998093E+01 0. -1.
       -5    1    3    3    0  502 -0.35028838600E+03 -0.43763009992E+03 -0.11751961749E+04  0.13020484619E+04  0.46999998093E+01 0.  1.
</event>
<event>
 5   0  0.2760807E-03  0.1400157E+04  0.7818609E-02  0.8953705E-01
        2   -1    0    0  501    0  0.00000000000E+00  0.00000000000E+00  0.15703032348E+04  0.15703032348E+04  0.25500000920E-02 0.  1.
       -2   -1    0    0    0  501  0.00000000000E+00  0.00000000000E+00 -0.31211156930E+03  0.31211156931E+03  0.25500000920E-02 0. -1.
    10030    2    1    2    0    0  0.00000000000E+00  0.00000000000E+00  0.12581916655E+04  0.18824148041E+04  0.14001568582E+04 0.  0.
        4    1    3    3  502    0 -0.62649206084E+03  0.23386233384E+03  0.35055411400E+03  0.75503224648E+03  0.12699999809E+01 0.  1.
       -4    1    3    3    0  502  0.62649206084E+03 -0.23386233384E+03  0.90763755152E+03  0.11273825577E+04  0.12699999809E+01 0. -1.
</event>
<event>
 5   0  0.1700207E-03  0.1419399E+04  0.7818609E-02  0.8939895E-01
        1   -1    0    0  501    0  0.00000000000E+00  0.00000000000E+00  0.18006571300E+04  0.18006571300E+04  0.50400001928E-02 0.  1.
       -1   -1    0    0    0  501  0.00000000000E+00  0.00000000000E+00 -0.27971629325E+03  0.27971629329E+03  0.50400001928E-02 0. -1.
    10030    2    1    2    0    0  0.00000000000E+00  0.00000000000E+00  0.15209408368E+04  0.20803734233E+04  0.14193986584E+04 0.  0.
        2    1    3    3  502    0  0.53654272737E+02 -0.40118062345E+03  0.16149064661E+04  0.16648566209E+04  0.25500000920E-02 0.  1.
       -2    1    3    3    0  502 -0.53654272737E+02  0.40118062345E+03 -0.93965629375E+02  0.41551680246E+03  0.25500000920E-02 0. -1.
</event>
<event>
 5   0  0.1631380E-03  0.1394332E+04  0.7818609E-02  0.8957931E-01
        1   -1    0    0  501    0  0.00000000000E+00  0.00000000000E+00  0.94734544498E+03  0.94734544499E+03  0.50400001928E-02 0.  1.
       -1   -1    0    0    0  501  0.00000000000E+00  0.00000000000E+00 -0.51305547482E+03  0.51305547484E+03  0.50400001928E-02 0. -1.
    10030    2    1    2    0    0  0.00000000000E+00  0.00000000000E+00  0.43428997016E+03  0.14604009198E+04  0.13943324813E+04 0.  0.
        3    1    3    3  502    0 -0.10636594139E+03  0.51915263526E+00  0.93879664737E+03  0.94480322730E+03  0.10100000352E+00 0.  1.
       -3    1    3    3    0  502  0.10636594139E+03 -0.51915263526E+00 -0.50450667721E+03  0.51559769254E+03  0.10100000352E+00 0. -1.
</event>
<event>
 5   0  0.1700207E-03  0.1311286E+04  0.7818609E-02  0.9020663E-01
        1   -1    0    0  501    0  0.00000000000E+00  0.00000000000E+00  0.15423837487E+04  0.15423837487E+04  0.50400001928E-02 0. -1.
       -1   -1    0    0    0  501  0.00000000000E+00  0.00000000000E+00 -0.27870359924E+03  0.27870359928E+03  0.50400001928E-02 0.  1.
    10030    2    1    2    0    0  0.00000000000E+00  0.00000000000E+00  0.12636801495E+04  0.18210873480E+04  0.13112862422E+04 0.  0.
        2    1    3    3  502    0  0.56188358131E+03 -0.23801682484E+03  0.29881455036E+03  0.67945220830E+03  0.25500000920E-02 0. -1.
       -2    1    3    3    0  502 -0.56188358131E+03  0.23801682484E+03  0.96486559910E+03  0.11416351397E+04  0.25500000920E-02 0.  1.
</event>
<event>
 5   0  0.2993993E-03  0.1175198E+04  0.7818609E-02  0.9134847E-01
        2   -1    0    0  501    0  0.00000000000E+00  0.00000000000E+00  0.75479950467E+03  0.75479950467E+03  0.25500000920E-02 0.  1.
       -2   -1    0    0    0  501  0.00000000000E+00  0.00000000000E+00 -0.45743588899E+03  0.45743588899E+03  0.25500000920E-02 0. -1.
    10030    2    1    2    0    0  0.00000000000E+00  0.00000000000E+00  0.29736361568E+03  0.12122353937E+04  0.11751976556E+04 0.  0.
        3    1    3    3  502    0 -0.39172346199E+03  0.70404006318E+02 -0.29722484389E+03  0.49673595884E+03  0.10100000352E+00 0. -1.
       -3    1    3    3    0  502  0.39172346199E+03 -0.70404006318E+02  0.59458845957E+03  0.71549943482E+03  0.10100000352E+00 0.  1.
</event>
<event>
 5   0  0.1560957E-03  0.1404603E+04  0.7818609E-02  0.8950494E-01
       -1   -1    0    0    0  501  0.00000000000E+00  0.00000000000E+00  0.65038989240E+03  0.65038989242E+03  0.50400001928E-02 0. -1.
        1   -1    0    0  501    0  0.00000000000E+00  0.00000000000E+00 -0.75835603596E+03  0.75835603598E+03  0.50400001928E-02 0.  1.
    10030    2    1    2    0    0  0.00000000000E+00  0.00000000000E+00 -0.10796614357E+03  0.14087459284E+04  0.14046025782E+04 0.  0.
        5    1    3    3  502    0  0.50005248703E+03 -0.49281107499E+03 -0.71055777618E+02  0.70568141462E+03  0.46999998093E+01 0.  1.
       -5    1    3    3    0  502 -0.50005248703E+03  0.49281107499E+03 -0.36910365948E+02  0.70306451377E+03  0.46999998093E+01 0. -1.
</event>
<event>
 5   0  0.1644571E-03  0.1024719E+04  0.7818609E-02  0.9281842E-01
        1   -1    0    0  501    0  0.00000000000E+00  0.00000000000E+00  0.10609063197E+04  0.10609063197E+04  0.50400001928E-02 0.  1.
       -1   -1    0    0    0  501  0.00000000000E+00  0.00000000000E+00 -0.24744128867E+03  0.24744128872E+03  0.50400001928E-02 0. -1.
    10030    2    1    2    0    0  0.00000000000E+00  0.00000000000E+00  0.81346503104E+03  0.13083476084E+04  0.10247185505E+04 0.  0.
        4    1    3    3  502    0 -0.41234181421E+03 -0.30396428171E+03  0.41886923317E+03  0.66171980754E+03  0.12699999809E+01 0. -1.
       -4    1    3    3    0  502  0.41234181421E+03  0.30396428171E+03  0.39459579787E+03  0.64662780090E+03  0.12699999809E+01 0.  1.
</event>
<event>
 5   0  0.1631380E-03  0.1038677E+04  0.7818609E-02  0.9267113E-01
        1   -1    0    0  501    0  0.00000000000E+00  0.00000000000E+00  0.48103654829E+03  0.48103654831E+03  0.50400001928E-02 0. -1.
       -1   -1    0    0    0  501  0.00000000000E+00  0.00000000000E+00 -0.56069065915E+03  0.56069065917E+03  0.50400001928E-02 0.  1.
    10030    2    1    2    0    0  0.00000000000E+00  0.00000000000E+00 -0.79654110862E+02  0.10417272075E+04  0.10386774270E+04 0.  0.
        3    1    3    3  502    0 -0.38870666472E+03  0.44460574281E+02  0.30270624113E+03  0.49467230819E+03  0.10100000352E+00 0. -1.
       -3    1    3    3    0  502  0.38870666472E+03 -0.44460574281E+02 -0.38236035200E+03  0.54705489930E+03  0.10100000352E+00 0.  1.
</event>
<event>
 5   0  0.3006737E-03  0.1410573E+04  0.7818609E-02  0.8946201E-01
       -2   -1    0    0    0  501  0.00000000000E+00  0.00000000000E+00  0.13969455138E+04  0.13969455138E+04  0.25500000920E-02 0.  1.
        2   -1    0    0  501    0  0.00000000000E+00  0.00000000000E+00 -0.35608310909E+03  0.35608310910E+03  0.25500000920E-02 0. -1.
    10030    2    1    2    0    0  0.00000000000E+00  0.00000000000E+00  0.10408624048E+04  0.17530286229E+04  0.14105725104E+04 0.  0.
        1    1    3    3  502    0 -0.70372111723E+02 -0.70146758356E+03  0.49497102274E+03  0.86139730570E+03  0.50400001928E-02 0.  1.
       -1    1    3    3    0  502  0.70372111723E+02  0.70146758356E+03  0.54589138202E+03  0.89163131724E+03  0.50400001928E-02 0. -1.
</event>
<event>
 5   0  0.1586022E-03  0.1402689E+04  0.7818609E-02  0.8951874E-01
       -1   -1    0    0    0  501  0.00000000000E+00  0.00000000000E+00  0.36318672590E+03  0.36318672594E+03  0.50400001928E-02 0.  1.
        1   -1    0    0  501    0  0.00000000000E+00  0.00000000000E+00 -0.13543560872E+04  0.13543560872E+04  0.50400001928E-02 0. -1.
    10030    2    1    2    0    0  0.00000000000E+00  0.00000000000E+00 -0.99116936125E+03  0.17175428131E+04  0.14026890647E+04 0.  0.
        1    1    3    3  502    0  0.16966174243E+03  0.13804243698E+03 -0.13115258312E+04  0.13296393598E+04  0.50400001928E-02 0. -1.
       -1    1    3    3    0  502 -0.16966174243E+03 -0.13804243698E+03  0.32035646991E+03  0.38790345331E+03  0.50400001928E-02 0.  1.
</event>
<event>
 5   0  0.2993993E-03  0.1386225E+04  0.7818609E-02  0.8963850E-01
       -2   -1    0    0    0  501  0.00000000000E+00  0.00000000000E+00  0.92825934344E+03  0.92825934344E+03  0.25500000920E-02 0.  1.
        2   -1    0    0  501    0  0.00000000000E+00  0.00000000000E+00 -0.51753312502E+03  0.51753312503E+03  0.25500000920E-02 0. -1.
    10030    2    1    2    0    0  0.00000000000E+00  0.00000000000E+00  0.41072621841E+03  0.14457924685E+04  0.13862250306E+04 0.  0.
        3    1    3    3  502    0  0.45786885450E+03  0.42238035713E+03 -0.11159694420E+03  0.63285301782E+03  0.10100000352E+00 0. -1.
       -3    1    3    3    0  502 -0.45786885450E+03 -0.42238035713E+03  0.52232316262E+03  0.81293945065E+03  0.10100000352E+00 0.  1.
</event>
<event>
 5   0  0.2993993E-03  0.1404021E+04  0.7818609E-02  0.8950913E-01
        2   -1    0    0  501    0  0.00000000000E+00  0.00000000000E+00  0.95313915620E+03  0.95313915621E+03  0.25500000920E-02 0.  1.
       -2   -1    0    0    0  501  0.00000000000E+00  0.00000000000E+00 -0.51704832094E+03  0.51704832094E+03  0.25500000920E-02 0. -1.
    10030    2    1    2    0    0  0.00000000000E+00  0.00000000000E+00  0.43609083527E+03  0.14701874771E+04  0.14040213678E+04 0.  0.
        3    1    3    3  502    0  0.29717836936E+03 -0.63575591269E+03  0.23673086671E+03  0.74063626510E+03  0.10100000352E+00 0.  1.
       -3    1    3    3    0  502 -0.29717836936E+03  0.63575591269E+03  0.19935996856E+03  0.72955121205E+03  0.10100000352E+00 0. -1.
</event>
<event>
 5   0  0.2760807E-03  0.1395075E+04  0.7818609E-02  0.8957391E-01
       -2   -1    0    0    0  501  0.00000000000E+00  0.00000000000E+00  0.30515850279E+03  0.30515850280E+03  0.25500000920E-02 0.  1.
        2   -1    0    0  501    0  0.00000000000E+00  0.00000000000E+00 -0.15944452221E+04  0.15944452221E+04  0.25500000920E-02 0. -1.
    10030    2    1    2    0    0  0.00000000000E+00  0.00000000000E+00 -0.12892867193E+04  0.18996037249E+04  0.13950749324E+04 0.  0.
        4    1    3    3  502    0  0.10439480083E+03 -0.57817206390E+03 -0.11566231902E+04  0.12972894923E+04  0.12699999809E+01 0. -1.
       -4    1    3    3    0  502 -0.10439480083E+03  0.57817206390E+03 -0.13266352912E+03  0.60231423258E+03  0.12699999809E+01 0.  1.
</event>
<event>
 5   0  0.1631380E-03  0.1442100E+04  0.7818609E-02  0.8923896E-01
       -1   -1    0    0    0  501  0.00000000000E+00  0.00000000000E+00  0.84795007460E+03  0.84795007462E+03  0.50400001928E-02 0. -1.
        1   -1    0    0  501    0  0.00000000000E+00  0.00000000000E+00 -0.61314136228E+03  0.61314136230E+03  0.50400001928E-02 0.  1.
    10030    2    1    2    0    0  0.00000000000E+00  0.00000000000E+00  0.23480871233E+03  0.14610914369E+04  0.14421002239E+04 0.  0.
        3    1    3    3  502    0 -0.38148318567E+03  0.55819971310E+03 -0.13648886112E+03  0.68974311164E+03  0.10100000352E+00 0.  1.
       -3    1    3    3    0  502  0.38148318567E+03 -0.55819971310E+03  0.37129757344E+03  0.77134832527E+03  0.10100000352E+00 0. -1.
</event>
<event>
 5   0  0.2760807E-03  0.1388534E+04  0.7818609E-02  0.8962161E-01
       -2   -1    0    0    0  501  0.00000000000E+00  0.00000000000E+00  0.25483475048E+03  0.25483475049E+03  0.25500000920E-02 0. -1.
        2   -1    0    0  501    0  0.00000000000E+00  0.00000000000E+00 -0.18914467293E+04  0.18914467293E+04  0.25500000920E-02 0.  1.
    10030    2    1    2    0    0  0.00000000000E+00  0.00000000000E+00 -0.16366119788E+04  0.21462814798E+04  0.13885335506E+04 0.  0.
        4    1    3    3  502    0 -0.32425836414E+03  0.59482767308E+03 -0.10529360986E+04  0.12520541075E+04  0.12699999809E+01 0.  1.
       -4    1    3    3    0  502  0.32425836414E+03 -0.59482767308E+03 -0.58367588021E+03  0.89422737232E+03  0.12699999809E+01 0. -1.
</event>
<event>
 5   0  0.1560957E-03  0.1438097E+04  0.7818609E-02  0.8926694E-01
        1   -1    0    0  501    0  0.00000000000E+00  0.00000000000E+00  0.95970567474E+03  0.95970567475E+03  0.50400001928E-02 0. -1.
       -1   -1    0    0    0  501  0.00000000000E+00  0.00000000000E+00 -0.53873882273E+03  0.53873882276E+03  0.50400001928E-02 0.  1.
    10030    2    1    2    0    0  0.00000000000E+00  0.00000000000E+00  0.42096685201E+03  0.14984444975E+04  0.14380969444E+04 0.  0.
        5    1    3    3  502    0 -0.10895104988E+03  0.18539335202E+03 -0.50443382288E+03  0.54837632873E+03  0.46999998093E+01 0.  1.
       -5    1    3    3    0  502  0.10895104988E+03 -0.18539335202E+03  0.92540067489E+03  0.95006816878E+03  0.46999998093E+01 0. -1.
</event>
<event>
 5   0  0.3006737E-03  0.1399831E+04  0.7818609E-02  0.8953941E-01
        2   -1    0    0  501    0  0.00000000000E+00  0.00000000000E+00  0.73739401719E+03  0.73739401719E+03  0.25500000920E-02 0.  1.
       -2   -1    0    0    0  501  0.00000000000E+00  0.00000000000E+00 -0.66434216182E+03  0.66434216183E+03  0.25500000920E-02 0. -1.
    10030    2    1    2    0    0  0.00000000000E+00  0.00000000000E+00  0.73051855362E+02  0.14017361790E+04  0.13998313263E+04 0.  0.
        1    1    3    3  502    0 -0.37903807378E+03 -0.58652992580E+03  0.83437518360E+02  0.70331289959E+03  0.50400001928E-02 0. -1.
       -1    1    3    3    0  502  0.37903807378E+03  0.58652992580E+03 -0.10385662998E+02  0.69842327943E+03  0.50400001928E-02 0.  1.
</event>
<event>
 5   0  0.1700207E-03  0.1365129E+04  0.7818609E-02  0.8979454E-01
        1   -1    0    0  501    0  0.00000000000E+00  0.00000000000E+00  0.61410352500E+03  0.61410352503E+03  0.50400001928E-02 0.  1.
       -1   -1    0    0    0  501  0.00000000000E+00  0.00000000000E+00 -0.75865705939E+03  0.75865705941E+03  0.50400001928E-02 0. -1.
    10030    2    1    2    0    0  0.00000000000E+00  0.00000000000E+00 -0.14455353439E+03  0.13727605844E+04  0.13651285280E+04 0.  0.
        2    1    3    3  502    0 -0.12149394128E+03 -0.66789610923E+03 -0.14372314933E+03  0.69390369227E+03  0.25500000920E-02 0.  1.
       -2    1    3    3    0  502  0.12149394128E+03  0.66789610923E+03 -0.83038505679E+00  0.67885689216E+03  0.25500000920E-02 0. -1.
</event>
<event>
 5   0  0.2889469E-03  0.1417954E+04  0.7818609E-02  0.8940924E-01
        2   -1    0    0  501    0  0.00000000000E+00  0.00000000000E+00  0.12152697884E+04  0.12152697884E+04  0.25500000920E-02 0. -1.
       -2   -1    0    0    0  501  0.00000000000E+00  0.00000000000E+00 -0.41361031619E+03  0.41361031619E+03  0.25500000920E-02 0.  1.
    10030    2    1    2    0    0  0.00000000000E+00  0.00000000000E+00  0.80165947217E+03  0.16288801045E+04  0.14179536261E+04 0.  0.
        5    1    3    3  502    0  0.99779717392E+02  0.10692517414E+03  0.11977348570E+04  0.12066399059E+04  0.46999998093E+01 0. -1.
       -5    1    3    3    0  502 -0.99779717392E+02 -0.10692517414E+03 -0.39607538484E+03  0.42224019863E+03  0.46999998093E+01 0.  1.
</event>
<event>
 5   0  0.1631380E-03  0.7382769E+03  0.7818609E-02  0.9653924E-01
       -1   -1    0    0    0  501  0.00000000000E+00  0.00000000000E+00  0.74937897832E+02  0.74937898002E+02  0.50400001928E-02 0.  1.
        1   -1    0    0  501    0  0.00000000000E+00  0.00000000000E+00 -0.18183483460E+04  0.18183483460E+04  0.50400001928E-02 0. -1.
    10030    2    1    2    0    0  0.00000000000E+00  0.00000000000E+00 -0.17434104482E+04  0.18932862440E+04  0.73827692026E+03 0.  0.
        3    1    3    3  502    0 -0.22975155010E+03 -0.11748793778E+03 -0.19479298477E+03  0.32331641996E+03  0.10100000352E+00 0.  1.
       -3    1    3    3    0  502  0.22975155010E+03  0.11748793778E+03 -0.15486174634E+04  0.15699698241E+04  0.10100000352E+00 0. -1.
</event>
<event>
 5   0  0.1631380E-03  0.8157973E+03  0.7818609E-02  0.9537428E-01
        1   -1    0    0  501    0  0.00000000000E+00  0.00000000000E+00  0.27656101395E+03  0.27656101400E+03  0.50400001928E-02 0. -1.
       -1   -1    0    0    0  501  0.00000000000E+00  0.00000000000E+00 -0.60160800658E+03  0.60160800661E+03  0.50400001928E-02 0.  1.
    10030    2    1    2    0    0  0.00000000000E+00  0.00000000000E+00 -0.32504699263E+03  0.87816902061E+03  0.81579732859E+03 0.  0.
        3    1    3    3  502    0 -0.36437447485E+03 -0.11705534193E+03 -0.10630413080E+02  0.38286254306E+03  0.10100000352E+00 0. -1.
       -3    1    3    3    0  502  0.36437447485E+03  0.11705534193E+03 -0.31441657955E+03  0.49530647754E+03  0.10100000352E+00 0.  1.
</event>
<event>
 5   0  0.1104538E-03  0.1379956E+04  0.7818609E-02  0.8968456E-01
       -3   -1    0    0    0  501  0.00000000000E+00  0.00000000000E+00  0.63628310779E+03  0.63628311581E+03  0.10100000352E+00 0. -1.
        3   -1    0    0  501    0  0.00000000000E+00  0.00000000000E+00 -0.74820439800E+03  0.74820440482E+03  0.10100000352E+00 0.  1.
    10030    2    1    2    0    0  0.00000000000E+00  0.00000000000E+00 -0.11192129021E+03  0.13844875206E+04  0.13799562745E+04 0.  0.
        4    1    3    3  502    0  0.54314727525E+03 -0.41394779036E+03  0.42884337573E+02  0.68425318053E+03  0.12699999809E+01 0. -1.
       -4    1    3    3    0  502 -0.54314727525E+03  0.41394779036E+03 -0.15480562778E+03  0.70023434009E+03  0.12699999809E+01 0.  1.
</event>
<event>
 5   0  0.1586022E-03  0.1439680E+04  0.7818609E-02  0.8925586E-01
       -1   -1    0    0    0  501  0.00000000000E+00  0.00000000000E+00  0.10284501177E+04  0.10284501177E+04  0.50400001928E-02 0.  1.
        1   -1    0    0  501    0  0.00000000000E+00  0.00000000000E+00 -0.50383558144E+03  0.50383558147E+03  0.50400001928E-02 0. -1.
    10030    2    1    2    0    0  0.00000000000E+00  0.00000000000E+00  0.52461453624E+03  0.15322856992E+04  0.14396801910E+04 0.  0.
        1    1    3    3  502    0  0.39657691771E+03  0.32360560711E+03  0.80100218004E+03  0.95057789427E+03  0.50400001928E-02 0.  1.
       -1    1    3    3    0  502 -0.39657691771E+03 -0.32360560711E+03 -0.27638764380E+03  0.58170780490E+03  0.50400001928E-02 0. -1.
</event>
<event>
 5   0  0.1700207E-03  0.1652544E+04  0.7818609E-02  0.8788903E-01
        1   -1    0    0  501    0  0.00000000000E+00  0.00000000000E+00  0.13902603213E+04  0.13902603213E+04  0.50400001928E-02 0. -1.
       -1   -1    0    0    0  501  0.00000000000E+00  0.00000000000E+00 -0.49107747935E+03  0.49107747937E+03  0.50400001928E-02 0.  1.
    10030    2    1    2    0    0  0.00000000000E+00  0.00000000000E+00  0.89918284191E+03  0.18813378006E+04  0.16525441407E+04 0.  0.
        2    1    3    3  502    0 -0.27345441300E+03 -0.30900205369E+03 -0.36538720695E+03  0.55115097404E+03  0.25500000920E-02 0.  1.
       -2    1    3    3    0  502  0.27345441300E+03  0.30900205369E+03  0.12645700489E+04  0.13301868266E+04  0.25500000920E-02 0. -1.
</event>
<event>
 5   0  0.1560957E-03  0.1408765E+04  0.7818609E-02  0.8947498E-01
        1   -1    0    0  501    0  0.00000000000E+00  0.00000000000E+00  0.33167088860E+03  0.33167088864E+03  0.50400001928E-02 0.  1.
       -1   -1    0    0    0  501  0.00000000000E+00  0.00000000000E+00 -0.14959247965E+04  0.14959247965E+04  0.50400001928E-02 0. -1.
    10030    2    1    2    0    0  0.00000000000E+00  0.00000000000E+00 -0.11642539079E+04  0.18275956851E+04  0.14087650004E+04 0.  0.
        5    1    3    3  502    0  0.14525956634E+03 -0.39392830175E+03  0.15156985023E+03  0.44640268596E+03  0.46999998093E+01 0.  1.
       -5    1    3    3    0  502 -0.14525956634E+03  0.39392830175E+03 -0.13158237581E+04  0.13811929991E+04  0.46999998093E+01 0. -1.
</event>
<event>
 5   0  0.2889469E-03  0.1417513E+04  0.7818609E-02  0.8941238E-01
       -2   -1    0    0    0  501  0.00000000000E+00  0.00000000000E+00  0.47526224847E+03  0.47526224848E+03  0.25500000920E-02 0. -1.
        2   -1    0    0  501    0  0.00000000000E+00  0.00000000000E+00 -0.10569657178E+04  0.10569657178E+04  0.25500000920E-02 0.  1.
    10030    2    1    2    0    0  0.00000000000E+00  0.00000000000E+00 -0.58170346930E+03  0.15322279663E+04  0.14175131796E+04 0.  0.
        5    1    3    3  502    0  0.52590158198E+03  0.25470574228E+03 -0.72439141082E+03  0.93070537505E+03  0.46999998093E+01 0.  1.
       -5    1    3    3    0  502 -0.52590158198E+03 -0.25470574228E+03  0.14268794152E+03  0.60152259121E+03  0.46999998093E+01 0. -1.
</event>
<event>
 5   0  0.1560957E-03  0.1336929E+04  0.7818609E-02  0.9000782E-01
       -1   -1    0    0    0  501  0.00000000000E+00  0.00000000000E+00  0.34466920199E+03  0.34466920203E+03  0.50400001928E-02 0.  1.
        1   -1    0    0  501    0  0.00000000000E+00  0.00000000000E+00 -0.12964451446E+04  0.12964451446E+04  0.50400001928E-02 0. -1.
    10030    2    1    2    0    0  0.00000000000E+00  0.00000000000E+00 -0.95177594263E+03  0.16411143467E+04  0.13369288889E+04 0.  0.
        5    1    3    3  502    0 -0.63512819554E+02  0.11467288808E+03  0.32871627300E+03  0.35392121671E+03  0.46999998093E+01 0.  1.
       -5    1    3    3    0  502  0.63512819554E+02 -0.11467288808E+03 -0.12804922156E+04  0.12871931299E+04  0.46999998093E+01 0. -1.
</event>
<event>
 5   0  0.3006737E-03  0.8626772E+03  0.7818609E-02  0.9473478E-01
       -2   -1    0    0    0  501  0.00000000000E+00  0.00000000000E+00  0.45600643287E+03  0.45600643288E+03  0.25500000920E-02 0.  1.
        2   -1    0    0  501    0  0.00000000000E+00  0.00000000000E+00 -0.40800517774E+03  0.40800517774E+03  0.25500000920E-02 0. -1.
    10030    2    1    2    0    0  0.00000000000E+00  0.00000000000E+00  0.48001255133E+02  0.86401161062E+03  0.86267719501E+03 0.  0.
        1    1    3    3  502    0  0.31244899599E+02 -0.29653726251E+03 -0.28815822940E+03  0.41466342617E+03  0.50400001928E-02 0. -1.
       -1    1    3    3    0  502 -0.31244899599E+02  0.29653726251E+03  0.33615948453E+03  0.44934818445E+03  0.50400001928E-02 0.  1.
</event>
<event>
 5   0  0.1586022E-03  0.1373613E+04  0.7818609E-02  0.8973143E-01
       -1   -1    0    0    0  501  0.00000000000E+00  0.00000000000E+00  0.82012442960E+03  0.82012442962E+03  0.50400001928E-02 0. -1.
        1   -1    0    0  501    0  0.00000000000E+00  0.00000000000E+00 -0.57516039042E+03  0.57516039044E+03  0.50400001928E-02 0.  1.
    10030    2    1    2    0    0  0.00000000000E+00  0.00000000000E+00  0.24496403918E+03  0.13952848201E+04  0.13736128816E+04 0.  0.
        1    1    3    3  502    0  0.22135344365E+03  0.59887685930E+01 -0.53790596362E+03  0.58170098684E+03  0.50400001928E-02 0.  1.
       -1    1    3    3    0  502 -0.22135344365E+03 -0.59887685930E+01  0.78287000281E+03  0.81358383322E+03  0.50400001928E-02 0. -1.
</event>
<event>
 5   0  0.2760807E-03  0.1427048E+04  0.7818609E-02  0.8934470E-01
        2   -1    0    0  501    0  0.00000000000E+00  0.00000000000E+00  0.79952461862E+03  0.79952461863E+03  0.25500000920E-02 0.  1.
       -2   -1    0    0    0  501  0.00000000000E+00  0.00000000000E+00 -0.63677359587E+03  0.63677359588E+03  0.25500000920E-02 0. -1.
    10030    2    1    2    0    0  0.00000000000E+00  0.00000000000E+00  0.16275102275E+03  0.14362982145E+04  0.14270475344E+04 0.  0.
        4    1    3    3  502    0  0.97055173223E+02  0.11043507271E+03 -0.62136181111E+03  0.63851994890E+03  0.12699999809E+01 0. -1.
       -4    1    3    3    0  502 -0.97055173223E+02 -0.11043507271E+03  0.78411283387E+03  0.79777826560E+03  0.12699999809E+01 0.  1.
</event>
<event>
 5   0  0.2993993E-03  0.1391202E+04  0.7818609E-02  0.8960212E-01
       -2   -1    0    0    0  501  0.00000000000E+00  0.00000000000E+00  0.46481581007E+03  0.46481581008E+03  0.25500000920E-02 0. -1.
        2   -1    0    0  501    0  0.00000000000E+00  0.00000000000E+00 -0.10409727583E+04  0.10409727583E+04  0.25500000920E-02 0.  1.
    10030    2    1    2    0    0  0.00000000000E+00  0.00000000000E+00 -0.57615694826E+03  0.15057885684E+04  0.13912017768E+04 0.  0.
        3    1    3    3  502    0 -0.13780947320E+03  0.61846206194E+03 -0.59872639853E+03  0.87175689471E+03  0.10100000352E+00 0. -1.
       -3    1    3    3    0  502  0.13780947320E+03 -0.61846206194E+03  0.22569450275E+02  0.63403167370E+03  0.10100000352E+00 0.  1.
</event>
<event>
 5   0  0.1631380E-03  0.1351991E+04  0.7818609E-02  0.8989323E-01
        1   -1    0    0  501    0  0.00000000000E+00  0.00000000000E+00  0.17694385574E+04  0.17694385574E+04  0.50400001928E-02 0.  1.
       -1   -1    0    0    0  501  0.00000000000E+00  0.00000000000E+00 -0.25825689461E+03  0.25825689466E+03  0.50400001928E-02 0. -1.
    10030    2    1    2    0    0  0.00000000000E+00  0.00000000000E+00  0.15111816627E+04  0.20276954520E+04  0.13519906909E+04 0.  0.
        3    1    3    3  502    0  0.55663200454E+02  0.66873925287E+03  0.63320325404E+03  0.92263587148E+03  0.10100000352E+00 0.  1.
       -3    1    3    3    0  502 -0.55663200454E+02 -0.66873925287E+03  0.87797840870E+03  0.11050595805E+04  0.10100000352E+00 0. -1.
</event>
<event>
 5   0  0.1560957E-03  0.1468111E+04  0.7818609E-02  0.8905940E-01
       -1   -1    0    0    0  501  0.00000000000E+00  0.00000000000E+00  0.16071763445E+04  0.16071763445E+04  0.50400001928E-02 0. -1.
        1   -1    0    0  501    0  0.00000000000E+00  0.00000000000E+00 -0.33526984835E+03  0.33526984839E+03  0.50400001928E-02 0.  1.
    10030    2    1    2    0    0  0.00000000000E+00  0.00000000000E+00  0.12719064961E+04  0.19424461929E+04  0.14681113981E+04 0.  0.
        5    1    3    3  502    0 -0.21142477235E+03  0.23545429697E+03  0.15122721537E+04  0.15450334356E+04  0.46999998093E+01 0. -1.
       -5    1    3    3    0  502  0.21142477235E+03 -0.23545429697E+03 -0.24036565754E+03  0.39741275728E+03  0.46999998093E+01 0.  1.
</event>
<event>
 5   0  0.1104538E-03  0.1419707E+04  0.7818609E-02  0.8939676E-01
       -3   -1    0    0    0  501  0.00000000000E+00  0.00000000000E+00  0.88759349477E+03  0.88759350051E+03  0.10100000352E+00 0. -1.
        3   -1    0    0  501    0  0.00000000000E+00  0.00000000000E+00 -0.56770546083E+03  0.56770546981E+03  0.10100000352E+00 0.  1.
    10030    2    1    2    0    0  0.00000000000E+00  0.00000000000E+00  0.31988803394E+03  0.14552989703E+04  0.14197065678E+04 0.  0.
        1    1    3    3  502    0  0.22571878876E+03  0.33343701848E+03 -0.43931670624E+03  0.59592649320E+03  0.50400001928E-02 0.  1.
       -1    1    3    3    0  502 -0.22571878876E+03 -0.33343701848E+03  0.75920474018E+03  0.85937247712E+03  0.50400001928E-02 0. -1.
</event>
<event>
 5   0  0.1644571E-03  0.1288545E+04  0.7818609E-02  0.9038699E-01
        1   -1    0    0  501    0  0.00000000000E+00  0.00000000000E+00  0.14040790590E+04  0.14040790590E+04  0.50400001928E-02 0.  1.
       -1   -1    0    0    0  501  0.00000000000E+00  0.00000000000E+00 -0.29562922833E+03  0.29562922837E+03  0.50400001928E-02 0. -1.
    10030    2    1    2    0    0  0.00000000000E+00  0.00000000000E+00  0.11084498306E+04  0.16997082873E+04  0.12885446189E+04 0.  0.
        4    1    3    3  502    0  0.46653519271E+03 -0.70130610991E+02  0.11329917223E+04  0.12272918334E+04  0.12699999809E+01 0.  1.
       -4    1    3    3    0  502 -0.46653519271E+03  0.70130610991E+02 -0.24541891634E+02  0.47241645397E+03  0.12699999809E+01 0. -1.
</event>
<event>
 5   0  0.2993993E-03  0.1393822E+04  0.7818609E-02  0.8958303E-01
       -2   -1    0    0    0  501  0.00000000000E+00  0.00000000000E+00  0.44870129341E+03  0.44870129342E+03  0.25500000920E-02 0. -1.
        2   -1    0    0  501    0  0.00000000000E+00  0.00000000000E+00 -0.10824233315E+04  0.10824233315E+04  0.25500000920E-02 0.  1.
    10030    2    1    2    0    0  0.00000000000E+00  0.00000000000E+00 -0.63372203806E+03  0.15311246249E+04  0.13938217230E+04 0.  0.
        3    1    3    3  502    0 -0.29368666766E+03  0.55845217223E+03 -0.64192304338E+03  0.90010326699E+03  0.10100000352E+00 0. -1.
       -3    1    3    3    0  502  0.29368666766E+03 -0.55845217223E+03  0.82010053195E+01  0.63102135789E+03  0.10100000352E+00 0.  1.
</event>
<event>
 5   0  0.2917809E-03  0.1397039E+04  0.7818609E-02  0.8955965E-01
        2   -1    0    0  501    0  0.00000000000E+00  0.00000000000E+00  0.12366239282E+04  0.12366239282E+04  0.25500000920E-02 0. -1.
       -2   -1    0    0    0  501  0.00000000000E+00  0.00000000000E+00 -0.39456554065E+03  0.39456554066E+03  0.25500000920E-02 0.  1.
    10030    2    1    2    0    0  0.00000000000E+00  0.00000000000E+00  0.84205838755E+03  0.16311894689E+04  0.13970385662E+04 0.  0.
        2    1    3    3  502    0 -0.38989941599E+03 -0.52683285741E+03  0.70308445920E+03  0.96119829953E+03  0.25500000920E-02 0. -1.
       -2    1    3    3    0  502  0.38989941599E+03  0.52683285741E+03  0.13897392836E+03  0.66999116935E+03  0.25500000920E-02 0.  1.
</event>
<event>
 5   0  0.2993993E-03  0.1371787E+04  0.7818609E-02  0.8974498E-01
        2   -1    0    0  501    0  0.00000000000E+00  0.00000000000E+00  0.12174113280E+04  0.12174113280E+04  0.25500000920E-02 0. -1.
       -2   -1    0    0    0  501  0.00000000000E+00  0.00000000000E+00 -0.38643442658E+03  0.38643442659E+03  0.25500000920E-02 0.  1.
    10030    2    1    2    0    0  0.00000000000E+00  0.00000000000E+00  0.83097690143E+03  0.16038457546E+04  0.13717866430E+04 0.  0.
        3    1    3    3  502    0  0.11765257479E+03 -0.30288324499E+03 -0.29073910824E+03  0.43601562783E+03  0.10100000352E+00 0.  1.
       -3    1    3    3    0  502 -0.11765257479E+03  0.30288324499E+03  0.11217160097E+04  0.11678301268E+04  0.10100000352E+00 0. -1.
</event>
<event>
 5   0  0.2917809E-03  0.1411242E+04  0.7818609E-02  0.8945721E-01
       -2   -1    0    0    0  501  0.00000000000E+00  0.00000000000E+00  0.36737266001E+03  0.36737266002E+03  0.25500000920E-02 0.  1.
        2   -1    0    0  501    0  0.00000000000E+00  0.00000000000E+00 -0.13553022384E+04  0.13553022384E+04  0.25500000920E-02 0. -1.
    10030    2    1    2    0    0  0.00000000000E+00  0.00000000000E+00 -0.98792957835E+03  0.17226748984E+04  0.14112419898E+04 0.  0.
        2    1    3    3  502    0 -0.46905121080E+03  0.50844942885E+03 -0.32407029871E+03  0.76390537278E+03  0.25500000920E-02 0.  1.
       -2    1    3    3    0  502  0.46905121080E+03 -0.50844942885E+03 -0.66385927964E+03  0.95876952560E+03  0.25500000920E-02 0. -1.
</event>
<event>
 5   0  0.2993993E-03  0.1218506E+04  0.7818609E-02  0.9096811E-01
       -2   -1    0    0    0  501  0.00000000000E+00  0.00000000000E+00  0.33771123697E+03  0.33771123698E+03  0.25500000920E-02 0.  1.
        2   -1    0    0  501    0  0.00000000000E+00  0.00000000000E+00 -0.10991315039E+04  0.10991315039E+04  0.25500000920E-02 0. -1.
    10030    2    1    2    0    0  0.00000000000E+00  0.00000000000E+00 -0.76142026691E+03  0.14368427409E+04  0.12185057403E+04 0.  0.
        3    1    3    3  502    0  0.53867849283E+03 -0.11918820185E+03 -0.75921911338E+02  0.55690617963E+03  0.10100000352E+00 0. -1.
       -3    1    3    3    0  502 -0.53867849283E+03  0.11918820185E+03 -0.68549835557E+03  0.87993656123E+03  0.10100000352E+00 0.  1.
</event>
<event>
 5   0  0.2889469E-03  0.1396851E+04  0.7818609E-02  0.8956101E-01
       -2   -1    0    0    0  501  0.00000000000E+00  0.00000000000E+00  0.23583881226E+03  0.23583881228E+03  0.25500000920E-02 0. -1.
        2   -1    0    0  501    0  0.00000000000E+00  0.00000000000E+00 -0.20683555304E+04  0.20683555304E+04  0.25500000920E-02 0.  1.
    10030    2    1    2    0    0  0.00000000000E+00  0.00000000000E+00 -0.18325167181E+04  0.23041943427E+04  0.13968514762E+04 0.  0.
        5    1    3    3  502    0 -0.13602423503E+03 -0.38373191123E+02 -0.20444934409E+04  0.20493781043E+04  0.46999998093E+01 0.  1.
       -5    1    3    3    0  502  0.13602423503E+03  0.38373191123E+02  0.21197672283E+03  0.25481623836E+03  0.46999998093E+01 0. -1.
</event>
<event>
 5   0  0.2760807E-03  0.1411368E+04  0.7818609E-02  0.8945631E-01
       -2   -1    0    0    0  501  0.00000000000E+00  0.00000000000E+00  0.23441582401E+03  0.23441582403E+03  0.25500000920E-02 0. -1.
        2   -1    0    0  501    0  0.00000000000E+00  0.00000000000E+00 -0.21243858339E+04  0.21243858339E+04  0.25500000920E-02 0.  1.
    10030    2    1    2    0    0  0.00000000000E+00  0.00000000000E+00 -0.18899700099E+04  0.23588016579E+04  0.14113676428E+04 0.  0.
        4    1    3    3  502    0 -0.41186167109E+03 -0.54873512938E+03 -0.12208627749E+04  0.14004455743E+04  0.12699999809E+01 0. -1.
       -4    1    3    3    0  502  0.41186167109E+03  0.54873512938E+03 -0.66910723492E+03  0.95835608364E+03  0.12699999809E+01 0.  1.
</event>
<event>
 5   0  0.2760807E-03  0.1395669E+04  0.7818609E-02  0.8956959E-01
       -2   -1    0    0    0  501  0.00000000000E+00  0.00000000000E+00  0.54537816292E+03  0.54537816292E+03  0.25500000920E-02 0. -1.
        2   -1    0    0  501    0  0.00000000000E+00  0.00000000000E+00 -0.89290894572E+03  0.89290894572E+03  0.25500000920E-02 0.  1.
    10030    2    1    2    0    0  0.00000000000E+00  0.00000000000E+00 -0.34753078280E+03  0.14382871086E+04  0.13956690732E+04 0.  0.
        4    1    3    3  502    0 -0.34479380699E+03 -0.97843727371E+01  0.45138263864E+03  0.56809013603E+03  0.12699999809E+01 0. -1.
       -4    1    3    3    0  502  0.34479380699E+03  0.97843727371E+01 -0.79891342144E+03  0.87019697262E+03  0.12699999809E+01 0.  1.
</event>
<event>
 5   0  0.1586022E-03  0.1409981E+04  0.7818609E-02  0.8946625E-01
        1   -1    0    0  501    0  0.00000000000E+00  0.00000000000E+00  0.11202068102E+04  0.11202068102E+04  0.50400001928E-02 0. -1.
       -1   -1    0    0    0  501  0.00000000000E+00  0.00000000000E+00 -0.44367866313E+03  0.44367866316E+03  0.50400001928E-02 0.  1.
    10030    2    1    2    0    0  0.00000000000E+00  0.00000000000E+00  0.67652814703E+03  0.15638854733E+04  0.14099813616E+04 0.  0.
        1    1    3    3  502    0  0.49900992916E+03 -0.45296971301E+03  0.56777946243E+03  0.88122981582E+03  0.50400001928E-02 0.  1.
       -1    1    3    3    0  502 -0.49900992916E+03  0.45296971301E+03  0.10874868460E+03  0.68265565751E+03  0.50400001928E-02 0. -1.
</event>
<event>
 5   0  0.2917809E-03  0.1431969E+04  0.7818609E-02  0.8930997E-01
       -2   -1    0    0    0  501  0.00000000000E+00  0.00000000000E+00  0.26392077609E+03  0.26392077610E+03  0.25500000920E-02 0. -1.
        2   -1    0    0  501    0  0.00000000000E+00  0.00000000000E+00 -0.19423786251E+04  0.19423786252E+04  0.25500000920E-02 0.  1.
    10030    2    1    2    0    0  0.00000000000E+00  0.00000000000E+00 -0.16784578491E+04  0.22062994013E+04  0.14319693771E+04 0.  0.
        2    1    3    3  502    0  0.34056214440E+03  0.41463861710E+03 -0.15696237435E+04  0.16588027168E+04  0.25500000920E-02 0.  1.
       -2    1    3    3    0  502 -0.34056214440E+03 -0.41463861710E+03 -0.10883410557E+03  0.54749668450E+03  0.25500000920E-02 0. -1.
</event>
<event>
 5   0  0.1560957E-03  0.1373926E+04  0.7818609E-02  0.8972912E-01
       -1   -1    0    0    0  501  0.00000000000E+00  0.00000000000E+00  0.28327993053E+03  0.28327993057E+03  0.50400001928E-02 0. -1.
        1   -1    0    0  501    0  0.00000000000E+00  0.00000000000E+00 -0.16659068585E+04  0.16659068585E+04  0.50400001928E-02 0.  1.
    10030    2    1    2    0    0  0.00000000000E+00  0.00000000000E+00 -0.13826269280E+04  0.19491867891E+04  0.13739257319E+04 0.  0.
        5    1    3    3  502    0 -0.33967304548E+03 -0.54049219226E+03 -0.33132636156E+03  0.71924184777E+03  0.46999998093E+01 0. -1.
       -5    1    3    3    0  502  0.33967304548E+03  0.54049219226E+03 -0.10513005664E+04  0.12299449413E+04  0.46999998093E+01 0.  1.
</event>
<event>
 5   0  0.1644571E-03  0.1401327E+04  0.7818609E-02  0.8952859E-01
       -1   -1    0    0    0  501  0.00000000000E+00  0.00000000000E+00  0.32601943737E+03  0.32601943741E+03  0.50400001928E-02 0.  1.
        1   -1    0    0  501    0  0.00000000000E+00  0.00000000000E+00 -0.15058282638E+04  0.15058282638E+04  0.50400001928E-02 0. -1.
    10030    2    1    2    0    0  0.00000000000E+00  0.00000000000E+00 -0.11798088264E+04  0.18318477012E+04  0.14013269189E+04 0.  0.
        4    1    3    3  502    0 -0.49666394921E+03 -0.33916252879E+03 -0.11999183331E+03  0.61327477719E+03  0.12699999809E+01 0. -1.
       -4    1    3    3    0  502  0.49666394921E+03  0.33916252879E+03 -0.10598169931E+04  0.12185729240E+04  0.12699999809E+01 0.  1.
</event>
<event>
 5   0  0.1560957E-03  0.1592560E+04  0.7818609E-02  0.8825132E-01
        1   -1    0    0  501    0  0.00000000000E+00  0.00000000000E+00  0.16194140643E+04  0.16194140643E+04  0.50400001928E-02 0. -1.
       -1   -1    0    0    0  501  0.00000000000E+00  0.00000000000E+00 -0.39153765930E+03  0.39153765933E+03  0.50400001928E-02 0.  1.
    10030    2    1    2    0    0  0.00000000000E+00  0.00000000000E+00  0.12278764050E+04  0.20109517236E+04  0.15925596908E+04 0.  0.
        5    1    3    3  502    0  0.62956854584E+03  0.32764352710E+03  0.15807706746E+03  0.72712948229E+03  0.46999998093E+01 0.  1.
       -5    1    3    3    0  502 -0.62956854584E+03 -0.32764352710E+03  0.10697993375E+04  0.12838222413E+04  0.46999998093E+01 0. -1.
</event>
<event>
 5   0  0.3006737E-03  0.1396912E+04  0.7818609E-02  0.8956056E-01
        2   -1    0    0  501    0  0.00000000000E+00  0.00000000000E+00  0.17601374310E+04  0.17601374310E+04  0.25500000920E-02 0. -1.
       -2   -1    0    0    0  501  0.00000000000E+00  0.00000000000E+00 -0.27716081761E+03  0.27716081762E+03  0.25500000920E-02 0.  1.
    10030    2    1    2    0    0  0.00000000000E+00  0.00000000000E+00  0.14829766134E+04  0.20372982486E+04  0.13969124947E+04 0.  0.
        1    1    3    3  502    0 -0.54150016519E+03  0.13502206836E+03  0.13540073701E+04  0.14645099338E+04  0.50400001928E-02 0. -1.
       -1    1    3    3    0  502  0.54150016519E+03 -0.13502206836E+03  0.12896924326E+03  0.57278831481E+03  0.50400001928E-02 0.  1.
</event>
<event>
 5   0  0.2993993E-03  0.1502407E+04  0.7818609E-02  0.8882854E-01
       -2   -1    0    0    0  501  0.00000000000E+00  0.00000000000E+00  0.29985690939E+03  0.29985690940E+03  0.25500000920E-02 0.  1.
        2   -1    0    0  501    0  0.00000000000E+00  0.00000000000E+00 -0.18819199009E+04  0.18819199009E+04  0.25500000920E-02 0. -1.
    10030    2    1    2    0    0  0.00000000000E+00  0.00000000000E+00 -0.15820629915E+04  0.21817768103E+04  0.15024069825E+04 0.  0.
        3    1    3    3  502    0  0.60136033732E+03  0.44210605081E+03 -0.91437908036E+03  0.11803309401E+04  0.10100000352E+00 0. -1.
       -3    1    3    3    0  502 -0.60136033732E+03 -0.44210605081E+03 -0.66768391117E+03  0.10014458702E+04  0.10100000352E+00 0.  1.
</event>
<event>
 5   0  0.2889469E-03  0.1438708E+04  0.7818609E-02  0.8926267E-01
        2   -1    0    0  501    0  0.00000000000E+00  0.00000000000E+00  0.13433187391E+04  0.13433187392E+04  0.25500000920E-02 0.  1.
       -2   -1    0    0    0  501  0.00000000000E+00  0.00000000000E+00 -0.38521750755E+03  0.38521750756E+03  0.25500000920E-02 0. -1.
    10030    2    1    2    0    0  0.00000000000E+00  0.00000000000E+00  0.95810123160E+03  0.17285362467E+04  0.14387076097E+04 0.  0.
        5    1    3    3  502    0  0.70454995324E+02 -0.37192302208E+03  0.12139586308E+04  0.12716164075E+04  0.46999998093E+01 0.  1.
       -5    1    3    3    0  502 -0.70454995324E+02  0.37192302208E+03 -0.25585739917E+03  0.45691983917E+03  0.46999998093E+01 0. -1.
</event>
<event>
 5   0  0.1560957E-03  0.1436421E+04  0.7818609E-02  0.8927869E-01
       -1   -1    0    0    0  501  0.00000000000E+00  0.00000000000E+00  0.41271877686E+03  0.41271877689E+03  0.50400001928E-02 0. -1.
        1   -1    0    0  501    0  0.00000000000E+00  0.00000000000E+00 -0.12498252160E+04  0.12498252160E+04  0.50400001928E-02 0.  1.
    10030    2    1    2    0    0  0.00000000000E+00  0.00000000000E+00 -0.83710643909E+03  0.16625439929E+04  0.14364210169E+04 0.  0.
        5    1    3    3  502    0  0.21500655421E+03  0.59678317271E+03 -0.80835895260E+03  0.10275428263E+04  0.46999998093E+01 0.  1.
       -5    1    3    3    0  502 -0.21500655421E+03 -0.59678317271E+03 -0.28747486493E+02  0.63500116658E+03  0.46999998093E+01 0. -1.
</event>
<event>
 5   0  0.2993993E-03  0.1362077E+04  0.7818609E-02  0.8981736E-01
        2   -1    0    0  501    0  0.00000000000E+00  0.00000000000E+00  0.16600379102E+04  0.16600379102E+04  0.25500000920E-02 0.  1.
       -2   -1    0    0    0  501  0.00000000000E+00  0.00000000000E+00 -0.27939930451E+03  0.27939930452E+03  0.25500000920E-02 0. -1.
    10030    2    1    2    0    0  0.00000000000E+00  0.00000000000E+00  0.13806386056E+04  0.19394372147E+04  0.13620769987E+04 0.  0.
        3    1    3    3  502    0 -0.76990986777E+02 -0.52110747693E+03  0.75682252938E+02  0.53217330652E+03  0.10100000352E+00 0. -1.
       -3    1    3    3    0  502  0.76990986777E+02  0.52110747693E+03  0.13049563527E+04  0.14072639082E+04  0.10100000352E+00 0.  1.
</event>
<event>
 5   0  0.2760807E-03  0.1377131E+04  0.7818609E-02  0.8970541E-01
       -2   -1    0    0    0  501  0.00000000000E+00  0.00000000000E+00  0.98377522651E+03  0.98377522652E+03  0.25500000920E-02 0.  1.
        2   -1    0    0  501    0  0.00000000000E+00  0.00000000000E+00 -0.48194185122E+03  0.48194185123E+03  0.25500000920E-02 0. -1.
    10030    2    1    2    0    0  0.00000000000E+00  0.00000000000E+00  0.50183337529E+03  0.14657170777E+04  0.13771310088E+04 0.  0.
        4    1    3    3  502    0  0.53617365714E+02  0.74242339401E+02  0.97726328517E+03  0.98154566288E+03  0.12699999809E+01 0.  1.
       -4    1    3    3    0  502 -0.53617365714E+02 -0.74242339401E+02 -0.47542990988E+03  0.48417141487E+03  0.12699999809E+01 0. -1.
</event>
<event>
 5   0  0.2889469E-03  0.1405588E+04  0.7818609E-02  0.8949783E-01
        2   -1    0    0  501    0  0.00000000000E+00  0.00000000000E+00  0.23960923823E+04  0.23960923823E+04  0.25500000920E-02 0. -1.
       -2   -1    0    0    0  501  0.00000000000E+00  0.00000000000E+00 -0.20613541908E+03  0.20613541909E+03  0.25500000920E-02 0.  1.
    10030    2    1    2    0    0  0.00000000000E+00  0.00000000000E+00  0.21899569632E+04  0.26022278014E+04  0.14055881436E+04 0.  0.
        5    1    3    3  502    0 -0.18626537988E+03  0.48870337420E+03  0.19640691300E+04  0.20325145552E+04  0.46999998093E+01 0. -1.
       -5    1    3    3    0  502  0.18626537988E+03 -0.48870337420E+03  0.22588783322E+03  0.56971324619E+03  0.46999998093E+01 0.  1.
</event>
<event>
 5   0  0.1560957E-03  0.1242284E+04  0.7818609E-02  0.9076630E-01
        1   -1    0    0  501    0  0.00000000000E+00  0.00000000000E+00  0.12167252346E+04  0.12167252346E+04  0.50400001928E-02 0.  1.
       -1   -1    0    0    0  501  0.00000000000E+00  0.00000000000E+00 -0.31709476355E+03  0.31709476359E+03  0.50400001928E-02 0. -1.
    10030    2    1    2    0    0  0.00000000000E+00  0.00000000000E+00  0.89963047101E+03  0.15338199982E+04  0.12422837045E+04 0.  0.
        5    1    3    3  502    0  0.20748665205E+03 -0.51741396109E+03  0.11162352699E+03  0.56855063071E+03  0.46999998093E+01 0. -1.
       -5    1    3    3    0  502 -0.20748665205E+03  0.51741396109E+03  0.78800694402E+03  0.96526936744E+03  0.46999998093E+01 0.  1.
</event>
<event>
 5   0  0.2993993E-03  0.1496543E+04  0.7818609E-02  0.8886755E-01
        2   -1    0    0  501    0  0.00000000000E+00  0.00000000000E+00  0.12668884326E+04  0.12668884326E+04  0.25500000920E-02 0.  1.
       -2   -1    0    0    0  501  0.00000000000E+00  0.00000000000E+00 -0.44195731554E+03  0.44195731554E+03  0.25500000920E-02 0. -1.
    10030    2    1    2    0    0  0.00000000000E+00  0.00000000000E+00  0.82493111708E+03  0.17088457482E+04  0.14965434986E+04 0.  0.
        3    1    3    3  502    0 -0.58666069829E+03  0.38287391122E+03  0.11220283091E+03  0.70947353176E+03  0.10100000352E+00 0. -1.
       -3    1    3    3    0  502  0.58666069829E+03 -0.38287391122E+03  0.71272828618E+03  0.99937221641E+03  0.10100000352E+00 0.  1.
</event>
<event>
 5   0  0.3006737E-03  0.1159435E+04  0.7818609E-02  0.9149123E-01
       -2   -1    0    0    0  501  0.00000000000E+00  0.00000000000E+00  0.45633278308E+03  0.45633278308E+03  0.25500000920E-02 0.  1.
        2   -1    0    0  501    0  0.00000000000E+00  0.00000000000E+00 -0.73646373718E+03  0.73646373718E+03  0.25500000920E-02 0. -1.
    10030    2    1    2    0    0  0.00000000000E+00  0.00000000000E+00 -0.28013095410E+03  0.11927965203E+04  0.11594352881E+04 0.  0.
        1    1    3    3  502    0  0.92351639442E+02 -0.25861885639E+03  0.38517362703E+03  0.47304467144E+03  0.50400001928E-02 0.  1.
       -1    1    3    3    0  502 -0.92351639442E+02  0.25861885639E+03 -0.66530458113E+03  0.71975184883E+03  0.50400001928E-02 0. -1.
</event>
<event>
 5   0  0.2760807E-03  0.1357036E+04  0.7818609E-02  0.8985519E-01
        2   -1    0    0  501    0  0.00000000000E+00  0.00000000000E+00  0.11089154212E+04  0.11089154212E+04  0.25500000920E-02 0. -1.
       -2   -1    0    0    0  501  0.00000000000E+00  0.00000000000E+00 -0.41516867726E+03  0.41516867726E+03  0.25500000920E-02 0.  1.
    10030    2    1    2    0    0  0.00000000000E+00  0.00000000000E+00  0.69374674392E+03  0.15240840984E+04  0.13570364013E+04 0.  0.
        4    1    3    3  502    0 -0.40410091965E+00  0.66771106536E+03  0.21141503781E+03  0.70038286759E+03  0.12699999809E+01 0.  1.
       -4    1    3    3    0  502  0.40410091965E+00 -0.66771106536E+03  0.48233170611E+03  0.82370123086E+03  0.12699999809E+01 0. -1.
</event>
<event>
 5   0  0.3006737E-03  0.1423327E+04  0.7818609E-02  0.8937104E-01
        2   -1    0    0  501    0  0.00000000000E+00  0.00000000000E+00  0.15729514063E+04  0.15729514063E+04  0.25500000920E-02 0. -1.
       -2   -1    0    0    0  501  0.00000000000E+00  0.00000000000E+00 -0.32198379259E+03  0.32198379260E+03  0.25500000920E-02 0.  1.
    10030    2    1    2    0    0  0.00000000000E+00  0.00000000000E+00  0.12509676137E+04  0.18949351989E+04  0.14233268906E+04 0.  0.
        1    1    3    3  502    0  0.17914020753E+03 -0.61740435408E+03  0.10318933519E+04  0.12157644674E+04  0.50400001928E-02 0. -1.
       -1    1    3    3    0  502 -0.17914020753E+03  0.61740435408E+03  0.21907426185E+03  0.67917073157E+03  0.50400001928E-02 0.  1.
</event>
<event>
 5   0  0.2993993E-03  0.1404387E+04  0.7818609E-02  0.8950649E-01
       -2   -1    0    0    0  501  0.00000000000E+00  0.00000000000E+00  0.41428379363E+03  0.41428379364E+03  0.25500000920E-02 0.  1.
        2   -1    0    0  501    0  0.00000000000E+00  0.00000000000E+00 -0.11901883511E+04  0.11901883511E+04  0.25500000920E-02 0. -1.
    10030    2    1    2    0    0  0.00000000000E+00  0.00000000000E+00 -0.77590455749E+03  0.16044721448E+04  0.14043870481E+04 0.  0.
        3    1    3    3  502    0 -0.52157861446E+03  0.38754924365E+03 -0.69202373488E+03  0.94928158476E+03  0.10100000352E+00 0. -1.
       -3    1    3    3    0  502  0.52157861446E+03 -0.38754924365E+03 -0.83880822604E+02  0.65519056000E+03  0.10100000352E+00 0.  1.
</event>
<event>
 5   0  0.2917809E-03  0.1408579E+04  0.7818609E-02  0.8947632E-01
        2   -1    0    0  501    0  0.00000000000E+00  0.00000000000E+00  0.71832434732E+03  0.71832434732E+03  0.25500000920E-02 0. -1.
       -2   -1    0    0    0  501  0.00000000000E+00  0.00000000000E+00 -0.69052900297E+03  0.69052900297E+03  0.25500000920E-02 0.  1.
    10030    2    1    2    0    0  0.00000000000E+00  0.00000000000E+00  0.27795344352E+02  0.14088533503E+04  0.14085791357E+04 0.  0.
        2    1    3    3  502    0 -0.53787709361E+03 -0.43150683516E+03  0.15715222385E+03  0.70725295199E+03  0.25500000920E-02 0. -1.
       -2    1    3    3    0  502  0.53787709361E+03  0.43150683516E+03 -0.12935687950E+03  0.70160039831E+03  0.25500000920E-02 0.  1.
</event>
<event>
 5   0  0.3006737E-03  0.1413585E+04  0.7818609E-02  0.8944043E-01
       -2   -1    0    0    0  501  0.00000000000E+00  0.00000000000E+00  0.59545735335E+03  0.59545735336E+03  0.25500000920E-02 0.  1.
        2   -1    0    0  501    0  0.00000000000E+00  0.00000000000E+00 -0.83894424941E+03  0.83894424941E+03  0.25500000920E-02 0. -1.
    10030    2    1    2    0    0  0.00000000000E+00  0.00000000000E+00 -0.24348689605E+03  0.14344016028E+04  0.14135848363E+04 0.  0.
        1    1    3    3  502    0 -0.12067839017E+03 -0.48738164456E+03 -0.62651378443E+03  0.80288458910E+03  0.50400001928E-02 0. -1.
       -1    1    3    3    0  502  0.12067839017E+03  0.48738164456E+03  0.38302688837E+03  0.63151701367E+03  0.50400001928E-02 0.  1.
</event>
<event>
 5   0  0.2917809E-03  0.1381381E+04  0.7818609E-02  0.8967407E-01
        2   -1    0    0  501    0  0.00000000000E+00  0.00000000000E+00  0.40103756904E+03  0.40103756904E+03  0.25500000920E-02 0. -1.
       -2   -1    0    0    0  501  0.00000000000E+00  0.00000000000E+00 -0.11895476176E+04  0.11895476176E+04  0.25500000920E-02 0.  1.
    10030    2    1    2    0    0  0.00000000000E+00  0.00000000000E+00 -0.78851004860E+03  0.15905851867E+04  0.13813808813E+04 0.  0.
        2    1    3    3  502    0  0.34530863780E+03  0.50599662577E+02  0.29204423973E+03  0.45506946630E+03  0.25500000920E-02 0. -1.
       -2    1    3    3    0  502 -0.34530863780E+03 -0.50599662577E+02 -0.10805542883E+04  0.11355157204E+04  0.25500000920E-02 0.  1.
</event>
<event>
 5   0  0.1586022E-03  0.1430931E+04  0.7818609E-02  0.8931728E-01
        1   -1    0    0  501    0  0.00000000000E+00  0.00000000000E+00  0.92234193636E+03  0.92234193637E+03  0.50400001928E-02 0. -1.
       -1   -1    0    0    0  501  0.00000000000E+00  0.00000000000E+00 -0.55499053137E+03  0.55499053139E+03  0.50400001928E-02 0.  1.
    10030    2    1    2    0    0  0.00000000000E+00  0.00000000000E+00  0.36735140499E+03  0.14773324678E+04  0.14309312232E+04 0.  0.
        1    1    3    3  502    0  0.34990711105E+03 -0.54047932665E+03 -0.13843194188E+03  0.65857140195E+03  0.50400001928E-02 0.  1.
       -1    1    3    3    0  502 -0.34990711105E+03  0.54047932665E+03  0.50578334687E+03  0.81876106582E+03  0.50400001928E-02 0. -1.
</event>
<event>
 5   0  0.1700207E-03  0.1406184E+04  0.7818609E-02  0.8949354E-01
        1   -1    0    0  501    0  0.00000000000E+00  0.00000000000E+00  0.14323857779E+04  0.14323857779E+04  0.50400001928E-02 0.  1.
       -1   -1    0    0    0  501  0.00000000000E+00  0.00000000000E+00 -0.34511557951E+03  0.34511557955E+03  0.50400001928E-02 0. -1.
    10030    2    1    2    0    0  0.00000000000E+00  0.00000000000E+00  0.10872701984E+04  0.17775013575E+04  0.14061844088E+04 0.  0.
        2    1    3    3  502    0  0.50102908735E+03 -0.44448468377E+03  0.81398399993E+03  0.10541189367E+04  0.25500000920E-02 0.  1.
       -2    1    3    3    0  502 -0.50102908735E+03  0.44448468377E+03  0.27328619850E+03  0.72338242083E+03  0.25500000920E-02 0. -1.
</event>
<event>
 5   0  0.1644571E-03  0.1279721E+04  0.7818609E-02  0.9045803E-01
        1   -1    0    0  501    0  0.00000000000E+00  0.00000000000E+00  0.22853282739E+04  0.22853282739E+04  0.50400001928E-02 0. -1.
       -1   -1    0    0    0  501  0.00000000000E+00  0.00000000000E+00 -0.17915211376E+03  0.17915211383E+03  0.50400001928E-02 0.  1.
    10030    2    1    2    0    0  0.00000000000E+00  0.00000000000E+00  0.21061761602E+04  0.24644803878E+04  0.12797208930E+04 0.  0.
        4    1    3    3  502    0 -0.25121435848E+03 -0.57072633635E+03  0.77680140484E+03  0.99612210114E+03  0.12699999809E+01 0.  1.
       -4    1    3    3    0  502  0.25121435848E+03  0.57072633635E+03  0.13293747553E+04  0.14683582866E+04  0.12699999809E+01 0. -1.
</event>
<event>
 5   0  0.1560957E-03  0.1395270E+04  0.7818609E-02  0.8957249E-01
       -1   -1    0    0    0  501  0.00000000000E+00  0.00000000000E+00  0.64708263617E+03  0.64708263619E+03  0.50400001928E-02 0. -1.
        1   -1    0    0  501    0  0.00000000000E+00  0.00000000000E+00 -0.75213706858E+03  0.75213706859E+03  0.50400001928E-02 0.  1.
    10030    2    1    2    0    0  0.00000000000E+00  0.00000000000E+00 -0.10505443240E+03  0.13992197048E+04  0.13952703496E+04 0.  0.
        5    1    3    3  502    0 -0.75886556562E+02  0.68904746619E+03 -0.13102756410E+03  0.70550371557E+03  0.46999998093E+01 0.  1.
       -5    1    3    3    0  502  0.75886556562E+02 -0.68904746619E+03  0.25973131696E+02  0.69371598922E+03  0.46999998093E+01 0. -1.
</event>
<event>
 5   0  0.2993993E-03  0.1391122E+04  0.7818609E-02  0.8960270E-01
        2   -1    0    0  501    0  0.00000000000E+00  0.00000000000E+00  0.52541987646E+03  0.52541987646E+03  0.25500000920E-02 0. -1.
       -2   -1    0    0    0  501  0.00000000000E+00  0.00000000000E+00 -0.92079695478E+03  0.92079695478E+03  0.25500000920E-02 0.  1.
    10030    2    1    2    0    0  0.00000000000E+00  0.00000000000E+00 -0.39537707832E+03  0.14462168312E+04  0.13911218814E+04 0.  0.
        3    1    3    3  502    0 -0.47394868109E+03 -0.19908943802E+03 -0.68479748282E+03  0.85627773492E+03  0.10100000352E+00 0.  1.
       -3    1    3    3    0  502  0.47394868109E+03  0.19908943802E+03  0.28942040449E+03  0.58993909633E+03  0.10100000352E+00 0. -1.
</event>
<event>
 5   0  0.1104538E-03  0.1393063E+04  0.7818609E-02  0.8958856E-01
       -3   -1    0    0    0  501  0.00000000000E+00  0.00000000000E+00  0.52188387437E+03  0.52188388415E+03  0.10100000352E+00 0. -1.
        3   -1    0    0  501    0  0.00000000000E+00  0.00000000000E+00 -0.92962418395E+03  0.92962418944E+03  0.10100000352E+00 0.  1.
    10030    2    1    2    0    0  0.00000000000E+00  0.00000000000E+00 -0.40774030958E+03  0.14515080736E+04  0.13930626431E+04 0.  0.
        3    1    3    3  502    0  0.32621428592E+03 -0.12404813031E+03 -0.83194686615E+03  0.90218584409E+03  0.10100000352E+00 0.  1.
       -3    1    3    3    0  502 -0.32621428592E+03  0.12404813031E+03  0.42420655658E+03  0.54932222949E+03  0.10100000352E+00 0. -1.
</event>
<event>
 5   0  0.2993993E-03  0.1401674E+04  0.7818609E-02  0.8952608E-01
        2   -1    0    0  501    0  0.00000000000E+00  0.00000000000E+00  0.80525370596E+03  0.80525370596E+03  0.25500000920E-02 0.  1.
       -2   -1    0    0    0  501  0.00000000000E+00  0.00000000000E+00 -0.60996015511E+03  0.60996015512E+03  0.25500000920E-02 0. -1.
    10030    2    1    2    0    0  0.00000000000E+00  0.00000000000E+00  0.19529355084E+03  0.14152138611E+04  0.14016742495E+04 0.  0.
        3    1    3    3  502    0 -0.43132627885E+03 -0.82864727318E+02 -0.45376395189E+03  0.63151457314E+03  0.10100000352E+00 0. -1.
       -3    1    3    3    0  502  0.43132627885E+03  0.82864727318E+02  0.64905750273E+03  0.78369928793E+03  0.10100000352E+00 0.  1.
</event>
<event>
 5   0  0.1631380E-03  0.1453923E+04  0.7818609E-02  0.8915685E-01
       -1   -1    0    0    0  501  0.00000000000E+00  0.00000000000E+00  0.13126529092E+04  0.13126529092E+04  0.50400001928E-02 0. -1.
        1   -1    0    0  501    0  0.00000000000E+00  0.00000000000E+00 -0.40259947760E+03  0.40259947763E+03  0.50400001928E-02 0.  1.
    10030    2    1    2    0    0  0.00000000000E+00  0.00000000000E+00  0.91005343161E+03  0.17152523869E+04  0.14539234857E+04 0.  0.
        3    1    3    3  502    0  0.19114127177E+03  0.62218328786E+03  0.83699005669E+03  0.10602826956E+04  0.10100000352E+00 0. -1.
       -3    1    3    3    0  502 -0.19114127177E+03 -0.62218328786E+03  0.73063374923E+02  0.65496969122E+03  0.10100000352E+00 0.  1.
</event>
<event>
 5   0  0.1644571E-03  0.1421573E+04  0.7818609E-02  0.8938350E-01
        1   -1    0    0  501    0  0.00000000000E+00  0.00000000000E+00  0.62459375968E+03  0.62459375970E+03  0.50400001928E-02 0. -1.
       -1   -1    0    0    0  501  0.00000000000E+00  0.00000000000E+00 -0.80887311064E+03  0.80887311066E+03  0.50400001928E-02 0.  1.
    10030    2    1    2    0    0  0.00000000000E+00  0.00000000000E+00 -0.18427935097E+03  0.14334668704E+04  0.14215725058E+04 0.  0.
        4    1    3    3  502    0 -0.27979730681E+03  0.49729035334E+03  0.33523580111E+03  0.66179217558E+03  0.12699999809E+01 0. -1.
       -4    1    3    3    0  502  0.27979730681E+03 -0.49729035334E+03 -0.51951515208E+03  0.77167469477E+03  0.12699999809E+01 0.  1.
</event>
<event>
 5   0  0.1560957E-03  0.1452414E+04  0.7818609E-02  0.8916728E-01
        1   -1    0    0  501    0  0.00000000000E+00  0.00000000000E+00  0.10313705318E+04  0.10313705318E+04  0.50400001928E-02 0.  1.
       -1   -1    0    0    0  501  0.00000000000E+00  0.00000000000E+00 -0.51133589532E+03  0.51133589534E+03  0.50400001928E-02 0. -1.
    10030    2    1    2    0    0  0.00000000000E+00  0.00000000000E+00  0.52003463649E+03  0.15427064272E+04  0.14524142306E+04 0.  0.
        5    1    3    3  502    0 -0.46561312009E+03 -0.49220730848E+03 -0.17554109391E+02  0.67778599047E+03  0.46999998093E+01 0. -1.
       -5    1    3    3    0  502  0.46561312009E+03  0.49220730848E+03  0.53758874588E+03  0.86492043669E+03  0.46999998093E+01 0.  1.
</event>
<event>
 5   0  0.2760807E-03  0.1390518E+04  0.7818609E-02  0.8960711E-01
        2   -1    0    0  501    0  0.00000000000E+00  0.00000000000E+00  0.10292288358E+04  0.10292288358E+04  0.25500000920E-02 0. -1.
       -2   -1    0    0    0  501  0.00000000000E+00  0.00000000000E+00 -0.46965761664E+03  0.46965761665E+03  0.25500000920E-02 0.  1.
    10030    2    1    2    0    0  0.00000000000E+00  0.00000000000E+00  0.55957121911E+03  0.14988864524E+04  0.13905181221E+04 0.  0.
        4    1    3    3  502    0  0.13529954618E+03 -0.64698176361E+03  0.47361040849E+02  0.66267341182E+03  0.12699999809E+01 0. -1.
       -4    1    3    3    0  502 -0.13529954618E+03  0.64698176361E+03  0.51221017826E+03  0.83621304059E+03  0.12699999809E+01 0.  1.
</event>
<event>
 5   0  0.2760807E-03  0.1219666E+04  0.7818609E-02  0.9095815E-01
        2   -1    0    0  501    0  0.00000000000E+00  0.00000000000E+00  0.98973271599E+03  0.98973271599E+03  0.25500000920E-02 0. -1.
       -2   -1    0    0    0  501  0.00000000000E+00  0.00000000000E+00 -0.37575449081E+03  0.37575449082E+03  0.25500000920E-02 0.  1.
    10030    2    1    2    0    0  0.00000000000E+00  0.00000000000E+00  0.61397822518E+03  0.13654872068E+04  0.12196663687E+04 0.  0.
        4    1    3    3  502    0 -0.31576846341E+03  0.39277011082E+03 -0.77456103834E+02  0.50988149933E+03  0.12699999809E+01 0.  1.
       -4    1    3    3    0  502  0.31576846341E+03 -0.39277011082E+03  0.69143432901E+03  0.85560570748E+03  0.12699999809E+01 0. -1.
</event>
<event>
 5   0  0.2993993E-03  0.1428427E+04  0.7818609E-02  0.8933495E-01
        2   -1    0    0  501    0  0.00000000000E+00  0.00000000000E+00  0.14213236900E+04  0.14213236900E+04  0.25500000920E-02 0. -1.
       -2   -1    0    0    0  501  0.00000000000E+00  0.00000000000E+00 -0.35889130916E+03  0.35889130917E+03  0.25500000920E-02 0.  1.
    10030    2    1    2    0    0  0.00000000000E+00  0.00000000000E+00  0.10624323809E+04  0.17802149992E+04  0.14284267148E+04 0.  0.
        3    1    3    3  502    0 -0.16058276321E+03 -0.51225763245E+03 -0.55866151819E+02  0.53973673487E+03  0.10100000352E+00 0.  1.
       -3    1    3    3    0  502  0.16058276321E+03  0.51225763245E+03  0.11182985327E+04  0.12404782643E+04  0.10100000352E+00 0. -1.
</event>
<event>
 5   0  0.1586022E-03  0.1443020E+04  0.7818609E-02  0.8923254E-01
        1   -1    0    0  501    0  0.00000000000E+00  0.00000000000E+00  0.19752973852E+04  0.19752973852E+04  0.50400001928E-02 0. -1.
       -1   -1    0    0    0  501  0.00000000000E+00  0.00000000000E+00 -0.26354357180E+03  0.26354357185E+03  0.50400001928E-02 0.  1.
    10030    2    1    2    0    0  0.00000000000E+00  0.00000000000E+00  0.17117538134E+04  0.22388409570E+04  0.14430203440E+04 0.  0.
        1    1    3    3  502    0 -0.56330216559E+03 -0.56387141120E+01  0.15643620887E+03  0.58464810983E+03  0.50400001928E-02 0.  1.
       -1    1    3    3    0  502  0.56330216559E+03  0.56387141120E+01  0.15553176045E+04  0.16541928472E+04  0.50400001928E-02 0. -1.
</event>
<event>
 5   0  0.2760807E-03  0.1310513E+04  0.7818609E-02  0.9021269E-01
        2   -1    0    0  501    0  0.00000000000E+00  0.00000000000E+00  0.28252145828E+04  0.28252145828E+04  0.25500000920E-02 0.  1.
       -2   -1    0    0    0  501  0.00000000000E+00  0.00000000000E+00 -0.15197475007E+03  0.15197475009E+03  0.25500000920E-02 0. -1.
    10030    2    1    2    0    0  0.00000000000E+00  0.00000000000E+00  0.26732398328E+04  0.29771893329E+04  0.13105133042E+04 0.  0.
        4    1    3    3  502    0  0.62815638341E+03  0.16573210885E+03  0.11423587987E+04  0.13141662040E+04  0.12699999809E+01 0.  1.
       -4    1    3    3    0  502 -0.62815638341E+03 -0.16573210885E+03  0.15308810341E+04  0.16630231289E+04  0.12699999809E+01 0. -1.
</event>
<event>
 5   0  0.1644571E-03  0.1336626E+04  0.7818609E-02  0.9001014E-01
        1   -1    0    0  501    0  0.00000000000E+00  0.00000000000E+00  0.23408208695E+04  0.23408208695E+04  0.50400001928E-02 0. -1.
       -1   -1    0    0    0  501  0.00000000000E+00  0.00000000000E+00 -0.19080582497E+03  0.19080582504E+03  0.50400001928E-02 0.  1.
    10030    2    1    2    0    0  0.00000000000E+00  0.00000000000E+00  0.21500150445E+04  0.25316266945E+04  0.13366259869E+04 0.  0.
        4    1    3    3  502    0 -0.37506968376E+03  0.14831382709E+03  0.20843143997E+04  0.21229796015E+04  0.12699999809E+01 0. -1.
       -4    1    3    3    0  502  0.37506968376E+03 -0.14831382709E+03  0.65700644843E+02  0.40864709299E+03  0.12699999809E+01 0.  1.
</event>
<event>
 5   0  0.3006737E-03  0.1411708E+04  0.7818609E-02  0.8945387E-01
        2   -1    0    0  501    0  0.00000000000E+00  0.00000000000E+00  0.79882756531E+03  0.79882756532E+03  0.25500000920E-02 0.  1.
       -2   -1    0    0    0  501  0.00000000000E+00  0.00000000000E+00 -0.62370148225E+03  0.62370148225E+03  0.25500000920E-02 0. -1.
    10030    2    1    2    0    0  0.00000000000E+00  0.00000000000E+00  0.17512608307E+03  0.14225290476E+04  0.14117080953E+04 0.  0.
        1    1    3    3  502    0 -0.36792023422E+03  0.43471010448E+03 -0.33263666357E+03  0.65953417172E+03  0.50400001928E-02 0. -1.
       -1    1    3    3    0  502  0.36792023422E+03 -0.43471010448E+03  0.50776274663E+03  0.76299487586E+03  0.50400001928E-02 0.  1.
</event>
<event>
 5   0  0.2889469E-03  0.1421076E+04  0.7818609E-02  0.8938703E-01
        2   -1    0    0  501    0  0.00000000000E+00  0.00000000000E+00  0.10283370532E+04  0.10283370532E+04  0.25500000920E-02 0.  1.
       -2   -1    0    0    0  501  0.00000000000E+00  0.00000000000E+00 -0.49095178152E+03  0.49095178153E+03  0.25500000920E-02 0. -1.
    10030    2    1    2    0    0  0.00000000000E+00  0.00000000000E+00  0.53738527171E+03  0.15192888348E+04  0.14210755199E+04 0.  0.
        5    1    3    3  502    0  0.10194385819E+03  0.66731441540E+03  0.50569028061E+03  0.84347248273E+03  0.46999998093E+01 0.  1.
       -5    1    3    3    0  502 -0.10194385819E+03 -0.66731441540E+03  0.31694991093E+02  0.67581635204E+03  0.46999998093E+01 0. -1.
</event>
<event>
 5   0  0.1586022E-03  0.1348683E+04  0.7818609E-02  0.8991825E-01
       -1   -1    0    0    0  501  0.00000000000E+00  0.00000000000E+00  0.48464762093E+03  0.48464762096E+03  0.50400001928E-02 0.  1.
        1   -1    0    0  501    0  0.00000000000E+00  0.00000000000E+00 -0.93828298485E+03  0.93828298486E+03  0.50400001928E-02 0. -1.
    10030    2    1    2    0    0  0.00000000000E+00  0.00000000000E+00 -0.45363536392E+03  0.14229306058E+04  0.13486832340E+04 0.  0.
        1    1    3    3  502    0 -0.12631599157E+03 -0.49151093057E+03  0.24169882409E+03  0.56210056590E+03  0.50400001928E-02 0.  1.
       -1    1    3    3    0  502  0.12631599157E+03  0.49151093057E+03 -0.69533418800E+03  0.86083003992E+03  0.50400001928E-02 0. -1.
</event>
<event>
 5   0  0.1586022E-03  0.1375619E+04  0.7818609E-02  0.8971658E-01
        1   -1    0    0  501    0  0.00000000000E+00  0.00000000000E+00  0.13419796159E+04  0.13419796159E+04  0.50400001928E-02 0.  1.
       -1   -1    0    0    0  501  0.00000000000E+00  0.00000000000E+00 -0.35252561569E+03  0.35252561573E+03  0.50400001928E-02 0. -1.
    10030    2    1    2    0    0  0.00000000000E+00  0.00000000000E+00  0.98945400024E+03  0.16945052317E+04  0.13756194102E+04 0.  0.
        1    1    3    3  502    0  0.12041213603E+03  0.54806424626E+03  0.98468605240E+03  0.11333490735E+04  0.50400001928E-02 0.  1.
       -1    1    3    3    0  502 -0.12041213603E+03 -0.54806424626E+03  0.47679478429E+01  0.56115615820E+03  0.50400001928E-02 0. -1.
</event>
<event>
 5   0  0.1644571E-03  0.1503414E+04  0.7818609E-02  0.8882186E-01
       -1   -1    0    0    0  501  0.00000000000E+00  0.00000000000E+00  0.57692372365E+03  0.57692372368E+03  0.50400001928E-02 0.  1.
        1   -1    0    0  501    0  0.00000000000E+00  0.00000000000E+00 -0.97944274050E+03  0.97944274052E+03  0.50400001928E-02 0. -1.
    10030    2    1    2    0    0  0.00000000000E+00  0.00000000000E+00 -0.40251901685E+03  0.15563664642E+04  0.15034144512E+04 0.  0.
        4    1    3    3  502    0  0.50785523085E+03 -0.20720048942E+03 -0.73338047084E+03  0.91580429472E+03  0.12699999809E+01 0.  1.
       -4    1    3    3    0  502 -0.50785523085E+03  0.20720048942E+03  0.33086145399E+03  0.64056216947E+03  0.12699999809E+01 0. -1.
</event>
<event>
 5   0  0.2760807E-03  0.1368057E+04  0.7818609E-02  0.8977271E-01
        2   -1    0    0  501    0  0.00000000000E+00  0.00000000000E+00  0.15477510016E+04  0.15477510016E+04  0.25500000920E-02 0.  1.
       -2   -1    0    0    0  501  0.00000000000E+00  0.00000000000E+00 -0.30230640597E+03  0.30230640598E+03  0.25500000920E-02 0. -1.
    10030    2    1    2    0    0  0.00000000000E+00  0.00000000000E+00  0.12454445957E+04  0.18500574076E+04  0.13680570787E+04 0.  0.
        4    1    3    3  502    0  0.33982291135E+03  0.15205379510E+03 -0.15329703575E+03  0.40261838228E+03  0.12699999809E+01 0. -1.
       -4    1    3    3    0  502 -0.33982291135E+03 -0.15205379510E+03  0.13987416314E+04  0.14474390253E+04  0.12699999809E+01 0.  1.
</event>
<event>
 5   0  0.1586022E-03  0.1404961E+04  0.7818609E-02  0.8950235E-01
       -1   -1    0    0    0  501  0.00000000000E+00  0.00000000000E+00  0.20994793176E+03  0.20994793182E+03  0.50400001928E-02 0. -1.
        1   -1    0    0  501    0  0.00000000000E+00  0.00000000000E+00 -0.23504833896E+04  0.23504833896E+04  0.50400001928E-02 0.  1.
    10030    2    1    2    0    0  0.00000000000E+00  0.00000000000E+00 -0.21405354578E+04  0.25604313214E+04  0.14049613893E+04 0.  0.
        1    1    3    3  502    0  0.25509706538E+03  0.62425603696E+03 -0.71171354388E+03  0.98046227924E+03  0.50400001928E-02 0. -1.
       -1    1    3    3    0  502 -0.25509706538E+03 -0.62425603696E+03 -0.14288219139E+04  0.15799690422E+04  0.50400001928E-02 0.  1.
</event>
<event>
 5   0  0.3006737E-03  0.1173418E+04  0.7818609E-02  0.9136447E-01
       -2   -1    0    0    0  501  0.00000000000E+00  0.00000000000E+00  0.22357190265E+03  0.22357190266E+03  0.25500000920E-02 0.  1.
        2   -1    0    0  501    0  0.00000000000E+00  0.00000000000E+00 -0.15396720526E+04  0.15396720526E+04  0.25500000920E-02 0. -1.
    10030    2    1    2    0    0  0.00000000000E+00  0.00000000000E+00 -0.13161001499E+04  0.17632439553E+04  0.11734179311E+04 0.  0.
        1    1    3    3  502    0  0.12841912947E+03  0.19617707034E+03 -0.14662089345E+04  0.14848385620E+04  0.50400001928E-02 0. -1.
       -1    1    3    3    0  502 -0.12841912947E+03 -0.19617707034E+03  0.15010878455E+03  0.27840539321E+03  0.50400001928E-02 0.  1.
</event>
<event>
 5   0  0.1104538E-03  0.1271457E+04  0.7818609E-02  0.9052511E-01
       -3   -1    0    0    0  501  0.00000000000E+00  0.00000000000E+00  0.14306206801E+04  0.14306206837E+04  0.10100000352E+00 0. -1.
        3   -1    0    0  501    0  0.00000000000E+00  0.00000000000E+00 -0.28250024045E+03  0.28250025850E+03  0.10100000352E+00 0.  1.
    10030    2    1    2    0    0  0.00000000000E+00  0.00000000000E+00  0.11481204397E+04  0.17131209422E+04  0.12714569669E+04 0.  0.
        1    1    3    3  502    0  0.10859900055E+03  0.25842896885E+03  0.13428533639E+04  0.13717997054E+04  0.50400001928E-02 0. -1.
       -1    1    3    3    0  502 -0.10859900055E+03 -0.25842896885E+03 -0.19473292422E+03  0.34132123676E+03  0.50400001928E-02 0.  1.
</event>
<event>
 5   0  0.1560957E-03  0.1423666E+04  0.7818609E-02  0.8936864E-01
        1   -1    0    0  501    0  0.00000000000E+00  0.00000000000E+00  0.13730753554E+04  0.13730753554E+04  0.50400001928E-02 0. -1.
       -1   -1    0    0    0  501  0.00000000000E+00  0.00000000000E+00 -0.36903000314E+03  0.36903000317E+03  0.50400001928E-02 0.  1.
    10030    2    1    2    0    0  0.00000000000E+00  0.00000000000E+00  0.10040453523E+04  0.17421053586E+04  0.14236656950E+04 0.  0.
        5    1    3    3  502    0  0.11905235701E+03 -0.10906039739E+03 -0.34630890434E+03  0.38212508582E+03  0.46999998093E+01 0.  1.
       -5    1    3    3    0  502 -0.11905235701E+03  0.10906039739E+03  0.13503542566E+04  0.13599802728E+04  0.46999998093E+01 0. -1.
</event>
<event>
 5   0  0.2993993E-03  0.1417117E+04  0.7818609E-02  0.8941521E-01
       -2   -1    0    0    0  501  0.00000000000E+00  0.00000000000E+00  0.99390454980E+03  0.99390454981E+03  0.25500000920E-02 0.  1.
        2   -1    0    0  501    0  0.00000000000E+00  0.00000000000E+00 -0.50513388842E+03  0.50513388843E+03  0.25500000920E-02 0. -1.
    10030    2    1    2    0    0  0.00000000000E+00  0.00000000000E+00  0.48877066138E+03  0.14990384382E+04  0.14171166077E+04 0.  0.
        3    1    3    3  502    0  0.38556217972E+03  0.58947954873E+03  0.16306104016E+03  0.72300293624E+03  0.10100000352E+00 0.  1.
       -3    1    3    3    0  502 -0.38556217972E+03 -0.58947954873E+03  0.32570962122E+03  0.77603550199E+03  0.10100000352E+00 0. -1.
</event>
<event>
 5   0  0.1586022E-03  0.1370548E+04  0.7818609E-02  0.8975417E-01
       -1   -1    0    0    0  501  0.00000000000E+00  0.00000000000E+00  0.40522267392E+03  0.40522267395E+03  0.50400001928E-02 0. -1.
        1   -1    0    0  501    0  0.00000000000E+00  0.00000000000E+00 -0.11588708943E+04  0.11588708943E+04  0.50400001928E-02 0.  1.
    10030    2    1    2    0    0  0.00000000000E+00  0.00000000000E+00 -0.75364822033E+03  0.15640935682E+04  0.13705484487E+04 0.  0.
        1    1    3    3  502    0 -0.49119160765E+03 -0.28381362920E+03  0.61886575608E+02  0.57065691953E+03  0.50400001928E-02 0. -1.
       -1    1    3    3    0  502  0.49119160765E+03  0.28381362920E+03 -0.81553479594E+03  0.99343664869E+03  0.50400001928E-02 0.  1.
</event>
<event>
 5   0  0.1560957E-03  0.1381754E+04  0.7818609E-02  0.8967133E-01
       -1   -1    0    0    0  501  0.00000000000E+00  0.00000000000E+00  0.91128911695E+03  0.91128911696E+03  0.50400001928E-02 0. -1.
        1   -1    0    0  501    0  0.00000000000E+00  0.00000000000E+00 -0.52377594006E+03  0.52377594009E+03  0.50400001928E-02 0.  1.
    10030    2    1    2    0    0  0.00000000000E+00  0.00000000000E+00  0.38751317689E+03  0.14350650570E+04  0.13817544122E+04 0.  0.
        5    1    3    3  502    0 -0.48326708559E+03 -0.27036722855E+03  0.62278482035E+03  0.83338378719E+03  0.46999998093E+01 0. -1.
       -5    1    3    3    0  502  0.48326708559E+03  0.27036722855E+03 -0.23527164347E+03  0.60168126986E+03  0.46999998093E+01 0.  1.
</event>
<event>
 5   0  0.1104538E-03  0.1364302E+04  0.7818609E-02  0.8980072E-01
        3   -1    0    0  501    0  0.00000000000E+00  0.00000000000E+00  0.43040984282E+03  0.43040985467E+03  0.10100000352E+00 0. -1.
       -3   -1    0    0    0  501  0.00000000000E+00  0.00000000000E+00 -0.10811324430E+04  0.10811324477E+04  0.10100000352E+00 0.  1.
    10030    2    1    2    0    0  0.00000000000E+00  0.00000000000E+00 -0.65072260019E+03  0.15115423024E+04  0.13643021035E+04 0.  0.
        5    1    3    3  502    0 -0.46499694862E+03  0.46863439350E+02  0.22514358309E+03  0.51877747366E+03  0.46999998093E+01 0. -1.
       -5    1    3    3    0  502  0.46499694862E+03 -0.46863439350E+02 -0.87586618327E+03  0.99276482873E+03  0.46999998093E+01 0.  1.
</event>
<event>
 5   0  0.2889469E-03  0.1402959E+04  0.7818609E-02  0.8951680E-01
        2   -1    0    0  501    0  0.00000000000E+00  0.00000000000E+00  0.31343671243E+04  0.31343671243E+04  0.25500000920E-02 0. -1.
       -2   -1    0    0    0  501  0.00000000000E+00  0.00000000000E+00 -0.15699288530E+03  0.15699288532E+03  0.25500000920E-02 0.  1.
    10030    2    1    2    0    0  0.00000000000E+00  0.00000000000E+00  0.29773742390E+04  0.32913600096E+04  0.14029587855E+04 0.  0.
        5    1    3    3  502    0  0.20170127102E+03  0.43095022407E+03  0.27952319651E+03  0.55186665577E+03  0.46999998093E+01 0.  1.
       -5    1    3    3    0  502 -0.20170127102E+03 -0.43095022407E+03  0.26978510425E+04  0.27394933539E+04  0.46999998093E+01 0. -1.
</event>
<event>
 5   0  0.1586022E-03  0.1273100E+04  0.7818609E-02  0.9051173E-01
       -1   -1    0    0    0  501  0.00000000000E+00  0.00000000000E+00  0.20125237308E+03  0.20125237314E+03  0.50400001928E-02 0.  1.
        1   -1    0    0  501    0  0.00000000000E+00  0.00000000000E+00 -0.20133723891E+04  0.20133723891E+04  0.50400001928E-02 0. -1.
    10030    2    1    2    0    0  0.00000000000E+00  0.00000000000E+00 -0.18121200161E+04  0.22146247623E+04  0.12731001081E+04 0.  0.
        1    1    3    3  502    0  0.63101052025E+03  0.53690343276E+02 -0.79414521545E+03  0.10157379351E+04  0.50400001928E-02 0.  1.
       -1    1    3    3    0  502 -0.63101052025E+03 -0.53690343276E+02 -0.10179748006E+04  0.11988868272E+04  0.50400001928E-02 0. -1.
</event>
<event>
 5   0  0.1560957E-03  0.1324590E+04  0.7818609E-02  0.9010289E-01
       -1   -1    0    0    0  501  0.00000000000E+00  0.00000000000E+00  0.50377429331E+03  0.50377429334E+03  0.50400001928E-02 0.  1.
        1   -1    0    0  501    0  0.00000000000E+00  0.00000000000E+00 -0.87069737698E+03  0.87069737700E+03  0.50400001928E-02 0. -1.
    10030    2    1    2    0    0  0.00000000000E+00  0.00000000000E+00 -0.36692308367E+03  0.13744716703E+04  0.13245904360E+04 0.  0.
        5    1    3    3  502    0  0.15448560046E+03  0.54757724174E+03 -0.53520494793E+03  0.78113575177E+03  0.46999998093E+01 0. -1.
       -5    1    3    3    0  502 -0.15448560046E+03 -0.54757724174E+03  0.16828186426E+03  0.59333591856E+03  0.46999998093E+01 0.  1.
</event>
<event>
 5   0  0.1631380E-03  0.1372028E+04  0.7818609E-02  0.8974319E-01
        1   -1    0    0  501    0  0.00000000000E+00  0.00000000000E+00  0.13660585108E+04  0.13660585108E+04  0.50400001928E-02 0.  1.
       -1   -1    0    0    0  501  0.00000000000E+00  0.00000000000E+00 -0.34450567106E+03  0.34450567110E+03  0.50400001928E-02 0. -1.
    10030    2    1    2    0    0  0.00000000000E+00  0.00000000000E+00  0.10215528397E+04  0.17105641819E+04  0.13720275566E+04 0.  0.
        3    1    3    3  502    0  0.58537035198E+03  0.58097811670E+02  0.95082700367E+03  0.11180813055E+04  0.10100000352E+00 0.  1.
       -3    1    3    3    0  502 -0.58537035198E+03 -0.58097811670E+02  0.70725836075E+02  0.59248287637E+03  0.10100000352E+00 0. -1.
</event>
<event>
 5   0  0.2760807E-03  0.1403200E+04  0.7818609E-02  0.8951506E-01
       -2   -1    0    0    0  501  0.00000000000E+00  0.00000000000E+00  0.30399395396E+03  0.30399395397E+03  0.25500000920E-02 0. -1.
        2   -1    0    0  501    0  0.00000000000E+00  0.00000000000E+00 -0.16192501140E+04  0.16192501140E+04  0.25500000920E-02 0.  1.
    10030    2    1    2    0    0  0.00000000000E+00  0.00000000000E+00 -0.13152561600E+04  0.19232440679E+04  0.14031995505E+04 0.  0.
        4    1    3    3  502    0  0.18567474137E+00  0.18659751561E+03 -0.15846147136E+04  0.15955638723E+04  0.12699999809E+01 0.  1.
       -4    1    3    3    0  502 -0.18567474137E+00 -0.18659751561E+03  0.26935855357E+03  0.32768019560E+03  0.12699999809E+01 0. -1.
</event>
<event>
 5   0  0.1700207E-03  0.1411956E+04  0.7818609E-02  0.8945209E-01
        1   -1    0    0  501    0  0.00000000000E+00  0.00000000000E+00  0.96090930123E+03  0.96090930124E+03  0.50400001928E-02 0.  1.
       -1   -1    0    0    0  501  0.00000000000E+00  0.00000000000E+00 -0.51868068137E+03  0.51868068140E+03  0.50400001928E-02 0. -1.
    10030    2    1    2    0    0  0.00000000000E+00  0.00000000000E+00  0.44222861985E+03  0.14795899826E+04  0.14119562190E+04 0.  0.
        2    1    3    3  502    0  0.51268346995E+03 -0.26177372411E+03  0.64939080612E+03  0.86780080783E+03  0.25500000920E-02 0.  1.
       -2    1    3    3    0  502 -0.51268346995E+03  0.26177372411E+03 -0.20716218627E+03  0.61178917481E+03  0.25500000920E-02 0. -1.
</event>
<event>
 5   0  0.1104538E-03  0.1372345E+04  0.7818609E-02  0.8974084E-01
        3   -1    0    0  501    0  0.00000000000E+00  0.00000000000E+00  0.81472928345E+03  0.81472928971E+03  0.10100000352E+00 0. -1.
       -3   -1    0    0    0  501  0.00000000000E+00  0.00000000000E+00 -0.57790056333E+03  0.57790057216E+03  0.10100000352E+00 0.  1.
    10030    2    1    2    0    0  0.00000000000E+00  0.00000000000E+00  0.23682872011E+03  0.13926298619E+04  0.13723447415E+04 0.  0.
        4    1    3    3  502    0 -0.21549436280E+03 -0.49894577106E+03  0.54346871700E+03  0.76859909063E+03  0.12699999809E+01 0. -1.
       -4    1    3    3    0  502  0.21549436280E+03  0.49894577106E+03 -0.30663999689E+03  0.62403077124E+03  0.12699999809E+01 0.  1.
</event>
<event>
 5   0  0.3006737E-03  0.1400951E+04  0.7818609E-02  0.8953130E-01
       -2   -1    0    0    0  501  0.00000000000E+00  0.00000000000E+00  0.62691527295E+03  0.62691527296E+03  0.25500000920E-02 0. -1.
        2   -1    0    0  501    0  0.00000000000E+00  0.00000000000E+00 -0.78266754493E+03  0.78266754493E+03  0.25500000920E-02 0.  1.
    10030    2    1    2    0    0  0.00000000000E+00  0.00000000000E+00 -0.15575227197E+03  0.14095828179E+04  0.14009514446E+04 0.  0.
        1    1    3    3  502    0 -0.38754459108E+03 -0.42090340244E+03  0.32873713881E+03  0.65986255442E+03  0.50400001928E-02 0. -1.
       -1    1    3    3    0  502  0.38754459108E+03  0.42090340244E+03 -0.48448941079E+03  0.74972026347E+03  0.50400001928E-02 0.  1.
</event>
<event>
 5   0  0.2760807E-03  0.1407665E+04  0.7818609E-02  0.8948289E-01
       -2   -1    0    0    0  501  0.00000000000E+00  0.00000000000E+00  0.51738115631E+03  0.51738115632E+03  0.25500000920E-02 0. -1.
        2   -1    0    0  501    0  0.00000000000E+00  0.00000000000E+00 -0.95747676730E+03  0.95747676730E+03  0.25500000920E-02 0.  1.
    10030    2    1    2    0    0  0.00000000000E+00  0.00000000000E+00 -0.44009561099E+03  0.14748579236E+04  0.14076653537E+04 0.  0.
        4    1    3    3  502    0 -0.53702069399E+03 -0.45091289534E+03 -0.28347816655E+03  0.75635649582E+03  0.12699999809E+01 0.  1.
       -4    1    3    3    0  502  0.53702069399E+03  0.45091289534E+03 -0.15661744444E+03  0.71850142781E+03  0.12699999809E+01 0. -1.
</event>
<event>
 5   0  0.2760807E-03  0.1116707E+04  0.7818609E-02  0.9189060E-01
        2   -1    0    0  501    0  0.00000000000E+00  0.00000000000E+00  0.99057618180E+03  0.99057618180E+03  0.25500000920E-02 0.  1.
       -2   -1    0    0    0  501  0.00000000000E+00  0.00000000000E+00 -0.31472425906E+03  0.31472425907E+03  0.25500000920E-02 0. -1.
    10030    2    1    2    0    0  0.00000000000E+00  0.00000000000E+00  0.67585192274E+03  0.13053004409E+04  0.11167065055E+04 0.  0.
        4    1    3    3  502    0 -0.20097738018E+03  0.52106144790E+02 -0.26792344489E+03  0.33895655016E+03  0.12699999809E+01 0. -1.
       -4    1    3    3    0  502  0.20097738018E+03 -0.52106144790E+02  0.94377536763E+03  0.96634389071E+03  0.12699999809E+01 0.  1.
</event>
<event>
 5   0  0.2917809E-03  0.1417083E+04  0.7818609E-02  0.8941545E-01
       -2   -1    0    0    0  501  0.00000000000E+00  0.00000000000E+00  0.41494683966E+03  0.41494683966E+03  0.25500000920E-02 0. -1.
        2   -1    0    0  501    0  0.00000000000E+00  0.00000000000E+00 -0.12098681674E+04  0.12098681674E+04  0.25500000920E-02 0.  1.
    10030    2    1    2    0    0  0.00000000000E+00  0.00000000000E+00 -0.79492132779E+03  0.16248150071E+04  0.14170828804E+04 0.  0.
        2    1    3    3  502    0 -0.63596696157E+03  0.13945040725E+02 -0.39653359941E+02  0.63735455543E+03  0.25500000920E-02 0. -1.
       -2    1    3    3    0  502  0.63596696157E+03 -0.13945040725E+02 -0.75526796785E+03  0.98746045168E+03  0.25500000920E-02 0.  1.
</event>
<event>
 5   0  0.2993993E-03  0.1381124E+04  0.7818609E-02  0.8967597E-01
        2   -1    0    0  501    0  0.00000000000E+00  0.00000000000E+00  0.15312226921E+04  0.15312226921E+04  0.25500000920E-02 0.  1.
       -2   -1    0    0    0  501  0.00000000000E+00  0.00000000000E+00 -0.31143457608E+03  0.31143457609E+03  0.25500000920E-02 0. -1.
    10030    2    1    2    0    0  0.00000000000E+00  0.00000000000E+00  0.12197881160E+04  0.18426572682E+04  0.13811237309E+04 0.  0.
        3    1    3    3  502    0 -0.59262817856E+03 -0.32029075856E+03  0.40719926284E+03  0.78715028927E+03  0.10100000352E+00 0. -1.
       -3    1    3    3    0  502  0.59262817856E+03  0.32029075856E+03  0.81258885314E+03  0.10555069789E+04  0.10100000352E+00 0.  1.
</event>
<event>
 5   0  0.1631380E-03  0.1408961E+04  0.7818609E-02  0.8947358E-01
        1   -1    0    0  501    0  0.00000000000E+00  0.00000000000E+00  0.58457448190E+03  0.58457448192E+03  0.50400001928E-02 0. -1.
       -1   -1    0    0    0  501  0.00000000000E+00  0.00000000000E+00 -0.84898100120E+03  0.84898100121E+03  0.50400001928E-02 0.  1.
    10030    2    1    2    0    0  0.00000000000E+00  0.00000000000E+00 -0.26440651930E+03  0.14335554831E+04  0.14089607928E+04 0.  0.
        3    1    3    3  502    0 -0.67143548409E+03  0.20178366846E+03 -0.20232923053E+03  0.72971185126E+03  0.10100000352E+00 0.  1.
       -3    1    3    3    0  502  0.67143548409E+03 -0.20178366846E+03 -0.62077288770E+02  0.70384363187E+03  0.10100000352E+00 0. -1.
</event>
<event>
 5   0  0.1644571E-03  0.1325036E+04  0.7818609E-02  0.9009944E-01
       -1   -1    0    0    0  501  0.00000000000E+00  0.00000000000E+00  0.89399928523E+03  0.89399928525E+03  0.50400001928E-02 0.  1.
        1   -1    0    0  501    0  0.00000000000E+00  0.00000000000E+00 -0.49097370993E+03  0.49097370995E+03  0.50400001928E-02 0. -1.
    10030    2    1    2    0    0  0.00000000000E+00  0.00000000000E+00  0.40302557530E+03  0.13849729952E+04  0.13250360686E+04 0.  0.
        4    1    3    3  502    0  0.32284014639E+03 -0.42487674180E+03 -0.20890973444E+03  0.57305400782E+03  0.12699999809E+01 0. -1.
       -4    1    3    3    0  502 -0.32284014639E+03  0.42487674180E+03  0.61193530975E+03  0.81191898737E+03  0.12699999809E+01 0.  1.
</event>
<event>
 5   0  0.2993993E-03  0.1323077E+04  0.7818609E-02  0.9011462E-01
        2   -1    0    0  501    0  0.00000000000E+00  0.00000000000E+00  0.16844283236E+04  0.16844283236E+04  0.25500000920E-02 0. -1.
       -2   -1    0    0    0  501  0.00000000000E+00  0.00000000000E+00 -0.25981122855E+03  0.25981122857E+03  0.25500000920E-02 0.  1.
    10030    2    1    2    0    0  0.00000000000E+00  0.00000000000E+00  0.14246170950E+04  0.19442395521E+04  0.13230773102E+04 0.  0.
        3    1    3    3  502    0 -0.19949526556E+03  0.30100621939E+03  0.15268188057E+04  0.15689419303E+04  0.10100000352E+00 0. -1.
       -3    1    3    3    0  502  0.19949526556E+03 -0.30100621939E+03 -0.10220171066E+03  0.37529762184E+03  0.10100000352E+00 0.  1.
</event>
<event>
 5   0  0.2917809E-03  0.1261322E+04  0.7818609E-02  0.9060812E-01
       -2   -1    0    0    0  501  0.00000000000E+00  0.00000000000E+00  0.41002413393E+03  0.41002413394E+03  0.25500000920E-02 0.  1.
        2   -1    0    0  501    0  0.00000000000E+00  0.00000000000E+00 -0.97002406479E+03  0.97002406479E+03  0.25500000920E-02 0. -1.
    10030    2    1    2    0    0  0.00000000000E+00  0.00000000000E+00 -0.55999993086E+03  0.13800481987E+04  0.12613219685E+04 0.  0.
        2    1    3    3  502    0 -0.50721692350E+03  0.19023459562E+03 -0.63331208562E+03  0.83339210858E+03  0.25500000920E-02 0. -1.
       -2    1    3    3    0  502  0.50721692350E+03 -0.19023459562E+03  0.73312154755E+02  0.54665609015E+03  0.25500000920E-02 0.  1.
</event>
<event>
 5   0  0.1586022E-03  0.1382743E+04  0.7818609E-02  0.8966406E-01
       -1   -1    0    0    0  501  0.00000000000E+00  0.00000000000E+00  0.30979403356E+03  0.30979403360E+03  0.50400001928E-02 0. -1.
        1   -1    0    0  501    0  0.00000000000E+00  0.00000000000E+00 -0.15429422365E+04  0.15429422365E+04  0.50400001928E-02 0.  1.
    10030    2    1    2    0    0  0.00000000000E+00  0.00000000000E+00 -0.12331482030E+04  0.18527362701E+04  0.13827426355E+04 0.  0.
        1    1    3    3  502    0  0.14223870436E+03 -0.50755138908E+03 -0.12160261200E+04  0.13253527026E+04  0.50400001928E-02 0.  1.
       -1    1    3    3    0  502 -0.14223870436E+03  0.50755138908E+03 -0.17122082930E+02  0.52738356756E+03  0.50400001928E-02 0. -1.
</event>
<event>
 5   0  0.3006737E-03  0.1012945E+04  0.7818609E-02  0.9294460E-01
       -2   -1    0    0    0  501  0.00000000000E+00  0.00000000000E+00  0.23255394516E+03  0.23255394518E+03  0.25500000920E-02 0.  1.
        2   -1    0    0  501    0  0.00000000000E+00  0.00000000000E+00 -0.11030309846E+04  0.11030309846E+04  0.25500000920E-02 0. -1.
    10030    2    1    2    0    0  0.00000000000E+00  0.00000000000E+00 -0.87047703939E+03  0.13355849297E+04  0.10129446325E+04 0.  0.
        1    1    3    3  502    0  0.16848455725E+02 -0.28545367343E+03 -0.98641425662E+03  0.10270251973E+04  0.50400001928E-02 0. -1.
       -1    1    3    3    0  502 -0.16848455725E+02  0.28545367343E+03  0.11593721723E+03  0.30855973247E+03  0.50400001928E-02 0.  1.
</event>
<event>
 5   0  0.1700207E-03  0.1403262E+04  0.7818609E-02  0.8951461E-01
        1   -1    0    0  501    0  0.00000000000E+00  0.00000000000E+00  0.15269846972E+04  0.15269846972E+04  0.50400001928E-02 0. -1.
       -1   -1    0    0    0  501  0.00000000000E+00  0.00000000000E+00 -0.32239092657E+03  0.32239092661E+03  0.50400001928E-02 0.  1.
    10030    2    1    2    0    0  0.00000000000E+00  0.00000000000E+00  0.12045937707E+04  0.18493756238E+04  0.14032619306E+04 0.  0.
        2    1    3    3  502    0  0.13616779149E+03  0.31031608635E+03 -0.20738627246E+03  0.39729939202E+03  0.25500000920E-02 0.  1.
       -2    1    3    3    0  502 -0.13616779149E+03 -0.31031608635E+03  0.14119800431E+04  0.14520762318E+04  0.25500000920E-02 0. -1.
</event>
<event>
 5   0  0.2889469E-03  0.1506850E+04  0.7818609E-02  0.8879911E-01
        2   -1    0    0  501    0  0.00000000000E+00  0.00000000000E+00  0.24429354773E+04  0.24429354773E+04  0.25500000920E-02 0. -1.
       -2   -1    0    0    0  501  0.00000000000E+00  0.00000000000E+00 -0.23236356623E+03  0.23236356625E+03  0.25500000920E-02 0.  1.
    10030    2    1    2    0    0  0.00000000000E+00  0.00000000000E+00  0.22105719111E+04  0.26752990435E+04  0.15068499588E+04 0.  0.
        5    1    3    3  502    0  0.38291323534E+03 -0.17715988985E+03  0.22134966896E+04  0.22533525817E+04  0.46999998093E+01 0. -1.
       -5    1    3    3    0  502 -0.38291323534E+03  0.17715988985E+03 -0.29247785472E+01  0.42194646189E+03  0.46999998093E+01 0.  1.
</event>
<event>
 5   0  0.1700207E-03  0.1381598E+04  0.7818609E-02  0.8967247E-01
       -1   -1    0    0    0  501  0.00000000000E+00  0.00000000000E+00  0.11035558799E+04  0.11035558799E+04  0.50400001928E-02 0.  1.
        1   -1    0    0  501    0  0.00000000000E+00  0.00000000000E+00 -0.43242354822E+03  0.43242354825E+03  0.50400001928E-02 0. -1.
    10030    2    1    2    0    0  0.00000000000E+00  0.00000000000E+00  0.67113233164E+03  0.15359794281E+04  0.13815984210E+04 0.  0.
        2    1    3    3  502    0 -0.14047806433E+03 -0.48650218101E+03  0.85794845246E+03  0.99623993383E+03  0.25500000920E-02 0.  1.
       -2    1    3    3    0  502  0.14047806433E+03  0.48650218101E+03 -0.18681612081E+03  0.53973949428E+03  0.25500000920E-02 0. -1.
</event>
<event>
 5   0  0.1631380E-03  0.1431145E+04  0.7818609E-02  0.8931577E-01
       -1   -1    0    0    0  501  0.00000000000E+00  0.00000000000E+00  0.71827707820E+03  0.71827707822E+03  0.50400001928E-02 0.  1.
        1   -1    0    0  501    0  0.00000000000E+00  0.00000000000E+00 -0.71287850247E+03  0.71287850249E+03  0.50400001928E-02 0. -1.
    10030    2    1    2    0    0  0.00000000000E+00  0.00000000000E+00  0.53985757228E+01  0.14311555807E+04  0.14311453985E+04 0.  0.
        3    1    3    3  502    0  0.88262034285E+01 -0.65666920313E+03 -0.28147158072E+03  0.71450584683E+03  0.10100000352E+00 0. -1.
       -3    1    3    3    0  502 -0.88262034285E+01  0.65666920313E+03  0.28687015644E+03  0.71664973388E+03  0.10100000352E+00 0.  1.
</event>
<event>
 5   0  0.1560957E-03  0.1372911E+04  0.7818609E-02  0.8973664E-01
       -1   -1    0    0    0  501  0.00000000000E+00  0.00000000000E+00  0.40642861525E+03  0.40642861528E+03  0.50400001928E-02 0. -1.
        1   -1    0    0  501    0  0.00000000000E+00  0.00000000000E+00 -0.11594197367E+04  0.11594197367E+04  0.50400001928E-02 0.  1.
    10030    2    1    2    0    0  0.00000000000E+00  0.00000000000E+00 -0.75299112140E+03  0.15658483519E+04  0.13729112981E+04 0.  0.
        5    1    3    3  502    0 -0.15869911131E+03 -0.14118149371E+03 -0.11209765872E+04  0.11409330485E+04  0.46999998093E+01 0.  1.
       -5    1    3    3    0  502  0.15869911131E+03  0.14118149371E+03  0.36798546578E+03  0.42491530347E+03  0.46999998093E+01 0. -1.
</event>
<event>
 5   0  0.3006737E-03  0.1453124E+04  0.7818609E-02  0.8916237E-01
        2   -1    0    0  501    0  0.00000000000E+00  0.00000000000E+00  0.20493119742E+04  0.20493119742E+04  0.25500000920E-02 0. -1.
       -2   -1    0    0    0  501  0.00000000000E+00  0.00000000000E+00 -0.25759497914E+03  0.25759497915E+03  0.25500000920E-02 0.  1.
    10030    2    1    2    0    0  0.00000000000E+00  0.00000000000E+00  0.17917169950E+04  0.23069069533E+04  0.14531241864E+04 0.  0.
        1    1    3    3  502    0 -0.29706217889E+03 -0.28807993170E+02  0.19475028377E+04  0.19702393615E+04  0.50400001928E-02 0. -1.
       -1    1    3    3    0  502  0.29706217889E+03  0.28807993170E+02 -0.15578584268E+03  0.33666759185E+03  0.50400001928E-02 0.  1.
</event>
<event>
 5   0  0.1631380E-03  0.1389905E+04  0.7818609E-02  0.8961158E-01
       -1   -1    0    0    0  501  0.00000000000E+00  0.00000000000E+00  0.54904866425E+03  0.54904866427E+03  0.50400001928E-02 0.  1.
        1   -1    0    0  501    0  0.00000000000E+00  0.00000000000E+00 -0.87962891063E+03  0.87962891064E+03  0.50400001928E-02 0. -1.
    10030    2    1    2    0    0  0.00000000000E+00  0.00000000000E+00 -0.33058024638E+03  0.14286775749E+04  0.13899051456E+04 0.  0.
        3    1    3    3  502    0 -0.97285483207E+02  0.67016037835E+03 -0.32578566716E+03  0.75147568762E+03  0.10100000352E+00 0.  1.
       -3    1    3    3    0  502  0.97285483207E+02 -0.67016037835E+03 -0.47945792133E+01  0.67720188729E+03  0.10100000352E+00 0. -1.
</event>
<event>
 5   0  0.2917809E-03  0.1436748E+04  0.7818609E-02  0.8927640E-01
        2   -1    0    0  501    0  0.00000000000E+00  0.00000000000E+00  0.17589055961E+04  0.17589055961E+04  0.25500000920E-02 0. -1.
       -2   -1    0    0    0  501  0.00000000000E+00  0.00000000000E+00 -0.29339906786E+03  0.29339906787E+03  0.25500000920E-02 0.  1.
    10030    2    1    2    0    0  0.00000000000E+00  0.00000000000E+00  0.14655065282E+04  0.20523046639E+04  0.14367480814E+04 0.  0.
        2    1    3    3  502    0 -0.41609038192E+03 -0.28581574646E+02  0.15682525636E+04  0.16227643746E+04  0.25500000920E-02 0. -1.
       -2    1    3    3    0  502  0.41609038192E+03  0.28581574646E+02 -0.10274603540E+03  0.42954028930E+03  0.25500000920E-02 0.  1.
</event>
<event>
 5   0  0.1644571E-03  0.1434315E+04  0.7818609E-02  0.8929348E-01
        1   -1    0    0  501    0  0.00000000000E+00  0.00000000000E+00  0.54091232188E+03  0.54091232191E+03  0.50400001928E-02 0. -1.
       -1   -1    0    0    0  501  0.00000000000E+00  0.00000000000E+00 -0.95082812744E+03  0.95082812746E+03  0.50400001928E-02 0.  1.
    10030    2    1    2    0    0  0.00000000000E+00  0.00000000000E+00 -0.40991580556E+03  0.14917404494E+04  0.14343146798E+04 0.  0.
        4    1    3    3  502    0  0.21248030417E+03  0.45481513909E+03  0.32770797604E+03  0.59949880806E+03  0.12699999809E+01 0. -1.
       -4    1    3    3    0  502 -0.21248030417E+03 -0.45481513909E+03 -0.73762378160E+03  0.89224164131E+03  0.12699999809E+01 0.  1.
</event>
<event>
 5   0  0.1560957E-03  0.1416962E+04  0.7818609E-02  0.8941631E-01
        1   -1    0    0  501    0  0.00000000000E+00  0.00000000000E+00  0.18434061632E+04  0.18434061632E+04  0.50400001928E-02 0.  1.
       -1   -1    0    0    0  501  0.00000000000E+00  0.00000000000E+00 -0.27229222269E+03  0.27229222273E+03  0.50400001928E-02 0. -1.
    10030    2    1    2    0    0  0.00000000000E+00  0.00000000000E+00  0.15711139405E+04  0.21156983859E+04  0.14169617660E+04 0.  0.
        5    1    3    3  502    0 -0.12774082156E+03  0.15527009451E+03  0.17998883312E+04  0.18110898969E+04  0.46999998093E+01 0.  1.
       -5    1    3    3    0  502  0.12774082156E+03 -0.15527009451E+03 -0.22877439072E+03  0.30460848903E+03  0.46999998093E+01 0. -1.
</event>
<event>
 5   0  0.2889469E-03  0.1427980E+04  0.7818609E-02  0.8933810E-01
       -2   -1    0    0    0  501  0.00000000000E+00  0.00000000000E+00  0.31170764232E+03  0.31170764233E+03  0.25500000920E-02 0. -1.
        2   -1    0    0  501    0  0.00000000000E+00  0.00000000000E+00 -0.16354486734E+04  0.16354486734E+04  0.25500000920E-02 0.  1.
    10030    2    1    2    0    0  0.00000000000E+00  0.00000000000E+00 -0.13237410310E+04  0.19471563157E+04  0.14279801821E+04 0.  0.
        5    1    3    3  502    0 -0.36160127099E+01  0.49318045617E+03  0.42081916037E+02  0.49500809645E+03  0.46999998093E+01 0. -1.
       -5    1    3    3    0  502  0.36160127099E+01 -0.49318045617E+03 -0.13658229471E+04  0.14521482193E+04  0.46999998093E+01 0.  1.
</event>
<event>
 5   0  0.1560957E-03  0.1498002E+04  0.7818609E-02  0.8885783E-01
       -1   -1    0    0    0  501  0.00000000000E+00  0.00000000000E+00  0.42396742866E+03  0.42396742869E+03  0.50400001928E-02 0. -1.
        1   -1    0    0  501    0  0.00000000000E+00  0.00000000000E+00 -0.13232203308E+04  0.13232203308E+04  0.50400001928E-02 0.  1.
    10030    2    1    2    0    0  0.00000000000E+00  0.00000000000E+00 -0.89925290215E+03  0.17471877595E+04  0.14980017640E+04 0.  0.
        5    1    3    3  502    0  0.81050729287E+01  0.25186346701E+01 -0.13231470414E+04  0.13231826098E+04  0.46999998093E+01 0.  1.
       -5    1    3    3    0  502 -0.81050729287E+01 -0.25186346701E+01  0.42389413923E+03  0.42400514973E+03  0.46999998093E+01 0. -1.
</event>
<event>
 5   0  0.1700207E-03  0.1482971E+04  0.7818609E-02  0.8895857E-01
       -1   -1    0    0    0  501  0.00000000000E+00  0.00000000000E+00  0.94439400626E+03  0.94439400627E+03  0.50400001928E-02 0.  1.
        1   -1    0    0  501    0  0.00000000000E+00  0.00000000000E+00 -0.58217289788E+03  0.58217289790E+03  0.50400001928E-02 0. -1.
    10030    2    1    2    0    0  0.00000000000E+00  0.00000000000E+00  0.36222110838E+03  0.15265669042E+04  0.14829707959E+04 0.  0.
        2    1    3    3  502    0 -0.10328875411E+03 -0.50370743709E+03  0.73105457034E+03  0.89377320038E+03  0.25500000920E-02 0.  1.
       -2    1    3    3    0  502  0.10328875411E+03  0.50370743709E+03 -0.36883346195E+03  0.63279370380E+03  0.25500000920E-02 0. -1.
</event>
<event>
 5   0  0.3006737E-03  0.1523776E+04  0.7818609E-02  0.8868794E-01
       -2   -1    0    0    0  501  0.00000000000E+00  0.00000000000E+00  0.66098408132E+03  0.66098408133E+03  0.25500000920E-02 0.  1.
        2   -1    0    0  501    0  0.00000000000E+00  0.00000000000E+00 -0.87819575296E+03  0.87819575296E+03  0.25500000920E-02 0. -1.
    10030    2    1    2    0    0  0.00000000000E+00  0.00000000000E+00 -0.21721167164E+03  0.15391798343E+04  0.15237761161E+04 0.  0.
        1    1    3    3  502    0  0.66214657957E+03 -0.34676781901E+03  0.40491850588E+02  0.74854899848E+03  0.50400001928E-02 0.  1.
       -1    1    3    3    0  502 -0.66214657957E+03  0.34676781901E+03 -0.25770352222E+03  0.79063083581E+03  0.50400001928E-02 0. -1.
</event>
<event>
 5   0  0.1644571E-03  0.1441504E+04  0.7818609E-02  0.8924312E-01
       -1   -1    0    0    0  501  0.00000000000E+00  0.00000000000E+00  0.72571370818E+03  0.72571370820E+03  0.50400001928E-02 0.  1.
        1   -1    0    0  501    0  0.00000000000E+00  0.00000000000E+00 -0.71582469461E+03  0.71582469462E+03  0.50400001928E-02 0. -1.
    10030    2    1    2    0    0  0.00000000000E+00  0.00000000000E+00  0.98890135736E+01  0.14415384028E+04  0.14415044829E+04 0.  0.
        4    1    3    3  502    0 -0.26737140811E+03 -0.32029449789E+03 -0.58278196109E+03  0.71673737332E+03  0.12699999809E+01 0. -1.
       -4    1    3    3    0  502  0.26737140811E+03  0.32029449789E+03  0.59267097466E+03  0.72480102950E+03  0.12699999809E+01 0.  1.
</event>
<event>
 5   0  0.3006737E-03  0.1355068E+04  0.7818609E-02  0.8987000E-01
       -2   -1    0    0    0  501  0.00000000000E+00  0.00000000000E+00  0.54485847339E+03  0.54485847340E+03  0.25500000920E-02 0.  1.
        2   -1    0    0  501    0  0.00000000000E+00  0.00000000000E+00 -0.84251722213E+03  0.84251722214E+03  0.25500000920E-02 0. -1.
    10030    2    1    2    0    0  0.00000000000E+00  0.00000000000E+00 -0.29765874874E+03  0.13873756955E+04  0.13550684816E+04 0.  0.
        1    1    3    3  502    0  0.64039220771E+03 -0.17561262692E+03 -0.28661380088E+03  0.72324922766E+03  0.50400001928E-02 0.  1.
       -1    1    3    3    0  502 -0.64039220771E+03  0.17561262692E+03 -0.11044947859E+02  0.66412646787E+03  0.50400001928E-02 0. -1.
</event>
<event>
 5   0  0.3006737E-03  0.1413302E+04  0.7818609E-02  0.8944245E-01
        2   -1    0    0  501    0  0.00000000000E+00  0.00000000000E+00  0.20916210026E+04  0.20916210026E+04  0.25500000920E-02 0. -1.
       -2   -1    0    0    0  501  0.00000000000E+00  0.00000000000E+00 -0.23874111894E+03  0.23874111896E+03  0.25500000920E-02 0.  1.
    10030    2    1    2    0    0  0.00000000000E+00  0.00000000000E+00  0.18528798837E+04  0.23303621216E+04  0.14133024285E+04 0.  0.
        1    1    3    3  502    0 -0.14892314275E+03  0.68676509875E+03  0.10490740140E+04  0.12626878832E+04  0.50400001928E-02 0.  1.
       -1    1    3    3    0  502  0.14892314275E+03 -0.68676509875E+03  0.80380586963E+03  0.10676742384E+04  0.50400001928E-02 0. -1.
</event>
<event>
 5   0  0.1644571E-03  0.1410573E+04  0.7818609E-02  0.8946201E-01
       -1   -1    0    0    0  501  0.00000000000E+00  0.00000000000E+00  0.33731169835E+03  0.33731169838E+03  0.50400001928E-02 0.  1.
        1   -1    0    0  501    0  0.00000000000E+00  0.00000000000E+00 -0.14746863857E+04  0.14746863857E+04  0.50400001928E-02 0. -1.
    10030    2    1    2    0    0  0.00000000000E+00  0.00000000000E+00 -0.11373746874E+04  0.18119980841E+04  0.14105728898E+04 0.  0.
        4    1    3    3  502    0 -0.15207040823E+03  0.36274720087E+03 -0.13207078010E+04  0.13780354310E+04  0.12699999809E+01 0.  1.
       -4    1    3    3    0  502  0.15207040823E+03 -0.36274720087E+03  0.18333311361E+03  0.43396265305E+03  0.12699999809E+01 0. -1.
</event>
<event>
 5   0  0.1631380E-03  0.1208775E+04  0.7818609E-02  0.9105210E-01
        1   -1    0    0  501    0  0.00000000000E+00  0.00000000000E+00  0.25145137433E+03  0.25145137438E+03  0.50400001928E-02 0. -1.
       -1   -1    0    0    0  501  0.00000000000E+00  0.00000000000E+00 -0.14527039146E+04  0.14527039146E+04  0.50400001928E-02 0.  1.
    10030    2    1    2    0    0  0.00000000000E+00  0.00000000000E+00 -0.12012525402E+04  0.17041552889E+04  0.12087752411E+04 0.  0.
        3    1    3    3  502    0  0.50633891682E+03 -0.23562176168E+03 -0.27487651022E+03  0.62245788559E+03  0.10100000352E+00 0.  1.
       -3    1    3    3    0  502 -0.50633891682E+03  0.23562176168E+03 -0.92637603000E+03  0.10816974034E+04  0.10100000352E+00 0. -1.
</event>
<event>
 5   0  0.2760807E-03  0.1399585E+04  0.7818609E-02  0.8954119E-01
        2   -1    0    0  501    0  0.00000000000E+00  0.00000000000E+00  0.16515841329E+04  0.16515841329E+04  0.25500000920E-02 0. -1.
       -2   -1    0    0    0  501  0.00000000000E+00  0.00000000000E+00 -0.29650881281E+03  0.29650881282E+03  0.25500000920E-02 0.  1.
    10030    2    1    2    0    0  0.00000000000E+00  0.00000000000E+00  0.13550753201E+04  0.19480929457E+04  0.13995845819E+04 0.  0.
        4    1    3    3  502    0  0.10435946504E+03 -0.68274841357E+03  0.83422065158E+03  0.10830337033E+04  0.12699999809E+01 0. -1.
       -4    1    3    3    0  502 -0.10435946504E+03  0.68274841357E+03  0.52085466848E+03  0.86505924234E+03  0.12699999809E+01 0.  1.
</event>
<event>
 5   0  0.1644571E-03  0.9914015E+03  0.7818609E-02  0.9318026E-01
       -1   -1    0    0    0  501  0.00000000000E+00  0.00000000000E+00  0.21396565173E+03  0.21396565179E+03  0.50400001928E-02 0.  1.
        1   -1    0    0  501    0  0.00000000000E+00  0.00000000000E+00 -0.11484051104E+04  0.11484051104E+04  0.50400001928E-02 0. -1.
    10030    2    1    2    0    0  0.00000000000E+00  0.00000000000E+00 -0.93443945864E+03  0.13623707622E+04  0.99140152902E+03 0.  0.
        4    1    3    3  502    0  0.32173268014E+03  0.16706354322E+03 -0.93179948088E+03  0.99983700192E+03  0.12699999809E+01 0. -1.
       -4    1    3    3    0  502 -0.32173268014E+03 -0.16706354322E+03 -0.26399777640E+01  0.36253376025E+03  0.12699999809E+01 0.  1.
</event>
<event>
 5   0  0.1586022E-03  0.1405071E+04  0.7818609E-02  0.8950156E-01
        1   -1    0    0  501    0  0.00000000000E+00  0.00000000000E+00  0.54031425240E+03  0.54031425243E+03  0.50400001928E-02 0.  1.
       -1   -1    0    0    0  501  0.00000000000E+00  0.00000000000E+00 -0.91346188867E+03  0.91346188868E+03  0.50400001928E-02 0. -1.
    10030    2    1    2    0    0  0.00000000000E+00  0.00000000000E+00 -0.37314763626E+03  0.14537761411E+04  0.14050714964E+04 0.  0.
        1    1    3    3  502    0 -0.14056636953E+02 -0.18604647375E+03  0.51421161917E+03  0.54701413944E+03  0.50400001928E-02 0.  1.
       -1    1    3    3    0  502  0.14056636953E+02  0.18604647375E+03 -0.88735925543E+03  0.90676200166E+03  0.50400001928E-02 0. -1.
</event>
<event>
 5   0  0.1560957E-03  0.7273686E+03  0.7818609E-02  0.9671540E-01
        1   -1    0    0  501    0  0.00000000000E+00  0.00000000000E+00  0.12725664186E+04  0.12725664187E+04  0.50400001928E-02 0.  1.
       -1   -1    0    0    0  501  0.00000000000E+00  0.00000000000E+00 -0.10393663427E+03  0.10393663440E+03  0.50400001928E-02 0. -1.
    10030    2    1    2    0    0  0.00000000000E+00  0.00000000000E+00  0.11686297844E+04  0.13765030530E+04  0.72736860129E+03 0.  0.
        5    1    3    3  502    0 -0.59868748942E+02 -0.35863397122E+03  0.57211074952E+03  0.67789039832E+03  0.46999998093E+01 0.  1.
       -5    1    3    3    0  502  0.59868748942E+02  0.35863397122E+03  0.59651903485E+03  0.69861265473E+03  0.46999998093E+01 0. -1.
</event>
<event>
 5   0  0.2760807E-03  0.1409815E+04  0.7818609E-02  0.8946745E-01
       -2   -1    0    0    0  501  0.00000000000E+00  0.00000000000E+00  0.45432405799E+03  0.45432405800E+03  0.25500000920E-02 0. -1.
        2   -1    0    0  501    0  0.00000000000E+00  0.00000000000E+00 -0.10937003460E+04  0.10937003460E+04  0.25500000920E-02 0.  1.
    10030    2    1    2    0    0  0.00000000000E+00  0.00000000000E+00 -0.63937628797E+03  0.15480244040E+04  0.14098147104E+04 0.  0.
        4    1    3    3  502    0  0.78686492872E+02 -0.60142916288E+03  0.74663778441E+02  0.61113410544E+03  0.12699999809E+01 0. -1.
       -4    1    3    3    0  502 -0.78686492872E+02  0.60142916288E+03 -0.71404006641E+03  0.93689029852E+03  0.12699999809E+01 0.  1.
</event>
<event>
 5   0  0.2917809E-03  0.1450935E+04  0.7818609E-02  0.8917752E-01
        2   -1    0    0  501    0  0.00000000000E+00  0.00000000000E+00  0.16108556522E+04  0.16108556522E+04  0.25500000920E-02 0.  1.
       -2   -1    0    0    0  501  0.00000000000E+00  0.00000000000E+00 -0.32672277723E+03  0.32672277724E+03  0.25500000920E-02 0. -1.
    10030    2    1    2    0    0  0.00000000000E+00  0.00000000000E+00  0.12841328749E+04  0.19375784294E+04  0.14509351914E+04 0.  0.
        2    1    3    3  502    0  0.12541843619E+03 -0.30430388300E+02  0.15954028914E+04  0.16006143129E+04  0.25500000920E-02 0.  1.
       -2    1    3    3    0  502 -0.12541843619E+03  0.30430388300E+02 -0.31127001648E+03  0.33696411653E+03  0.25500000920E-02 0. -1.
</event>
<event>
 5   0  0.1560957E-03  0.1421290E+04  0.7818609E-02  0.8938550E-01
        1   -1    0    0  501    0  0.00000000000E+00  0.00000000000E+00  0.99062467516E+03  0.99062467517E+03  0.50400001928E-02 0.  1.
       -1   -1    0    0    0  501  0.00000000000E+00  0.00000000000E+00 -0.50979590020E+03  0.50979590022E+03  0.50400001928E-02 0. -1.
    10030    2    1    2    0    0  0.00000000000E+00  0.00000000000E+00  0.48082877496E+03  0.15004205754E+04  0.14212901154E+04 0.  0.
        5    1    3    3  502    0 -0.17059111435E+03 -0.52019499931E+03  0.71872974300E+03  0.90349250084E+03  0.46999998093E+01 0. -1.
       -5    1    3    3    0  502  0.17059111435E+03  0.52019499931E+03 -0.23790096804E+03  0.59692807456E+03  0.46999998093E+01 0.  1.
</event>
<event>
 5   0  0.1586022E-03  0.1408891E+04  0.7818609E-02  0.8947408E-01
        1   -1    0    0  501    0  0.00000000000E+00  0.00000000000E+00  0.64666779634E+03  0.64666779636E+03  0.50400001928E-02 0.  1.
       -1   -1    0    0    0  501  0.00000000000E+00  0.00000000000E+00 -0.76738539076E+03  0.76738539078E+03  0.50400001928E-02 0. -1.
    10030    2    1    2    0    0  0.00000000000E+00  0.00000000000E+00 -0.12071759442E+03  0.14140531871E+04  0.14088909392E+04 0.  0.
        1    1    3    3  502    0  0.11695770362E+02 -0.67165770687E+03 -0.27322681729E+03  0.72519911745E+03  0.50400001928E-02 0. -1.
       -1    1    3    3    0  502 -0.11695770362E+02  0.67165770687E+03  0.15250922286E+03  0.68885406969E+03  0.50400001928E-02 0.  1.
</event>
<event>
 5   0  0.2993993E-03  0.1049995E+04  0.7818609E-02  0.9255349E-01
        2   -1    0    0  501    0  0.00000000000E+00  0.00000000000E+00  0.52173747343E+03  0.52173747344E+03  0.25500000920E-02 0.  1.
       -2   -1    0    0    0  501  0.00000000000E+00  0.00000000000E+00 -0.52827786717E+03  0.52827786718E+03  0.25500000920E-02 0. -1.
    10030    2    1    2    0    0  0.00000000000E+00  0.00000000000E+00 -0.65403937394E+01  0.10500153406E+04  0.10499949708E+04 0.  0.
        3    1    3    3  502    0  0.28235968191E+03  0.86142719273E+02 -0.43741545400E+03  0.52771189834E+03  0.10100000352E+00 0. -1.
       -3    1    3    3    0  502 -0.28235968191E+03 -0.86142719273E+02  0.43087506026E+03  0.52230344227E+03  0.10100000352E+00 0.  1.
</event>
<event>
 5   0  0.2760807E-03  0.1395033E+04  0.7818609E-02  0.8957422E-01
        2   -1    0    0  501    0  0.00000000000E+00  0.00000000000E+00  0.76324164113E+03  0.76324164114E+03  0.25500000920E-02 0.  1.
       -2   -1    0    0    0  501  0.00000000000E+00  0.00000000000E+00 -0.63745085260E+03  0.63745085261E+03  0.25500000920E-02 0. -1.
    10030    2    1    2    0    0  0.00000000000E+00  0.00000000000E+00  0.12579078853E+03  0.14006924937E+04  0.13950326661E+04 0.  0.
        4    1    3    3  502    0  0.42132956301E+03  0.42527958627E+03  0.42232273692E+03  0.73262502973E+03  0.12699999809E+01 0. -1.
       -4    1    3    3    0  502 -0.42132956301E+03 -0.42527958627E+03 -0.29653194839E+03  0.66806746402E+03  0.12699999809E+01 0.  1.
</event>
<event>
 5   0  0.2760807E-03  0.1419134E+04  0.7818609E-02  0.8940084E-01
        2   -1    0    0  501    0  0.00000000000E+00  0.00000000000E+00  0.20437011796E+04  0.20437011796E+04  0.25500000920E-02 0. -1.
       -2   -1    0    0    0  501  0.00000000000E+00  0.00000000000E+00 -0.24635956808E+03  0.24635956810E+03  0.25500000920E-02 0.  1.
    10030    2    1    2    0    0  0.00000000000E+00  0.00000000000E+00  0.17973416115E+04  0.22900607477E+04  0.14191340175E+04 0.  0.
        4    1    3    3  502    0 -0.63595637555E+03 -0.11505993071E+03  0.42597859916E+03  0.77404048932E+03  0.12699999809E+01 0.  1.
       -4    1    3    3    0  502  0.63595637555E+03  0.11505993071E+03  0.13713630124E+04  0.15160202584E+04  0.12699999809E+01 0. -1.
</event>
<event>
 5   0  0.1631380E-03  0.1417677E+04  0.7818609E-02  0.8941122E-01
       -1   -1    0    0    0  501  0.00000000000E+00  0.00000000000E+00  0.45546174456E+03  0.45546174459E+03  0.50400001928E-02 0.  1.
        1   -1    0    0  501    0  0.00000000000E+00  0.00000000000E+00 -0.11031698803E+04  0.11031698803E+04  0.50400001928E-02 0. -1.
    10030    2    1    2    0    0  0.00000000000E+00  0.00000000000E+00 -0.64770813577E+03  0.15586316249E+04  0.14176765192E+04 0.  0.
        3    1    3    3  502    0 -0.10528745401E+03 -0.16077475281E+02  0.44661414324E+03  0.45913847184E+03  0.10100000352E+00 0.  1.
       -3    1    3    3    0  502  0.10528745401E+03  0.16077475281E+02 -0.10943222790E+04  0.10994931531E+04  0.10100000352E+00 0. -1.
</event>
<event>
 5   0  0.1631380E-03  0.1417375E+04  0.7818609E-02  0.8941337E-01
        1   -1    0    0  501    0  0.00000000000E+00  0.00000000000E+00  0.57547243332E+03  0.57547243334E+03  0.50400001928E-02 0.  1.
       -1   -1    0    0    0  501  0.00000000000E+00  0.00000000000E+00 -0.87273990947E+03  0.87273990948E+03  0.50400001928E-02 0. -1.
    10030    2    1    2    0    0  0.00000000000E+00  0.00000000000E+00 -0.29726747615E+03  0.14482123428E+04  0.14173746991E+04 0.  0.
        3    1    3    3  502    0  0.58800323831E+03 -0.38411069155E+03 -0.51976847031E+02  0.70426588335E+03  0.10100000352E+00 0.  1.
       -3    1    3    3    0  502 -0.58800323831E+03  0.38411069155E+03 -0.24529062911E+03  0.74394645947E+03  0.10100000352E+00 0. -1.
</event>
<event>
 5   0  0.1586022E-03  0.1398310E+04  0.7818609E-02  0.8955043E-01
       -1   -1    0    0    0  501  0.00000000000E+00  0.00000000000E+00  0.32094589077E+03  0.32094589081E+03  0.50400001928E-02 0. -1.
        1   -1    0    0  501    0  0.00000000000E+00  0.00000000000E+00 -0.15230540757E+04  0.15230540757E+04  0.50400001928E-02 0.  1.
    10030    2    1    2    0    0  0.00000000000E+00  0.00000000000E+00 -0.12021081849E+04  0.18439999665E+04  0.13983103333E+04 0.  0.
        1    1    3    3  502    0 -0.52602583917E+02  0.35771085099E+03 -0.13901972231E+04  0.14364443616E+04  0.50400001928E-02 0.  1.
       -1    1    3    3    0  502  0.52602583917E+02 -0.35771085099E+03  0.18808903823E+03  0.40755560489E+03  0.50400001928E-02 0. -1.
</event>
<event>
 5   0  0.1700207E-03  0.1317421E+04  0.7818609E-02  0.9015863E-01
       -1   -1    0    0    0  501  0.00000000000E+00  0.00000000000E+00  0.29486371963E+03  0.29486371967E+03  0.50400001928E-02 0. -1.
        1   -1    0    0  501    0  0.00000000000E+00  0.00000000000E+00 -0.14715257805E+04  0.14715257805E+04  0.50400001928E-02 0.  1.
    10030    2    1    2    0    0  0.00000000000E+00  0.00000000000E+00 -0.11766620608E+04  0.17663895002E+04  0.13174210644E+04 0.  0.
        2    1    3    3  502    0 -0.29164868500E+03  0.56048519702E+03 -0.83808220787E+03  0.10495639088E+04  0.25500000920E-02 0.  1.
       -2    1    3    3    0  502  0.29164868500E+03 -0.56048519702E+03 -0.33857985298E+03  0.71682559134E+03  0.25500000920E-02 0. -1.
</event>
<event>
 5   0  0.2993993E-03  0.8689470E+03  0.7818609E-02  0.9465254E-01
        2   -1    0    0  501    0  0.00000000000E+00  0.00000000000E+00  0.33008886085E+03  0.33008886086E+03  0.25500000920E-02 0. -1.
       -2   -1    0    0    0  501  0.00000000000E+00  0.00000000000E+00 -0.57186783789E+03  0.57186783789E+03  0.25500000920E-02 0.  1.
    10030    2    1    2    0    0  0.00000000000E+00  0.00000000000E+00 -0.24177897704E+03  0.90195669875E+03  0.86894695620E+03 0.  0.
        3    1    3    3  502    0  0.43098482393E+03 -0.16916625480E+02 -0.17515455827E+03  0.46552467191E+03  0.10100000352E+00 0.  1.
       -3    1    3    3    0  502 -0.43098482393E+03  0.16916625480E+02 -0.66624418777E+02  0.43643202684E+03  0.10100000352E+00 0. -1.
</event>
<event>
 5   0  0.2993993E-03  0.1380668E+04  0.7818609E-02  0.8967932E-01
        2   -1    0    0  501    0  0.00000000000E+00  0.00000000000E+00  0.15283233753E+04  0.15283233753E+04  0.25500000920E-02 0. -1.
       -2   -1    0    0    0  501  0.00000000000E+00  0.00000000000E+00 -0.31181942996E+03  0.31181942997E+03  0.25500000920E-02 0.  1.
    10030    2    1    2    0    0  0.00000000000E+00  0.00000000000E+00  0.12165039453E+04  0.18401428052E+04  0.13806678437E+04 0.  0.
        3    1    3    3  502    0  0.15805783047E+03  0.67167733014E+03  0.58067252336E+03  0.90183884546E+03  0.10100000352E+00 0. -1.
       -3    1    3    3    0  502 -0.15805783047E+03 -0.67167733014E+03  0.63583142194E+03  0.93830395977E+03  0.10100000352E+00 0.  1.
</event>
<event>
 5   0  0.1631380E-03  0.1403761E+04  0.7818609E-02  0.8951100E-01
       -1   -1    0    0    0  501  0.00000000000E+00  0.00000000000E+00  0.25676780888E+03  0.25676780893E+03  0.50400001928E-02 0. -1.
        1   -1    0    0  501    0  0.00000000000E+00  0.00000000000E+00 -0.19186072601E+04  0.19186072601E+04  0.50400001928E-02 0.  1.
    10030    2    1    2    0    0  0.00000000000E+00  0.00000000000E+00 -0.16618394513E+04  0.21753750691E+04  0.14037614930E+04 0.  0.
        3    1    3    3  502    0 -0.67087182374E+03  0.74398397379E+02 -0.11291364704E+04  0.13155049618E+04  0.10100000352E+00 0.  1.
       -3    1    3    3    0  502  0.67087182374E+03 -0.74398397379E+02 -0.53270298085E+03  0.85987010731E+03  0.10100000352E+00 0. -1.
</event>
<event>
 5   0  0.2917809E-03  0.1371631E+04  0.7818609E-02  0.8974613E-01
       -2   -1    0    0    0  501  0.00000000000E+00  0.00000000000E+00  0.65275341561E+03  0.65275341561E+03  0.25500000920E-02 0.  1.
        2   -1    0    0  501    0  0.00000000000E+00  0.00000000000E+00 -0.72055237820E+03  0.72055237820E+03  0.25500000920E-02 0. -1.
    10030    2    1    2    0    0  0.00000000000E+00  0.00000000000E+00 -0.67798962590E+02  0.13733057938E+04  0.13716311837E+04 0.  0.
        2    1    3    3  502    0  0.55219384221E+03  0.40559095086E+03 -0.64283973566E+02  0.68815295397E+03  0.25500000920E-02 0. -1.
       -2    1    3    3    0  502 -0.55219384221E+03 -0.40559095086E+03 -0.35149890236E+01  0.68515283985E+03  0.25500000920E-02 0.  1.
</event>
<event>
 5   0  0.3006737E-03  0.9201539E+03  0.7818609E-02  0.9400733E-01
       -2   -1    0    0    0  501  0.00000000000E+00  0.00000000000E+00  0.23087998155E+03  0.23087998156E+03  0.25500000920E-02 0.  1.
        2   -1    0    0  501    0  0.00000000000E+00  0.00000000000E+00 -0.91680022457E+03  0.91680022457E+03  0.25500000920E-02 0. -1.
    10030    2    1    2    0    0  0.00000000000E+00  0.00000000000E+00 -0.68592024302E+03  0.11476802061E+04  0.92015394134E+03 0.  0.
        1    1    3    3  502    0  0.43291009233E+03 -0.14493515505E+03 -0.27181683604E+03  0.53132075020E+03  0.50400001928E-02 0. -1.
       -1    1    3    3    0  502 -0.43291009233E+03  0.14493515505E+03 -0.41410340698E+03  0.61635945593E+03  0.50400001928E-02 0.  1.
</event>
<event>
 5   0  0.2760807E-03  0.1383110E+04  0.7818609E-02  0.8966136E-01
        2   -1    0    0  501    0  0.00000000000E+00  0.00000000000E+00  0.20720064758E+04  0.20720064758E+04  0.25500000920E-02 0.  1.
       -2   -1    0    0    0  501  0.00000000000E+00  0.00000000000E+00 -0.23081403150E+03  0.23081403152E+03  0.25500000920E-02 0. -1.
    10030    2    1    2    0    0  0.00000000000E+00  0.00000000000E+00  0.18411924443E+04  0.23028205073E+04  0.13831097831E+04 0.  0.
        4    1    3    3  502    0 -0.59161024654E+03 -0.20371504619E+03  0.14109655366E+04  0.15434791422E+04  0.12699999809E+01 0.  1.
       -4    1    3    3    0  502  0.59161024654E+03  0.20371504619E+03  0.43022690768E+03  0.75934136516E+03  0.12699999809E+01 0. -1.
</event>
<event>
 5   0  0.1560957E-03  0.1399502E+04  0.7818609E-02  0.8954179E-01
        1   -1    0    0  501    0  0.00000000000E+00  0.00000000000E+00  0.12253518535E+04  0.12253518535E+04  0.50400001928E-02 0. -1.
       -1   -1    0    0    0  501  0.00000000000E+00  0.00000000000E+00 -0.39960071974E+03  0.39960071977E+03  0.50400001928E-02 0.  1.
    10030    2    1    2    0    0  0.00000000000E+00  0.00000000000E+00  0.82575113379E+03  0.16249525733E+04  0.13995020295E+04 0.  0.
        5    1    3    3  502    0  0.30237147373E+03  0.76420725992E+01  0.11455084675E+04  0.11847778900E+04  0.46999998093E+01 0. -1.
       -5    1    3    3    0  502 -0.30237147373E+03 -0.76420725992E+01 -0.31975733372E+03  0.44017468335E+03  0.46999998093E+01 0.  1.
</event>
<event>
 5   0  0.3006737E-03  0.1385965E+04  0.7818609E-02  0.8964041E-01
        2   -1    0    0  501    0  0.00000000000E+00  0.00000000000E+00  0.58948545130E+03  0.58948545130E+03  0.25500000920E-02 0. -1.
       -2   -1    0    0    0  501  0.00000000000E+00  0.00000000000E+00 -0.81465068748E+03  0.81465068748E+03  0.25500000920E-02 0.  1.
    10030    2    1    2    0    0  0.00000000000E+00  0.00000000000E+00 -0.22516523618E+03  0.14041361388E+04  0.13859649753E+04 0.  0.
        1    1    3    3  502    0 -0.17505094750E+03  0.53864275335E+03 -0.51712461150E+03  0.76693983715E+03  0.50400001928E-02 0.  1.
       -1    1    3    3    0  502  0.17505094750E+03 -0.53864275335E+03  0.29195937532E+03  0.63719630164E+03  0.50400001928E-02 0. -1.
</event>
<event>
 5   0  0.2993993E-03  0.1405668E+04  0.7818609E-02  0.8949726E-01
        2   -1    0    0  501    0  0.00000000000E+00  0.00000000000E+00  0.12769984806E+04  0.12769984806E+04  0.25500000920E-02 0. -1.
       -2   -1    0    0    0  501  0.00000000000E+00  0.00000000000E+00 -0.38682539478E+03  0.38682539479E+03  0.25500000920E-02 0.  1.
    10030    2    1    2    0    0  0.00000000000E+00  0.00000000000E+00  0.89017308586E+03  0.16638238754E+04  0.14056677295E+04 0.  0.
        3    1    3    3  502    0  0.66299731434E+03  0.22308870295E+03  0.36444659244E+03  0.78876824046E+03  0.10100000352E+00 0.  1.
       -3    1    3    3    0  502 -0.66299731434E+03 -0.22308870295E+03  0.52572649342E+03  0.87505563497E+03  0.10100000352E+00 0. -1.
</event>
<event>
 5   0  0.1644571E-03  0.1376977E+04  0.7818609E-02  0.8970654E-01
       -1   -1    0    0    0  501  0.00000000000E+00  0.00000000000E+00  0.90409040458E+03  0.90409040459E+03  0.50400001928E-02 0. -1.
        1   -1    0    0  501    0  0.00000000000E+00  0.00000000000E+00 -0.52430231205E+03  0.52430231208E+03  0.50400001928E-02 0.  1.
    10030    2    1    2    0    0  0.00000000000E+00  0.00000000000E+00  0.37978809253E+03  0.14283927167E+04  0.13769773992E+04 0.  0.
        4    1    3    3  502    0  0.30444182653E+03  0.15286329178E+03  0.81053427726E+03  0.87921524056E+03  0.12699999809E+01 0. -1.
       -4    1    3    3    0  502 -0.30444182653E+03 -0.15286329178E+03 -0.43074618473E+03  0.54917747612E+03  0.12699999809E+01 0.  1.
</event>
<event>
 5   0  0.2889469E-03  0.1363584E+04  0.7818609E-02  0.8980609E-01
        2   -1    0    0  501    0  0.00000000000E+00  0.00000000000E+00  0.44712952679E+03  0.44712952680E+03  0.25500000920E-02 0.  1.
       -2   -1    0    0    0  501  0.00000000000E+00  0.00000000000E+00 -0.10396094517E+04  0.10396094517E+04  0.25500000920E-02 0. -1.
    10030    2    1    2    0    0  0.00000000000E+00  0.00000000000E+00 -0.59247992494E+03  0.14867389785E+04  0.13635836347E+04 0.  0.
        5    1    3    3  502    0 -0.17092872045E+03  0.36963933772E+03 -0.89240347363E+03  0.98094643952E+03  0.46999998093E+01 0. -1.
       -5    1    3    3    0  502  0.17092872045E+03 -0.36963933772E+03  0.29992354870E+03  0.50579253901E+03  0.46999998093E+01 0.  1.
</event>
<event>
 5   0  0.2917809E-03  0.1946019E+04  0.7818609E-02  0.8632283E-01
       -2   -1    0    0    0  501  0.00000000000E+00  0.00000000000E+00  0.64062762180E+03  0.64062762180E+03  0.25500000920E-02 0.  1.
        2   -1    0    0  501    0  0.00000000000E+00  0.00000000000E+00 -0.14778438321E+04  0.14778438321E+04  0.25500000920E-02 0. -1.
    10030    2    1    2    0    0  0.00000000000E+00  0.00000000000E+00 -0.83721621029E+03  0.21184714539E+04  0.19460190950E+04 0.  0.
        2    1    3    3  502    0 -0.10496272601E+03 -0.16932153999E+03  0.61818876044E+03  0.64949542053E+03  0.25500000920E-02 0.  1.
       -2    1    3    3    0  502  0.10496272601E+03  0.16932153999E+03 -0.14554049707E+04  0.14689760334E+04  0.25500000920E-02 0. -1.
</event>
<event>
 5   0  0.2917809E-03  0.1378848E+04  0.7818609E-02  0.8969273E-01
       -2   -1    0    0    0  501  0.00000000000E+00  0.00000000000E+00  0.65472427325E+03  0.65472427325E+03  0.25500000920E-02 0.  1.
        2   -1    0    0  501    0  0.00000000000E+00  0.00000000000E+00 -0.72596295786E+03  0.72596295786E+03  0.25500000920E-02 0. -1.
    10030    2    1    2    0    0  0.00000000000E+00  0.00000000000E+00 -0.71238684607E+02  0.13806872311E+04  0.13788481715E+04 0.  0.
        2    1    3    3  502    0  0.20883786933E+03 -0.53777361326E+03 -0.41360374678E+03  0.70984630318E+03  0.25500000920E-02 0. -1.
       -2    1    3    3    0  502 -0.20883786933E+03  0.53777361326E+03  0.34236506218E+03  0.67084092793E+03  0.25500000920E-02 0.  1.
</event>
<event>
 5   0  0.1631380E-03  0.1369966E+04  0.7818609E-02  0.8975850E-01
        1   -1    0    0  501    0  0.00000000000E+00  0.00000000000E+00  0.16081972554E+04  0.16081972554E+04  0.50400001928E-02 0.  1.
       -1   -1    0    0    0  501  0.00000000000E+00  0.00000000000E+00 -0.29175624001E+03  0.29175624005E+03  0.50400001928E-02 0. -1.
    10030    2    1    2    0    0  0.00000000000E+00  0.00000000000E+00  0.13164410154E+04  0.18999534955E+04  0.13699658163E+04 0.  0.
        3    1    3    3  502    0 -0.43265938966E+02  0.44359234604E+02 -0.28786120561E+03  0.29445503403E+03  0.10100000352E+00 0. -1.
       -3    1    3    3    0  502  0.43265938966E+02 -0.44359234604E+02  0.16043022210E+04  0.16054984615E+04  0.10100000352E+00 0.  1.
</event>
<event>
 5   0  0.1700207E-03  0.1388428E+04  0.7818609E-02  0.8962238E-01
       -1   -1    0    0    0  501  0.00000000000E+00  0.00000000000E+00  0.29571951838E+03  0.29571951842E+03  0.50400001928E-02 0. -1.
        1   -1    0    0  501    0  0.00000000000E+00  0.00000000000E+00 -0.16296956706E+04  0.16296956706E+04  0.50400001928E-02 0.  1.
    10030    2    1    2    0    0  0.00000000000E+00  0.00000000000E+00 -0.13339761523E+04  0.19254151891E+04  0.13884276270E+04 0.  0.
        2    1    3    3  502    0  0.39756139519E+03 -0.55821358296E+03 -0.82063296544E+03  0.10691566448E+04  0.25500000920E-02 0. -1.
       -2    1    3    3    0  502 -0.39756139519E+03  0.55821358296E+03 -0.51334318681E+03  0.85625854425E+03  0.25500000920E-02 0.  1.
</event>
<event>
 5   0  0.3006737E-03  0.1455622E+04  0.7818609E-02  0.8914512E-01
        2   -1    0    0  501    0  0.00000000000E+00  0.00000000000E+00  0.14761873616E+04  0.14761873616E+04  0.25500000920E-02 0. -1.
       -2   -1    0    0    0  501  0.00000000000E+00  0.00000000000E+00 -0.35883590580E+03  0.35883590581E+03  0.25500000920E-02 0.  1.
    10030    2    1    2    0    0  0.00000000000E+00  0.00000000000E+00  0.11173514558E+04  0.18350232674E+04  0.14556222436E+04 0.  0.
        1    1    3    3  502    0 -0.40561815269E+03  0.56476291357E+03  0.28763466934E+03  0.75247387820E+03  0.50400001928E-02 0.  1.
       -1    1    3    3    0  502  0.40561815269E+03 -0.56476291357E+03  0.82971678648E+03  0.10825493892E+04  0.50400001928E-02 0. -1.
</event>
<event>
 5   0  0.1104538E-03  0.1398054E+04  0.7818609E-02  0.8955228E-01
        4   -1    0    0  501    0  0.00000000000E+00  0.00000000000E+00  0.69329593158E+03  0.69329709479E+03  0.12699999809E+01 0. -1.
       -4   -1    0    0    0  501  0.00000000000E+00  0.00000000000E+00 -0.70480296296E+03  0.70480410718E+03  0.12699999809E+01 0.  1.
    10030    2    1    2    0    0  0.00000000000E+00  0.00000000000E+00 -0.11507031382E+02  0.13981012020E+04  0.13980538470E+04 0.  0.
        3    1    3    3  502    0  0.38246606714E+03  0.43780062441E+03  0.38244637975E+03  0.69585553301E+03  0.10100000352E+00 0. -1.
       -3    1    3    3    0  502 -0.38246606714E+03 -0.43780062441E+03 -0.39395341113E+03  0.70224566897E+03  0.10100000352E+00 0.  1.
</event>
<event>
 5   0  0.1560957E-03  0.1340961E+04  0.7818609E-02  0.8997699E-01
        1   -1    0    0  501    0  0.00000000000E+00  0.00000000000E+00  0.10821102800E+04  0.10821102800E+04  0.50400001928E-02 0. -1.
       -1   -1    0    0    0  501  0.00000000000E+00  0.00000000000E+00 -0.41543256735E+03  0.41543256738E+03  0.50400001928E-02 0.  1.
    10030    2    1    2    0    0  0.00000000000E+00  0.00000000000E+00  0.66667771263E+03  0.14975428474E+04  0.13409606285E+04 0.  0.
        5    1    3    3  502    0 -0.62934237698E+03 -0.22885610097E+03  0.29672622224E+03  0.73247217243E+03  0.46999998093E+01 0. -1.
       -5    1    3    3    0  502  0.62934237698E+03  0.22885610097E+03  0.36995149039E+03  0.76507067494E+03  0.46999998093E+01 0.  1.
</event>
<event>
 5   0  0.2889469E-03  0.1669930E+04  0.7818609E-02  0.8778703E-01
        2   -1    0    0  501    0  0.00000000000E+00  0.00000000000E+00  0.18456171728E+04  0.18456171728E+04  0.25500000920E-02 0.  1.
       -2   -1    0    0    0  501  0.00000000000E+00  0.00000000000E+00 -0.37774172925E+03  0.37774172925E+03  0.25500000920E-02 0. -1.
    10030    2    1    2    0    0  0.00000000000E+00  0.00000000000E+00  0.14678754435E+04  0.22233589020E+04  0.16699300852E+04 0.  0.
        5    1    3    3  502    0  0.28543797710E+02  0.80732459188E+03  0.10149777752E+04  0.12972238509E+04  0.46999998093E+01 0.  1.
       -5    1    3    3    0  502 -0.28543797710E+02 -0.80732459188E+03  0.45289766830E+03  0.92613505116E+03  0.46999998093E+01 0. -1.
</event>
<event>
 5   0  0.1700207E-03  0.1391658E+04  0.7818609E-02  0.8959879E-01
        1   -1    0    0  501    0  0.00000000000E+00  0.00000000000E+00  0.20108679166E+04  0.20108679166E+04  0.50400001928E-02 0. -1.
       -1   -1    0    0    0  501  0.00000000000E+00  0.00000000000E+00 -0.24078044093E+03  0.24078044099E+03  0.50400001928E-02 0.  1.
    10030    2    1    2    0    0  0.00000000000E+00  0.00000000000E+00  0.17700874757E+04  0.22516483576E+04  0.13916575206E+04 0.  0.
        2    1    3    3  502    0  0.18447914760E+03 -0.26876445159E+03  0.18796766710E+04  0.19077345921E+04  0.25500000920E-02 0. -1.
       -2    1    3    3    0  502 -0.18447914760E+03  0.26876445159E+03 -0.10958919536E+03  0.34391376548E+03  0.25500000920E-02 0.  1.
</event>
<event>
 5   0  0.1631380E-03  0.1410605E+04  0.7818609E-02  0.8946178E-01
       -1   -1    0    0    0  501  0.00000000000E+00  0.00000000000E+00  0.62522251565E+03  0.62522251567E+03  0.50400001928E-02 0. -1.
        1   -1    0    0  501    0  0.00000000000E+00  0.00000000000E+00 -0.79563955590E+03  0.79563955591E+03  0.50400001928E-02 0.  1.
    10030    2    1    2    0    0  0.00000000000E+00  0.00000000000E+00 -0.17041704025E+03  0.14208620716E+04  0.14106052101E+04 0.  0.
        3    1    3    3  502    0  0.67607369189E+03 -0.19901567651E+03 -0.57278245866E+02  0.70708110144E+03  0.10100000352E+00 0. -1.
       -3    1    3    3    0  502 -0.67607369189E+03  0.19901567651E+03 -0.11313879438E+03  0.71378097015E+03  0.10100000352E+00 0.  1.
</event>
<event>
 5   0  0.1560957E-03  0.7642200E+03  0.7818609E-02  0.9613302E-01
        1   -1    0    0  501    0  0.00000000000E+00  0.00000000000E+00  0.40011460014E+03  0.40011460018E+03  0.50400001928E-02 0.  1.
       -1   -1    0    0    0  501  0.00000000000E+00  0.00000000000E+00 -0.36491561591E+03  0.36491561594E+03  0.50400001928E-02 0. -1.
    10030    2    1    2    0    0  0.00000000000E+00  0.00000000000E+00  0.35198984237E+02  0.76503021612E+03  0.76422003578E+03 0.  0.
        5    1    3    3  502    0  0.23244332667E+03  0.29419588515E+03 -0.55996178315E+02  0.37912897665E+03  0.46999998093E+01 0. -1.
       -5    1    3    3    0  502 -0.23244332667E+03 -0.29419588515E+03  0.91195162551E+02  0.38590123947E+03  0.46999998093E+01 0.  1.
</event>
<event>
 5   0  0.2917809E-03  0.1338248E+04  0.7818609E-02  0.8999772E-01
       -2   -1    0    0    0  501  0.00000000000E+00  0.00000000000E+00  0.61906391321E+03  0.61906391321E+03  0.25500000920E-02 0.  1.
        2   -1    0    0  501    0  0.00000000000E+00  0.00000000000E+00 -0.72323208510E+03  0.72323208510E+03  0.25500000920E-02 0. -1.
    10030    2    1    2    0    0  0.00000000000E+00  0.00000000000E+00 -0.10416817189E+03  0.13422959983E+04  0.13382479363E+04 0.  0.
        2    1    3    3  502    0 -0.29133415663E+03  0.53835512133E+03  0.21896482476E+03  0.65011339162E+03  0.25500000920E-02 0.  1.
       -2    1    3    3    0  502  0.29133415663E+03 -0.53835512133E+03 -0.32313299665E+03  0.69218260669E+03  0.25500000920E-02 0. -1.
</event>
<event>
 5   0  0.3006737E-03  0.1408964E+04  0.7818609E-02  0.8947355E-01
       -2   -1    0    0    0  501  0.00000000000E+00  0.00000000000E+00  0.25310130280E+03  0.25310130282E+03  0.25500000920E-02 0.  1.
        2   -1    0    0  501    0  0.00000000000E+00  0.00000000000E+00 -0.19608555925E+04  0.19608555925E+04  0.25500000920E-02 0. -1.
    10030    2    1    2    0    0  0.00000000000E+00  0.00000000000E+00 -0.17077542897E+04  0.22139568954E+04  0.14089643077E+04 0.  0.
        1    1    3    3  502    0 -0.49399507369E+03 -0.10756158094E+03 -0.82969711236E+02  0.51233250876E+03  0.50400001928E-02 0.  1.
       -1    1    3    3    0  502  0.49399507369E+03  0.10756158094E+03 -0.16247845785E+04  0.17016243866E+04  0.50400001928E-02 0. -1.
</event>
<event>
 5   0  0.1631380E-03  0.1418723E+04  0.7818609E-02  0.8940376E-01
        1   -1    0    0  501    0  0.00000000000E+00  0.00000000000E+00  0.65800049570E+03  0.65800049572E+03  0.50400001928E-02 0.  1.
       -1   -1    0    0    0  501  0.00000000000E+00  0.00000000000E+00 -0.76473135249E+03  0.76473135251E+03  0.50400001928E-02 0. -1.
    10030    2    1    2    0    0  0.00000000000E+00  0.00000000000E+00 -0.10673085680E+03  0.14227318482E+04  0.14187228187E+04 0.  0.
        3    1    3    3  502    0  0.52849871866E+03  0.45365666692E+03  0.81470203754E+02  0.70125079064E+03  0.10100000352E+00 0.  1.
       -3    1    3    3    0  502 -0.52849871866E+03 -0.45365666692E+03 -0.18820106055E+03  0.72148105759E+03  0.10100000352E+00 0. -1.
</event>
<event>
 5   0  0.3006737E-03  0.1411956E+04  0.7818609E-02  0.8945209E-01
       -2   -1    0    0    0  501  0.00000000000E+00  0.00000000000E+00  0.76544835841E+03  0.76544835841E+03  0.25500000920E-02 0.  1.
        2   -1    0    0  501    0  0.00000000000E+00  0.00000000000E+00 -0.65112821822E+03  0.65112821823E+03  0.25500000920E-02 0. -1.
    10030    2    1    2    0    0  0.00000000000E+00  0.00000000000E+00  0.11432014018E+03  0.14165765766E+04  0.14119561265E+04 0.  0.
        1    1    3    3  502    0 -0.20195233196E+03 -0.57542157277E+03  0.41400685510E+03  0.73708643108E+03  0.50400001928E-02 0.  1.
       -1    1    3    3    0  502  0.20195233196E+03  0.57542157277E+03 -0.29968671492E+03  0.67949014556E+03  0.50400001928E-02 0. -1.
</event>
<event>
 5   0  0.3006737E-03  0.1371910E+04  0.7818609E-02  0.8974406E-01
        2   -1    0    0  501    0  0.00000000000E+00  0.00000000000E+00  0.13517757817E+04  0.13517757818E+04  0.25500000920E-02 0.  1.
       -2   -1    0    0    0  501  0.00000000000E+00  0.00000000000E+00 -0.34808601739E+03  0.34808601740E+03  0.25500000920E-02 0. -1.
    10030    2    1    2    0    0  0.00000000000E+00  0.00000000000E+00  0.10036897644E+04  0.16998617992E+04  0.13719099800E+04 0.  0.
        1    1    3    3  502    0 -0.42858561629E+03 -0.24791181946E+03  0.10900837655E+04  0.11972587508E+04  0.50400001928E-02 0.  1.
       -1    1    3    3    0  502  0.42858561629E+03  0.24791181946E+03 -0.86394001111E+02  0.50260304831E+03  0.50400001928E-02 0. -1.
</event>
<event>
 5   0  0.2889469E-03  0.1388982E+04  0.7818609E-02  0.8961833E-01
       -2   -1    0    0    0  501  0.00000000000E+00  0.00000000000E+00  0.29839744155E+03  0.29839744156E+03  0.25500000920E-02 0. -1.
        2   -1    0    0  501    0  0.00000000000E+00  0.00000000000E+00 -0.16163610177E+04  0.16163610178E+04  0.25500000920E-02 0.  1.
    10030    2    1    2    0    0  0.00000000000E+00  0.00000000000E+00 -0.13179635762E+04  0.19147584593E+04  0.13889823502E+04 0.  0.
        5    1    3    3  502    0  0.26776211931E+03  0.27746341025E+03 -0.14552126679E+04  0.15054396352E+04  0.46999998093E+01 0.  1.
       -5    1    3    3    0  502 -0.26776211931E+03 -0.27746341025E+03  0.13724909170E+03  0.40931882406E+03  0.46999998093E+01 0. -1.
</event>
<event>
 5   0  0.2993993E-03  0.1388593E+04  0.7818609E-02  0.8962117E-01
        2   -1    0    0  501    0  0.00000000000E+00  0.00000000000E+00  0.16630710416E+04  0.16630710416E+04  0.25500000920E-02 0. -1.
       -2   -1    0    0    0  501  0.00000000000E+00  0.00000000000E+00 -0.28985379618E+03  0.28985379619E+03  0.25500000920E-02 0.  1.
    10030    2    1    2    0    0  0.00000000000E+00  0.00000000000E+00  0.13732172454E+04  0.19529248378E+04  0.13885927477E+04 0.  0.
        3    1    3    3  502    0  0.13630722157E+03  0.51365705677E+03  0.58236013751E+02  0.53461638034E+03  0.10100000352E+00 0.  1.
       -3    1    3    3    0  502 -0.13630722157E+03 -0.51365705677E+03  0.13149812317E+04  0.14183084574E+04  0.10100000352E+00 0. -1.
</event>
<event>
 5   0  0.1586022E-03  0.1448826E+04  0.7818609E-02  0.8919215E-01
       -1   -1    0    0    0  501  0.00000000000E+00  0.00000000000E+00  0.64827173091E+03  0.64827173093E+03  0.50400001928E-02 0. -1.
        1   -1    0    0  501    0  0.00000000000E+00  0.00000000000E+00 -0.80949686871E+03  0.80949686872E+03  0.50400001928E-02 0.  1.
    10030    2    1    2    0    0  0.00000000000E+00  0.00000000000E+00 -0.16122513779E+03  0.14577685997E+04  0.14488256434E+04 0.  0.
        1    1    3    3  502    0  0.31417338059E+03 -0.42667593651E+03  0.41641698578E+03  0.67391421853E+03  0.50400001928E-02 0. -1.
       -1    1    3    3    0  502 -0.31417338059E+03  0.42667593651E+03 -0.57764212357E+03  0.78385438113E+03  0.50400001928E-02 0.  1.
</event>
<event>
 5   0  0.1586022E-03  0.1394690E+04  0.7818609E-02  0.8957671E-01
       -1   -1    0    0    0  501  0.00000000000E+00  0.00000000000E+00  0.55132518932E+03  0.55132518934E+03  0.50400001928E-02 0.  1.
        1   -1    0    0  501    0  0.00000000000E+00  0.00000000000E+00 -0.88203803476E+03  0.88203803478E+03  0.50400001928E-02 0. -1.
    10030    2    1    2    0    0  0.00000000000E+00  0.00000000000E+00 -0.33071284545E+03  0.14333632241E+04  0.13946896236E+04 0.  0.
        1    1    3    3  502    0  0.24522315154E+03  0.74344128603E+02  0.50118624350E+03  0.56289350166E+03  0.50400001928E-02 0.  1.
       -1    1    3    3    0  502 -0.24522315154E+03 -0.74344128603E+02 -0.83189908895E+03  0.87046972246E+03  0.50400001928E-02 0. -1.
</event>
<event>
 5   0  0.1586022E-03  0.1606580E+04  0.7818609E-02  0.8816516E-01
       -1   -1    0    0    0  501  0.00000000000E+00  0.00000000000E+00  0.12370424003E+04  0.12370424004E+04  0.50400001928E-02 0. -1.
        1   -1    0    0  501    0  0.00000000000E+00  0.00000000000E+00 -0.52162695642E+03  0.52162695644E+03  0.50400001928E-02 0.  1.
    10030    2    1    2    0    0  0.00000000000E+00  0.00000000000E+00  0.71541544392E+03  0.17586693568E+04  0.16065797986E+04 0.  0.
        1    1    3    3  502    0  0.12890243459E+03  0.77877884990E+03  0.52067093525E+03  0.94562707107E+03  0.50400001928E-02 0. -1.
       -1    1    3    3    0  502 -0.12890243459E+03 -0.77877884990E+03  0.19474450867E+03  0.81304228573E+03  0.50400001928E-02 0.  1.
</event>
<event>
 5   0  0.2889469E-03  0.1402293E+04  0.7818609E-02  0.8952160E-01
       -2   -1    0    0    0  501  0.00000000000E+00  0.00000000000E+00  0.39872018809E+03  0.39872018810E+03  0.25500000920E-02 0.  1.
        2   -1    0    0  501    0  0.00000000000E+00  0.00000000000E+00 -0.12329609487E+04  0.12329609487E+04  0.25500000920E-02 0. -1.
    10030    2    1    2    0    0  0.00000000000E+00  0.00000000000E+00 -0.83424076056E+03  0.16316811368E+04  0.14022930098E+04 0.  0.
        5    1    3    3  502    0 -0.35588038409E+01 -0.70112141273E+03 -0.41788418651E+03  0.81623108481E+03  0.46999998093E+01 0.  1.
       -5    1    3    3    0  502  0.35588038409E+01  0.70112141273E+03 -0.41635657405E+03  0.81545005195E+03  0.46999998093E+01 0. -1.
</event>
<event>
 5   0  0.3006737E-03  0.1315401E+04  0.7818609E-02  0.9017440E-01
       -2   -1    0    0    0  501  0.00000000000E+00  0.00000000000E+00  0.34612314730E+03  0.34612314731E+03  0.25500000920E-02 0.  1.
        2   -1    0    0  501    0  0.00000000000E+00  0.00000000000E+00 -0.12497572973E+04  0.12497572973E+04  0.25500000920E-02 0. -1.
    10030    2    1    2    0    0  0.00000000000E+00  0.00000000000E+00 -0.90363415003E+03  0.15958804446E+04  0.13154009718E+04 0.  0.
        1    1    3    3  502    0  0.26017901086E+03 -0.26687920636E+03 -0.11092612753E+04  0.11702043434E+04  0.50400001928E-02 0. -1.
       -1    1    3    3    0  502 -0.26017901086E+03  0.26687920636E+03  0.20562712527E+03  0.42567610122E+03  0.50400001928E-02 0.  1.
</event>
<event>
 5   0  0.1560957E-03  0.1152938E+04  0.7818609E-02  0.9155078E-01
       -1   -1    0    0    0  501  0.00000000000E+00  0.00000000000E+00  0.38972055029E+03  0.38972055032E+03  0.50400001928E-02 0.  1.
        1   -1    0    0  501    0  0.00000000000E+00  0.00000000000E+00 -0.85270406983E+03  0.85270406985E+03  0.50400001928E-02 0. -1.
    10030    2    1    2    0    0  0.00000000000E+00  0.00000000000E+00 -0.46298351954E+03  0.12424246202E+04  0.11529376381E+04 0.  0.
        5    1    3    3  502    0  0.52243509198E+03 -0.18634108150E+03 -0.62361625695E+02  0.55818678446E+03  0.46999998093E+01 0. -1.
       -5    1    3    3    0  502 -0.52243509198E+03  0.18634108150E+03 -0.40062189384E+03  0.68423783571E+03  0.46999998093E+01 0.  1.
</event>
<event>
 5   0  0.1631380E-03  0.1314511E+04  0.7818609E-02  0.9018136E-01
       -1   -1    0    0    0  501  0.00000000000E+00  0.00000000000E+00  0.60609791307E+03  0.60609791309E+03  0.50400001928E-02 0.  1.
        1   -1    0    0  501    0  0.00000000000E+00  0.00000000000E+00 -0.71273078290E+03  0.71273078291E+03  0.50400001928E-02 0. -1.
    10030    2    1    2    0    0  0.00000000000E+00  0.00000000000E+00 -0.10663286983E+03  0.13188286960E+04  0.13145107685E+04 0.  0.
        3    1    3    3  502    0  0.51709785582E+03  0.38689765884E+03  0.69169147307E+02  0.64951087139E+03  0.10100000352E+00 0.  1.
       -3    1    3    3    0  502 -0.51709785582E+03 -0.38689765884E+03 -0.17580201714E+03  0.66931782461E+03  0.10100000352E+00 0. -1.
</event>
<event>
 5   0  0.3006737E-03  0.1390271E+04  0.7818609E-02  0.8960891E-01
       -2   -1    0    0    0  501  0.00000000000E+00  0.00000000000E+00  0.39985016336E+03  0.39985016337E+03  0.25500000920E-02 0. -1.
        2   -1    0    0  501    0  0.00000000000E+00  0.00000000000E+00 -0.12084856110E+04  0.12084856110E+04  0.25500000920E-02 0.  1.
    10030    2    1    2    0    0  0.00000000000E+00  0.00000000000E+00 -0.80863544768E+03  0.16083357744E+04  0.13902707204E+04 0.  0.
        1    1    3    3  502    0 -0.96914862278E+02 -0.50188426565E+03  0.14067179851E+03  0.53015927943E+03  0.50400001928E-02 0. -1.
       -1    1    3    3    0  502  0.96914862278E+02  0.50188426565E+03 -0.94930724620E+03  0.10781764950E+04  0.50400001928E-02 0.  1.
</event>
<event>
 5   0  0.1586022E-03  0.1323212E+04  0.7818609E-02  0.9011357E-01
       -1   -1    0    0    0  501  0.00000000000E+00  0.00000000000E+00  0.69311487650E+03  0.69311487651E+03  0.50400001928E-02 0. -1.
        1   -1    0    0  501    0  0.00000000000E+00  0.00000000000E+00 -0.63152979744E+03  0.63152979746E+03  0.50400001928E-02 0.  1.
    10030    2    1    2    0    0  0.00000000000E+00  0.00000000000E+00  0.61585079056E+02  0.13246446740E+04  0.13232122998E+04 0.  0.
        1    1    3    3  502    0  0.60360869916E+02  0.51674860619E+03  0.43995265421E+03  0.68134491603E+03  0.50400001928E-02 0. -1.
       -1    1    3    3    0  502 -0.60360869916E+02 -0.51674860619E+03 -0.37836757516E+03  0.64329975795E+03  0.50400001928E-02 0.  1.
</event>
<event>
 5   0  0.1700207E-03  0.1462913E+04  0.7818609E-02  0.8909497E-01
       -1   -1    0    0    0  501  0.00000000000E+00  0.00000000000E+00  0.12717773886E+04  0.12717773886E+04  0.50400001928E-02 0.  1.
        1   -1    0    0  501    0  0.00000000000E+00  0.00000000000E+00 -0.42069386190E+03  0.42069386193E+03  0.50400001928E-02 0. -1.
    10030    2    1    2    0    0  0.00000000000E+00  0.00000000000E+00  0.85108352666E+03  0.16924712505E+04  0.14629134508E+04 0.  0.
        2    1    3    3  502    0 -0.51726056206E+02 -0.15711627860E+03  0.12498554097E+04  0.12607536060E+04  0.25500000920E-02 0.  1.
       -2    1    3    3    0  502  0.51726056206E+02  0.15711627860E+03 -0.39877188302E+03  0.43171764451E+03  0.25500000920E-02 0. -1.
</event>
<event>
 5   0  0.1644571E-03  0.1350987E+04  0.7818609E-02  0.8990081E-01
        1   -1    0    0  501    0  0.00000000000E+00  0.00000000000E+00  0.55273193216E+03  0.55273193218E+03  0.50400001928E-02 0. -1.
       -1   -1    0    0    0  501  0.00000000000E+00  0.00000000000E+00 -0.82552049007E+03  0.82552049009E+03  0.50400001928E-02 0.  1.
    10030    2    1    2    0    0  0.00000000000E+00  0.00000000000E+00 -0.27278855792E+03  0.13782524223E+04  0.13509870992E+04 0.  0.
        4    1    3    3  502    0  0.24718561871E+03 -0.48373632228E+02 -0.77582057199E+03  0.81568370782E+03  0.12699999809E+01 0.  1.
       -4    1    3    3    0  502 -0.24718561871E+03  0.48373632228E+02  0.50303201407E+03  0.56256871444E+03  0.12699999809E+01 0. -1.
</event>
<event>
 5   0  0.1644571E-03  0.1390309E+04  0.7818609E-02  0.8960863E-01
       -1   -1    0    0    0  501  0.00000000000E+00  0.00000000000E+00  0.39880714509E+03  0.39880714512E+03  0.50400001928E-02 0. -1.
        1   -1    0    0  501    0  0.00000000000E+00  0.00000000000E+00 -0.12117131267E+04  0.12117131267E+04  0.50400001928E-02 0.  1.
    10030    2    1    2    0    0  0.00000000000E+00  0.00000000000E+00 -0.81290598164E+03  0.16105202719E+04  0.13903091063E+04 0.  0.
        4    1    3    3  502    0 -0.52943587530E+03 -0.21568875837E+03  0.51681502401E+02  0.57401792406E+03  0.12699999809E+01 0. -1.
       -4    1    3    3    0  502  0.52943587530E+03  0.21568875837E+03 -0.86458748404E+03  0.10365023478E+04  0.12699999809E+01 0.  1.
</event>
<event>
 5   0  0.1586022E-03  0.1390098E+04  0.7818609E-02  0.8961018E-01
        1   -1    0    0  501    0  0.00000000000E+00  0.00000000000E+00  0.50925069591E+03  0.50925069593E+03  0.50400001928E-02 0.  1.
       -1   -1    0    0    0  501  0.00000000000E+00  0.00000000000E+00 -0.94863478911E+03  0.94863478912E+03  0.50400001928E-02 0. -1.
    10030    2    1    2    0    0  0.00000000000E+00  0.00000000000E+00 -0.43938409320E+03  0.14578854851E+04  0.13900977326E+04 0.  0.
        1    1    3    3  502    0  0.50706878630E+03 -0.46892980319E+03 -0.13792193638E+03  0.70429849845E+03  0.50400001928E-02 0. -1.
       -1    1    3    3    0  502 -0.50706878630E+03  0.46892980319E+03 -0.30146215682E+03  0.75358698660E+03  0.50400001928E-02 0.  1.
</event>
<event>
 5   0  0.1631380E-03  0.1234102E+04  0.7818609E-02  0.9083520E-01
       -1   -1    0    0    0  501  0.00000000000E+00  0.00000000000E+00  0.38433496491E+03  0.38433496495E+03  0.50400001928E-02 0. -1.
        1   -1    0    0  501    0  0.00000000000E+00  0.00000000000E+00 -0.99067762848E+03  0.99067762850E+03  0.50400001928E-02 0.  1.
    10030    2    1    2    0    0  0.00000000000E+00  0.00000000000E+00 -0.60634266357E+03  0.13750125934E+04  0.12341021864E+04 0.  0.
        3    1    3    3  502    0  0.27500652600E+03  0.52848651552E+03 -0.12411917987E+03  0.60854923173E+03  0.10100000352E+00 0.  1.
       -3    1    3    3    0  502 -0.27500652600E+03 -0.52848651552E+03 -0.48222348370E+03  0.76646336172E+03  0.10100000352E+00 0. -1.
</event>
<event>
 5   0  0.1644571E-03  0.1457050E+04  0.7818609E-02  0.8913527E-01
       -1   -1    0    0    0  501  0.00000000000E+00  0.00000000000E+00  0.92779537947E+03  0.92779537949E+03  0.50400001928E-02 0. -1.
        1   -1    0    0  501    0  0.00000000000E+00  0.00000000000E+00 -0.57205381968E+03  0.57205381970E+03  0.50400001928E-02 0.  1.
    10030    2    1    2    0    0  0.00000000000E+00  0.00000000000E+00  0.35574155980E+03  0.14998491992E+04  0.14570502953E+04 0.  0.
        4    1    3    3  502    0 -0.29549991277E+03 -0.94297073328E+02  0.85642648201E+03  0.91086775575E+03  0.12699999809E+01 0. -1.
       -4    1    3    3    0  502  0.29549991277E+03  0.94297073328E+02 -0.50068492221E+03  0.58898144344E+03  0.12699999809E+01 0.  1.
</event>
<event>
 5   0  0.2993993E-03  0.1438239E+04  0.7818609E-02  0.8926595E-01
       -2   -1    0    0    0  501  0.00000000000E+00  0.00000000000E+00  0.37124368289E+03  0.37124368290E+03  0.25500000920E-02 0.  1.
        2   -1    0    0  501    0  0.00000000000E+00  0.00000000000E+00 -0.13929738365E+04  0.13929738365E+04  0.25500000920E-02 0. -1.
    10030    2    1    2    0    0  0.00000000000E+00  0.00000000000E+00 -0.10217301536E+04  0.17642175194E+04  0.14382388358E+04 0.  0.
        3    1    3    3  502    0  0.28390850580E+02  0.60961068779E+03 -0.97747893117E+03  0.11523438298E+04  0.10100000352E+00 0. -1.
       -3    1    3    3    0  502 -0.28390850580E+02 -0.60961068779E+03 -0.44251222419E+02  0.61187368954E+03  0.10100000352E+00 0.  1.
</event>
<event>
 5   0  0.1700207E-03  0.1400563E+04  0.7818609E-02  0.8953411E-01
        1   -1    0    0  501    0  0.00000000000E+00  0.00000000000E+00  0.83004790598E+03  0.83004790600E+03  0.50400001928E-02 0. -1.
       -1   -1    0    0    0  501  0.00000000000E+00  0.00000000000E+00 -0.59080200644E+03  0.59080200646E+03  0.50400001928E-02 0.  1.
    10030    2    1    2    0    0  0.00000000000E+00  0.00000000000E+00  0.23924589955E+03  0.14208499125E+04  0.14005626988E+04 0.  0.
        2    1    3    3  502    0  0.17470139174E+03  0.51239244164E+03  0.57027289397E+03  0.78630640601E+03  0.25500000920E-02 0. -1.
       -2    1    3    3    0  502 -0.17470139174E+03 -0.51239244164E+03 -0.33102699443E+03  0.63454350645E+03  0.25500000920E-02 0.  1.
</event>
<event>
 5   0  0.1631380E-03  0.1351513E+04  0.7818609E-02  0.8989683E-01
       -1   -1    0    0    0  501  0.00000000000E+00  0.00000000000E+00  0.60863417483E+03  0.60863417485E+03  0.50400001928E-02 0.  1.
        1   -1    0    0  501    0  0.00000000000E+00  0.00000000000E+00 -0.75028158300E+03  0.75028158302E+03  0.50400001928E-02 0. -1.
    10030    2    1    2    0    0  0.00000000000E+00  0.00000000000E+00 -0.14164740817E+03  0.13589157579E+04  0.13515132440E+04 0.  0.
        3    1    3    3  502    0  0.12413810320E+03  0.64077783872E+03 -0.24682672231E+03  0.69780366028E+03  0.10100000352E+00 0. -1.
       -3    1    3    3    0  502 -0.12413810320E+03 -0.64077783872E+03  0.10517931414E+03  0.66111209759E+03  0.10100000352E+00 0.  1.
</event>
<event>
 5   0  0.1700207E-03  0.1375036E+04  0.7818609E-02  0.8972089E-01
        1   -1    0    0  501    0  0.00000000000E+00  0.00000000000E+00  0.66547352248E+03  0.66547352250E+03  0.50400001928E-02 0. -1.
       -1   -1    0    0    0  501  0.00000000000E+00  0.00000000000E+00 -0.71029322370E+03  0.71029322372E+03  0.50400001928E-02 0.  1.
    10030    2    1    2    0    0  0.00000000000E+00  0.00000000000E+00 -0.44819701219E+02  0.13757667462E+04  0.13750364847E+04 0.  0.
        2    1    3    3  502    0 -0.36933910007E+02  0.51968030213E+03 -0.47125661909E+03  0.70250589405E+03  0.25500000920E-02 0.  1.
       -2    1    3    3    0  502  0.36933910007E+02 -0.51968030213E+03  0.42643691788E+03  0.67326085217E+03  0.25500000920E-02 0. -1.
</event>
<event>
 5   0  0.3006737E-03  0.1353722E+04  0.7818609E-02  0.8988015E-01
        2   -1    0    0  501    0  0.00000000000E+00  0.00000000000E+00  0.11083732313E+04  0.11083732313E+04  0.25500000920E-02 0.  1.
       -2   -1    0    0    0  501  0.00000000000E+00  0.00000000000E+00 -0.41334547690E+03  0.41334547691E+03  0.25500000920E-02 0. -1.
    10030    2    1    2    0    0  0.00000000000E+00  0.00000000000E+00  0.69502775442E+03  0.15217187082E+04  0.13537223672E+04 0.  0.
        1    1    3    3  502    0 -0.43566449676E+03  0.47704045982E+03  0.12054064619E+03  0.65719190611E+03  0.50400001928E-02 0. -1.
       -1    1    3    3    0  502  0.43566449676E+03 -0.47704045982E+03  0.57448710823E+03  0.86452680212E+03  0.50400001928E-02 0.  1.
</event>
<event>
 5   0  0.1586022E-03  0.9130332E+03  0.7818609E-02  0.9409434E-01
       -1   -1    0    0    0  501  0.00000000000E+00  0.00000000000E+00  0.24706647913E+03  0.24706647918E+03  0.50400001928E-02 0.  1.
        1   -1    0    0  501    0  0.00000000000E+00  0.00000000000E+00 -0.84352765200E+03  0.84352765202E+03  0.50400001928E-02 0. -1.
    10030    2    1    2    0    0  0.00000000000E+00  0.00000000000E+00 -0.59646117287E+03  0.10905941312E+04  0.91303320216E+03 0.  0.
        1    1    3    3  502    0  0.43153239768E+03  0.10111675889E+03 -0.42887454682E+03  0.61674807346E+03  0.50400001928E-02 0. -1.
       -1    1    3    3    0  502 -0.43153239768E+03 -0.10111675889E+03 -0.16758662605E+03  0.47384605774E+03  0.50400001928E-02 0.  1.
</event>
<event>
 5   0  0.2917809E-03  0.1376244E+04  0.7818609E-02  0.8971196E-01
       -2   -1    0    0    0  501  0.00000000000E+00  0.00000000000E+00  0.42771727361E+03  0.42771727362E+03  0.25500000920E-02 0.  1.
        2   -1    0    0  501    0  0.00000000000E+00  0.00000000000E+00 -0.11070681572E+04  0.11070681572E+04  0.25500000920E-02 0. -1.
    10030    2    1    2    0    0  0.00000000000E+00  0.00000000000E+00 -0.67935088363E+03  0.15347854309E+04  0.13762444171E+04 0.  0.
        2    1    3    3  502    0 -0.43690805363E+03 -0.47071708528E+03 -0.64131285516E+02  0.64542702414E+03  0.25500000920E-02 0.  1.
       -2    1    3    3    0  502  0.43690805363E+03  0.47071708528E+03 -0.61521959812E+03  0.88935840672E+03  0.25500000920E-02 0. -1.
</event>
<event>
 5   0  0.1560957E-03  0.1391573E+04  0.7818609E-02  0.8959941E-01
        1   -1    0    0  501    0  0.00000000000E+00  0.00000000000E+00  0.83943001186E+03  0.83943001188E+03  0.50400001928E-02 0.  1.
       -1   -1    0    0    0  501  0.00000000000E+00  0.00000000000E+00 -0.57672293685E+03  0.57672293687E+03  0.50400001928E-02 0. -1.
    10030    2    1    2    0    0  0.00000000000E+00  0.00000000000E+00  0.26270707501E+03  0.14161529487E+04  0.13915725518E+04 0.  0.
        5    1    3    3  502    0 -0.32260663473E+03 -0.22228181560E+03  0.71649887441E+03  0.81662535679E+03  0.46999998093E+01 0.  1.
       -5    1    3    3    0  502  0.32260663473E+03  0.22228181560E+03 -0.45379179940E+03  0.59952759196E+03  0.46999998093E+01 0. -1.
</event>
<event>
 5   0  0.1586022E-03  0.1393673E+04  0.7818609E-02  0.8958411E-01
        1   -1    0    0  501    0  0.00000000000E+00  0.00000000000E+00  0.14586490338E+04  0.14586490338E+04  0.50400001928E-02 0.  1.
       -1   -1    0    0    0  501  0.00000000000E+00  0.00000000000E+00 -0.33289783916E+03  0.33289783920E+03  0.50400001928E-02 0. -1.
    10030    2    1    2    0    0  0.00000000000E+00  0.00000000000E+00  0.11257511946E+04  0.17915468730E+04  0.13936730054E+04 0.  0.
        1    1    3    3  502    0 -0.22311323427E+03 -0.67647163780E+02 -0.28127412692E+03  0.36533654152E+03  0.50400001928E-02 0. -1.
       -1    1    3    3    0  502  0.22311323427E+03  0.67647163780E+02  0.14070253215E+04  0.14262103315E+04  0.50400001928E-02 0.  1.
</event>
<event>
 5   0  0.1631380E-03  0.1171250E+04  0.7818609E-02  0.9138400E-01
       -1   -1    0    0    0  501  0.00000000000E+00  0.00000000000E+00  0.37996417903E+03  0.37996417906E+03  0.50400001928E-02 0. -1.
        1   -1    0    0  501    0  0.00000000000E+00  0.00000000000E+00 -0.90260315978E+03  0.90260315979E+03  0.50400001928E-02 0.  1.
    10030    2    1    2    0    0  0.00000000000E+00  0.00000000000E+00 -0.52263898075E+03  0.12825673389E+04  0.11712503893E+04 0.  0.
        3    1    3    3  502    0 -0.30798969370E+03  0.49333062311E+03 -0.33658397995E+03  0.67195352584E+03  0.10100000352E+00 0.  1.
       -3    1    3    3    0  502  0.30798969370E+03 -0.49333062311E+03 -0.18605500080E+03  0.61061381302E+03  0.10100000352E+00 0. -1.
</event>
<event>
 5   0  0.1104538E-03  0.1364089E+04  0.7818609E-02  0.8980231E-01
       -3   -1    0    0    0  501  0.00000000000E+00  0.00000000000E+00  0.55323167227E+03  0.55323168149E+03  0.10100000352E+00 0. -1.
        3   -1    0    0  501    0  0.00000000000E+00  0.00000000000E+00 -0.84084977567E+03  0.84084978174E+03  0.10100000352E+00 0.  1.
    10030    2    1    2    0    0  0.00000000000E+00  0.00000000000E+00 -0.28761810341E+03  0.13940814632E+04  0.13640890560E+04 0.  0.
        5    1    3    3  502    0 -0.34701179131E+03 -0.10992611265E+03  0.44564076737E+03  0.57542915906E+03  0.46999998093E+01 0. -1.
       -5    1    3    3    0  502  0.34701179131E+03  0.10992611265E+03 -0.73325887078E+03  0.81865230417E+03  0.46999998093E+01 0.  1.
</event>
<event>
 5   0  0.2993993E-03  0.1542894E+04  0.7818609E-02  0.8856419E-01
       -2   -1    0    0    0  501  0.00000000000E+00  0.00000000000E+00  0.76954940062E+03  0.76954940063E+03  0.25500000920E-02 0.  1.
        2   -1    0    0  501    0  0.00000000000E+00  0.00000000000E+00 -0.77334930744E+03  0.77334930744E+03  0.25500000920E-02 0. -1.
    10030    2    1    2    0    0  0.00000000000E+00  0.00000000000E+00 -0.37999068153E+01  0.15428987081E+04  0.15428940288E+04 0.  0.
        3    1    3    3  502    0  0.15404843773E+03 -0.28527393089E+02 -0.75727351228E+03  0.77330971539E+03  0.10100000352E+00 0. -1.
       -3    1    3    3    0  502 -0.15404843773E+03  0.28527393089E+02  0.75347360546E+03  0.76958899268E+03  0.10100000352E+00 0.  1.
</event>
<event>
 5   0  0.2760807E-03  0.1383957E+04  0.7818609E-02  0.8965514E-01
        2   -1    0    0  501    0  0.00000000000E+00  0.00000000000E+00  0.84566712260E+03  0.84566712260E+03  0.25500000920E-02 0. -1.
       -2   -1    0    0    0  501  0.00000000000E+00  0.00000000000E+00 -0.56622102085E+03  0.56622102085E+03  0.25500000920E-02 0.  1.
    10030    2    1    2    0    0  0.00000000000E+00  0.00000000000E+00  0.27944610176E+03  0.14118881435E+04  0.13839573714E+04 0.  0.
        4    1    3    3  502    0  0.31286305009E+02  0.69115123989E+03  0.12665758112E+03  0.70335810583E+03  0.12699999809E+01 0. -1.
       -4    1    3    3    0  502 -0.31286305009E+02 -0.69115123989E+03  0.15278852064E+03  0.70853003763E+03  0.12699999809E+01 0.  1.
</event>
<event>
 5   0  0.1586022E-03  0.1125560E+04  0.7818609E-02  0.9180631E-01
        1   -1    0    0  501    0  0.00000000000E+00  0.00000000000E+00  0.67097460558E+03  0.67097460560E+03  0.50400001928E-02 0.  1.
       -1   -1    0    0    0  501  0.00000000000E+00  0.00000000000E+00 -0.47203187422E+03  0.47203187425E+03  0.50400001928E-02 0. -1.
    10030    2    1    2    0    0  0.00000000000E+00  0.00000000000E+00  0.19894273136E+03  0.11430064798E+04  0.11255601284E+04 0.  0.
        1    1    3    3  502    0 -0.13375563719E+03  0.54609917702E+03  0.12448070377E+03  0.57585616890E+03  0.50400001928E-02 0.  1.
       -1    1    3    3    0  502  0.13375563719E+03 -0.54609917702E+03  0.74462027586E+02  0.56715031094E+03  0.50400001928E-02 0. -1.
</event>
<event>
 5   0  0.1560957E-03  0.1418910E+04  0.7818609E-02  0.8940243E-01
        1   -1    0    0  501    0  0.00000000000E+00  0.00000000000E+00  0.65700221409E+03  0.65700221411E+03  0.50400001928E-02 0.  1.
       -1   -1    0    0    0  501  0.00000000000E+00  0.00000000000E+00 -0.76609527880E+03  0.76609527882E+03  0.50400001928E-02 0. -1.
    10030    2    1    2    0    0  0.00000000000E+00  0.00000000000E+00 -0.10909306471E+03  0.14230974929E+04  0.14189098554E+04 0.  0.
        5    1    3    3  502    0  0.59426354866E+03  0.21584102069E+03  0.26822260340E+03  0.68680562494E+03  0.46999998093E+01 0.  1.
       -5    1    3    3    0  502 -0.59426354866E+03 -0.21584102069E+03 -0.37731566811E+03  0.73629186799E+03  0.46999998093E+01 0. -1.
</event>
<event>
 5   0  0.2993993E-03  0.1364333E+04  0.7818609E-02  0.8980049E-01
       -2   -1    0    0    0  501  0.00000000000E+00  0.00000000000E+00  0.34930786930E+03  0.34930786931E+03  0.25500000920E-02 0.  1.
        2   -1    0    0  501    0  0.00000000000E+00  0.00000000000E+00 -0.13322089403E+04  0.13322089403E+04  0.25500000920E-02 0. -1.
    10030    2    1    2    0    0  0.00000000000E+00  0.00000000000E+00 -0.98290107096E+03  0.16815168096E+04  0.13643329013E+04 0.  0.
        3    1    3    3  502    0  0.68307298990E+02  0.10412849640E+03 -0.13180803531E+04  0.13239503232E+04  0.10100000352E+00 0. -1.
       -3    1    3    3    0  502 -0.68307298990E+02 -0.10412849640E+03  0.33517928210E+03  0.35756648642E+03  0.10100000352E+00 0.  1.
</event>
<event>
 5   0  0.1644571E-03  0.1122337E+04  0.7818609E-02  0.9183690E-01
        1   -1    0    0  501    0  0.00000000000E+00  0.00000000000E+00  0.70840165933E+03  0.70840165935E+03  0.50400001928E-02 0. -1.
       -1   -1    0    0    0  501  0.00000000000E+00  0.00000000000E+00 -0.44453616022E+03  0.44453616025E+03  0.50400001928E-02 0.  1.
    10030    2    1    2    0    0  0.00000000000E+00  0.00000000000E+00  0.26386549911E+03  0.11529378196E+04  0.11223371215E+04 0.  0.
        4    1    3    3  502    0  0.42920053424E+03  0.19619533992E+03  0.44386098261E+03  0.64785792793E+03  0.12699999809E+01 0. -1.
       -4    1    3    3    0  502 -0.42920053424E+03 -0.19619533992E+03 -0.17999548350E+03  0.50507989168E+03  0.12699999809E+01 0.  1.
</event>
<event>
 5   0  0.2993993E-03  0.1495484E+04  0.7818609E-02  0.8887461E-01
       -2   -1    0    0    0  501  0.00000000000E+00  0.00000000000E+00  0.40514520683E+03  0.40514520684E+03  0.25500000920E-02 0.  1.
        2   -1    0    0  501    0  0.00000000000E+00  0.00000000000E+00 -0.13800441419E+04  0.13800441419E+04  0.25500000920E-02 0. -1.
    10030    2    1    2    0    0  0.00000000000E+00  0.00000000000E+00 -0.97489893507E+03  0.17851893487E+04  0.14954842284E+04 0.  0.
        3    1    3    3  502    0 -0.48070119100E+03  0.20405566190E+03 -0.11262914344E+04  0.12414687889E+04  0.10100000352E+00 0. -1.
       -3    1    3    3    0  502  0.48070119100E+03 -0.20405566190E+03  0.15139249938E+03  0.54372055989E+03  0.10100000352E+00 0.  1.
</event>
<event>
 5   0  0.1560957E-03  0.1119855E+04  0.7818609E-02  0.9186053E-01
        1   -1    0    0  501    0  0.00000000000E+00  0.00000000000E+00  0.58196583300E+03  0.58196583302E+03  0.50400001928E-02 0.  1.
       -1   -1    0    0    0  501  0.00000000000E+00  0.00000000000E+00 -0.53872393677E+03  0.53872393680E+03  0.50400001928E-02 0. -1.
    10030    2    1    2    0    0  0.00000000000E+00  0.00000000000E+00  0.43241896227E+02  0.11206897698E+04  0.11198552132E+04 0.  0.
        5    1    3    3  502    0  0.49482584316E+03 -0.24317670839E+03  0.11920930156E+03  0.56411033862E+03  0.46999998093E+01 0.  1.
       -5    1    3    3    0  502 -0.49482584316E+03  0.24317670839E+03 -0.75967405330E+02  0.55657943120E+03  0.46999998093E+01 0. -1.
</event>
<event>
 5   0  0.1700207E-03  0.1415436E+04  0.7818609E-02  0.8942721E-01
       -1   -1    0    0    0  501  0.00000000000E+00  0.00000000000E+00  0.36514635836E+03  0.36514635839E+03  0.50400001928E-02 0.  1.
        1   -1    0    0  501    0  0.00000000000E+00  0.00000000000E+00 -0.13716818555E+04  0.13716818555E+04  0.50400001928E-02 0. -1.
    10030    2    1    2    0    0  0.00000000000E+00  0.00000000000E+00 -0.10065354971E+04  0.17368282139E+04  0.14154358119E+04 0.  0.
        2    1    3    3  502    0  0.61083721652E+03  0.34304309592E+03 -0.38016968658E+03  0.79707569361E+03  0.25500000920E-02 0.  1.
       -2    1    3    3    0  502 -0.61083721652E+03 -0.34304309592E+03 -0.62636581057E+03  0.93975252030E+03  0.25500000920E-02 0. -1.
</event>
<event>
 5   0  0.2889469E-03  0.1395753E+04  0.7818609E-02  0.8956898E-01
        2   -1    0    0  501    0  0.00000000000E+00  0.00000000000E+00  0.19348999685E+04  0.19348999685E+04  0.25500000920E-02 0. -1.
       -2   -1    0    0    0  501  0.00000000000E+00  0.00000000000E+00 -0.25170898203E+03  0.25170898205E+03  0.25500000920E-02 0.  1.
    10030    2    1    2    0    0  0.00000000000E+00  0.00000000000E+00  0.16831909865E+04  0.21866089506E+04  0.13957531321E+04 0.  0.
        5    1    3    3  502    0  0.41402302411E+03 -0.35238768597E+03  0.15270099991E+04  0.16209175713E+04  0.46999998093E+01 0. -1.
       -5    1    3    3    0  502 -0.41402302411E+03  0.35238768597E+03  0.15618098739E+03  0.56569137923E+03  0.46999998093E+01 0.  1.
</event>
<event>
 5   0  0.1586022E-03  0.1441519E+04  0.7818609E-02  0.8924301E-01
       -1   -1    0    0    0  501  0.00000000000E+00  0.00000000000E+00  0.87792881321E+03  0.87792881322E+03  0.50400001928E-02 0.  1.
        1   -1    0    0  501    0  0.00000000000E+00  0.00000000000E+00 -0.59172696993E+03  0.59172696995E+03  0.50400001928E-02 0. -1.
    10030    2    1    2    0    0  0.00000000000E+00  0.00000000000E+00  0.28620184328E+03  0.14696557832E+04  0.14415188608E+04 0.  0.
        1    1    3    3  502    0  0.10945334737E+03 -0.24742061030E+03  0.82419540381E+03  0.86746472973E+03  0.50400001928E-02 0.  1.
       -1    1    3    3    0  502 -0.10945334737E+03  0.24742061030E+03 -0.53799356052E+03  0.60219105344E+03  0.50400001928E-02 0. -1.
</event>
<event>
 5   0  0.1586022E-03  0.1384292E+04  0.7818609E-02  0.8965268E-01
        1   -1    0    0  501    0  0.00000000000E+00  0.00000000000E+00  0.10904441041E+04  0.10904441041E+04  0.50400001928E-02 0. -1.
       -1   -1    0    0    0  501  0.00000000000E+00  0.00000000000E+00 -0.43933139699E+03  0.43933139702E+03  0.50400001928E-02 0.  1.
    10030    2    1    2    0    0  0.00000000000E+00  0.00000000000E+00  0.65111270706E+03  0.15297755011E+04  0.13842923558E+04 0.  0.
        1    1    3    3  502    0 -0.41867509786E+03  0.34129235530E+03  0.80381773854E+03  0.96844838075E+03  0.50400001928E-02 0. -1.
       -1    1    3    3    0  502  0.41867509786E+03 -0.34129235530E+03 -0.15270503148E+03  0.56132712033E+03  0.50400001928E-02 0.  1.
</event>
<event>
 5   0  0.2993993E-03  0.1395058E+04  0.7818609E-02  0.8957404E-01
       -2   -1    0    0    0  501  0.00000000000E+00  0.00000000000E+00  0.25578318481E+03  0.25578318482E+03  0.25500000920E-02 0. -1.
        2   -1    0    0  501    0  0.00000000000E+00  0.00000000000E+00 -0.19021830910E+04  0.19021830910E+04  0.25500000920E-02 0.  1.
    10030    2    1    2    0    0  0.00000000000E+00  0.00000000000E+00 -0.16463999062E+04  0.21579662758E+04  0.13950576320E+04 0.  0.
        3    1    3    3  502    0  0.75414091373E+01  0.47013520655E+03 -0.26207780556E+02  0.47092551773E+03  0.10100000352E+00 0. -1.
       -3    1    3    3    0  502 -0.75414091373E+01 -0.47013520655E+03 -0.16201921257E+04  0.16870407581E+04  0.10100000352E+00 0.  1.
</event>
<event>
 5   0  0.1644571E-03  0.1421052E+04  0.7818609E-02  0.8938719E-01
       -1   -1    0    0    0  501  0.00000000000E+00  0.00000000000E+00  0.53934339616E+03  0.53934339618E+03  0.50400001928E-02 0. -1.
        1   -1    0    0  501    0  0.00000000000E+00  0.00000000000E+00 -0.93604044369E+03  0.93604044370E+03  0.50400001928E-02 0.  1.
    10030    2    1    2    0    0  0.00000000000E+00  0.00000000000E+00 -0.39669704753E+03  0.14753838399E+04  0.14210520495E+04 0.  0.
        4    1    3    3  502    0 -0.51091440907E+03 -0.18647336439E+03  0.27634083519E+03  0.61005878333E+03  0.12699999809E+01 0. -1.
       -4    1    3    3    0  502  0.51091440907E+03  0.18647336439E+03 -0.67303788272E+03  0.86532505656E+03  0.12699999809E+01 0.  1.
</event>
<event>
 5   0  0.1586022E-03  0.1434713E+04  0.7818609E-02  0.8929068E-01
        1   -1    0    0  501    0  0.00000000000E+00  0.00000000000E+00  0.15505593673E+04  0.15505593673E+04  0.50400001928E-02 0.  1.
       -1   -1    0    0    0  501  0.00000000000E+00  0.00000000000E+00 -0.33188030046E+03  0.33188030050E+03  0.50400001928E-02 0. -1.
    10030    2    1    2    0    0  0.00000000000E+00  0.00000000000E+00  0.12186790669E+04  0.18824396679E+04  0.14347126664E+04 0.  0.
        1    1    3    3  502    0  0.89403675758E+02 -0.40326249756E+03 -0.16019267363E+03  0.44302974154E+03  0.50400001928E-02 0. -1.
       -1    1    3    3    0  502 -0.89403675758E+02  0.40326249756E+03  0.13788717405E+04  0.14394099263E+04  0.50400001928E-02 0.  1.
</event>
<event>
 5   0  0.2889469E-03  0.1407505E+04  0.7818609E-02  0.8948404E-01
        2   -1    0    0  501    0  0.00000000000E+00  0.00000000000E+00  0.11364283437E+04  0.11364283437E+04  0.25500000920E-02 0. -1.
       -2   -1    0    0    0  501  0.00000000000E+00  0.00000000000E+00 -0.43581035666E+03  0.43581035667E+03  0.25500000920E-02 0.  1.
    10030    2    1    2    0    0  0.00000000000E+00  0.00000000000E+00  0.70061798705E+03  0.15722387004E+04  0.14075045176E+04 0.  0.
        5    1    3    3  502    0  0.17242431805E+03 -0.17516685235E+03  0.10869047686E+04  0.11143597434E+04  0.46999998093E+01 0. -1.
       -5    1    3    3    0  502 -0.17242431805E+03  0.17516685235E+03 -0.38628678159E+03  0.45787895698E+03  0.46999998093E+01 0.  1.
</event>
<event>
 5   0  0.1560957E-03  0.1390462E+04  0.7818609E-02  0.8960752E-01
       -1   -1    0    0    0  501  0.00000000000E+00  0.00000000000E+00  0.49582691974E+03  0.49582691976E+03  0.50400001928E-02 0.  1.
        1   -1    0    0  501    0  0.00000000000E+00  0.00000000000E+00 -0.97482836372E+03  0.97482836373E+03  0.50400001928E-02 0. -1.
    10030    2    1    2    0    0  0.00000000000E+00  0.00000000000E+00 -0.47900144398E+03  0.14706552835E+04  0.13904620022E+04 0.  0.
        5    1    3    3  502    0 -0.32058022512E+03 -0.53513917797E+03  0.85083567653E+02  0.62960854824E+03  0.46999998093E+01 0.  1.
       -5    1    3    3    0  502  0.32058022512E+03  0.53513917797E+03 -0.56408501163E+03  0.84104673525E+03  0.46999998093E+01 0. -1.
</event>
<event>
 5   0  0.2993993E-03  0.1432236E+04  0.7818609E-02  0.8930809E-01
       -2   -1    0    0    0  501  0.00000000000E+00  0.00000000000E+00  0.46477930812E+03  0.46477930813E+03  0.25500000920E-02 0. -1.
        2   -1    0    0  501    0  0.00000000000E+00  0.00000000000E+00 -0.11033730304E+04  0.11033730304E+04  0.25500000920E-02 0.  1.
    10030    2    1    2    0    0  0.00000000000E+00  0.00000000000E+00 -0.63859372230E+03  0.15681523385E+04  0.14322359494E+04 0.  0.
        3    1    3    3  502    0 -0.42973885523E+03  0.15154621847E+03  0.28556192469E+03  0.53776143695E+03  0.10100000352E+00 0. -1.
       -3    1    3    3    0  502  0.42973885523E+03 -0.15154621847E+03 -0.92415564699E+03  0.10303909016E+04  0.10100000352E+00 0.  1.
</event>
<event>
 5   0  0.1700207E-03  0.1487409E+04  0.7818609E-02  0.8892870E-01
        1   -1    0    0  501    0  0.00000000000E+00  0.00000000000E+00  0.53410472188E+03  0.53410472190E+03  0.50400001928E-02 0. -1.
       -1   -1    0    0    0  501  0.00000000000E+00  0.00000000000E+00 -0.10355573226E+04  0.10355573226E+04  0.50400001928E-02 0.  1.
    10030    2    1    2    0    0  0.00000000000E+00  0.00000000000E+00 -0.50145260070E+03  0.15696620445E+04  0.14874085596E+04 0.  0.
        2    1    3    3  502    0  0.65474737966E+02 -0.14559463537E+03 -0.10172629629E+04  0.10297129090E+04  0.25500000920E-02 0.  1.
       -2    1    3    3    0  502 -0.65474737966E+02  0.14559463537E+03  0.51581036223E+03  0.53994913552E+03  0.25500000920E-02 0. -1.
</event>
<event>
 5   0  0.1644571E-03  0.1392076E+04  0.7818609E-02  0.8959574E-01
        1   -1    0    0  501    0  0.00000000000E+00  0.00000000000E+00  0.35537740022E+03  0.35537740025E+03  0.50400001928E-02 0.  1.
       -1   -1    0    0    0  501  0.00000000000E+00  0.00000000000E+00 -0.13632522604E+04  0.13632522604E+04  0.50400001928E-02 0. -1.
    10030    2    1    2    0    0  0.00000000000E+00  0.00000000000E+00 -0.10078748602E+04  0.17186296607E+04  0.13920762108E+04 0.  0.
        4    1    3    3  502    0  0.64466263827E+03  0.24611085347E+03 -0.61646019641E+03  0.92530279154E+03  0.12699999809E+01 0. -1.
       -4    1    3    3    0  502 -0.64466263827E+03 -0.24611085347E+03 -0.39141466379E+03  0.79332686914E+03  0.12699999809E+01 0.  1.
</event>
<event>
 5   0  0.1586022E-03  0.1392010E+04  0.7818609E-02  0.8959623E-01
        1   -1    0    0  501    0  0.00000000000E+00  0.00000000000E+00  0.10027488053E+04  0.10027488053E+04  0.50400001928E-02 0. -1.
       -1   -1    0    0    0  501  0.00000000000E+00  0.00000000000E+00 -0.48309485000E+03  0.48309485003E+03  0.50400001928E-02 0.  1.
    10030    2    1    2    0    0  0.00000000000E+00  0.00000000000E+00  0.51965395531E+03  0.14858436553E+04  0.13920097467E+04 0.  0.
        1    1    3    3  502    0 -0.63189681325E+03 -0.28791763877E+03  0.20939109310E+03  0.72528255129E+03  0.50400001928E-02 0.  1.
       -1    1    3    3    0  502  0.63189681325E+03  0.28791763877E+03  0.31026286221E+03  0.76056110406E+03  0.50400001928E-02 0. -1.
</event>
<event>
 5   0  0.1644571E-03  0.1516694E+04  0.7818609E-02  0.8873427E-01
        1   -1    0    0  501    0  0.00000000000E+00  0.00000000000E+00  0.86743080235E+03  0.86743080236E+03  0.50400001928E-02 0.  1.
       -1   -1    0    0    0  501  0.00000000000E+00  0.00000000000E+00 -0.66298110117E+03  0.66298110119E+03  0.50400001928E-02 0. -1.
    10030    2    1    2    0    0  0.00000000000E+00  0.00000000000E+00  0.20444970118E+03  0.15304119036E+04  0.15166940740E+04 0.  0.
        4    1    3    3  502    0  0.19783492866E+03 -0.20532373395E+03 -0.60683422973E+03  0.67048183420E+03  0.12699999809E+01 0. -1.
       -4    1    3    3    0  502 -0.19783492866E+03  0.20532373395E+03  0.81128393091E+03  0.85993006935E+03  0.12699999809E+01 0.  1.
</event>
<event>
 5   0  0.2917809E-03  0.1407128E+04  0.7818609E-02  0.8948675E-01
       -2   -1    0    0    0  501  0.00000000000E+00  0.00000000000E+00  0.75588557151E+03  0.75588557152E+03  0.25500000920E-02 0.  1.
        2   -1    0    0  501    0  0.00000000000E+00  0.00000000000E+00 -0.65486424605E+03  0.65486424606E+03  0.25500000920E-02 0. -1.
    10030    2    1    2    0    0  0.00000000000E+00  0.00000000000E+00  0.10102132546E+03  0.14107498176E+04  0.14071281888E+04 0.  0.
        2    1    3    3  502    0 -0.16421424946E+03 -0.13805275550E+03 -0.62127178629E+03  0.65726974331E+03  0.25500000920E-02 0. -1.
       -2    1    3    3    0  502  0.16421424946E+03  0.13805275550E+03  0.72229311175E+03  0.75348007426E+03  0.25500000920E-02 0.  1.
</event>
<event>
 5   0  0.3006737E-03  0.1411727E+04  0.7818609E-02  0.8945373E-01
       -2   -1    0    0    0  501  0.00000000000E+00  0.00000000000E+00  0.21791939380E+03  0.21791939381E+03  0.25500000920E-02 0. -1.
        2   -1    0    0  501    0  0.00000000000E+00  0.00000000000E+00 -0.22863649205E+04  0.22863649205E+04  0.25500000920E-02 0.  1.
    10030    2    1    2    0    0  0.00000000000E+00  0.00000000000E+00 -0.20684455267E+04  0.25042843144E+04  0.14117269672E+04 0.  0.
        1    1    3    3  502    0 -0.45662377645E+03 -0.29175486341E+03 -0.23179884030E+03  0.58936989737E+03  0.50400001928E-02 0. -1.
       -1    1    3    3    0  502  0.45662377645E+03  0.29175486341E+03 -0.18366466864E+04  0.19149144170E+04  0.50400001928E-02 0.  1.
</event>
<event>
 5   0  0.2993993E-03  0.1395002E+04  0.7818609E-02  0.8957444E-01
       -2   -1    0    0    0  501  0.00000000000E+00  0.00000000000E+00  0.30513224431E+03  0.30513224432E+03  0.25500000920E-02 0.  1.
        2   -1    0    0  501    0  0.00000000000E+00  0.00000000000E+00 -0.15944165143E+04  0.15944165143E+04  0.25500000920E-02 0. -1.
    10030    2    1    2    0    0  0.00000000000E+00  0.00000000000E+00 -0.12892842699E+04  0.18995487586E+04  0.13950023503E+04 0.  0.
        3    1    3    3  502    0 -0.42924825112E+03 -0.18291710484E+03 -0.13506120943E+04  0.14289386858E+04  0.10100000352E+00 0. -1.
       -3    1    3    3    0  502  0.42924825112E+03  0.18291710484E+03  0.61327824358E+02  0.47061007276E+03  0.10100000352E+00 0.  1.
</event>
<event>
 5   0  0.3006737E-03  0.1398689E+04  0.7818609E-02  0.8954768E-01
        2   -1    0    0  501    0  0.00000000000E+00  0.00000000000E+00  0.81688864491E+03  0.81688864492E+03  0.25500000920E-02 0.  1.
       -2   -1    0    0    0  501  0.00000000000E+00  0.00000000000E+00 -0.59871371380E+03  0.59871371381E+03  0.25500000920E-02 0. -1.
    10030    2    1    2    0    0  0.00000000000E+00  0.00000000000E+00  0.21817493111E+03  0.14156023587E+04  0.13986885777E+04 0.  0.
        1    1    3    3  502    0  0.14046303377E+03  0.68398985255E+03  0.69752957048E+02  0.70173888113E+03  0.50400001928E-02 0. -1.
       -1    1    3    3    0  502 -0.14046303377E+03 -0.68398985255E+03  0.14842197406E+03  0.71386347760E+03  0.50400001928E-02 0.  1.
</event>
<event>
 5   0  0.2760807E-03  0.1380162E+04  0.7818609E-02  0.8968305E-01
       -2   -1    0    0    0  501  0.00000000000E+00  0.00000000000E+00  0.41652137974E+03  0.41652137975E+03  0.25500000920E-02 0.  1.
        2   -1    0    0  501    0  0.00000000000E+00  0.00000000000E+00 -0.11433064913E+04  0.11433064913E+04  0.25500000920E-02 0. -1.
    10030    2    1    2    0    0  0.00000000000E+00  0.00000000000E+00 -0.72678511158E+03  0.15598278711E+04  0.13801617257E+04 0.  0.
        4    1    3    3  502    0  0.27444851544E+03 -0.57259171533E+03 -0.57979494182E+02  0.63760998638E+03  0.12699999809E+01 0. -1.
       -4    1    3    3    0  502 -0.27444851544E+03  0.57259171533E+03 -0.66880561740E+03  0.92221788470E+03  0.12699999809E+01 0.  1.
</event>
<event>
 5   0  0.1631380E-03  0.1324503E+04  0.7818609E-02  0.9010356E-01
       -1   -1    0    0    0  501  0.00000000000E+00  0.00000000000E+00  0.39060412947E+03  0.39060412950E+03  0.50400001928E-02 0.  1.
        1   -1    0    0  501    0  0.00000000000E+00  0.00000000000E+00 -0.11228178912E+04  0.11228178912E+04  0.50400001928E-02 0. -1.
    10030    2    1    2    0    0  0.00000000000E+00  0.00000000000E+00 -0.73221376172E+03  0.15134220207E+04  0.13245033861E+04 0.  0.
        3    1    3    3  502    0 -0.61373981784E+03  0.94712122149E+02 -0.10322579684E+03  0.62952563523E+03  0.10100000352E+00 0. -1.
       -3    1    3    3    0  502  0.61373981784E+03 -0.94712122149E+02 -0.62898796488E+03  0.88389638547E+03  0.10100000352E+00 0.  1.
</event>
<event>
 5   0  0.1586022E-03  0.1400247E+04  0.7818609E-02  0.8953640E-01
        1   -1    0    0  501    0  0.00000000000E+00  0.00000000000E+00  0.79809257352E+03  0.79809257354E+03  0.50400001928E-02 0. -1.
       -1   -1    0    0    0  501  0.00000000000E+00  0.00000000000E+00 -0.61418028783E+03  0.61418028785E+03  0.50400001928E-02 0.  1.
    10030    2    1    2    0    0  0.00000000000E+00  0.00000000000E+00  0.18391228569E+03  0.14122728614E+04  0.14002467305E+04 0.  0.
        1    1    3    3  502    0 -0.23924865743E+03 -0.65104487519E+03 -0.41162312345E+01  0.69362547025E+03  0.50400001928E-02 0.  1.
       -1    1    3    3    0  502  0.23924865743E+03  0.65104487519E+03  0.18802851692E+03  0.71864739114E+03  0.50400001928E-02 0. -1.
</event>
<event>
 5   0  0.1560957E-03  0.1419037E+04  0.7818609E-02  0.8940153E-01
       -1   -1    0    0    0  501  0.00000000000E+00  0.00000000000E+00  0.27701176833E+03  0.27701176838E+03  0.50400001928E-02 0. -1.
        1   -1    0    0  501    0  0.00000000000E+00  0.00000000000E+00 -0.18173116074E+04  0.18173116074E+04  0.50400001928E-02 0.  1.
    10030    2    1    2    0    0  0.00000000000E+00  0.00000000000E+00 -0.15402998391E+04  0.20943233758E+04  0.14190372822E+04 0.  0.
        5    1    3    3  502    0 -0.62734527964E+03  0.15237488198E+03 -0.33579474091E+03  0.72770900954E+03  0.46999998093E+01 0. -1.
       -5    1    3    3    0  502  0.62734527964E+03 -0.15237488198E+03 -0.12045050982E+04  0.13666143663E+04  0.46999998093E+01 0.  1.
</event>
<event>
 5   0  0.1586022E-03  0.1409614E+04  0.7818609E-02  0.8946889E-01
       -1   -1    0    0    0  501  0.00000000000E+00  0.00000000000E+00  0.52042626896E+03  0.52042626898E+03  0.50400001928E-02 0. -1.
        1   -1    0    0  501    0  0.00000000000E+00  0.00000000000E+00 -0.95451096710E+03  0.95451096712E+03  0.50400001928E-02 0.  1.
    10030    2    1    2    0    0  0.00000000000E+00  0.00000000000E+00 -0.43408469814E+03  0.14749372361E+04  0.14096135376E+04 0.  0.
        1    1    3    3  502    0  0.43603520398E+03 -0.20909306134E+03 -0.75354726439E+03  0.89536589565E+03  0.50400001928E-02 0.  1.
       -1    1    3    3    0  502 -0.43603520398E+03  0.20909306134E+03  0.31946256624E+03  0.57957134045E+03  0.50400001928E-02 0. -1.
</event>
<event>
 5   0  0.1644571E-03  0.1385383E+04  0.7818609E-02  0.8964467E-01
        1   -1    0    0  501    0  0.00000000000E+00  0.00000000000E+00  0.11238789511E+04  0.11238789511E+04  0.50400001928E-02 0.  1.
       -1   -1    0    0    0  501  0.00000000000E+00  0.00000000000E+00 -0.42693373080E+03  0.42693373083E+03  0.50400001928E-02 0. -1.
    10030    2    1    2    0    0  0.00000000000E+00  0.00000000000E+00  0.69694522026E+03  0.15508126819E+04  0.13853834611E+04 0.  0.
        4    1    3    3  502    0  0.35697019994E+02 -0.28188517795E+03 -0.35869598710E+03  0.45760021290E+03  0.12699999809E+01 0. -1.
       -4    1    3    3    0  502 -0.35697019994E+02  0.28188517795E+03  0.10556412074E+04  0.10932124690E+04  0.12699999809E+01 0.  1.
</event>
<event>
 5   0  0.1631380E-03  0.1383745E+04  0.7818609E-02  0.8965670E-01
       -1   -1    0    0    0  501  0.00000000000E+00  0.00000000000E+00  0.39646956637E+03  0.39646956641E+03  0.50400001928E-02 0.  1.
        1   -1    0    0  501    0  0.00000000000E+00  0.00000000000E+00 -0.12073748745E+04  0.12073748745E+04  0.50400001928E-02 0. -1.
    10030    2    1    2    0    0  0.00000000000E+00  0.00000000000E+00 -0.81090530817E+03  0.16038444410E+04  0.13837447640E+04 0.  0.
        3    1    3    3  502    0  0.20982387879E+03  0.59040091027E+03 -0.65375244901E+02  0.62997875186E+03  0.10100000352E+00 0.  1.
       -3    1    3    3    0  502 -0.20982387879E+03 -0.59040091027E+03 -0.74553006327E+03  0.97386568909E+03  0.10100000352E+00 0. -1.
</event>
<event>
 5   0  0.2760807E-03  0.1336063E+04  0.7818609E-02  0.9001446E-01
        2   -1    0    0  501    0  0.00000000000E+00  0.00000000000E+00  0.78792788935E+03  0.78792788936E+03  0.25500000920E-02 0. -1.
       -2   -1    0    0    0  501  0.00000000000E+00  0.00000000000E+00 -0.56637893749E+03  0.56637893750E+03  0.25500000920E-02 0.  1.
    10030    2    1    2    0    0  0.00000000000E+00  0.00000000000E+00  0.22154895186E+03  0.13543068269E+04  0.13360625147E+04 0.  0.
        4    1    3    3  502    0 -0.52422283468E+03  0.41379888227E+03  0.95567871997E+02  0.67466578869E+03  0.12699999809E+01 0.  1.
       -4    1    3    3    0  502  0.52422283468E+03 -0.41379888227E+03  0.12598107986E+03  0.67964103816E+03  0.12699999809E+01 0. -1.
</event>
<event>
 5   0  0.1700207E-03  0.1455537E+04  0.7818609E-02  0.8914571E-01
       -1   -1    0    0    0  501  0.00000000000E+00  0.00000000000E+00  0.86161056100E+03  0.86161056102E+03  0.50400001928E-02 0.  1.
        1   -1    0    0  501    0  0.00000000000E+00  0.00000000000E+00 -0.61471709001E+03  0.61471709003E+03  0.50400001928E-02 0. -1.
    10030    2    1    2    0    0  0.00000000000E+00  0.00000000000E+00  0.24689347099E+03  0.14763276510E+04  0.14555366527E+04 0.  0.
        2    1    3    3  502    0  0.41145275742E+03 -0.48365854442E+03 -0.23719904869E+03  0.67785127269E+03  0.25500000920E-02 0. -1.
       -2    1    3    3    0  502 -0.41145275742E+03  0.48365854442E+03  0.48409251968E+03  0.79847637836E+03  0.25500000920E-02 0.  1.
</event>
<event>
 5   0  0.1631380E-03  0.1374027E+04  0.7818609E-02  0.8972837E-01
        1   -1    0    0  501    0  0.00000000000E+00  0.00000000000E+00  0.73467452833E+03  0.73467452835E+03  0.50400001928E-02 0. -1.
       -1   -1    0    0    0  501  0.00000000000E+00  0.00000000000E+00 -0.64244457134E+03  0.64244457136E+03  0.50400001928E-02 0.  1.
    10030    2    1    2    0    0  0.00000000000E+00  0.00000000000E+00  0.92229956997E+02  0.13771190997E+04  0.13740271649E+04 0.  0.
        3    1    3    3  502    0  0.15742372451E+03 -0.14655360601E+03  0.70006117255E+03  0.73235636406E+03  0.10100000352E+00 0. -1.
       -3    1    3    3    0  502 -0.15742372451E+03  0.14655360601E+03 -0.60783121555E+03  0.64476273564E+03  0.10100000352E+00 0.  1.
</event>
<event>
 5   0  0.2889469E-03  0.1497919E+04  0.7818609E-02  0.8885838E-01
        2   -1    0    0  501    0  0.00000000000E+00  0.00000000000E+00  0.12701101720E+04  0.12701101720E+04  0.25500000920E-02 0. -1.
       -2   -1    0    0    0  501  0.00000000000E+00  0.00000000000E+00 -0.44164719209E+03  0.44164719210E+03  0.25500000920E-02 0.  1.
    10030    2    1    2    0    0  0.00000000000E+00  0.00000000000E+00  0.82846297993E+03  0.17117573641E+04  0.14979193451E+04 0.  0.
        5    1    3    3  502    0  0.63781699279E+03 -0.11936299664E+03 -0.13135772854E+02  0.64903981372E+03  0.46999998093E+01 0.  1.
       -5    1    3    3    0  502 -0.63781699279E+03  0.11936299664E+03  0.84159875279E+03  0.10627175504E+04  0.46999998093E+01 0. -1.
</event>
<event>
 5   0  0.1700207E-03  0.1366751E+04  0.7818609E-02  0.8978244E-01
       -1   -1    0    0    0  501  0.00000000000E+00  0.00000000000E+00  0.50460030964E+03  0.50460030966E+03  0.50400001928E-02 0.  1.
        1   -1    0    0  501    0  0.00000000000E+00  0.00000000000E+00 -0.92548924857E+03  0.92548924859E+03  0.50400001928E-02 0. -1.
    10030    2    1    2    0    0  0.00000000000E+00  0.00000000000E+00 -0.42088893893E+03  0.14300895583E+04  0.13667511279E+04 0.  0.
        2    1    3    3  502    0  0.17748891353E+03  0.65831949810E+03 -0.16232085029E+03  0.70088154096E+03  0.25500000920E-02 0.  1.
       -2    1    3    3    0  502 -0.17748891353E+03 -0.65831949810E+03 -0.25856808865E+03  0.72920801729E+03  0.25500000920E-02 0. -1.
</event>
<event>
 5   0  0.1560957E-03  0.1314031E+04  0.7818609E-02  0.9018512E-01
       -1   -1    0    0    0  501  0.00000000000E+00  0.00000000000E+00  0.41443479295E+03  0.41443479298E+03  0.50400001928E-02 0.  1.
        1   -1    0    0  501    0  0.00000000000E+00  0.00000000000E+00 -0.10415850610E+04  0.10415850610E+04  0.50400001928E-02 0. -1.
    10030    2    1    2    0    0  0.00000000000E+00  0.00000000000E+00 -0.62715026800E+03  0.14560198539E+04  0.13140305767E+04 0.  0.
        5    1    3    3  502    0  0.58167675485E+02  0.47486950362E+03 -0.81252351519E+03  0.94292156443E+03  0.46999998093E+01 0. -1.
       -5    1    3    3    0  502 -0.58167675485E+02 -0.47486950362E+03  0.18537324719E+03  0.51309828952E+03  0.46999998093E+01 0.  1.
</event>
<event>
 5   0  0.1560957E-03  0.1371359E+04  0.7818609E-02  0.8974815E-01
       -1   -1    0    0    0  501  0.00000000000E+00  0.00000000000E+00  0.23090476314E+03  0.23090476319E+03  0.50400001928E-02 0. -1.
        1   -1    0    0  501    0  0.00000000000E+00  0.00000000000E+00 -0.20361487390E+04  0.20361487390E+04  0.50400001928E-02 0.  1.
    10030    2    1    2    0    0  0.00000000000E+00  0.00000000000E+00 -0.18052439759E+04  0.22670535022E+04  0.13713590957E+04 0.  0.
        5    1    3    3  502    0 -0.62325362943E+03  0.28548527653E+03 -0.87999005700E+03  0.11155050516E+04  0.46999998093E+01 0. -1.
       -5    1    3    3    0  502  0.62325362943E+03 -0.28548527653E+03 -0.92525391888E+03  0.11515484506E+04  0.46999998093E+01 0.  1.
</event>
<event>
 5   0  0.2917809E-03  0.1395885E+04  0.7818609E-02  0.8956803E-01
       -2   -1    0    0    0  501  0.00000000000E+00  0.00000000000E+00  0.33011775954E+03  0.33011775955E+03  0.25500000920E-02 0.  1.
        2   -1    0    0  501    0  0.00000000000E+00  0.00000000000E+00 -0.14756050766E+04  0.14756050766E+04  0.25500000920E-02 0. -1.
    10030    2    1    2    0    0  0.00000000000E+00  0.00000000000E+00 -0.11454873170E+04  0.18057228361E+04  0.13958845824E+04 0.  0.
        2    1    3    3  502    0 -0.55067467273E+03 -0.40509619120E+03 -0.39081885456E+03  0.78745469482E+03  0.25500000920E-02 0.  1.
       -2    1    3    3    0  502  0.55067467273E+03  0.40509619120E+03 -0.75466846246E+03  0.10182681413E+04  0.25500000920E-02 0. -1.
</event>
<event>
 5   0  0.2917809E-03  0.1381855E+04  0.7818609E-02  0.8967059E-01
       -2   -1    0    0    0  501  0.00000000000E+00  0.00000000000E+00  0.65112346948E+03  0.65112346949E+03  0.25500000920E-02 0.  1.
        2   -1    0    0  501    0  0.00000000000E+00  0.00000000000E+00 -0.73316429261E+03  0.73316429262E+03  0.25500000920E-02 0. -1.
    10030    2    1    2    0    0  0.00000000000E+00  0.00000000000E+00 -0.82040823129E+02  0.13842877621E+04  0.13818545190E+04 0.  0.
        2    1    3    3  502    0 -0.33229474782E+03  0.60568147758E+03 -0.30483992375E+02  0.69151943249E+03  0.25500000920E-02 0. -1.
       -2    1    3    3    0  502  0.33229474782E+03 -0.60568147758E+03 -0.51556830754E+02  0.69276832962E+03  0.25500000920E-02 0.  1.
</event>
<event>
 5   0  0.2889469E-03  0.1382099E+04  0.7818609E-02  0.8966879E-01
        2   -1    0    0  501    0  0.00000000000E+00  0.00000000000E+00  0.25100346261E+04  0.25100346261E+04  0.25500000920E-02 0. -1.
       -2   -1    0    0    0  501  0.00000000000E+00  0.00000000000E+00 -0.19025607783E+03  0.19025607785E+03  0.25500000920E-02 0.  1.
    10030    2    1    2    0    0  0.00000000000E+00  0.00000000000E+00  0.23197785483E+04  0.27002907040E+04  0.13820989013E+04 0.  0.
        5    1    3    3  502    0 -0.12867758806E+03 -0.48775947045E+03  0.20826355015E+04  0.21428625585E+04  0.46999998093E+01 0. -1.
       -5    1    3    3    0  502  0.12867758806E+03  0.48775947045E+03  0.23714304677E+03  0.55742814542E+03  0.46999998093E+01 0.  1.
</event>
<event>
 5   0  0.2760807E-03  0.1378005E+04  0.7818609E-02  0.8969895E-01
       -2   -1    0    0    0  501  0.00000000000E+00  0.00000000000E+00  0.53742217426E+03  0.53742217426E+03  0.25500000920E-02 0.  1.
        2   -1    0    0  501    0  0.00000000000E+00  0.00000000000E+00 -0.88333669949E+03  0.88333669949E+03  0.25500000920E-02 0. -1.
    10030    2    1    2    0    0  0.00000000000E+00  0.00000000000E+00 -0.34591452523E+03  0.14207588738E+04  0.13780054131E+04 0.  0.
        4    1    3    3  502    0 -0.57496828955E+03  0.78987057731E+02 -0.55582141159E+03  0.80359600780E+03  0.12699999809E+01 0. -1.
       -4    1    3    3    0  502  0.57496828955E+03 -0.78987057731E+02  0.20990688636E+03  0.61716286595E+03  0.12699999809E+01 0.  1.
</event>
<event>
 5   0  0.1586022E-03  0.1471033E+04  0.7818609E-02  0.8903947E-01
        1   -1    0    0  501    0  0.00000000000E+00  0.00000000000E+00  0.96909630084E+03  0.96909630085E+03  0.50400001928E-02 0.  1.
       -1   -1    0    0    0  501  0.00000000000E+00  0.00000000000E+00 -0.55823626657E+03  0.55823626659E+03  0.50400001928E-02 0. -1.
    10030    2    1    2    0    0  0.00000000000E+00  0.00000000000E+00  0.41086003427E+03  0.15273325674E+04  0.14710332436E+04 0.  0.
        1    1    3    3  502    0  0.45674901433E+03 -0.50619529278E+03 -0.81049074893E+02  0.68660198739E+03  0.50400001928E-02 0. -1.
       -1    1    3    3    0  502 -0.45674901433E+03  0.50619529278E+03  0.49190910916E+03  0.84073058005E+03  0.50400001928E-02 0.  1.
</event>
<event>
 5   0  0.2760807E-03  0.1403656E+04  0.7818609E-02  0.8951176E-01
       -2   -1    0    0    0  501  0.00000000000E+00  0.00000000000E+00  0.39285756480E+03  0.39285756481E+03  0.25500000920E-02 0.  1.
        2   -1    0    0  501    0  0.00000000000E+00  0.00000000000E+00 -0.12537941947E+04  0.12537941947E+04  0.25500000920E-02 0. -1.
    10030    2    1    2    0    0  0.00000000000E+00  0.00000000000E+00 -0.86093662991E+03  0.16466517595E+04  0.14036559893E+04 0.  0.
        4    1    3    3  502    0 -0.28861755853E+03  0.28467543399E+03 -0.11025531229E+04  0.11747192003E+04  0.12699999809E+01 0. -1.
       -4    1    3    3    0  502  0.28861755853E+03 -0.28467543399E+03  0.24161649304E+03  0.47193255918E+03  0.12699999809E+01 0.  1.
</event>
<event>
 5   0  0.1644571E-03  0.1435367E+04  0.7818609E-02  0.8928609E-01
        1   -1    0    0  501    0  0.00000000000E+00  0.00000000000E+00  0.10157161656E+04  0.10157161656E+04  0.50400001928E-02 0.  1.
       -1   -1    0    0    0  501  0.00000000000E+00  0.00000000000E+00 -0.50709984092E+03  0.50709984094E+03  0.50400001928E-02 0. -1.
    10030    2    1    2    0    0  0.00000000000E+00  0.00000000000E+00  0.50861632468E+03  0.15228160065E+04  0.14353668604E+04 0.  0.
        4    1    3    3  502    0 -0.30368511862E+03  0.28214984636E+03  0.87586395101E+03  0.96900591363E+03  0.12699999809E+01 0.  1.
       -4    1    3    3    0  502  0.30368511862E+03 -0.28214984636E+03 -0.36724762633E+03  0.55381009292E+03  0.12699999809E+01 0. -1.
</event>
<event>
 5   0  0.3006737E-03  0.1286045E+04  0.7818609E-02  0.9040706E-01
       -2   -1    0    0    0  501  0.00000000000E+00  0.00000000000E+00  0.26748137561E+03  0.26748137562E+03  0.25500000920E-02 0.  1.
        2   -1    0    0  501    0  0.00000000000E+00  0.00000000000E+00 -0.15458188411E+04  0.15458188411E+04  0.25500000920E-02 0. -1.
    10030    2    1    2    0    0  0.00000000000E+00  0.00000000000E+00 -0.12783374655E+04  0.18133002167E+04  0.12860447116E+04 0.  0.
        1    1    3    3  502    0  0.18323659983E+03 -0.61635098286E+03 -0.64436169087E+03  0.91031103161E+03  0.50400001928E-02 0. -1.
       -1    1    3    3    0  502 -0.18323659983E+03  0.61635098286E+03 -0.63397577461E+03  0.90298918510E+03  0.50400001928E-02 0.  1.
</event>
<event>
 5   0  0.1631380E-03  0.1405882E+04  0.7818609E-02  0.8949572E-01
       -1   -1    0    0    0  501  0.00000000000E+00  0.00000000000E+00  0.33964684162E+03  0.33964684166E+03  0.50400001928E-02 0. -1.
        1   -1    0    0  501    0  0.00000000000E+00  0.00000000000E+00 -0.14548225885E+04  0.14548225885E+04  0.50400001928E-02 0.  1.
    10030    2    1    2    0    0  0.00000000000E+00  0.00000000000E+00 -0.11151757469E+04  0.17944694302E+04  0.14058817836E+04 0.  0.
        3    1    3    3  502    0 -0.15050266104E+03 -0.12506095792E+03 -0.14193569398E+04  0.14327824074E+04  0.10100000352E+00 0.  1.
       -3    1    3    3    0  502  0.15050266104E+03  0.12506095792E+03  0.30418119288E+03  0.36168702282E+03  0.10100000352E+00 0. -1.
</event>
<event>
 5   0  0.2993993E-03  0.1404750E+04  0.7818609E-02  0.8950387E-01
        2   -1    0    0  501    0  0.00000000000E+00  0.00000000000E+00  0.87549776489E+03  0.87549776490E+03  0.25500000920E-02 0.  1.
       -2   -1    0    0    0  501  0.00000000000E+00  0.00000000000E+00 -0.56348620735E+03  0.56348620735E+03  0.25500000920E-02 0. -1.
    10030    2    1    2    0    0  0.00000000000E+00  0.00000000000E+00  0.31201155755E+03  0.14389839722E+04  0.14047503908E+04 0.  0.
        3    1    3    3  502    0 -0.40999456605E+03 -0.11416997583E+03 -0.41635998184E+03  0.59538724563E+03  0.10100000352E+00 0. -1.
       -3    1    3    3    0  502  0.40999456605E+03  0.11416997583E+03  0.72837153939E+03  0.84359672662E+03  0.10100000352E+00 0.  1.
</event>
<event>
 5   0  0.1560957E-03  0.1353253E+04  0.7818609E-02  0.8988369E-01
       -1   -1    0    0    0  501  0.00000000000E+00  0.00000000000E+00  0.88234179815E+03  0.88234179816E+03  0.50400001928E-02 0.  1.
        1   -1    0    0  501    0  0.00000000000E+00  0.00000000000E+00 -0.51887324438E+03  0.51887324441E+03  0.50400001928E-02 0. -1.
    10030    2    1    2    0    0  0.00000000000E+00  0.00000000000E+00  0.36346855376E+03  0.14012150426E+04  0.13532531936E+04 0.  0.
        5    1    3    3  502    0  0.32200348899E+03  0.49772402364E+03 -0.15599444197E+03  0.61300228920E+03  0.46999998093E+01 0. -1.
       -5    1    3    3    0  502 -0.32200348899E+03 -0.49772402364E+03  0.51946299574E+03  0.78821275337E+03  0.46999998093E+01 0.  1.
</event>
<event>
 5   0  0.3006737E-03  0.1277831E+04  0.7818609E-02  0.9047332E-01
       -2   -1    0    0    0  501  0.00000000000E+00  0.00000000000E+00  0.44632531404E+03  0.44632531405E+03  0.25500000920E-02 0. -1.
        2   -1    0    0  501    0  0.00000000000E+00  0.00000000000E+00 -0.91460908103E+03  0.91460908103E+03  0.25500000920E-02 0.  1.
    10030    2    1    2    0    0  0.00000000000E+00  0.00000000000E+00 -0.46828376698E+03  0.13609343951E+04  0.12778312648E+04 0.  0.
        1    1    3    3  502    0  0.62007167404E+03  0.15326089720E+03 -0.21780126402E+03  0.67484455558E+03  0.50400001928E-02 0. -1.
       -1    1    3    3    0  502 -0.62007167404E+03 -0.15326089720E+03 -0.25048250296E+03  0.68608983950E+03  0.50400001928E-02 0.  1.
</event>
<event>
 5   0  0.2993993E-03  0.1414875E+04  0.7818609E-02  0.8943121E-01
       -2   -1    0    0    0  501  0.00000000000E+00  0.00000000000E+00  0.48339744832E+03  0.48339744832E+03  0.25500000920E-02 0.  1.
        2   -1    0    0  501    0  0.00000000000E+00  0.00000000000E+00 -0.10353135542E+04  0.10353135542E+04  0.25500000920E-02 0. -1.
    10030    2    1    2    0    0  0.00000000000E+00  0.00000000000E+00 -0.55191610589E+03  0.15187110025E+04  0.14148751610E+04 0.  0.
        3    1    3    3  502    0 -0.29144223133E+02  0.59327242848E+03  0.13648917510E+03  0.60946769008E+03  0.10100000352E+00 0.  1.
       -3    1    3    3    0  502  0.29144223133E+02 -0.59327242848E+03 -0.68840528099E+03  0.90924331245E+03  0.10100000352E+00 0. -1.
</event>
<event>
 5   0  0.1560957E-03  0.1429655E+04  0.7818609E-02  0.8932628E-01
       -1   -1    0    0    0  501  0.00000000000E+00  0.00000000000E+00  0.24025938456E+03  0.24025938461E+03  0.50400001928E-02 0. -1.
        1   -1    0    0  501    0  0.00000000000E+00  0.00000000000E+00 -0.21267764977E+04  0.21267764977E+04  0.50400001928E-02 0.  1.
    10030    2    1    2    0    0  0.00000000000E+00  0.00000000000E+00 -0.18865171132E+04  0.23670358823E+04  0.14296545212E+04 0.  0.
        5    1    3    3  502    0 -0.35654553569E+03  0.16780207731E+03 -0.19306732723E+04  0.19704830957E+04  0.46999998093E+01 0.  1.
       -5    1    3    3    0  502  0.35654553569E+03 -0.16780207731E+03  0.44156159151E+02  0.39655278660E+03  0.46999998093E+01 0. -1.
</event>
<event>
 5   0  0.1644571E-03  0.1448143E+04  0.7818609E-02  0.8919689E-01
        1   -1    0    0  501    0  0.00000000000E+00  0.00000000000E+00  0.81270187007E+03  0.81270187008E+03  0.50400001928E-02 0. -1.
       -1   -1    0    0    0  501  0.00000000000E+00  0.00000000000E+00 -0.64510676894E+03  0.64510676896E+03  0.50400001928E-02 0.  1.
    10030    2    1    2    0    0  0.00000000000E+00  0.00000000000E+00  0.16759510112E+03  0.14578086390E+04  0.14481429177E+04 0.  0.
        4    1    3    3  502    0 -0.71146435363E+02  0.11612735547E+03 -0.63209635009E+03  0.64660249509E+03  0.12699999809E+01 0.  1.
       -4    1    3    3    0  502  0.71146435363E+02 -0.11612735547E+03  0.79969145122E+03  0.81120614396E+03  0.12699999809E+01 0. -1.
</event>
<event>
 5   0  0.1700207E-03  0.1414030E+04  0.7818609E-02  0.8943725E-01
        1   -1    0    0  501    0  0.00000000000E+00  0.00000000000E+00  0.85266748662E+03  0.85266748663E+03  0.50400001928E-02 0. -1.
       -1   -1    0    0    0  501  0.00000000000E+00  0.00000000000E+00 -0.58624243080E+03  0.58624243082E+03  0.50400001928E-02 0.  1.
    10030    2    1    2    0    0  0.00000000000E+00  0.00000000000E+00  0.26642505582E+03  0.14389099175E+04  0.14140295047E+04 0.  0.
        2    1    3    3  502    0  0.10647423497E+02  0.69980430057E+03  0.23512679413E+03  0.73832515605E+03  0.25500000920E-02 0. -1.
       -2    1    3    3    0  502 -0.10647423497E+02 -0.69980430057E+03  0.31298261691E+02  0.70058476141E+03  0.25500000920E-02 0.  1.
</event>
<event>
 5   0  0.2760807E-03  0.1405601E+04  0.7818609E-02  0.8949774E-01
        2   -1    0    0  501    0  0.00000000000E+00  0.00000000000E+00  0.78596918509E+03  0.78596918509E+03  0.25500000920E-02 0. -1.
       -2   -1    0    0    0  501  0.00000000000E+00  0.00000000000E+00 -0.62843243827E+03  0.62843243827E+03  0.25500000920E-02 0.  1.
    10030    2    1    2    0    0  0.00000000000E+00  0.00000000000E+00  0.15753674682E+03  0.14144016234E+04  0.14056009838E+04 0.  0.
        4    1    3    3  502    0  0.54317723497E+03 -0.41104903168E+03  0.25283730651E+03  0.72658869486E+03  0.12699999809E+01 0. -1.
       -4    1    3    3    0  502 -0.54317723497E+03  0.41104903168E+03 -0.95300559687E+02  0.68781292850E+03  0.12699999809E+01 0.  1.
</event>
<event>
 5   0  0.3006737E-03  0.1362762E+04  0.7818609E-02  0.8981223E-01
       -2   -1    0    0    0  501  0.00000000000E+00  0.00000000000E+00  0.33455086153E+03  0.33455086154E+03  0.25500000920E-02 0. -1.
        2   -1    0    0  501    0  0.00000000000E+00  0.00000000000E+00 -0.13877711137E+04  0.13877711137E+04  0.25500000920E-02 0.  1.
    10030    2    1    2    0    0  0.00000000000E+00  0.00000000000E+00 -0.10532202521E+04  0.17223219752E+04  0.13627619333E+04 0.  0.
        1    1    3    3  502    0  0.26601038062E+03  0.25169565789E+03  0.19959900239E+03  0.41707551904E+03  0.50400001928E-02 0. -1.
       -1    1    3    3    0  502 -0.26601038062E+03 -0.25169565789E+03 -0.12528192545E+04  0.13052464562E+04  0.50400001928E-02 0.  1.
</event>
<event>
 5   0  0.1586022E-03  0.1404805E+04  0.7818609E-02  0.8950348E-01
        1   -1    0    0  501    0  0.00000000000E+00  0.00000000000E+00  0.64251266861E+03  0.64251266863E+03  0.50400001928E-02 0.  1.
       -1   -1    0    0    0  501  0.00000000000E+00  0.00000000000E+00 -0.76787515294E+03  0.76787515296E+03  0.50400001928E-02 0. -1.
    10030    2    1    2    0    0  0.00000000000E+00  0.00000000000E+00 -0.12536248433E+03  0.14103878216E+04  0.14048053441E+04 0.  0.
        1    1    3    3  502    0  0.42647000167E+03  0.54968914112E+03 -0.15968142870E+03  0.71381578357E+03  0.50400001928E-02 0.  1.
       -1    1    3    3    0  502 -0.42647000167E+03 -0.54968914112E+03  0.34318944366E+02  0.69657203802E+03  0.50400001928E-02 0. -1.
</event>
<event>
 5   0  0.2889469E-03  0.1460118E+04  0.7818609E-02  0.8911416E-01
        2   -1    0    0  501    0  0.00000000000E+00  0.00000000000E+00  0.10379503003E+04  0.10379503003E+04  0.25500000920E-02 0. -1.
       -2   -1    0    0    0  501  0.00000000000E+00  0.00000000000E+00 -0.51349900601E+03  0.51349900602E+03  0.25500000920E-02 0.  1.
    10030    2    1    2    0    0  0.00000000000E+00  0.00000000000E+00  0.52445129429E+03  0.15514493063E+04  0.14601184164E+04 0.  0.
        5    1    3    3  502    0 -0.56253878188E+03 -0.46437790179E+03  0.23092743901E+03  0.76514461958E+03  0.46999998093E+01 0. -1.
       -5    1    3    3    0  502  0.56253878188E+03  0.46437790179E+03  0.29352385529E+03  0.78630468675E+03  0.46999998093E+01 0.  1.
</event>
<event>
 5   0  0.1644571E-03  0.1391409E+04  0.7818609E-02  0.8960061E-01
       -1   -1    0    0    0  501  0.00000000000E+00  0.00000000000E+00  0.39717077601E+03  0.39717077604E+03  0.50400001928E-02 0. -1.
        1   -1    0    0  501    0  0.00000000000E+00  0.00000000000E+00 -0.12186313062E+04  0.12186313062E+04  0.50400001928E-02 0.  1.
    10030    2    1    2    0    0  0.00000000000E+00  0.00000000000E+00 -0.82146053015E+03  0.16158020822E+04  0.13914089860E+04 0.  0.
        4    1    3    3  502    0  0.36866519213E+03 -0.70146602585E+02 -0.10910093285E+04  0.11537493392E+04  0.12699999809E+01 0.  1.
       -4    1    3    3    0  502 -0.36866519213E+03  0.70146602585E+02  0.26954879840E+03  0.46205274305E+03  0.12699999809E+01 0. -1.
</event>
<event>
 5   0  0.1631380E-03  0.1421822E+04  0.7818609E-02  0.8938173E-01
        1   -1    0    0  501    0  0.00000000000E+00  0.00000000000E+00  0.36828589315E+03  0.36828589319E+03  0.50400001928E-02 0.  1.
       -1   -1    0    0    0  501  0.00000000000E+00  0.00000000000E+00 -0.13722875325E+04  0.13722875325E+04  0.50400001928E-02 0. -1.
    10030    2    1    2    0    0  0.00000000000E+00  0.00000000000E+00 -0.10040016394E+04  0.17405734257E+04  0.14218215635E+04 0.  0.
        3    1    3    3  502    0  0.33695880275E+03  0.62593403113E+03 -0.51144240483E+03  0.87573283011E+03  0.10100000352E+00 0.  1.
       -3    1    3    3    0  502 -0.33695880275E+03 -0.62593403113E+03 -0.49255923455E+03  0.86484059561E+03  0.10100000352E+00 0. -1.
</event>
<event>
 5   0  0.1104538E-03  0.1390229E+04  0.7818609E-02  0.8960922E-01
       -3   -1    0    0    0  501  0.00000000000E+00  0.00000000000E+00  0.66958074225E+03  0.66958074987E+03  0.10100000352E+00 0.  1.
        3   -1    0    0  501    0  0.00000000000E+00  0.00000000000E+00 -0.72162171564E+03  0.72162172271E+03  0.10100000352E+00 0. -1.
    10030    2    1    2    0    0  0.00000000000E+00  0.00000000000E+00 -0.52040973388E+02  0.13912024726E+04  0.13902287786E+04 0.  0.
        5    1    3    3  502    0 -0.13919919106E+03 -0.32558679760E+03  0.57254453664E+03  0.67321060152E+03  0.46999998093E+01 0.  1.
       -5    1    3    3    0  502  0.13919919106E+03  0.32558679760E+03 -0.62458551003E+03  0.71799187105E+03  0.46999998093E+01 0. -1.
</event>
<event>
 5   0  0.1700207E-03  0.1375915E+04  0.7818609E-02  0.8971440E-01
        1   -1    0    0  501    0  0.00000000000E+00  0.00000000000E+00  0.60429833166E+03  0.60429833168E+03  0.50400001928E-02 0. -1.
       -1   -1    0    0    0  501  0.00000000000E+00  0.00000000000E+00 -0.78319808599E+03  0.78319808600E+03  0.50400001928E-02 0.  1.
    10030    2    1    2    0    0  0.00000000000E+00  0.00000000000E+00 -0.17889975433E+03  0.13874964177E+04  0.13759146729E+04 0.  0.
        2    1    3    3  502    0  0.82577965712E+02 -0.28756249728E+03  0.53525965858E+03  0.61319997748E+03  0.25500000920E-02 0. -1.
       -2    1    3    3    0  502 -0.82577965712E+02  0.28756249728E+03 -0.71415941291E+03  0.77429644021E+03  0.25500000920E-02 0.  1.
</event>
<event>
 5   0  0.2760807E-03  0.1415853E+04  0.7818609E-02  0.8942422E-01
        2   -1    0    0  501    0  0.00000000000E+00  0.00000000000E+00  0.92906045324E+03  0.92906045324E+03  0.25500000920E-02 0. -1.
       -2   -1    0    0    0  501  0.00000000000E+00  0.00000000000E+00 -0.53942677130E+03  0.53942677130E+03  0.25500000920E-02 0.  1.
    10030    2    1    2    0    0  0.00000000000E+00  0.00000000000E+00  0.38963368194E+03  0.14684872245E+04  0.14158532136E+04 0.  0.
        4    1    3    3  502    0  0.32401050278E+03  0.22586675514E+03 -0.41452652967E+03  0.57256654958E+03  0.12699999809E+01 0.  1.
       -4    1    3    3    0  502 -0.32401050278E+03 -0.22586675514E+03  0.80416021162E+03  0.89592067497E+03  0.12699999809E+01 0. -1.
</event>
<event>
 5   0  0.1586022E-03  0.1399761E+04  0.7818609E-02  0.8953991E-01
        1   -1    0    0  501    0  0.00000000000E+00  0.00000000000E+00  0.16645157246E+04  0.16645157246E+04  0.50400001928E-02 0. -1.
       -1   -1    0    0    0  501  0.00000000000E+00  0.00000000000E+00 -0.29427961237E+03  0.29427961241E+03  0.50400001928E-02 0.  1.
    10030    2    1    2    0    0  0.00000000000E+00  0.00000000000E+00  0.13702361122E+04  0.19587953370E+04  0.13997614686E+04 0.  0.
        1    1    3    3  502    0 -0.16972485436E+03 -0.60690322994E+03  0.11111705850E+04  0.12774341963E+04  0.50400001928E-02 0. -1.
       -1    1    3    3    0  502  0.16972485436E+03  0.60690322994E+03  0.25906552715E+03  0.68136114072E+03  0.50400001928E-02 0.  1.
</event>
<event>
 5   0  0.1631380E-03  0.1382309E+04  0.7818609E-02  0.8966724E-01
       -1   -1    0    0    0  501  0.00000000000E+00  0.00000000000E+00  0.55412661646E+03  0.55412661649E+03  0.50400001928E-02 0.  1.
        1   -1    0    0  501    0  0.00000000000E+00  0.00000000000E+00 -0.86206797475E+03  0.86206797476E+03  0.50400001928E-02 0. -1.
    10030    2    1    2    0    0  0.00000000000E+00  0.00000000000E+00 -0.30794135828E+03  0.14161945912E+04  0.13823093865E+04 0.  0.
        3    1    3    3  502    0  0.15923070070E+03  0.51766221286E+03  0.28593376224E+03  0.61244322942E+03  0.10100000352E+00 0.  1.
       -3    1    3    3    0  502 -0.15923070070E+03 -0.51766221286E+03 -0.59387512052E+03  0.80375136183E+03  0.10100000352E+00 0. -1.
</event>
<event>
 5   0  0.2917809E-03  0.1379650E+04  0.7818609E-02  0.8968682E-01
       -2   -1    0    0    0  501  0.00000000000E+00  0.00000000000E+00  0.53714165426E+03  0.53714165427E+03  0.25500000920E-02 0.  1.
        2   -1    0    0  501    0  0.00000000000E+00  0.00000000000E+00 -0.88590824703E+03  0.88590824704E+03  0.25500000920E-02 0. -1.
    10030    2    1    2    0    0  0.00000000000E+00  0.00000000000E+00 -0.34876659277E+03  0.14230499013E+04  0.13796495517E+04 0.  0.
        2    1    3    3  502    0  0.50322480865E+03 -0.27208849275E+03  0.22321764264E+03  0.61407936940E+03  0.25500000920E-02 0.  1.
       -2    1    3    3    0  502 -0.50322480865E+03  0.27208849275E+03 -0.57198423541E+03  0.80897053191E+03  0.25500000920E-02 0. -1.
</event>
<event>
 5   0  0.2760807E-03  0.1387100E+04  0.7818609E-02  0.8963210E-01
       -2   -1    0    0    0  501  0.00000000000E+00  0.00000000000E+00  0.87663189217E+03  0.87663189217E+03  0.25500000920E-02 0.  1.
        2   -1    0    0  501    0  0.00000000000E+00  0.00000000000E+00 -0.54870411444E+03  0.54870411444E+03  0.25500000920E-02 0. -1.
    10030    2    1    2    0    0  0.00000000000E+00  0.00000000000E+00  0.32792777773E+03  0.14253360066E+04  0.13870998898E+04 0.  0.
        4    1    3    3  502    0 -0.68565524044E+03  0.10341819065E+03  0.14974473287E+03  0.70939659488E+03  0.12699999809E+01 0.  1.
       -4    1    3    3    0  502  0.68565524044E+03 -0.10341819065E+03  0.17818304487E+03  0.71593941174E+03  0.12699999809E+01 0. -1.
</event>
<event>
 5   0  0.1560957E-03  0.1393179E+04  0.7818609E-02  0.8958771E-01
       -1   -1    0    0    0  501  0.00000000000E+00  0.00000000000E+00  0.54813149160E+03  0.54813149163E+03  0.50400001928E-02 0. -1.
        1   -1    0    0  501    0  0.00000000000E+00  0.00000000000E+00 -0.88525681906E+03  0.88525681908E+03  0.50400001928E-02 0.  1.
    10030    2    1    2    0    0  0.00000000000E+00  0.00000000000E+00 -0.33712532746E+03  0.14333883107E+04  0.13931793003E+04 0.  0.
        5    1    3    3  502    0  0.22900333370E+03 -0.60957886413E+03 -0.42306006144E+03  0.77655059335E+03  0.46999998093E+01 0.  1.
       -5    1    3    3    0  502 -0.22900333370E+03  0.60957886413E+03  0.85934733979E+02  0.65683771736E+03  0.46999998093E+01 0. -1.
</event>
<event>
 5   0  0.2760807E-03  0.1521844E+04  0.7818609E-02  0.8870056E-01
       -2   -1    0    0    0  501  0.00000000000E+00  0.00000000000E+00  0.42031142240E+03  0.42031142241E+03  0.25500000920E-02 0.  1.
        2   -1    0    0  501    0  0.00000000000E+00  0.00000000000E+00 -0.13775546963E+04  0.13775546963E+04  0.25500000920E-02 0. -1.
    10030    2    1    2    0    0  0.00000000000E+00  0.00000000000E+00 -0.95724327392E+03  0.17978661187E+04  0.15218435844E+04 0.  0.
        4    1    3    3  502    0 -0.63253691994E+03 -0.25087993723E+02  0.20175583219E+02  0.63335695273E+03  0.12699999809E+01 0.  1.
       -4    1    3    3    0  502  0.63253691994E+03  0.25087993723E+02 -0.97741885713E+03  0.11645091660E+04  0.12699999809E+01 0. -1.
</event>
<event>
 5   0  0.1700207E-03  0.1394818E+04  0.7818609E-02  0.8957578E-01
       -1   -1    0    0    0  501  0.00000000000E+00  0.00000000000E+00  0.67241997375E+03  0.67241997377E+03  0.50400001928E-02 0. -1.
        1   -1    0    0  501    0  0.00000000000E+00  0.00000000000E+00 -0.72332716753E+03  0.72332716755E+03  0.50400001928E-02 0.  1.
    10030    2    1    2    0    0  0.00000000000E+00  0.00000000000E+00 -0.50907193779E+02  0.13957471413E+04  0.13948184613E+04 0.  0.
        2    1    3    3  502    0 -0.35413493210E+03  0.43563551998E+03 -0.43947994053E+03  0.71297438561E+03  0.25500000920E-02 0.  1.
       -2    1    3    3    0  502  0.35413493210E+03 -0.43563551998E+03  0.38857274676E+03  0.68277275570E+03  0.25500000920E-02 0. -1.
</event>
<event>
 5   0  0.2889469E-03  0.8988636E+03  0.7818609E-02  0.9427003E-01
        2   -1    0    0  501    0  0.00000000000E+00  0.00000000000E+00  0.24257554804E+04  0.24257554804E+04  0.25500000920E-02 0. -1.
       -2   -1    0    0    0  501  0.00000000000E+00  0.00000000000E+00 -0.83268460399E+02  0.83268460438E+02  0.25500000920E-02 0.  1.
    10030    2    1    2    0    0  0.00000000000E+00  0.00000000000E+00  0.23424870200E+04  0.25090239408E+04  0.89886355852E+03 0.  0.
        5    1    3    3  502    0  0.57575973689E+02  0.31320203894E+03  0.28609584818E+03  0.42811614579E+03  0.46999998093E+01 0.  1.
       -5    1    3    3    0  502 -0.57575973689E+02 -0.31320203894E+03  0.20563911718E+04  0.20809077951E+04  0.46999998093E+01 0. -1.
</event>
<event>
 5   0  0.1644571E-03  0.1401033E+04  0.7818609E-02  0.8953071E-01
       -1   -1    0    0    0  501  0.00000000000E+00  0.00000000000E+00  0.59726840994E+03  0.59726840996E+03  0.50400001928E-02 0. -1.
        1   -1    0    0  501    0  0.00000000000E+00  0.00000000000E+00 -0.82161332710E+03  0.82161332711E+03  0.50400001928E-02 0.  1.
    10030    2    1    2    0    0  0.00000000000E+00  0.00000000000E+00 -0.22434491716E+03  0.14188817371E+04  0.14010334550E+04 0.  0.
        4    1    3    3  502    0 -0.66874090478E+03  0.84212147226E+02 -0.30543324759E+03  0.73999808453E+03  0.12699999809E+01 0.  1.
       -4    1    3    3    0  502  0.66874090478E+03 -0.84212147226E+02  0.81088330437E+02  0.67888365255E+03  0.12699999809E+01 0. -1.
</event>
<event>
 5   0  0.2993993E-03  0.1358646E+04  0.7818609E-02  0.8984309E-01
        2   -1    0    0  501    0  0.00000000000E+00  0.00000000000E+00  0.12288051833E+04  0.12288051833E+04  0.25500000920E-02 0. -1.
       -2   -1    0    0    0  501  0.00000000000E+00  0.00000000000E+00 -0.37555181903E+03  0.37555181904E+03  0.25500000920E-02 0.  1.
    10030    2    1    2    0    0  0.00000000000E+00  0.00000000000E+00  0.85325336425E+03  0.16043570023E+04  0.13586464173E+04 0.  0.
        3    1    3    3  502    0  0.57983744101E+03 -0.24389422140E+03  0.12375739114E+03  0.64110198198E+03  0.10100000352E+00 0.  1.
       -3    1    3    3    0  502 -0.57983744101E+03  0.24389422140E+03  0.72949597311E+03  0.96325502034E+03  0.10100000352E+00 0. -1.
</event>
<event>
 5   0  0.1104538E-03  0.1411449E+04  0.7818609E-02  0.8945573E-01
       -4   -1    0    0    0  501  0.00000000000E+00  0.00000000000E+00  0.31881732651E+03  0.31881985601E+03  0.12699999809E+01 0.  1.
        4   -1    0    0  501    0  0.00000000000E+00  0.00000000000E+00 -0.15621614861E+04  0.15621620024E+04  0.12699999809E+01 0. -1.
    10030    2    1    2    0    0  0.00000000000E+00  0.00000000000E+00 -0.12433441596E+04  0.18809818584E+04  0.14114489195E+04 0.  0.
        4    1    3    3  502    0  0.31896989104E+03 -0.62337896781E+03 -0.73862978715E+03  0.10178009158E+04  0.12699999809E+01 0.  1.
       -4    1    3    3    0  502 -0.31896989104E+03  0.62337896781E+03 -0.50471437248E+03  0.86318094256E+03  0.12699999809E+01 0. -1.
</event>
<event>
 5   0  0.2917809E-03  0.1308734E+04  0.7818609E-02  0.9022668E-01
       -2   -1    0    0    0  501  0.00000000000E+00  0.00000000000E+00  0.15498973521E+03  0.15498973523E+03  0.25500000920E-02 0.  1.
        2   -1    0    0  501    0  0.00000000000E+00  0.00000000000E+00 -0.27627386694E+04  0.27627386694E+04  0.25500000920E-02 0. -1.
    10030    2    1    2    0    0  0.00000000000E+00  0.00000000000E+00 -0.26077489342E+04  0.29177284046E+04  0.13087339452E+04 0.  0.
        2    1    3    3  502    0 -0.97781817519E+02 -0.28565433277E+03 -0.95834583654E+01  0.30207867245E+03  0.25500000920E-02 0.  1.
       -2    1    3    3    0  502  0.97781817519E+02  0.28565433277E+03 -0.25981654758E+04  0.26156497322E+04  0.25500000920E-02 0. -1.
</event>
<event>
 5   0  0.1104538E-03  0.1393801E+04  0.7818609E-02  0.8958318E-01
       -3   -1    0    0    0  501  0.00000000000E+00  0.00000000000E+00  0.10172163782E+04  0.10172163832E+04  0.10100000352E+00 0.  1.
        3   -1    0    0  501    0  0.00000000000E+00  0.00000000000E+00 -0.47745015482E+03  0.47745016550E+03  0.10100000352E+00 0. -1.
    10030    2    1    2    0    0  0.00000000000E+00  0.00000000000E+00  0.53976622336E+03  0.14946665487E+04  0.13938007447E+04 0.  0.
        4    1    3    3  502    0  0.29575277831E+03  0.62936861013E+03  0.31895447246E+03  0.76505432598E+03  0.12699999809E+01 0. -1.
       -4    1    3    3    0  502 -0.29575277831E+03 -0.62936861013E+03  0.22081175090E+03  0.72961222271E+03  0.12699999809E+01 0.  1.
</event>
<event>
 5   0  0.2760807E-03  0.1367632E+04  0.7818609E-02  0.8977588E-01
       -2   -1    0    0    0  501  0.00000000000E+00  0.00000000000E+00  0.79617719402E+03  0.79617719402E+03  0.25500000920E-02 0. -1.
        2   -1    0    0  501    0  0.00000000000E+00  0.00000000000E+00 -0.58731147742E+03  0.58731147743E+03  0.25500000920E-02 0.  1.
    10030    2    1    2    0    0  0.00000000000E+00  0.00000000000E+00  0.20886571660E+03  0.13834886715E+04  0.13676315353E+04 0.  0.
        4    1    3    3  502    0 -0.33238374300E+03 -0.59626566422E+03  0.64086890833E+02  0.68565329242E+03  0.12699999809E+01 0.  1.
       -4    1    3    3    0  502  0.33238374300E+03  0.59626566422E+03  0.14477882576E+03  0.69783537903E+03  0.12699999809E+01 0. -1.
</event>
<event>
 5   0  0.2889469E-03  0.1327577E+04  0.7818609E-02  0.9007978E-01
       -2   -1    0    0    0  501  0.00000000000E+00  0.00000000000E+00  0.19599087249E+03  0.19599087251E+03  0.25500000920E-02 0. -1.
        2   -1    0    0  501    0  0.00000000000E+00  0.00000000000E+00 -0.22481403836E+04  0.22481403836E+04  0.25500000920E-02 0.  1.
    10030    2    1    2    0    0  0.00000000000E+00  0.00000000000E+00 -0.20521495111E+04  0.24441312561E+04  0.13275767327E+04 0.  0.
        5    1    3    3  502    0 -0.15295169756E+03 -0.63558324217E+03 -0.12378562010E+04  0.13998822607E+04  0.46999998093E+01 0. -1.
       -5    1    3    3    0  502  0.15295169756E+03  0.63558324217E+03 -0.81429331018E+03  0.10442489955E+04  0.46999998093E+01 0.  1.
</event>
<event>
 5   0  0.1644571E-03  0.1445422E+04  0.7818609E-02  0.8921580E-01
       -1   -1    0    0    0  501  0.00000000000E+00  0.00000000000E+00  0.69006503852E+03  0.69006503854E+03  0.50400001928E-02 0.  1.
        1   -1    0    0  501    0  0.00000000000E+00  0.00000000000E+00 -0.75690152250E+03  0.75690152252E+03  0.50400001928E-02 0. -1.
    10030    2    1    2    0    0  0.00000000000E+00  0.00000000000E+00 -0.66836483978E+02  0.14469665611E+04  0.14454221229E+04 0.  0.
        4    1    3    3  502    0 -0.15754250964E+03 -0.62272943985E+03 -0.36497912408E+03  0.73879832939E+03  0.12699999809E+01 0.  1.
       -4    1    3    3    0  502  0.15754250964E+03  0.62272943985E+03  0.29814264010E+03  0.70816823167E+03  0.12699999809E+01 0. -1.
</event>
<event>
 5   0  0.1104538E-03  0.1327741E+04  0.7818609E-02  0.9007851E-01
       -4   -1    0    0    0  501  0.00000000000E+00  0.00000000000E+00  0.74505288174E+03  0.74505396415E+03  0.12699999809E+01 0.  1.
        4   -1    0    0  501    0  0.00000000000E+00  0.00000000000E+00 -0.59153196017E+03  0.59153332349E+03  0.12699999809E+01 0. -1.
    10030    2    1    2    0    0  0.00000000000E+00  0.00000000000E+00  0.15352092157E+03  0.13365872876E+04  0.13277412791E+04 0.  0.
        3    1    3    3  502    0 -0.54799876836E+02 -0.26692261086E+03  0.68616426647E+03  0.73828999552E+03  0.10100000352E+00 0.  1.
       -3    1    3    3    0  502  0.54799876836E+02  0.26692261086E+03 -0.53264334490E+03  0.59829729212E+03  0.10100000352E+00 0. -1.
</event>
<event>
 5   0  0.2889469E-03  0.1400034E+04  0.7818609E-02  0.8953794E-01
        2   -1    0    0  501    0  0.00000000000E+00  0.00000000000E+00  0.17729976082E+04  0.17729976082E+04  0.25500000920E-02 0. -1.
       -2   -1    0    0    0  501  0.00000000000E+00  0.00000000000E+00 -0.27638149768E+03  0.27638149769E+03  0.25500000920E-02 0.  1.
    10030    2    1    2    0    0  0.00000000000E+00  0.00000000000E+00  0.14966161105E+04  0.20493791059E+04  0.14000339058E+04 0.  0.
        5    1    3    3  502    0  0.48947240603E+03 -0.45729924866E+03  0.45084247531E+03  0.80745703702E+03  0.46999998093E+01 0.  1.
       -5    1    3    3    0  502 -0.48947240603E+03  0.45729924866E+03  0.10457736352E+04  0.12419220689E+04  0.46999998093E+01 0. -1.
</event>
<event>
 5   0  0.1631380E-03  0.1330237E+04  0.7818609E-02  0.9005925E-01
        1   -1    0    0  501    0  0.00000000000E+00  0.00000000000E+00  0.39241701415E+03  0.39241701418E+03  0.50400001928E-02 0. -1.
       -1   -1    0    0    0  501  0.00000000000E+00  0.00000000000E+00 -0.11273277266E+04  0.11273277266E+04  0.50400001928E-02 0.  1.
    10030    2    1    2    0    0  0.00000000000E+00  0.00000000000E+00 -0.73491071240E+03  0.15197447407E+04  0.13302369420E+04 0.  0.
        3    1    3    3  502    0  0.40262386212E+03 -0.45999255988E+03 -0.68044415063E+02  0.61508469508E+03  0.10100000352E+00 0. -1.
       -3    1    3    3    0  502 -0.40262386212E+03  0.45999255988E+03 -0.66686629734E+03  0.90466004567E+03  0.10100000352E+00 0.  1.
</event>
<event>
 5   0  0.3006737E-03  0.1392999E+04  0.7818609E-02  0.8958902E-01
        2   -1    0    0  501    0  0.00000000000E+00  0.00000000000E+00  0.71247499667E+03  0.71247499667E+03  0.25500000920E-02 0. -1.
       -2   -1    0    0    0  501  0.00000000000E+00  0.00000000000E+00 -0.68088184106E+03  0.68088184107E+03  0.25500000920E-02 0.  1.
    10030    2    1    2    0    0  0.00000000000E+00  0.00000000000E+00  0.31593155604E+02  0.13933568377E+04  0.13929986180E+04 0.  0.
        1    1    3    3  502    0 -0.47118855907E+03 -0.19050017494E+03 -0.46056355413E+03  0.68587736679E+03  0.50400001928E-02 0.  1.
       -1    1    3    3    0  502  0.47118855907E+03  0.19050017494E+03  0.49215670973E+03  0.70747947095E+03  0.50400001928E-02 0. -1.
</event>
<event>
 5   0  0.1586022E-03  0.1533136E+04  0.7818609E-02  0.8862712E-01
        1   -1    0    0  501    0  0.00000000000E+00  0.00000000000E+00  0.15086761429E+04  0.15086761429E+04  0.50400001928E-02 0.  1.
       -1   -1    0    0    0  501  0.00000000000E+00  0.00000000000E+00 -0.38949826398E+03  0.38949826402E+03  0.50400001928E-02 0. -1.
    10030    2    1    2    0    0  0.00000000000E+00  0.00000000000E+00  0.11191778790E+04  0.18981744070E+04  0.15331363131E+04 0.  0.
        1    1    3    3  502    0 -0.89583104607E+02 -0.28040988402E+03 -0.31672965660E+03  0.43240318117E+03  0.50400001928E-02 0. -1.
       -1    1    3    3    0  502  0.89583104607E+02  0.28040988402E+03  0.14359075355E+04  0.14657712258E+04  0.50400001928E-02 0.  1.
</event>
<event>
 5   0  0.3006737E-03  0.1236494E+04  0.7818609E-02  0.9081500E-01
       -2   -1    0    0    0  501  0.00000000000E+00  0.00000000000E+00  0.35979968853E+03  0.35979968854E+03  0.25500000920E-02 0.  1.
        2   -1    0    0  501    0  0.00000000000E+00  0.00000000000E+00 -0.10623397669E+04  0.10623397669E+04  0.25500000920E-02 0. -1.
    10030    2    1    2    0    0  0.00000000000E+00  0.00000000000E+00 -0.70254007836E+03  0.14221394554E+04  0.12364942657E+04 0.  0.
        1    1    3    3  502    0 -0.46274182701E+03 -0.22768846165E+03 -0.74342755006E+03  0.90479641701E+03  0.50400001928E-02 0. -1.
       -1    1    3    3    0  502  0.46274182701E+03  0.22768846165E+03  0.40887471694E+02  0.51734303842E+03  0.50400001928E-02 0.  1.
</event>
<event>
 5   0  0.3006737E-03  0.1474841E+04  0.7818609E-02  0.8901358E-01
       -2   -1    0    0    0  501  0.00000000000E+00  0.00000000000E+00  0.68481808120E+03  0.68481808120E+03  0.25500000920E-02 0. -1.
        2   -1    0    0  501    0  0.00000000000E+00  0.00000000000E+00 -0.79406351006E+03  0.79406351006E+03  0.25500000920E-02 0.  1.
    10030    2    1    2    0    0  0.00000000000E+00  0.00000000000E+00 -0.10924542886E+03  0.14788815913E+04  0.14748410753E+04 0.  0.
        1    1    3    3  502    0 -0.33824358861E+02 -0.23271114819E+03  0.64621301127E+03  0.68766984935E+03  0.50400001928E-02 0. -1.
       -1    1    3    3    0  502  0.33824358861E+02  0.23271114819E+03 -0.75545844013E+03  0.79121174191E+03  0.50400001928E-02 0.  1.
</event>
<event>
 5   0  0.2889469E-03  0.1890735E+04  0.7818609E-02  0.8659482E-01
        2   -1    0    0  501    0  0.00000000000E+00  0.00000000000E+00  0.97568487579E+03  0.97568487579E+03  0.25500000920E-02 0.  1.
       -2   -1    0    0    0  501  0.00000000000E+00  0.00000000000E+00 -0.91599249983E+03  0.91599249984E+03  0.25500000920E-02 0. -1.
    10030    2    1    2    0    0  0.00000000000E+00  0.00000000000E+00  0.59692375957E+02  0.18916773756E+04  0.18907353368E+04 0.  0.
        5    1    3    3  502    0  0.90336501596E+03 -0.21193201129E+02 -0.24810589858E+03  0.93706783679E+03  0.46999998093E+01 0. -1.
       -5    1    3    3    0  502 -0.90336501596E+03  0.21193201129E+02  0.30779827454E+03  0.95460953884E+03  0.46999998093E+01 0.  1.
</event>
<event>
 5   0  0.2993993E-03  0.1339436E+04  0.7818609E-02  0.8998863E-01
       -2   -1    0    0    0  501  0.00000000000E+00  0.00000000000E+00  0.53516023847E+03  0.53516023848E+03  0.25500000920E-02 0.  1.
        2   -1    0    0  501    0  0.00000000000E+00  0.00000000000E+00 -0.83810872273E+03  0.83810872273E+03  0.25500000920E-02 0. -1.
    10030    2    1    2    0    0  0.00000000000E+00  0.00000000000E+00 -0.30294848426E+03  0.13732689612E+04  0.13394363948E+04 0.  0.
        3    1    3    3  502    0  0.30517934413E+03 -0.27266319736E+03  0.39205103058E+03  0.56673068741E+03  0.10100000352E+00 0.  1.
       -3    1    3    3    0  502 -0.30517934413E+03  0.27266319736E+03 -0.69499951484E+03  0.80653827380E+03  0.10100000352E+00 0. -1.
</event>
<event>
 5   0  0.1700207E-03  0.1399672E+04  0.7818609E-02  0.8954056E-01
        1   -1    0    0  501    0  0.00000000000E+00  0.00000000000E+00  0.82941945835E+03  0.82941945837E+03  0.50400001928E-02 0. -1.
       -1   -1    0    0    0  501  0.00000000000E+00  0.00000000000E+00 -0.59049753023E+03  0.59049753025E+03  0.50400001928E-02 0.  1.
    10030    2    1    2    0    0  0.00000000000E+00  0.00000000000E+00  0.23892192813E+03  0.14199169886E+04  0.13996715925E+04 0.  0.
        2    1    3    3  502    0 -0.65412637997E+03  0.18827704992E+03 -0.45496601977E+02  0.68220195639E+03  0.25500000920E-02 0.  1.
       -2    1    3    3    0  502  0.65412637997E+03 -0.18827704992E+03  0.28441853010E+03  0.73771503223E+03  0.25500000920E-02 0. -1.
</event>
<event>
 5   0  0.1631380E-03  0.1394257E+04  0.7818609E-02  0.8957986E-01
       -1   -1    0    0    0  501  0.00000000000E+00  0.00000000000E+00  0.56689695201E+03  0.56689695203E+03  0.50400001928E-02 0.  1.
        1   -1    0    0  501    0  0.00000000000E+00  0.00000000000E+00 -0.85727773766E+03  0.85727773767E+03  0.50400001928E-02 0. -1.
    10030    2    1    2    0    0  0.00000000000E+00  0.00000000000E+00 -0.29038078565E+03  0.14241746897E+04  0.13942569871E+04 0.  0.
        3    1    3    3  502    0  0.56217707516E+03 -0.38686462870E+03  0.27617951346E+00  0.68242757217E+03  0.10100000352E+00 0. -1.
       -3    1    3    3    0  502 -0.56217707516E+03  0.38686462870E+03 -0.29065696516E+03  0.74174711754E+03  0.10100000352E+00 0.  1.
</event>
<event>
 5   0  0.1104538E-03  0.1369769E+04  0.7818609E-02  0.8975997E-01
        3   -1    0    0  501    0  0.00000000000E+00  0.00000000000E+00  0.90336550516E+03  0.90336551081E+03  0.10100000352E+00 0.  1.
       -3   -1    0    0    0  501  0.00000000000E+00  0.00000000000E+00 -0.51924341258E+03  0.51924342240E+03  0.10100000352E+00 0. -1.
    10030    2    1    2    0    0  0.00000000000E+00  0.00000000000E+00  0.38412209259E+03  0.14226089332E+04  0.13697687377E+04 0.  0.
        1    1    3    3  502    0  0.51807105069E+03  0.13980336862E+03  0.63406513390E+03  0.83065106362E+03  0.50400001928E-02 0.  1.
       -1    1    3    3    0  502 -0.51807105069E+03 -0.13980336862E+03 -0.24994304132E+03  0.59195786959E+03  0.50400001928E-02 0. -1.
</event>
<event>
 5   0  0.1700207E-03  0.1370592E+04  0.7818609E-02  0.8975385E-01
        1   -1    0    0  501    0  0.00000000000E+00  0.00000000000E+00  0.44440623250E+03  0.44440623252E+03  0.50400001928E-02 0.  1.
       -1   -1    0    0    0  501  0.00000000000E+00  0.00000000000E+00 -0.10567601652E+04  0.10567601652E+04  0.50400001928E-02 0. -1.
    10030    2    1    2    0    0  0.00000000000E+00  0.00000000000E+00 -0.61235393267E+03  0.15011663977E+04  0.13705922861E+04 0.  0.
        2    1    3    3  502    0 -0.20450159327E+03 -0.26600437982E+03  0.34828743101E+03  0.48361489466E+03  0.25500000920E-02 0.  1.
       -2    1    3    3    0  502  0.20450159327E+03  0.26600437982E+03 -0.96064136368E+03  0.10175515030E+04  0.25500000920E-02 0. -1.
</event>
<event>
 5   0  0.1586022E-03  0.1419568E+04  0.7818609E-02  0.8939775E-01
       -1   -1    0    0    0  501  0.00000000000E+00  0.00000000000E+00  0.36301033363E+03  0.36301033366E+03  0.50400001928E-02 0.  1.
        1   -1    0    0  501    0  0.00000000000E+00  0.00000000000E+00 -0.13878212572E+04  0.13878212572E+04  0.50400001928E-02 0. -1.
    10030    2    1    2    0    0  0.00000000000E+00  0.00000000000E+00 -0.10248109236E+04  0.17508315909E+04  0.14195681845E+04 0.  0.
        1    1    3    3  502    0 -0.67174951572E+03 -0.21918730353E+03 -0.42964217560E+03  0.82697211863E+03  0.50400001928E-02 0. -1.
       -1    1    3    3    0  502  0.67174951572E+03  0.21918730353E+03 -0.59516874800E+03  0.92385947228E+03  0.50400001928E-02 0.  1.
</event>
<event>
 5   0  0.2760807E-03  0.1394405E+04  0.7818609E-02  0.8957878E-01
        2   -1    0    0  501    0  0.00000000000E+00  0.00000000000E+00  0.11418332112E+04  0.11418332112E+04  0.25500000920E-02 0.  1.
       -2   -1    0    0    0  501  0.00000000000E+00  0.00000000000E+00 -0.42571140936E+03  0.42571140937E+03  0.25500000920E-02 0. -1.
    10030    2    1    2    0    0  0.00000000000E+00  0.00000000000E+00  0.71612180184E+03  0.15675446206E+04  0.13944051429E+04 0.  0.
        4    1    3    3  502    0 -0.20474632678E+03 -0.19003219038E+03 -0.36004930225E+03  0.45570868399E+03  0.12699999809E+01 0. -1.
       -4    1    3    3    0  502  0.20474632678E+03  0.19003219038E+03  0.10761711041E+04  0.11118359366E+04  0.12699999809E+01 0.  1.
</event>
<event>
 5   0  0.1631380E-03  0.1342675E+04  0.7818609E-02  0.8996391E-01
        1   -1    0    0  501    0  0.00000000000E+00  0.00000000000E+00  0.11339221195E+04  0.11339221195E+04  0.50400001928E-02 0. -1.
       -1   -1    0    0    0  501  0.00000000000E+00  0.00000000000E+00 -0.39746501377E+03  0.39746501380E+03  0.50400001928E-02 0.  1.
    10030    2    1    2    0    0  0.00000000000E+00  0.00000000000E+00  0.73645710576E+03  0.15313871333E+04  0.13426754945E+04 0.  0.
        3    1    3    3  502    0  0.48925869825E+03 -0.18763362866E+03 -0.11041339664E+03  0.53551057952E+03  0.10100000352E+00 0.  1.
       -3    1    3    3    0  502 -0.48925869825E+03  0.18763362866E+03  0.84687050240E+03  0.99587655382E+03  0.10100000352E+00 0. -1.
</event>
<event>
 5   0  0.2917809E-03  0.1396762E+04  0.7818609E-02  0.8956166E-01
        2   -1    0    0  501    0  0.00000000000E+00  0.00000000000E+00  0.98796402559E+03  0.98796402560E+03  0.25500000920E-02 0. -1.
       -2   -1    0    0    0  501  0.00000000000E+00  0.00000000000E+00 -0.49367758650E+03  0.49367758650E+03  0.25500000920E-02 0.  1.
    10030    2    1    2    0    0  0.00000000000E+00  0.00000000000E+00  0.49428643910E+03  0.14816416121E+04  0.13967615340E+04 0.  0.
        2    1    3    3  502    0 -0.41096890794E+03  0.55799450893E+03  0.33890055479E+03  0.77143172176E+03  0.25500000920E-02 0. -1.
       -2    1    3    3    0  502  0.41096890794E+03 -0.55799450893E+03  0.15538588431E+03  0.71020989034E+03  0.25500000920E-02 0.  1.
</event>
<event>
 5   0  0.1560957E-03  0.1378893E+04  0.7818609E-02  0.8969240E-01
       -1   -1    0    0    0  501  0.00000000000E+00  0.00000000000E+00  0.48118828365E+03  0.48118828368E+03  0.50400001928E-02 0.  1.
        1   -1    0    0  501    0  0.00000000000E+00  0.00000000000E+00 -0.98783831576E+03  0.98783831577E+03  0.50400001928E-02 0. -1.
    10030    2    1    2    0    0  0.00000000000E+00  0.00000000000E+00 -0.50665003211E+03  0.14690265994E+04  0.13788926335E+04 0.  0.
        5    1    3    3  502    0  0.65443924141E+03  0.17931813995E+03 -0.12341830585E+03  0.68971000010E+03  0.46999998093E+01 0. -1.
       -5    1    3    3    0  502 -0.65443924141E+03 -0.17931813995E+03 -0.38323172626E+03  0.77931659935E+03  0.46999998093E+01 0.  1.
</event>
<event>
 5   0  0.2760807E-03  0.1401896E+04  0.7818609E-02  0.8952448E-01
        2   -1    0    0  501    0  0.00000000000E+00  0.00000000000E+00  0.82160894086E+03  0.82160894086E+03  0.25500000920E-02 0. -1.
       -2   -1    0    0    0  501  0.00000000000E+00  0.00000000000E+00 -0.59800685517E+03  0.59800685517E+03  0.25500000920E-02 0.  1.
    10030    2    1    2    0    0  0.00000000000E+00  0.00000000000E+00  0.22360208569E+03  0.14196157960E+04  0.14018955438E+04 0.  0.
        4    1    3    3  502    0 -0.37031568224E+02 -0.11104246532E+03  0.81164049332E+03  0.82003882192E+03  0.12699999809E+01 0. -1.
       -4    1    3    3    0  502  0.37031568224E+02  0.11104246532E+03 -0.58803840763E+03  0.59957697412E+03  0.12699999809E+01 0.  1.
</event>
<event>
 5   0  0.3006737E-03  0.1391307E+04  0.7818609E-02  0.8960135E-01
        2   -1    0    0  501    0  0.00000000000E+00  0.00000000000E+00  0.18743577681E+04  0.18743577681E+04  0.25500000920E-02 0.  1.
       -2   -1    0    0    0  501  0.00000000000E+00  0.00000000000E+00 -0.25818639332E+03  0.25818639333E+03  0.25500000920E-02 0. -1.
    10030    2    1    2    0    0  0.00000000000E+00  0.00000000000E+00  0.16161713747E+04  0.21325441614E+04  0.13913068273E+04 0.  0.
        1    1    3    3  502    0 -0.17396241287E+01 -0.23968790019E+03 -0.19289254498E+03  0.30767003384E+03  0.50400001928E-02 0. -1.
       -1    1    3    3    0  502  0.17396241287E+01  0.23968790019E+03  0.18090639197E+04  0.18248741276E+04  0.50400001928E-02 0.  1.
</event>
<event>
 5   0  0.3006737E-03  0.1455843E+04  0.7818609E-02  0.8914360E-01
        2   -1    0    0  501    0  0.00000000000E+00  0.00000000000E+00  0.84793774808E+03  0.84793774808E+03  0.25500000920E-02 0. -1.
       -2   -1    0    0    0  501  0.00000000000E+00  0.00000000000E+00 -0.62489203200E+03  0.62489203201E+03  0.25500000920E-02 0.  1.
    10030    2    1    2    0    0  0.00000000000E+00  0.00000000000E+00  0.22304571608E+03  0.14728297801E+04  0.14558427696E+04 0.  0.
        1    1    3    3  502    0 -0.45942553951E+02  0.11231954469E+03  0.83763223472E+03  0.84637707852E+03  0.50400001928E-02 0. -1.
       -1    1    3    3    0  502  0.45942553951E+02 -0.11231954469E+03 -0.61458651864E+03  0.62645270157E+03  0.50400001928E-02 0.  1.
</event>
<event>
 5   0  0.1644571E-03  0.1370305E+04  0.7818609E-02  0.8975598E-01
        1   -1    0    0  501    0  0.00000000000E+00  0.00000000000E+00  0.82554088964E+03  0.82554088966E+03  0.50400001928E-02 0.  1.
       -1   -1    0    0    0  501  0.00000000000E+00  0.00000000000E+00 -0.56863789755E+03  0.56863789758E+03  0.50400001928E-02 0. -1.
    10030    2    1    2    0    0  0.00000000000E+00  0.00000000000E+00  0.25690299209E+03  0.13941787872E+04  0.13703048360E+04 0.  0.
        4    1    3    3  502    0  0.34980175274E+03 -0.30650317448E+03 -0.38343103765E+03  0.60276565572E+03  0.12699999809E+01 0. -1.
       -4    1    3    3    0  502 -0.34980175274E+03  0.30650317448E+03  0.64033402974E+03  0.79141313151E+03  0.12699999809E+01 0.  1.
</event>
<event>
 5   0  0.2760807E-03  0.1408285E+04  0.7818609E-02  0.8947843E-01
       -2   -1    0    0    0  501  0.00000000000E+00  0.00000000000E+00  0.22107185740E+03  0.22107185742E+03  0.25500000920E-02 0. -1.
        2   -1    0    0  501    0  0.00000000000E+00  0.00000000000E+00 -0.22427850262E+04  0.22427850262E+04  0.25500000920E-02 0.  1.
    10030    2    1    2    0    0  0.00000000000E+00  0.00000000000E+00 -0.20217131688E+04  0.24638568836E+04  0.14082849875E+04 0.  0.
        4    1    3    3  502    0  0.30843965225E+03 -0.14554767043E+03 -0.20886324872E+04  0.21162954480E+04  0.12699999809E+01 0.  1.
       -4    1    3    3    0  502 -0.30843965225E+03  0.14554767043E+03  0.66919318465E+02  0.34756143562E+03  0.12699999809E+01 0. -1.
</event>
<event>
 5   0  0.2760807E-03  0.1453472E+04  0.7818609E-02  0.8915997E-01
        2   -1    0    0  501    0  0.00000000000E+00  0.00000000000E+00  0.19961748661E+04  0.19961748661E+04  0.25500000920E-02 0. -1.
       -2   -1    0    0    0  501  0.00000000000E+00  0.00000000000E+00 -0.26457864961E+03  0.26457864962E+03  0.25500000920E-02 0.  1.
    10030    2    1    2    0    0  0.00000000000E+00  0.00000000000E+00  0.17315962165E+04  0.22607535157E+04  0.14534720506E+04 0.  0.
        4    1    3    3  502    0 -0.55222927963E+03  0.46921908629E+03  0.78032224746E+03  0.10649075786E+04  0.12699999809E+01 0.  1.
       -4    1    3    3    0  502  0.55222927963E+03 -0.46921908629E+03  0.95127396903E+03  0.11958459371E+04  0.12699999809E+01 0. -1.
</event>
<event>
 5   0  0.1104538E-03  0.1383823E+04  0.7818609E-02  0.8965612E-01
        4   -1    0    0  501    0  0.00000000000E+00  0.00000000000E+00  0.38607239923E+03  0.38607448808E+03  0.12699999809E+01 0.  1.
       -4   -1    0    0    0  501  0.00000000000E+00  0.00000000000E+00 -0.12400248370E+04  0.12400254874E+04  0.12699999809E+01 0. -1.
    10030    2    1    2    0    0  0.00000000000E+00  0.00000000000E+00 -0.85395243781E+03  0.16260999755E+04  0.13838230971E+04 0.  0.
        5    1    3    3  502    0  0.68561125287E+03 -0.39289668824E+02 -0.32787155856E+03  0.76100480750E+03  0.46999998093E+01 0.  1.
       -5    1    3    3    0  502 -0.68561125287E+03  0.39289668824E+02 -0.52608087925E+03  0.86509516797E+03  0.46999998093E+01 0. -1.
</event>
<event>
 5   0  0.2760807E-03  0.1385400E+04  0.7818609E-02  0.8964455E-01
       -2   -1    0    0    0  501  0.00000000000E+00  0.00000000000E+00  0.45789137536E+03  0.45789137537E+03  0.25500000920E-02 0.  1.
        2   -1    0    0  501    0  0.00000000000E+00  0.00000000000E+00 -0.10479188752E+04  0.10479188752E+04  0.25500000920E-02 0. -1.
    10030    2    1    2    0    0  0.00000000000E+00  0.00000000000E+00 -0.59002749985E+03  0.15058102506E+04  0.13853996031E+04 0.  0.
        4    1    3    3  502    0 -0.58651505418E+03 -0.44740073271E+02 -0.69263687657E+03  0.90870734487E+03  0.12699999809E+01 0. -1.
       -4    1    3    3    0  502  0.58651505418E+03  0.44740073271E+02  0.10260937672E+03  0.59710290572E+03  0.12699999809E+01 0.  1.
</event>
<event>
 5   0  0.1560957E-03  0.1404512E+04  0.7818609E-02  0.8950559E-01
       -1   -1    0    0    0  501  0.00000000000E+00  0.00000000000E+00  0.32926054228E+03  0.32926054232E+03  0.50400001928E-02 0.  1.
        1   -1    0    0  501    0  0.00000000000E+00  0.00000000000E+00 -0.14977920130E+04  0.14977920130E+04  0.50400001928E-02 0. -1.
    10030    2    1    2    0    0  0.00000000000E+00  0.00000000000E+00 -0.11685314707E+04  0.18270525553E+04  0.14045124570E+04 0.  0.
        5    1    3    3  502    0 -0.94042511470E+02  0.32270740777E+03 -0.13863265793E+04  0.14265018540E+04  0.46999998093E+01 0. -1.
       -5    1    3    3    0  502  0.94042511470E+02 -0.32270740777E+03  0.21779510859E+03  0.40055070131E+03  0.46999998093E+01 0.  1.
</event>
<event>
 5   0  0.1560957E-03  0.1407862E+04  0.7818609E-02  0.8948147E-01
       -1   -1    0    0    0  501  0.00000000000E+00  0.00000000000E+00  0.46989522431E+03  0.46989522434E+03  0.50400001928E-02 0. -1.
        1   -1    0    0  501    0  0.00000000000E+00  0.00000000000E+00 -0.10545309571E+04  0.10545309571E+04  0.50400001928E-02 0.  1.
    10030    2    1    2    0    0  0.00000000000E+00  0.00000000000E+00 -0.58463573283E+03  0.15244261815E+04  0.14078622954E+04 0.  0.
        5    1    3    3  502    0 -0.33456979982E+03 -0.48677394322E+03  0.12228253484E+03  0.60320886190E+03  0.46999998093E+01 0. -1.
       -5    1    3    3    0  502  0.33456979982E+03  0.48677394322E+03 -0.70691826767E+03  0.92121731959E+03  0.46999998093E+01 0.  1.
</event>
<event>
 5   0  0.1560957E-03  0.1329392E+04  0.7818609E-02  0.9006576E-01
       -1   -1    0    0    0  501  0.00000000000E+00  0.00000000000E+00  0.51634312122E+03  0.51634312124E+03  0.50400001928E-02 0.  1.
        1   -1    0    0  501    0  0.00000000000E+00  0.00000000000E+00 -0.85567313433E+03  0.85567313435E+03  0.50400001928E-02 0. -1.
    10030    2    1    2    0    0  0.00000000000E+00  0.00000000000E+00 -0.33933001312E+03  0.13720162556E+04  0.13293922475E+04 0.  0.
        5    1    3    3  502    0  0.35386526449E+03 -0.27365239845E+03  0.33772017544E+03  0.56052053261E+03  0.46999998093E+01 0.  1.
       -5    1    3    3    0  502 -0.35386526449E+03  0.27365239845E+03 -0.67705018855E+03  0.81149572297E+03  0.46999998093E+01 0. -1.
</event>
<event>
 5   0  0.1700207E-03  0.1283454E+04  0.7818609E-02  0.9042790E-01
        1   -1    0    0  501    0  0.00000000000E+00  0.00000000000E+00  0.10299440346E+04  0.10299440346E+04  0.50400001928E-02 0.  1.
       -1   -1    0    0    0  501  0.00000000000E+00  0.00000000000E+00 -0.39984084833E+03  0.39984084836E+03  0.50400001928E-02 0. -1.
    10030    2    1    2    0    0  0.00000000000E+00  0.00000000000E+00  0.63010318623E+03  0.14297848829E+04  0.12834542400E+04 0.  0.
        2    1    3    3  502    0  0.64022136394E+03  0.27540566146E+02  0.35318631317E+03  0.73169833226E+03  0.25500000920E-02 0. -1.
       -2    1    3    3    0  502 -0.64022136394E+03 -0.27540566146E+02  0.27691687307E+03  0.69808655066E+03  0.25500000920E-02 0.  1.
</event>
<event>
 5   0  0.2993993E-03  0.1439722E+04  0.7818609E-02  0.8925557E-01
       -2   -1    0    0    0  501  0.00000000000E+00  0.00000000000E+00  0.45872758703E+03  0.45872758704E+03  0.25500000920E-02 0.  1.
        2   -1    0    0  501    0  0.00000000000E+00  0.00000000000E+00 -0.11296466480E+04  0.11296466480E+04  0.25500000920E-02 0. -1.
    10030    2    1    2    0    0  0.00000000000E+00  0.00000000000E+00 -0.67091906094E+03  0.15883742350E+04  0.14397223080E+04 0.  0.
        3    1    3    3  502    0  0.67854284363E+03 -0.23100934591E+03 -0.26215883655E+03  0.76322537584E+03  0.10100000352E+00 0.  1.
       -3    1    3    3    0  502 -0.67854284363E+03  0.23100934591E+03 -0.40876022439E+03  0.82514885917E+03  0.10100000352E+00 0. -1.
</event>
<event>
 5   0  0.2889469E-03  0.1387196E+04  0.7818609E-02  0.8963140E-01
        2   -1    0    0  501    0  0.00000000000E+00  0.00000000000E+00  0.19489735412E+04  0.19489735412E+04  0.25500000920E-02 0.  1.
       -2   -1    0    0    0  501  0.00000000000E+00  0.00000000000E+00 -0.24683654580E+03  0.24683654581E+03  0.25500000920E-02 0. -1.
    10030    2    1    2    0    0  0.00000000000E+00  0.00000000000E+00  0.17021369954E+04  0.21958100870E+04  0.13871955836E+04 0.  0.
        5    1    3    3  502    0  0.42919412611E+03  0.50034884447E+03  0.50973412967E+03  0.83331118857E+03  0.46999998093E+01 0. -1.
       -5    1    3    3    0  502 -0.42919412611E+03 -0.50034884447E+03  0.11924028657E+04  0.13624988984E+04  0.46999998093E+01 0.  1.
</event>
<event>
 5   0  0.2917809E-03  0.1399581E+04  0.7818609E-02  0.8954122E-01
        2   -1    0    0  501    0  0.00000000000E+00  0.00000000000E+00  0.15525591503E+04  0.15525591503E+04  0.25500000920E-02 0. -1.
       -2   -1    0    0    0  501  0.00000000000E+00  0.00000000000E+00 -0.31541919479E+03  0.31541919480E+03  0.25500000920E-02 0.  1.
    10030    2    1    2    0    0  0.00000000000E+00  0.00000000000E+00  0.12371399555E+04  0.18679783451E+04  0.13995813046E+04 0.  0.
        2    1    3    3  502    0 -0.63851368322E+03 -0.12049675294E+02  0.23670046876E+03  0.68108151514E+03  0.25500000920E-02 0.  1.
       -2    1    3    3    0  502  0.63851368322E+03  0.12049675294E+02  0.10004394867E+04  0.11868968299E+04  0.25500000920E-02 0. -1.
</event>
<event>
 5   0  0.1700207E-03  0.1439174E+04  0.7818609E-02  0.8925941E-01
       -1   -1    0    0    0  501  0.00000000000E+00  0.00000000000E+00  0.22753106933E+03  0.22753106938E+03  0.50400001928E-02 0. -1.
        1   -1    0    0  501    0  0.00000000000E+00  0.00000000000E+00 -0.22757566962E+04  0.22757566962E+04  0.50400001928E-02 0.  1.
    10030    2    1    2    0    0  0.00000000000E+00  0.00000000000E+00 -0.20482256269E+04  0.25032877656E+04  0.14391738668E+04 0.  0.
        2    1    3    3  502    0 -0.24870498268E+03 -0.44479679646E+03 -0.14042798106E+03  0.52860039390E+03  0.25500000920E-02 0. -1.
       -2    1    3    3    0  502  0.24870498268E+03  0.44479679646E+03 -0.19077976458E+04  0.19746873717E+04  0.25500000920E-02 0.  1.
</event>
<event>
 5   0  0.3006737E-03  0.1404395E+04  0.7818609E-02  0.8950643E-01
        2   -1    0    0  501    0  0.00000000000E+00  0.00000000000E+00  0.76068891883E+03  0.76068891884E+03  0.25500000920E-02 0. -1.
       -2   -1    0    0    0  501  0.00000000000E+00  0.00000000000E+00 -0.64820390885E+03  0.64820390885E+03  0.25500000920E-02 0.  1.
    10030    2    1    2    0    0  0.00000000000E+00  0.00000000000E+00  0.11248500999E+03  0.14088928277E+04  0.14043952871E+04 0.  0.
        1    1    3    3  502    0  0.49168595894E+03 -0.50086120480E+03  0.34621178341E+02  0.70272018237E+03  0.50400001928E-02 0. -1.
       -1    1    3    3    0  502 -0.49168595894E+03  0.50086120480E+03  0.77863831645E+02  0.70617264532E+03  0.50400001928E-02 0.  1.
</event>
<event>
 5   0  0.1104538E-03  0.1403046E+04  0.7818609E-02  0.8951617E-01
       -3   -1    0    0    0  501  0.00000000000E+00  0.00000000000E+00  0.24914375017E+04  0.24914375037E+04  0.10100000352E+00 0. -1.
        3   -1    0    0  501    0  0.00000000000E+00  0.00000000000E+00 -0.19753036843E+03  0.19753039425E+03  0.10100000352E+00 0.  1.
    10030    2    1    2    0    0  0.00000000000E+00  0.00000000000E+00  0.22939071332E+04  0.26889678980E+04  0.14030461220E+04 0.  0.
        3    1    3    3  502    0  0.69600994595E+02  0.17503623763E+03 -0.14815639180E+03  0.23965039029E+03  0.10100000352E+00 0.  1.
       -3    1    3    3    0  502 -0.69600994595E+02 -0.17503623763E+03  0.24420635250E+04  0.24493175077E+04  0.10100000352E+00 0. -1.
</event>
<event>
 5   0  0.1104538E-03  0.1162115E+04  0.7818609E-02  0.9146679E-01
        4   -1    0    0  501    0  0.00000000000E+00  0.00000000000E+00  0.37912816414E+03  0.37913029125E+03  0.12699999809E+01 0.  1.
       -4   -1    0    0    0  501  0.00000000000E+00  0.00000000000E+00 -0.89053302853E+03  0.89053393411E+03  0.12699999809E+01 0. -1.
    10030    2    1    2    0    0  0.00000000000E+00  0.00000000000E+00 -0.51140486439E+03  0.12696642254E+04  0.11621154460E+04 0.  0.
        1    1    3    3  502    0  0.32371568314E+02  0.46448077724E+03  0.12408531926E+03  0.48185835817E+03  0.50400001928E-02 0.  1.
       -1    1    3    3    0  502 -0.32371568314E+02 -0.46448077724E+03 -0.63549018364E+03  0.78780586719E+03  0.50400001928E-02 0. -1.
</event>
<event>
 5   0  0.1586022E-03  0.1297115E+04  0.7818609E-02  0.9031856E-01
       -1   -1    0    0    0  501  0.00000000000E+00  0.00000000000E+00  0.12032225656E+04  0.12032225656E+04  0.50400001928E-02 0. -1.
        1   -1    0    0  501    0  0.00000000000E+00  0.00000000000E+00 -0.34958372307E+03  0.34958372311E+03  0.50400001928E-02 0.  1.
    10030    2    1    2    0    0  0.00000000000E+00  0.00000000000E+00  0.85363884251E+03  0.15528062887E+04  0.12971152982E+04 0.  0.
        1    1    3    3  502    0 -0.55033396256E+03  0.43121358983E+02  0.83436915083E+03  0.10004493000E+04  0.50400001928E-02 0. -1.
       -1    1    3    3    0  502  0.55033396256E+03 -0.43121358983E+02  0.19269691685E+02  0.55235698873E+03  0.50400001928E-02 0.  1.
</event>
<event>
 5   0  0.1631380E-03  0.1370966E+04  0.7818609E-02  0.8975107E-01
        1   -1    0    0  501    0  0.00000000000E+00  0.00000000000E+00  0.12922371312E+04  0.12922371312E+04  0.50400001928E-02 0. -1.
       -1   -1    0    0    0  501  0.00000000000E+00  0.00000000000E+00 -0.36362297691E+03  0.36362297695E+03  0.50400001928E-02 0.  1.
    10030    2    1    2    0    0  0.00000000000E+00  0.00000000000E+00  0.92861415430E+03  0.16558601082E+04  0.13709662469E+04 0.  0.
        3    1    3    3  502    0  0.36136027296E+03  0.24386564939E+02 -0.23862219363E+03  0.43372400546E+03  0.10100000352E+00 0.  1.
       -3    1    3    3    0  502 -0.36136027296E+03 -0.24386564939E+02  0.11672363479E+04  0.12221361027E+04  0.10100000352E+00 0. -1.
</event>
<event>
 5   0  0.1700207E-03  0.1300420E+04  0.7818609E-02  0.9029232E-01
       -1   -1    0    0    0  501  0.00000000000E+00  0.00000000000E+00  0.60336775486E+03  0.60336775488E+03  0.50400001928E-02 0. -1.
        1   -1    0    0  501    0  0.00000000000E+00  0.00000000000E+00 -0.70068913098E+03  0.70068913100E+03  0.50400001928E-02 0.  1.
    10030    2    1    2    0    0  0.00000000000E+00  0.00000000000E+00 -0.97321376126E+02  0.13040568859E+04  0.13004202826E+04 0.  0.
        2    1    3    3  502    0 -0.57449193535E+03 -0.64127855718E+01  0.25664287137E+03  0.62924372943E+03  0.25500000920E-02 0. -1.
       -2    1    3    3    0  502  0.57449193535E+03  0.64127855718E+01 -0.35396424750E+03  0.67481315645E+03  0.25500000920E-02 0.  1.
</event>
<event>
 5   0  0.1631380E-03  0.1518582E+04  0.7818609E-02  0.8872190E-01
       -1   -1    0    0    0  501  0.00000000000E+00  0.00000000000E+00  0.27369504123E+03  0.27369504128E+03  0.50400001928E-02 0.  1.
        1   -1    0    0  501    0  0.00000000000E+00  0.00000000000E+00 -0.21064411378E+04  0.21064411378E+04  0.50400001928E-02 0. -1.
    10030    2    1    2    0    0  0.00000000000E+00  0.00000000000E+00 -0.18327460966E+04  0.23801361791E+04  0.15185815673E+04 0.  0.
        3    1    3    3  502    0 -0.25557688226E+02  0.75455487037E+03 -0.78985220217E+03  0.10926448459E+04  0.10100000352E+00 0. -1.
       -3    1    3    3    0  502  0.25557688226E+02 -0.75455487037E+03 -0.10428938944E+04  0.12874913332E+04  0.10100000352E+00 0.  1.
</event>
<event>
 5   0  0.1644571E-03  0.1272496E+04  0.7818609E-02  0.9051665E-01
        1   -1    0    0  501    0  0.00000000000E+00  0.00000000000E+00  0.48414484600E+03  0.48414484603E+03  0.50400001928E-02 0.  1.
       -1   -1    0    0    0  501  0.00000000000E+00  0.00000000000E+00 -0.83613664274E+03  0.83613664275E+03  0.50400001928E-02 0. -1.
    10030    2    1    2    0    0  0.00000000000E+00  0.00000000000E+00 -0.35199179674E+03  0.13202814888E+04  0.12724955735E+04 0.  0.
        4    1    3    3  502    0  0.14417818724E+03  0.22981466670E+03 -0.77311413734E+03  0.81933461599E+03  0.12699999809E+01 0. -1.
       -4    1    3    3    0  502 -0.14417818724E+03 -0.22981466670E+03  0.42112234060E+03  0.50094687279E+03  0.12699999809E+01 0.  1.
</event>
<event>
 5   0  0.1700207E-03  0.1428233E+04  0.7818609E-02  0.8933632E-01
       -1   -1    0    0    0  501  0.00000000000E+00  0.00000000000E+00  0.42133096360E+03  0.42133096363E+03  0.50400001928E-02 0.  1.
        1   -1    0    0  501    0  0.00000000000E+00  0.00000000000E+00 -0.12103607296E+04  0.12103607296E+04  0.50400001928E-02 0. -1.
    10030    2    1    2    0    0  0.00000000000E+00  0.00000000000E+00 -0.78902976601E+03  0.16316916932E+04  0.14282331078E+04 0.  0.
        2    1    3    3  502    0  0.42409599403E+03 -0.46970768432E+03 -0.77252712826E+03  0.99863951693E+03  0.25500000920E-02 0. -1.
       -2    1    3    3    0  502 -0.42409599403E+03  0.46970768432E+03 -0.16502637748E+02  0.63305217631E+03  0.25500000920E-02 0.  1.
</event>
<event>
 5   0  0.2917809E-03  0.9419810E+03  0.7818609E-02  0.9374573E-01
       -2   -1    0    0    0  501  0.00000000000E+00  0.00000000000E+00  0.38265067908E+03  0.38265067908E+03  0.25500000920E-02 0. -1.
        2   -1    0    0  501    0  0.00000000000E+00  0.00000000000E+00 -0.57972476232E+03  0.57972476233E+03  0.25500000920E-02 0.  1.
    10030    2    1    2    0    0  0.00000000000E+00  0.00000000000E+00 -0.19707408325E+03  0.96237544141E+03  0.94198104862E+03 0.  0.
        2    1    3    3  502    0 -0.28990016743E+03  0.31015814780E+03  0.10981928669E+03  0.43852076286E+03  0.25500000920E-02 0. -1.
       -2    1    3    3    0  502  0.28990016743E+03 -0.31015814780E+03 -0.30689336994E+03  0.52385467855E+03  0.25500000920E-02 0.  1.
</event>
<event>
 5   0  0.1700207E-03  0.1399494E+04  0.7818609E-02  0.8954185E-01
        1   -1    0    0  501    0  0.00000000000E+00  0.00000000000E+00  0.62577868912E+03  0.62577868914E+03  0.50400001928E-02 0. -1.
       -1   -1    0    0    0  501  0.00000000000E+00  0.00000000000E+00 -0.78245825129E+03  0.78245825131E+03  0.50400001928E-02 0.  1.
    10030    2    1    2    0    0  0.00000000000E+00  0.00000000000E+00 -0.15667956217E+03  0.14082369405E+04  0.13994937639E+04 0.  0.
        2    1    3    3  502    0 -0.55560057068E+03 -0.38723716402E+03  0.98831449221E+02  0.68440650983E+03  0.25500000920E-02 0. -1.
       -2    1    3    3    0  502  0.55560057068E+03  0.38723716402E+03 -0.25551101139E+03  0.72383043062E+03  0.25500000920E-02 0.  1.
</event>
<event>
 5   0  0.1560957E-03  0.1414492E+04  0.7818609E-02  0.8943395E-01
        1   -1    0    0  501    0  0.00000000000E+00  0.00000000000E+00  0.10069660329E+04  0.10069660329E+04  0.50400001928E-02 0. -1.
       -1   -1    0    0    0  501  0.00000000000E+00  0.00000000000E+00 -0.49673681173E+03  0.49673681176E+03  0.50400001928E-02 0.  1.
    10030    2    1    2    0    0  0.00000000000E+00  0.00000000000E+00  0.51022922116E+03  0.15037028447E+04  0.14144922718E+04 0.  0.
        5    1    3    3  502    0 -0.33121548058E+03 -0.46604930349E+03 -0.18739461204E+03  0.60170131999E+03  0.46999998093E+01 0.  1.
       -5    1    3    3    0  502  0.33121548058E+03  0.46604930349E+03  0.69762383320E+03  0.90200152467E+03  0.46999998093E+01 0. -1.
</event>
<event>
 5   0  0.1104538E-03  0.1308318E+04  0.7818609E-02  0.9022995E-01
        3   -1    0    0  501    0  0.00000000000E+00  0.00000000000E+00  0.40702063765E+03  0.40702065018E+03  0.10100000352E+00 0. -1.
       -3   -1    0    0    0  501  0.00000000000E+00  0.00000000000E+00 -0.10513567955E+04  0.10513568003E+04  0.10100000352E+00 0.  1.
    10030    2    1    2    0    0  0.00000000000E+00  0.00000000000E+00 -0.64433615782E+03  0.14583774505E+04  0.13083178910E+04 0.  0.
        4    1    3    3  502    0  0.33448152404E+03  0.39190943984E+03 -0.77144944679E+03  0.92768893537E+03  0.12699999809E+01 0. -1.
       -4    1    3    3    0  502 -0.33448152404E+03 -0.39190943984E+03  0.12711328897E+03  0.53068851513E+03  0.12699999809E+01 0.  1.
</event>
<event>
 5   0  0.2993993E-03  0.1222253E+04  0.7818609E-02  0.9093599E-01
       -2   -1    0    0    0  501  0.00000000000E+00  0.00000000000E+00  0.53088839677E+03  0.53088839678E+03  0.25500000920E-02 0. -1.
        2   -1    0    0  501    0  0.00000000000E+00  0.00000000000E+00 -0.70349161024E+03  0.70349161024E+03  0.25500000920E-02 0.  1.
    10030    2    1    2    0    0  0.00000000000E+00  0.00000000000E+00 -0.17260321346E+03  0.12343800070E+04  0.12222528922E+04 0.  0.
        3    1    3    3  502    0 -0.13220421312E+03  0.16801422911E+03  0.49188976012E+03  0.53634157163E+03  0.10100000352E+00 0. -1.
       -3    1    3    3    0  502  0.13220421312E+03 -0.16801422911E+03 -0.66449297358E+03  0.69803843539E+03  0.10100000352E+00 0.  1.
</event>
<event>
 5   0  0.2993993E-03  0.1321457E+04  0.7818609E-02  0.9012721E-01
       -2   -1    0    0    0  501  0.00000000000E+00  0.00000000000E+00  0.45432935137E+03  0.45432935138E+03  0.25500000920E-02 0. -1.
        2   -1    0    0  501    0  0.00000000000E+00  0.00000000000E+00 -0.96089303362E+03  0.96089303363E+03  0.25500000920E-02 0.  1.
    10030    2    1    2    0    0  0.00000000000E+00  0.00000000000E+00 -0.50656368225E+03  0.14152223850E+04  0.13214566337E+04 0.  0.
        3    1    3    3  502    0 -0.54112412320E+03  0.20231746318E+03 -0.59668032934E+03  0.83052700030E+03  0.10100000352E+00 0.  1.
       -3    1    3    3    0  502  0.54112412320E+03 -0.20231746318E+03  0.90116647090E+02  0.58469538471E+03  0.10100000352E+00 0. -1.
</event>
<event>
 5   0  0.2760807E-03  0.1360735E+04  0.7818609E-02  0.8982741E-01
       -2   -1    0    0    0  501  0.00000000000E+00  0.00000000000E+00  0.52093192113E+03  0.52093192113E+03  0.25500000920E-02 0.  1.
        2   -1    0    0  501    0  0.00000000000E+00  0.00000000000E+00 -0.88860018273E+03  0.88860018273E+03  0.25500000920E-02 0. -1.
    10030    2    1    2    0    0  0.00000000000E+00  0.00000000000E+00 -0.36766826160E+03  0.14095321039E+04  0.13607353899E+04 0.  0.
        4    1    3    3  502    0  0.29480833881E+02  0.67970966265E+03 -0.18893434727E+03  0.70609641377E+03  0.12699999809E+01 0. -1.
       -4    1    3    3    0  502 -0.29480833881E+02 -0.67970966265E+03 -0.17873391433E+03  0.70343569009E+03  0.12699999809E+01 0.  1.
</event>
<event>
 5   0  0.2993993E-03  0.1410355E+04  0.7818609E-02  0.8946357E-01
       -2   -1    0    0    0  501  0.00000000000E+00  0.00000000000E+00  0.36131931338E+03  0.36131931339E+03  0.25500000920E-02 0.  1.
        2   -1    0    0  501    0  0.00000000000E+00  0.00000000000E+00 -0.13762761516E+04  0.13762761516E+04  0.25500000920E-02 0. -1.
    10030    2    1    2    0    0  0.00000000000E+00  0.00000000000E+00 -0.10149568383E+04  0.17375954650E+04  0.14103547839E+04 0.  0.
        3    1    3    3  502    0 -0.34417120491E+03  0.48300438649E+02  0.24847684288E+03  0.42723237508E+03  0.10100000352E+00 0.  1.
       -3    1    3    3    0  502  0.34417120491E+03 -0.48300438649E+02 -0.12634336811E+04  0.13103630899E+04  0.10100000352E+00 0. -1.
</event>
<event>
 5   0  0.3006737E-03  0.1399124E+04  0.7818609E-02  0.8954453E-01
        2   -1    0    0  501    0  0.00000000000E+00  0.00000000000E+00  0.65681727783E+03  0.65681727784E+03  0.25500000920E-02 0.  1.
       -2   -1    0    0    0  501  0.00000000000E+00  0.00000000000E+00 -0.74508830737E+03  0.74508830738E+03  0.25500000920E-02 0. -1.
    10030    2    1    2    0    0  0.00000000000E+00  0.00000000000E+00 -0.88271029537E+02  0.14019055852E+04  0.13991238313E+04 0.  0.
        1    1    3    3  502    0  0.11256115207E+01  0.21264808526E+02  0.65649245600E+03  0.65683773026E+03  0.50400001928E-02 0.  1.
       -1    1    3    3    0  502 -0.11256115207E+01 -0.21264808526E+02 -0.74476348553E+03  0.74506785496E+03  0.50400001928E-02 0. -1.
</event>
<event>
 5   0  0.2993993E-03  0.1394183E+04  0.7818609E-02  0.8958040E-01
        2   -1    0    0  501    0  0.00000000000E+00  0.00000000000E+00  0.16091883951E+04  0.16091883951E+04  0.25500000920E-02 0.  1.
       -2   -1    0    0    0  501  0.00000000000E+00  0.00000000000E+00 -0.30197638973E+03  0.30197638974E+03  0.25500000920E-02 0. -1.
    10030    2    1    2    0    0  0.00000000000E+00  0.00000000000E+00  0.13072120054E+04  0.19111647849E+04  0.13941834915E+04 0.  0.
        3    1    3    3  502    0  0.42873636251E+03 -0.31508460475E+03  0.12709951295E+04  0.13778685736E+04  0.10100000352E+00 0.  1.
       -3    1    3    3    0  502 -0.42873636251E+03  0.31508460475E+03  0.36216875927E+02  0.53329621130E+03  0.10100000352E+00 0. -1.
</event>
<event>
 5   0  0.2889469E-03  0.1398469E+04  0.7818609E-02  0.8954927E-01
       -2   -1    0    0    0  501  0.00000000000E+00  0.00000000000E+00  0.36236354621E+03  0.36236354622E+03  0.25500000920E-02 0. -1.
        2   -1    0    0  501    0  0.00000000000E+00  0.00000000000E+00 -0.13492778649E+04  0.13492778649E+04  0.25500000920E-02 0.  1.
    10030    2    1    2    0    0  0.00000000000E+00  0.00000000000E+00 -0.98691431873E+03  0.17116414112E+04  0.13984693232E+04 0.  0.
        5    1    3    3  502    0  0.40443252356E+03  0.20571561389E+03 -0.11445910165E+04  0.12312575949E+04  0.46999998093E+01 0.  1.
       -5    1    3    3    0  502 -0.40443252356E+03 -0.20571561389E+03  0.15767669777E+03  0.48038381627E+03  0.46999998093E+01 0. -1.
</event>
<event>
 5   0  0.1631380E-03  0.1412721E+04  0.7818609E-02  0.8944662E-01
        1   -1    0    0  501    0  0.00000000000E+00  0.00000000000E+00  0.94523334706E+03  0.94523334707E+03  0.50400001928E-02 0. -1.
       -1   -1    0    0    0  501  0.00000000000E+00  0.00000000000E+00 -0.52785372097E+03  0.52785372099E+03  0.50400001928E-02 0.  1.
    10030    2    1    2    0    0  0.00000000000E+00  0.00000000000E+00  0.41737962609E+03  0.14730870681E+04  0.14127206935E+04 0.  0.
        3    1    3    3  502    0 -0.37811590954E+03 -0.59384139378E+03  0.14855682109E+03  0.71950565064E+03  0.10100000352E+00 0. -1.
       -3    1    3    3    0  502  0.37811590954E+03  0.59384139378E+03  0.26882280500E+03  0.75358141743E+03  0.10100000352E+00 0.  1.
</event>
<event>
 5   0  0.1586022E-03  0.1468697E+04  0.7818609E-02  0.8905540E-01
        1   -1    0    0  501    0  0.00000000000E+00  0.00000000000E+00  0.61224824485E+03  0.61224824487E+03  0.50400001928E-02 0.  1.
       -1   -1    0    0    0  501  0.00000000000E+00  0.00000000000E+00 -0.88079904815E+03  0.88079904816E+03  0.50400001928E-02 0. -1.
    10030    2    1    2    0    0  0.00000000000E+00  0.00000000000E+00 -0.26855080330E+03  0.14930472930E+04  0.14686969345E+04 0.  0.
        1    1    3    3  502    0 -0.16254585490E+03  0.10186784126E+03  0.58632783924E+03  0.61691048550E+03  0.50400001928E-02 0.  1.
       -1    1    3    3    0  502  0.16254585490E+03 -0.10186784126E+03 -0.85487864253E+03  0.87613680753E+03  0.50400001928E-02 0. -1.
</event>
<event>
 5   0  0.1631380E-03  0.1423956E+04  0.7818609E-02  0.8936658E-01
       -1   -1    0    0    0  501  0.00000000000E+00  0.00000000000E+00  0.31955047380E+03  0.31955047384E+03  0.50400001928E-02 0. -1.
        1   -1    0    0  501    0  0.00000000000E+00  0.00000000000E+00 -0.15863302037E+04  0.15863302037E+04  0.50400001928E-02 0.  1.
    10030    2    1    2    0    0  0.00000000000E+00  0.00000000000E+00 -0.12667797299E+04  0.19058806775E+04  0.14239558536E+04 0.  0.
        3    1    3    3  502    0  0.43005205618E+03 -0.70546993018E+01 -0.13927920188E+04  0.14576913794E+04  0.10100000352E+00 0.  1.
       -3    1    3    3    0  502 -0.43005205618E+03  0.70546993018E+01  0.12601228889E+03  0.44818929813E+03  0.10100000352E+00 0. -1.
</event>
<event>
 5   0  0.1586022E-03  0.1409968E+04  0.7818609E-02  0.8946634E-01
       -1   -1    0    0    0  501  0.00000000000E+00  0.00000000000E+00  0.90351182209E+03  0.90351182210E+03  0.50400001928E-02 0. -1.
        1   -1    0    0  501    0  0.00000000000E+00  0.00000000000E+00 -0.55007878452E+03  0.55007878454E+03  0.50400001928E-02 0.  1.
    10030    2    1    2    0    0  0.00000000000E+00  0.00000000000E+00  0.35343303757E+03  0.14535906066E+04  0.14099683470E+04 0.  0.
        1    1    3    3  502    0 -0.13897957623E+03  0.73022608894E+02  0.88526085546E+03  0.89907419397E+03  0.50400001928E-02 0. -1.
       -1    1    3    3    0  502  0.13897957623E+03 -0.73022608894E+02 -0.53182781789E+03  0.55451641268E+03  0.50400001928E-02 0.  1.
</event>
<event>
 5   0  0.1644571E-03  0.1411331E+04  0.7818609E-02  0.8945657E-01
       -1   -1    0    0    0  501  0.00000000000E+00  0.00000000000E+00  0.42346157901E+03  0.42346157904E+03  0.50400001928E-02 0.  1.
        1   -1    0    0  501    0  0.00000000000E+00  0.00000000000E+00 -0.11759361702E+04  0.11759361702E+04  0.50400001928E-02 0. -1.
    10030    2    1    2    0    0  0.00000000000E+00  0.00000000000E+00 -0.75247459121E+03  0.15993977493E+04  0.14113309853E+04 0.  0.
        4    1    3    3  502    0 -0.52063112596E+03 -0.28082956634E+03 -0.81226830566E+03  0.10048400012E+04  0.12699999809E+01 0. -1.
       -4    1    3    3    0  502  0.52063112596E+03  0.28082956634E+03  0.59793714457E+02  0.59455774811E+03  0.12699999809E+01 0.  1.
</event>
<event>
 5   0  0.2760807E-03  0.1361024E+04  0.7818609E-02  0.8982525E-01
        2   -1    0    0  501    0  0.00000000000E+00  0.00000000000E+00  0.80285018704E+03  0.80285018705E+03  0.25500000920E-02 0.  1.
       -2   -1    0    0    0  501  0.00000000000E+00  0.00000000000E+00 -0.57681595115E+03  0.57681595115E+03  0.25500000920E-02 0. -1.
    10030    2    1    2    0    0  0.00000000000E+00  0.00000000000E+00  0.22603423590E+03  0.13796661382E+04  0.13610243117E+04 0.  0.
        4    1    3    3  502    0 -0.13153071817E+03  0.34709066074E+02 -0.56289157496E+03  0.57909721735E+03  0.12699999809E+01 0. -1.
       -4    1    3    3    0  502  0.13153071817E+03 -0.34709066074E+02  0.78892581086E+03  0.80056892084E+03  0.12699999809E+01 0.  1.
</event>
<event>
 5   0  0.2889469E-03  0.1412780E+04  0.7818609E-02  0.8944619E-01
       -2   -1    0    0    0  501  0.00000000000E+00  0.00000000000E+00  0.49708541036E+03  0.49708541036E+03  0.25500000920E-02 0.  1.
        2   -1    0    0  501    0  0.00000000000E+00  0.00000000000E+00 -0.10038248628E+04  0.10038248628E+04  0.25500000920E-02 0. -1.
    10030    2    1    2    0    0  0.00000000000E+00  0.00000000000E+00 -0.50673945249E+03  0.15009102732E+04  0.14127798043E+04 0.  0.
        5    1    3    3  502    0  0.39540718880E+03  0.32863097300E+02  0.36749877197E+03  0.54083663478E+03  0.46999998093E+01 0.  1.
       -5    1    3    3    0  502 -0.39540718880E+03 -0.32863097300E+02 -0.87423822445E+03  0.96007363843E+03  0.46999998093E+01 0. -1.
</event>
<event>
 5   0  0.1586022E-03  0.1397258E+04  0.7818609E-02  0.8955806E-01
        1   -1    0    0  501    0  0.00000000000E+00  0.00000000000E+00  0.92627952857E+03  0.92627952858E+03  0.50400001928E-02 0. -1.
       -1   -1    0    0    0  501  0.00000000000E+00  0.00000000000E+00 -0.52692757901E+03  0.52692757903E+03  0.50400001928E-02 0.  1.
    10030    2    1    2    0    0  0.00000000000E+00  0.00000000000E+00  0.39935194956E+03  0.14532071076E+04  0.13972576420E+04 0.  0.
        1    1    3    3  502    0 -0.13725465294E+03  0.64553228328E+03 -0.38699054495E+02  0.66109635104E+03  0.50400001928E-02 0. -1.
       -1    1    3    3    0  502  0.13725465294E+03 -0.64553228328E+03  0.43805100405E+03  0.79211075658E+03  0.50400001928E-02 0.  1.
</event>
<event>
 5   0  0.2993993E-03  0.1250717E+04  0.7818609E-02  0.9069587E-01
       -2   -1    0    0    0  501  0.00000000000E+00  0.00000000000E+00  0.27800766122E+03  0.27800766123E+03  0.25500000920E-02 0. -1.
        2   -1    0    0  501    0  0.00000000000E+00  0.00000000000E+00 -0.14066992691E+04  0.14066992691E+04  0.25500000920E-02 0.  1.
    10030    2    1    2    0    0  0.00000000000E+00  0.00000000000E+00 -0.11286916078E+04  0.16847069303E+04  0.12507168726E+04 0.  0.
        3    1    3    3  502    0  0.60892295768E+03  0.13925628252E+03 -0.52407807763E+03  0.81537557130E+03  0.10100000352E+00 0. -1.
       -3    1    3    3    0  502 -0.60892295768E+03 -0.13925628252E+03 -0.60461353022E+03  0.86933135900E+03  0.10100000352E+00 0.  1.
</event>
<event>
 5   0  0.3006737E-03  0.1494411E+04  0.7818609E-02  0.8888178E-01
       -2   -1    0    0    0  501  0.00000000000E+00  0.00000000000E+00  0.28686218872E+03  0.28686218873E+03  0.25500000920E-02 0. -1.
        2   -1    0    0  501    0  0.00000000000E+00  0.00000000000E+00 -0.19462858560E+04  0.19462858560E+04  0.25500000920E-02 0.  1.
    10030    2    1    2    0    0  0.00000000000E+00  0.00000000000E+00 -0.16594236673E+04  0.22331480447E+04  0.14944106806E+04 0.  0.
        1    1    3    3  502    0  0.30460992975E+03 -0.34218932970E+03  0.52369201863E+02  0.46111091940E+03  0.50400001928E-02 0. -1.
       -1    1    3    3    0  502 -0.30460992975E+03  0.34218932970E+03 -0.17117928691E+04  0.17720371253E+04  0.50400001928E-02 0.  1.
</event>
<event>
 5   0  0.2917809E-03  0.1293621E+04  0.7818609E-02  0.9034639E-01
       -2   -1    0    0    0  501  0.00000000000E+00  0.00000000000E+00  0.36520701002E+03  0.36520701003E+03  0.25500000920E-02 0.  1.
        2   -1    0    0  501    0  0.00000000000E+00  0.00000000000E+00 -0.11455524934E+04  0.11455524934E+04  0.25500000920E-02 0. -1.
    10030    2    1    2    0    0  0.00000000000E+00  0.00000000000E+00 -0.78034548340E+03  0.15107595034E+04  0.12936209660E+04 0.  0.
        2    1    3    3  502    0  0.51144259907E+02  0.47043302239E+03  0.12479737760E+03  0.48938466398E+03  0.25500000920E-02 0.  1.
       -2    1    3    3    0  502 -0.51144259907E+02 -0.47043302239E+03 -0.90514286100E+03  0.10213748395E+04  0.25500000920E-02 0. -1.
</event>
<event>
 5   0  0.1104538E-03  0.1394472E+04  0.7818609E-02  0.8957829E-01
       -4   -1    0    0    0  501  0.00000000000E+00  0.00000000000E+00  0.68492482212E+03  0.68492599955E+03  0.12699999809E+01 0. -1.
        4   -1    0    0  501    0  0.00000000000E+00  0.00000000000E+00 -0.70976653992E+03  0.70976767614E+03  0.12699999809E+01 0.  1.
    10030    2    1    2    0    0  0.00000000000E+00  0.00000000000E+00 -0.24841717796E+02  0.13946936757E+04  0.13944724228E+04 0.  0.
        3    1    3    3  502    0  0.34329045887E+03 -0.19373248161E+03  0.56278578038E+03  0.68710149060E+03  0.10100000352E+00 0. -1.
       -3    1    3    3    0  502 -0.34329045887E+03  0.19373248161E+03 -0.58762749818E+03  0.70759218509E+03  0.10100000352E+00 0.  1.
</event>
<event>
 5   0  0.1644571E-03  0.1335282E+04  0.7818609E-02  0.9002045E-01
        1   -1    0    0  501    0  0.00000000000E+00  0.00000000000E+00  0.18852706228E+04  0.18852706228E+04  0.50400001928E-02 0. -1.
       -1   -1    0    0    0  501  0.00000000000E+00  0.00000000000E+00 -0.23643518562E+03  0.23643518567E+03  0.50400001928E-02 0.  1.
    10030    2    1    2    0    0  0.00000000000E+00  0.00000000000E+00  0.16488354371E+04  0.21217058084E+04  0.13352817076E+04 0.  0.
        4    1    3    3  502    0  0.21852904678E+03 -0.61524271870E+03  0.10460994898E+04  0.12331278533E+04  0.12699999809E+01 0. -1.
       -4    1    3    3    0  502 -0.21852904678E+03  0.61524271870E+03  0.60273594737E+03  0.88857795513E+03  0.12699999809E+01 0.  1.
</event>
<event>
 5   0  0.2889469E-03  0.1368067E+04  0.7818609E-02  0.8977263E-01
       -2   -1    0    0    0  501  0.00000000000E+00  0.00000000000E+00  0.29796178882E+03  0.29796178883E+03  0.25500000920E-02 0. -1.
        2   -1    0    0  501    0  0.00000000000E+00  0.00000000000E+00 -0.15703419890E+04  0.15703419890E+04  0.25500000920E-02 0.  1.
    10030    2    1    2    0    0  0.00000000000E+00  0.00000000000E+00 -0.12723802002E+04  0.18683037778E+04  0.13680671155E+04 0.  0.
        5    1    3    3  502    0  0.29157599208E+03 -0.17461383419E+02 -0.14808637302E+04  0.15094041660E+04  0.46999998093E+01 0.  1.
       -5    1    3    3    0  502 -0.29157599208E+03  0.17461383419E+02  0.20848353000E+03  0.35889961180E+03  0.46999998093E+01 0. -1.
</event>
<event>
 5   0  0.1104538E-03  0.1401583E+04  0.7818609E-02  0.8952673E-01
        4   -1    0    0  501    0  0.00000000000E+00  0.00000000000E+00  0.52337970075E+03  0.52338124159E+03  0.12699999809E+01 0.  1.
       -4   -1    0    0    0  501  0.00000000000E+00  0.00000000000E+00 -0.93833817668E+03  0.93833903613E+03  0.12699999809E+01 0. -1.
    10030    2    1    2    0    0  0.00000000000E+00  0.00000000000E+00 -0.41495847594E+03  0.14617202777E+04  0.14015832596E+04 0.  0.
        4    1    3    3  502    0  0.22284874438E+03  0.61065468519E+03 -0.48052679256E+03  0.80837387308E+03  0.12699999809E+01 0. -1.
       -4    1    3    3    0  502 -0.22284874438E+03 -0.61065468519E+03  0.65568316623E+02  0.65334640464E+03  0.12699999809E+01 0.  1.
</event>
<event>
 5   0  0.1560957E-03  0.1439233E+04  0.7818609E-02  0.8925899E-01
       -1   -1    0    0    0  501  0.00000000000E+00  0.00000000000E+00  0.41369786648E+03  0.41369786651E+03  0.50400001928E-02 0. -1.
        1   -1    0    0  501    0  0.00000000000E+00  0.00000000000E+00 -0.12517534534E+04  0.12517534534E+04  0.50400001928E-02 0.  1.
    10030    2    1    2    0    0  0.00000000000E+00  0.00000000000E+00 -0.83805558687E+03  0.16654513199E+04  0.14392327582E+04 0.  0.
        5    1    3    3  502    0  0.66501448024E+03 -0.67880182157E+02 -0.72731075595E+03  0.98785373602E+03  0.46999998093E+01 0.  1.
       -5    1    3    3    0  502 -0.66501448024E+03  0.67880182157E+02 -0.11074483093E+03  0.67759758385E+03  0.46999998093E+01 0. -1.
</event>
<event>
 5   0  0.1644571E-03  0.1423412E+04  0.7818609E-02  0.8937044E-01
        1   -1    0    0  501    0  0.00000000000E+00  0.00000000000E+00  0.11006116733E+04  0.11006116733E+04  0.50400001928E-02 0.  1.
       -1   -1    0    0    0  501  0.00000000000E+00  0.00000000000E+00 -0.46022183030E+03  0.46022183033E+03  0.50400001928E-02 0. -1.
    10030    2    1    2    0    0  0.00000000000E+00  0.00000000000E+00  0.64038984303E+03  0.15608335037E+04  0.14234121241E+04 0.  0.
        4    1    3    3  502    0 -0.28360928669E+03  0.64226571070E+03  0.44799958813E+03  0.83285335715E+03  0.12699999809E+01 0. -1.
       -4    1    3    3    0  502  0.28360928669E+03 -0.64226571070E+03  0.19239025490E+03  0.72798014652E+03  0.12699999809E+01 0.  1.
</event>
<event>
 5   0  0.1631380E-03  0.1348658E+04  0.7818609E-02  0.8991844E-01
       -1   -1    0    0    0  501  0.00000000000E+00  0.00000000000E+00  0.31759278277E+03  0.31759278281E+03  0.50400001928E-02 0. -1.
        1   -1    0    0  501    0  0.00000000000E+00  0.00000000000E+00 -0.14317702731E+04  0.14317702732E+04  0.50400001928E-02 0.  1.
    10030    2    1    2    0    0  0.00000000000E+00  0.00000000000E+00 -0.11141774904E+04  0.17493630560E+04  0.13486584525E+04 0.  0.
        3    1    3    3  502    0  0.36163825976E+03 -0.34415934287E+03  0.30908705457E+02  0.50018320891E+03  0.10100000352E+00 0. -1.
       -3    1    3    3    0  502 -0.36163825976E+03  0.34415934287E+03 -0.11450861958E+04  0.12491798471E+04  0.10100000352E+00 0.  1.
</event>
<event>
 5   0  0.1560957E-03  0.1394817E+04  0.7818609E-02  0.8957579E-01
       -1   -1    0    0    0  501  0.00000000000E+00  0.00000000000E+00  0.12771326752E+04  0.12771326752E+04  0.50400001928E-02 0. -1.
        1   -1    0    0  501    0  0.00000000000E+00  0.00000000000E+00 -0.38083635582E+03  0.38083635585E+03  0.50400001928E-02 0.  1.
    10030    2    1    2    0    0  0.00000000000E+00  0.00000000000E+00  0.89629631941E+03  0.16579690311E+04  0.13948169112E+04 0.  0.
        5    1    3    3  502    0 -0.56381272784E+03  0.24397981767E+03  0.84048934420E+03  0.10410837484E+04  0.46999998093E+01 0.  1.
       -5    1    3    3    0  502  0.56381272784E+03 -0.24397981767E+03  0.55806975213E+02  0.61688528268E+03  0.46999998093E+01 0. -1.
</event>
<event>
 5   0  0.1586022E-03  0.1428535E+04  0.7818609E-02  0.8933419E-01
       -1   -1    0    0    0  501  0.00000000000E+00  0.00000000000E+00  0.78899073252E+03  0.78899073254E+03  0.50400001928E-02 0. -1.
        1   -1    0    0  501    0  0.00000000000E+00  0.00000000000E+00 -0.64662109315E+03  0.64662109317E+03  0.50400001928E-02 0.  1.
    10030    2    1    2    0    0  0.00000000000E+00  0.00000000000E+00  0.14236963937E+03  0.14356118257E+04  0.14285349838E+04 0.  0.
        1    1    3    3  502    0 -0.34509048584E+03  0.58894951354E+03 -0.14016412569E+03  0.69684643579E+03  0.50400001928E-02 0.  1.
       -1    1    3    3    0  502  0.34509048584E+03 -0.58894951354E+03  0.28253376506E+03  0.73876538992E+03  0.50400001928E-02 0. -1.
</event>
<event>
 5   0  0.1104538E-03  0.1423222E+04  0.7818609E-02  0.8937179E-01
        3   -1    0    0  501    0  0.00000000000E+00  0.00000000000E+00  0.61537286318E+03  0.61537287147E+03  0.10100000352E+00 0. -1.
       -3   -1    0    0    0  501  0.00000000000E+00  0.00000000000E+00 -0.82289992533E+03  0.82289993152E+03  0.10100000352E+00 0.  1.
    10030    2    1    2    0    0  0.00000000000E+00  0.00000000000E+00 -0.20752706215E+03  0.14382728030E+04  0.14232221100E+04 0.  0.
        4    1    3    3  502    0 -0.61316096649E+03  0.34072088735E+03  0.17217066414E+02  0.70168022217E+03  0.12699999809E+01 0.  1.
       -4    1    3    3    0  502  0.61316096649E+03 -0.34072088735E+03 -0.22474412856E+03  0.73659258083E+03  0.12699999809E+01 0. -1.
</event>
<event>
 5   0  0.3006737E-03  0.1385171E+04  0.7818609E-02  0.8964623E-01
        2   -1    0    0  501    0  0.00000000000E+00  0.00000000000E+00  0.26299970938E+03  0.26299970939E+03  0.25500000920E-02 0. -1.
       -2   -1    0    0    0  501  0.00000000000E+00  0.00000000000E+00 -0.18238605310E+04  0.18238605310E+04  0.25500000920E-02 0.  1.
    10030    2    1    2    0    0  0.00000000000E+00  0.00000000000E+00 -0.15608608216E+04  0.20868602404E+04  0.13851711658E+04 0.  0.
        1    1    3    3  502    0 -0.37734319753E+02  0.70276205822E+02  0.25605634229E+03  0.26819297986E+03  0.50400001928E-02 0. -1.
       -1    1    3    3    0  502  0.37734319753E+02 -0.70276205822E+02 -0.18169171639E+04  0.18186672605E+04  0.50400001928E-02 0.  1.
</event>
<event>
 5   0  0.1586022E-03  0.1398526E+04  0.7818609E-02  0.8954886E-01
        1   -1    0    0  501    0  0.00000000000E+00  0.00000000000E+00  0.90232747955E+03  0.90232747957E+03  0.50400001928E-02 0. -1.
       -1   -1    0    0    0  501  0.00000000000E+00  0.00000000000E+00 -0.54189712295E+03  0.54189712298E+03  0.50400001928E-02 0.  1.
    10030    2    1    2    0    0  0.00000000000E+00  0.00000000000E+00  0.36043035660E+03  0.14442246025E+04  0.13985258884E+04 0.  0.
        1    1    3    3  502    0  0.64930361702E+03  0.11294143077E+03 -0.61125749239E+02  0.66188164434E+03  0.50400001928E-02 0. -1.
       -1    1    3    3    0  502 -0.64930361702E+03 -0.11294143077E+03  0.42155610584E+03  0.78234295821E+03  0.50400001928E-02 0.  1.
</event>
<event>
 5   0  0.2760807E-03  0.1458806E+04  0.7818609E-02  0.8912318E-01
       -2   -1    0    0    0  501  0.00000000000E+00  0.00000000000E+00  0.41949635820E+03  0.41949635821E+03  0.25500000920E-02 0. -1.
        2   -1    0    0  501    0  0.00000000000E+00  0.00000000000E+00 -0.12682562228E+04  0.12682562228E+04  0.25500000920E-02 0.  1.
    10030    2    1    2    0    0  0.00000000000E+00  0.00000000000E+00 -0.84875986456E+03  0.16877525810E+04  0.14588061787E+04 0.  0.
        4    1    3    3  502    0 -0.62270669075E+03  0.32778104955E+03 -0.20237018798E+03  0.73222902498E+03  0.12699999809E+01 0. -1.
       -4    1    3    3    0  502  0.62270669075E+03 -0.32778104955E+03 -0.64638967658E+03  0.95552355598E+03  0.12699999809E+01 0.  1.
</event>
<event>
 5   0  0.2889469E-03  0.1347454E+04  0.7818609E-02  0.8992758E-01
       -2   -1    0    0    0  501  0.00000000000E+00  0.00000000000E+00  0.60483147803E+03  0.60483147803E+03  0.25500000920E-02 0.  1.
        2   -1    0    0  501    0  0.00000000000E+00  0.00000000000E+00 -0.75047028755E+03  0.75047028755E+03  0.25500000920E-02 0. -1.
    10030    2    1    2    0    0  0.00000000000E+00  0.00000000000E+00 -0.14563880952E+03  0.13553017656E+04  0.13474539743E+04 0.  0.
        5    1    3    3  502    0  0.63254350367E+03  0.23068446112E+03 -0.49030895509E+02  0.67509460326E+03  0.46999998093E+01 0. -1.
       -5    1    3    3    0  502 -0.63254350367E+03 -0.23068446112E+03 -0.96607914011E+02  0.68020716233E+03  0.46999998093E+01 0.  1.
</event>
<event>
 5   0  0.1700207E-03  0.1472567E+04  0.7818609E-02  0.8902904E-01
       -1   -1    0    0    0  501  0.00000000000E+00  0.00000000000E+00  0.60740794014E+03  0.60740794016E+03  0.50400001928E-02 0. -1.
        1   -1    0    0  501    0  0.00000000000E+00  0.00000000000E+00 -0.89250236894E+03  0.89250236896E+03  0.50400001928E-02 0.  1.
    10030    2    1    2    0    0  0.00000000000E+00  0.00000000000E+00 -0.28509442881E+03  0.14999103091E+04  0.14725665017E+04 0.  0.
        2    1    3    3  502    0  0.36220708881E+03 -0.22813996687E+02  0.50997198354E+03  0.62592801314E+03  0.25500000920E-02 0. -1.
       -2    1    3    3    0  502 -0.36220708881E+03  0.22813996687E+02 -0.79506641235E+03  0.87398229598E+03  0.25500000920E-02 0.  1.
</event>
<event>
 5   0  0.1586022E-03  0.1182486E+04  0.7818609E-02  0.9128326E-01
       -1   -1    0    0    0  501  0.00000000000E+00  0.00000000000E+00  0.50859619876E+03  0.50859619879E+03  0.50400001928E-02 0.  1.
        1   -1    0    0  501    0  0.00000000000E+00  0.00000000000E+00 -0.68731951126E+03  0.68731951128E+03  0.50400001928E-02 0. -1.
    10030    2    1    2    0    0  0.00000000000E+00  0.00000000000E+00 -0.17872331249E+03  0.11959157101E+04  0.11824856714E+04 0.  0.
        1    1    3    3  502    0 -0.47426738366E+03 -0.38343797469E+02  0.26557768986E+03  0.54491403670E+03  0.50400001928E-02 0.  1.
       -1    1    3    3    0  502  0.47426738366E+03  0.38343797469E+02 -0.44430100235E+03  0.65100167337E+03  0.50400001928E-02 0. -1.
</event>
<event>
 5   0  0.2917809E-03  0.1357110E+04  0.7818609E-02  0.8985464E-01
       -2   -1    0    0    0  501  0.00000000000E+00  0.00000000000E+00  0.10910342410E+04  0.10910342410E+04  0.25500000920E-02 0.  1.
        2   -1    0    0  501    0  0.00000000000E+00  0.00000000000E+00 -0.42201852324E+03  0.42201852325E+03  0.25500000920E-02 0. -1.
    10030    2    1    2    0    0  0.00000000000E+00  0.00000000000E+00  0.66901571776E+03  0.15130527643E+04  0.13571096628E+04 0.  0.
        2    1    3    3  502    0  0.40532889397E+03 -0.35070470839E+03 -0.12942173524E+03  0.55139395202E+03  0.25500000920E-02 0. -1.
       -2    1    3    3    0  502 -0.40532889397E+03  0.35070470839E+03  0.79843745301E+03  0.96165881223E+03  0.25500000920E-02 0.  1.
</event>
<event>
 5   0  0.1631380E-03  0.1249782E+04  0.7818609E-02  0.9070364E-01
        1   -1    0    0  501    0  0.00000000000E+00  0.00000000000E+00  0.57995112320E+03  0.57995112322E+03  0.50400001928E-02 0.  1.
       -1   -1    0    0    0  501  0.00000000000E+00  0.00000000000E+00 -0.67331369425E+03  0.67331369427E+03  0.50400001928E-02 0. -1.
    10030    2    1    2    0    0  0.00000000000E+00  0.00000000000E+00 -0.93362571049E+02  0.12532648175E+04  0.12497824343E+04 0.  0.
        3    1    3    3  502    0  0.12329489240E+03  0.58123722977E+03 -0.24074228254E+03  0.64108907693E+03  0.10100000352E+00 0. -1.
       -3    1    3    3    0  502 -0.12329489240E+03 -0.58123722977E+03  0.14737971149E+03  0.61217574055E+03  0.10100000352E+00 0.  1.
</event>
<event>
 5   0  0.1631380E-03  0.1443223E+04  0.7818609E-02  0.8923112E-01
        1   -1    0    0  501    0  0.00000000000E+00  0.00000000000E+00  0.22408664032E+04  0.22408664032E+04  0.50400001928E-02 0.  1.
       -1   -1    0    0    0  501  0.00000000000E+00  0.00000000000E+00 -0.23237585113E+03  0.23237585118E+03  0.50400001928E-02 0. -1.
    10030    2    1    2    0    0  0.00000000000E+00  0.00000000000E+00  0.20084905520E+04  0.24732422544E+04  0.14432231120E+04 0.  0.
        3    1    3    3  502    0  0.66769886249E+03  0.23830873828E+03  0.77362513882E+03  0.10493372629E+04  0.10100000352E+00 0.  1.
       -3    1    3    3    0  502 -0.66769886249E+03 -0.23830873828E+03  0.12348654132E+04  0.14239049915E+04  0.10100000352E+00 0. -1.
</event>
<event>
 5   0  0.2917809E-03  0.1388504E+04  0.7818609E-02  0.8962182E-01
       -2   -1    0    0    0  501  0.00000000000E+00  0.00000000000E+00  0.28519829736E+03  0.28519829737E+03  0.25500000920E-02 0. -1.
        2   -1    0    0  501    0  0.00000000000E+00  0.00000000000E+00 -0.16900028752E+04  0.16900028752E+04  0.25500000920E-02 0.  1.
    10030    2    1    2    0    0  0.00000000000E+00  0.00000000000E+00 -0.14048045778E+04  0.19752011725E+04  0.13885041484E+04 0.  0.
        2    1    3    3  502    0  0.51506178679E+03 -0.54000098714E+02 -0.13601343279E+04  0.14553934330E+04  0.25500000920E-02 0. -1.
       -2    1    3    3    0  502 -0.51506178679E+03  0.54000098714E+02 -0.44670249931E+02  0.51980773956E+03  0.25500000920E-02 0.  1.
</event>
<event>
 5   0  0.1560957E-03  0.1357124E+04  0.7818609E-02  0.8985453E-01
       -1   -1    0    0    0  501  0.00000000000E+00  0.00000000000E+00  0.37629107316E+03  0.37629107319E+03  0.50400001928E-02 0.  1.
        1   -1    0    0  501    0  0.00000000000E+00  0.00000000000E+00 -0.12236438537E+04  0.12236438537E+04  0.50400001928E-02 0. -1.
    10030    2    1    2    0    0  0.00000000000E+00  0.00000000000E+00 -0.84735278051E+03  0.15999349269E+04  0.13571238100E+04 0.  0.
        5    1    3    3  502    0  0.21403013481E+03  0.58214566607E+02  0.33232624360E+03  0.39957559554E+03  0.46999998093E+01 0.  1.
       -5    1    3    3    0  502 -0.21403013481E+03 -0.58214566607E+02 -0.11796790241E+04  0.12003593313E+04  0.46999998093E+01 0. -1.
</event>
<event>
 5   0  0.2993993E-03  0.1207548E+04  0.7818609E-02  0.9106275E-01
        2   -1    0    0  501    0  0.00000000000E+00  0.00000000000E+00  0.66240719757E+03  0.66240719758E+03  0.25500000920E-02 0.  1.
       -2   -1    0    0    0  501  0.00000000000E+00  0.00000000000E+00 -0.55033107472E+03  0.55033107473E+03  0.25500000920E-02 0. -1.
    10030    2    1    2    0    0  0.00000000000E+00  0.00000000000E+00  0.11207612285E+03  0.12127382723E+04  0.12075483675E+04 0.  0.
        3    1    3    3  502    0 -0.41754255663E+03 -0.40303406430E+03 -0.11130645066E+03  0.59090386675E+03  0.10100000352E+00 0.  1.
       -3    1    3    3    0  502  0.41754255663E+03  0.40303406430E+03  0.22338257351E+03  0.62183440555E+03  0.10100000352E+00 0. -1.
</event>
<event>
 5   0  0.2993993E-03  0.1392580E+04  0.7818609E-02  0.8959207E-01
        2   -1    0    0  501    0  0.00000000000E+00  0.00000000000E+00  0.12135771880E+04  0.12135771880E+04  0.25500000920E-02 0. -1.
       -2   -1    0    0    0  501  0.00000000000E+00  0.00000000000E+00 -0.39949631484E+03  0.39949631485E+03  0.25500000920E-02 0.  1.
    10030    2    1    2    0    0  0.00000000000E+00  0.00000000000E+00  0.81408087318E+03  0.16130735029E+04  0.13925797850E+04 0.  0.
        3    1    3    3  502    0  0.40336944421E+02 -0.66826153645E+03  0.62870059087E+03  0.91840350247E+03  0.10100000352E+00 0. -1.
       -3    1    3    3    0  502 -0.40336944421E+02  0.66826153645E+03  0.18538028231E+03  0.69467000040E+03  0.10100000352E+00 0.  1.
</event>
<event>
 5   0  0.2917809E-03  0.1419979E+04  0.7818609E-02  0.8939482E-01
       -2   -1    0    0    0  501  0.00000000000E+00  0.00000000000E+00  0.27767209065E+03  0.27767209066E+03  0.25500000920E-02 0. -1.
        2   -1    0    0  501    0  0.00000000000E+00  0.00000000000E+00 -0.18153973653E+04  0.18153973653E+04  0.25500000920E-02 0.  1.
    10030    2    1    2    0    0  0.00000000000E+00  0.00000000000E+00 -0.15377252747E+04  0.20930694560E+04  0.14199791291E+04 0.  0.
        2    1    3    3  502    0  0.59655279287E+03 -0.34670335953E+03 -0.10155420256E+04  0.12277638453E+04  0.25500000920E-02 0.  1.
       -2    1    3    3    0  502 -0.59655279287E+03  0.34670335953E+03 -0.52218324910E+03  0.86530561066E+03  0.25500000920E-02 0. -1.
</event>
<event>
 5   0  0.1644571E-03  0.1358576E+04  0.7818609E-02  0.8984362E-01
        1   -1    0    0  501    0  0.00000000000E+00  0.00000000000E+00  0.89561670234E+03  0.89561670235E+03  0.50400001928E-02 0.  1.
       -1   -1    0    0    0  501  0.00000000000E+00  0.00000000000E+00 -0.51521160772E+03  0.51521160774E+03  0.50400001928E-02 0. -1.
    10030    2    1    2    0    0  0.00000000000E+00  0.00000000000E+00  0.38040509462E+03  0.14108283101E+04  0.13585759031E+04 0.  0.
        4    1    3    3  502    0  0.59228835320E+03 -0.49235611800E+02 -0.15138783450E+03  0.61331030330E+03  0.12699999809E+01 0. -1.
       -4    1    3    3    0  502 -0.59228835320E+03  0.49235611800E+02  0.53179292912E+03  0.79751800679E+03  0.12699999809E+01 0.  1.
</event>
<event>
 5   0  0.3006737E-03  0.1355096E+04  0.7818609E-02  0.8986980E-01
       -2   -1    0    0    0  501  0.00000000000E+00  0.00000000000E+00  0.53134078156E+03  0.53134078157E+03  0.25500000920E-02 0. -1.
        2   -1    0    0  501    0  0.00000000000E+00  0.00000000000E+00 -0.86398614859E+03  0.86398614859E+03  0.25500000920E-02 0.  1.
    10030    2    1    2    0    0  0.00000000000E+00  0.00000000000E+00 -0.33264536702E+03  0.13953269302E+04  0.13550956800E+04 0.  0.
        1    1    3    3  502    0  0.52783498566E+03 -0.41574889670E+02  0.26899687877E+03  0.59388346024E+03  0.50400001928E-02 0. -1.
       -1    1    3    3    0  502 -0.52783498566E+03  0.41574889670E+02 -0.60164224579E+03  0.80144346992E+03  0.50400001928E-02 0.  1.
</event>
<event>
 5   0  0.2917809E-03  0.1367603E+04  0.7818609E-02  0.8977609E-01
       -2   -1    0    0    0  501  0.00000000000E+00  0.00000000000E+00  0.39137866499E+03  0.39137866500E+03  0.25500000920E-02 0. -1.
        2   -1    0    0  501    0  0.00000000000E+00  0.00000000000E+00 -0.11947110639E+04  0.11947110639E+04  0.25500000920E-02 0.  1.
    10030    2    1    2    0    0  0.00000000000E+00  0.00000000000E+00 -0.80333239889E+03  0.15860897289E+04  0.13676028974E+04 0.  0.
        2    1    3    3  502    0 -0.42783961367E+03  0.51898021509E+03 -0.54463782411E+03  0.86545800483E+03  0.25500000920E-02 0.  1.
       -2    1    3    3    0  502  0.42783961367E+03 -0.51898021509E+03 -0.25869457478E+03  0.72063172405E+03  0.25500000920E-02 0. -1.
</event>
<event>
 5   0  0.2760807E-03  0.1421931E+04  0.7818609E-02  0.8938095E-01
       -2   -1    0    0    0  501  0.00000000000E+00  0.00000000000E+00  0.30122752674E+03  0.30122752675E+03  0.25500000920E-02 0.  1.
        2   -1    0    0  501    0  0.00000000000E+00  0.00000000000E+00 -0.16780394260E+04  0.16780394260E+04  0.25500000920E-02 0. -1.
    10030    2    1    2    0    0  0.00000000000E+00  0.00000000000E+00 -0.13768118992E+04  0.19792669527E+04  0.14219306116E+04 0.  0.
        4    1    3    3  502    0 -0.63178263380E+03 -0.11015490982E+02 -0.11420205591E+04  0.13051755467E+04  0.12699999809E+01 0. -1.
       -4    1    3    3    0  502  0.63178263380E+03  0.11015490982E+02 -0.23479134018E+03  0.67409140606E+03  0.12699999809E+01 0.  1.
</event>
<event>
 5   0  0.2993993E-03  0.1431363E+04  0.7818609E-02  0.8931424E-01
       -2   -1    0    0    0  501  0.00000000000E+00  0.00000000000E+00  0.75383550162E+03  0.75383550162E+03  0.25500000920E-02 0.  1.
        2   -1    0    0  501    0  0.00000000000E+00  0.00000000000E+00 -0.67945817575E+03  0.67945817576E+03  0.25500000920E-02 0. -1.
    10030    2    1    2    0    0  0.00000000000E+00  0.00000000000E+00  0.74377325866E+02  0.14332936774E+04  0.14313625603E+04 0.  0.
        3    1    3    3  502    0 -0.44160969672E+02 -0.65818218243E+03  0.31513423332E+03  0.73107015513E+03  0.10100000352E+00 0.  1.
       -3    1    3    3    0  502  0.44160969672E+02  0.65818218243E+03 -0.24075690746E+03  0.70222352225E+03  0.10100000352E+00 0. -1.
</event>
<event>
 5   0  0.1700207E-03  0.1402011E+04  0.7818609E-02  0.8952364E-01
        1   -1    0    0  501    0  0.00000000000E+00  0.00000000000E+00  0.64092135756E+03  0.64092135758E+03  0.50400001928E-02 0.  1.
       -1   -1    0    0    0  501  0.00000000000E+00  0.00000000000E+00 -0.76672255000E+03  0.76672255002E+03  0.50400001928E-02 0. -1.
    10030    2    1    2    0    0  0.00000000000E+00  0.00000000000E+00 -0.12580119244E+03  0.14076439076E+04  0.14020112091E+04 0.  0.
        2    1    3    3  502    0  0.47476350704E+03  0.46890669157E+03  0.15275290290E+03  0.68454899194E+03  0.25500000920E-02 0.  1.
       -2    1    3    3    0  502 -0.47476350704E+03 -0.46890669157E+03 -0.27855409535E+03  0.72309491566E+03  0.25500000920E-02 0. -1.
</event>
<event>
 5   0  0.3006737E-03  0.1320617E+04  0.7818609E-02  0.9013373E-01
        2   -1    0    0  501    0  0.00000000000E+00  0.00000000000E+00  0.95646002919E+03  0.95646002919E+03  0.25500000920E-02 0.  1.
       -2   -1    0    0    0  501  0.00000000000E+00  0.00000000000E+00 -0.45585534129E+03  0.45585534130E+03  0.25500000920E-02 0. -1.
    10030    2    1    2    0    0  0.00000000000E+00  0.00000000000E+00  0.50060468790E+03  0.14123153705E+04  0.13206171482E+04 0.  0.
        1    1    3    3  502    0 -0.20711379147E+03  0.11451180844E+02  0.92071169975E+03  0.94378879324E+03  0.50400001928E-02 0.  1.
       -1    1    3    3    0  502  0.20711379147E+03 -0.11451180844E+02 -0.42010701185E+03  0.46852657725E+03  0.50400001928E-02 0. -1.
</event>
<event>
 5   0  0.2760807E-03  0.1183177E+04  0.7818609E-02  0.9127711E-01
       -2   -1    0    0    0  501  0.00000000000E+00  0.00000000000E+00  0.15134794023E+03  0.15134794026E+03  0.25500000920E-02 0.  1.
        2   -1    0    0  501    0  0.00000000000E+00  0.00000000000E+00 -0.23123993533E+04  0.23123993533E+04  0.25500000920E-02 0. -1.
    10030    2    1    2    0    0  0.00000000000E+00  0.00000000000E+00 -0.21610514130E+04  0.24637472935E+04  0.11831768746E+04 0.  0.
        4    1    3    3  502    0  0.29914863476E+03 -0.12929818265E+03 -0.52428338997E+02  0.33008827508E+03  0.12699999809E+01 0.  1.
       -4    1    3    3    0  502 -0.29914863476E+03  0.12929818265E+03 -0.21086230740E+04  0.21336590184E+04  0.12699999809E+01 0. -1.
</event>
<event>
 5   0  0.1586022E-03  0.1373122E+04  0.7818609E-02  0.8973507E-01
       -1   -1    0    0    0  501  0.00000000000E+00  0.00000000000E+00  0.43778748009E+03  0.43778748012E+03  0.50400001928E-02 0.  1.
        1   -1    0    0  501    0  0.00000000000E+00  0.00000000000E+00 -0.10767006937E+04  0.10767006937E+04  0.50400001928E-02 0. -1.
    10030    2    1    2    0    0  0.00000000000E+00  0.00000000000E+00 -0.63891321363E+03  0.15144881739E+04  0.13731221119E+04 0.  0.
        1    1    3    3  502    0  0.54126623246E+03  0.33855803517E+03 -0.59799389397E+03  0.87474989273E+03  0.50400001928E-02 0. -1.
       -1    1    3    3    0  502 -0.54126623246E+03 -0.33855803517E+03 -0.40919319662E+02  0.63973828112E+03  0.50400001928E-02 0.  1.
</event>
<event>
 5   0  0.1700207E-03  0.1413198E+04  0.7818609E-02  0.8944321E-01
       -1   -1    0    0    0  501  0.00000000000E+00  0.00000000000E+00  0.27025472613E+03  0.27025472618E+03  0.50400001928E-02 0.  1.
        1   -1    0    0  501    0  0.00000000000E+00  0.00000000000E+00 -0.18474490252E+04  0.18474490252E+04  0.50400001928E-02 0. -1.
    10030    2    1    2    0    0  0.00000000000E+00  0.00000000000E+00 -0.15771942990E+04  0.21177037514E+04  0.14131975522E+04 0.  0.
        2    1    3    3  502    0  0.34621167742E+03 -0.55124513832E+03 -0.37671392007E+03  0.75209514404E+03  0.25500000920E-02 0.  1.
       -2    1    3    3    0  502 -0.34621167742E+03  0.55124513832E+03 -0.12004803790E+04  0.13656086073E+04  0.25500000920E-02 0. -1.
</event>
<event>
 5   0  0.1560957E-03  0.1370762E+04  0.7818609E-02  0.8975259E-01
        1   -1    0    0  501    0  0.00000000000E+00  0.00000000000E+00  0.97779146517E+03  0.97779146518E+03  0.50400001928E-02 0.  1.
       -1   -1    0    0    0  501  0.00000000000E+00  0.00000000000E+00 -0.48041620970E+03  0.48041620973E+03  0.50400001928E-02 0. -1.
    10030    2    1    2    0    0  0.00000000000E+00  0.00000000000E+00  0.49737525547E+03  0.14582076749E+04  0.13707616417E+04 0.  0.
        5    1    3    3  502    0  0.78607665407E+02  0.28957202980E+03  0.90418975602E+03  0.95268690050E+03  0.46999998093E+01 0.  1.
       -5    1    3    3    0  502 -0.78607665407E+02 -0.28957202980E+03 -0.40681450054E+03  0.50552077441E+03  0.46999998093E+01 0. -1.
</event>
<event>
 5   0  0.1104538E-03  0.1413740E+04  0.7818609E-02  0.8943933E-01
       -3   -1    0    0    0  501  0.00000000000E+00  0.00000000000E+00  0.41237465871E+03  0.41237467108E+03  0.10100000352E+00 0.  1.
        3   -1    0    0  501    0  0.00000000000E+00  0.00000000000E+00 -0.12116768654E+04  0.12116768696E+04  0.10100000352E+00 0. -1.
    10030    2    1    2    0    0  0.00000000000E+00  0.00000000000E+00 -0.79930220671E+03  0.16240515407E+04  0.14137395054E+04 0.  0.
        4    1    3    3  502    0 -0.35446676486E+03  0.45124445105E+03  0.74545924435E+02  0.57864233317E+03  0.12699999809E+01 0.  1.
       -4    1    3    3    0  502  0.35446676486E+03 -0.45124445105E+03 -0.87384813115E+03  0.10454092075E+04  0.12699999809E+01 0. -1.
</event>
<event>
 5   0  0.1631380E-03  0.1381014E+04  0.7818609E-02  0.8967677E-01
       -1   -1    0    0    0  501  0.00000000000E+00  0.00000000000E+00  0.40204633181E+03  0.40204633185E+03  0.50400001928E-02 0.  1.
        1   -1    0    0  501    0  0.00000000000E+00  0.00000000000E+00 -0.11859326685E+04  0.11859326685E+04  0.50400001928E-02 0. -1.
    10030    2    1    2    0    0  0.00000000000E+00  0.00000000000E+00 -0.78388633668E+03  0.15879790004E+04  0.13810139452E+04 0.  0.
        3    1    3    3  502    0 -0.13383923823E+03  0.66191381627E+03 -0.22627873956E+03  0.71221128890E+03  0.10100000352E+00 0.  1.
       -3    1    3    3    0  502  0.13383923823E+03 -0.66191381627E+03 -0.55760759713E+03  0.87576771146E+03  0.10100000352E+00 0. -1.
</event>
<event>
 5   0  0.2760807E-03  0.1227009E+04  0.7818609E-02  0.9089539E-01
        2   -1    0    0  501    0  0.00000000000E+00  0.00000000000E+00  0.10601866036E+04  0.10601866036E+04  0.25500000920E-02 0. -1.
       -2   -1    0    0    0  501  0.00000000000E+00  0.00000000000E+00 -0.35502019723E+03  0.35502019723E+03  0.25500000920E-02 0.  1.
    10030    2    1    2    0    0  0.00000000000E+00  0.00000000000E+00  0.70516640633E+03  0.14152068008E+04  0.12270088135E+04 0.  0.
        4    1    3    3  502    0 -0.14622965014E+03 -0.48700186863E+03  0.74850011978E+03  0.90488008755E+03  0.12699999809E+01 0. -1.
       -4    1    3    3    0  502  0.14622965014E+03  0.48700186863E+03 -0.43333713455E+02  0.51032671324E+03  0.12699999809E+01 0.  1.
</event>
<event>
 5   0  0.1586022E-03  0.1457276E+04  0.7818609E-02  0.8913372E-01
       -1   -1    0    0    0  501  0.00000000000E+00  0.00000000000E+00  0.44038061742E+03  0.44038061745E+03  0.50400001928E-02 0. -1.
        1   -1    0    0  501    0  0.00000000000E+00  0.00000000000E+00 -0.12055784459E+04  0.12055784459E+04  0.50400001928E-02 0.  1.
    10030    2    1    2    0    0  0.00000000000E+00  0.00000000000E+00 -0.76519782843E+03  0.16459590633E+04  0.14572760622E+04 0.  0.
        1    1    3    3  502    0 -0.48061911441E+02 -0.22179271892E+03 -0.11646432727E+04  0.11865478962E+04  0.50400001928E-02 0.  1.
       -1    1    3    3    0  502  0.48061911441E+02  0.22179271892E+03  0.39944544422E+03  0.45941116707E+03  0.50400001928E-02 0. -1.
</event>
<event>
 5   0  0.2889469E-03  0.1390367E+04  0.7818609E-02  0.8960821E-01
       -2   -1    0    0    0  501  0.00000000000E+00  0.00000000000E+00  0.42785110076E+03  0.42785110077E+03  0.25500000920E-02 0.  1.
        2   -1    0    0  501    0  0.00000000000E+00  0.00000000000E+00 -0.11295521665E+04  0.11295521665E+04  0.25500000920E-02 0. -1.
    10030    2    1    2    0    0  0.00000000000E+00  0.00000000000E+00 -0.70170106577E+03  0.15574032673E+04  0.13903670563E+04 0.  0.
        5    1    3    3  502    0  0.20027031088E+03 -0.41814028537E+02 -0.10950485081E+04  0.11140062547E+04  0.46999998093E+01 0. -1.
       -5    1    3    3    0  502 -0.20027031088E+03  0.41814028537E+02  0.39334744233E+03  0.44339701261E+03  0.46999998093E+01 0.  1.
</event>
<event>
 5   0  0.2889469E-03  0.1399172E+04  0.7818609E-02  0.8954418E-01
       -2   -1    0    0    0  501  0.00000000000E+00  0.00000000000E+00  0.22157186377E+03  0.22157186378E+03  0.25500000920E-02 0. -1.
        2   -1    0    0  501    0  0.00000000000E+00  0.00000000000E+00 -0.22088563671E+04  0.22088563671E+04  0.25500000920E-02 0.  1.
    10030    2    1    2    0    0  0.00000000000E+00  0.00000000000E+00 -0.19872845033E+04  0.24304282309E+04  0.13991717865E+04 0.  0.
        5    1    3    3  502    0  0.28651557536E+03 -0.44921753976E+03 -0.20618127056E+03  0.57133210944E+03  0.46999998093E+01 0. -1.
       -5    1    3    3    0  502 -0.28651557536E+03  0.44921753976E+03 -0.17811032328E+04  0.18590961214E+04  0.46999998093E+01 0.  1.
</event>
<event>
 5   0  0.2889469E-03  0.1389586E+04  0.7818609E-02  0.8961391E-01
        2   -1    0    0  501    0  0.00000000000E+00  0.00000000000E+00  0.16894597212E+04  0.16894597212E+04  0.25500000920E-02 0.  1.
       -2   -1    0    0    0  501  0.00000000000E+00  0.00000000000E+00 -0.28573480106E+03  0.28573480107E+03  0.25500000920E-02 0. -1.
    10030    2    1    2    0    0  0.00000000000E+00  0.00000000000E+00  0.14037249201E+04  0.19751945222E+04  0.13895861792E+04 0.  0.
        5    1    3    3  502    0  0.54926439974E+03 -0.26765223058E+03  0.23174567933E+03  0.65349617232E+03  0.46999998093E+01 0. -1.
       -5    1    3    3    0  502 -0.54926439974E+03  0.26765223058E+03  0.11719792408E+04  0.13216983499E+04  0.46999998093E+01 0.  1.
</event>
<event>
 5   0  0.2917809E-03  0.1406045E+04  0.7818609E-02  0.8949455E-01
       -2   -1    0    0    0  501  0.00000000000E+00  0.00000000000E+00  0.10571516267E+04  0.10571516267E+04  0.25500000920E-02 0. -1.
        2   -1    0    0  501    0  0.00000000000E+00  0.00000000000E+00 -0.46752080369E+03  0.46752080370E+03  0.25500000920E-02 0.  1.
    10030    2    1    2    0    0  0.00000000000E+00  0.00000000000E+00  0.58963082298E+03  0.15246724304E+04  0.14060446339E+04 0.  0.
        2    1    3    3  502    0 -0.33219204288E+03  0.37765634640E+03 -0.23781279277E+03  0.55635491706E+03  0.25500000920E-02 0.  1.
       -2    1    3    3    0  502  0.33219204288E+03 -0.37765634640E+03  0.82744361575E+03  0.96831751331E+03  0.25500000920E-02 0. -1.
</event>
<event>
 5   0  0.1644571E-03  0.1403232E+04  0.7818609E-02  0.8951482E-01
       -1   -1    0    0    0  501  0.00000000000E+00  0.00000000000E+00  0.48291668887E+03  0.48291668890E+03  0.50400001928E-02 0. -1.
        1   -1    0    0  501    0  0.00000000000E+00  0.00000000000E+00 -0.10193584626E+04  0.10193584627E+04  0.50400001928E-02 0.  1.
    10030    2    1    2    0    0  0.00000000000E+00  0.00000000000E+00 -0.53644177377E+03  0.15022751516E+04  0.14032322881E+04 0.  0.
        4    1    3    3  502    0  0.14588808405E+03  0.66650314909E+03 -0.93110134505E+02  0.68860793697E+03  0.12699999809E+01 0. -1.
       -4    1    3    3    0  502 -0.14588808405E+03 -0.66650314909E+03 -0.44333163927E+03  0.81366721458E+03  0.12699999809E+01 0.  1.
</event>
<event>
 5   0  0.3006737E-03  0.1449081E+04  0.7818609E-02  0.8919038E-01
        2   -1    0    0  501    0  0.00000000000E+00  0.00000000000E+00  0.20632618629E+04  0.20632618629E+04  0.25500000920E-02 0.  1.
       -2   -1    0    0    0  501  0.00000000000E+00  0.00000000000E+00 -0.25443162231E+03  0.25443162232E+03  0.25500000920E-02 0. -1.
    10030    2    1    2    0    0  0.00000000000E+00  0.00000000000E+00  0.18088302406E+04  0.23176934852E+04  0.14490811751E+04 0.  0.
        1    1    3    3  502    0  0.20552186418E+03  0.43008971607E+03  0.31677254614E+02  0.47772361152E+03  0.50400001928E-02 0. -1.
       -1    1    3    3    0  502 -0.20552186418E+03 -0.43008971607E+03  0.17771529860E+04  0.18399698737E+04  0.50400001928E-02 0.  1.
</event>
<event>
 5   0  0.2889469E-03  0.1409592E+04  0.7818609E-02  0.8946905E-01
       -2   -1    0    0    0  501  0.00000000000E+00  0.00000000000E+00  0.29663686905E+03  0.29663686906E+03  0.25500000920E-02 0. -1.
        2   -1    0    0  501    0  0.00000000000E+00  0.00000000000E+00 -0.16745631261E+04  0.16745631261E+04  0.25500000920E-02 0.  1.
    10030    2    1    2    0    0  0.00000000000E+00  0.00000000000E+00 -0.13779262570E+04  0.19711999952E+04  0.14095916611E+04 0.  0.
        5    1    3    3  502    0  0.26511252840E+03  0.63402312284E+03 -0.47032128802E+03  0.83276297767E+03  0.46999998093E+01 0. -1.
       -5    1    3    3    0  502 -0.26511252840E+03 -0.63402312284E+03 -0.90760496902E+03  0.11384370175E+04  0.46999998093E+01 0.  1.
</event>
<event>
 5   0  0.2760807E-03  0.1430236E+04  0.7818609E-02  0.8932219E-01
       -2   -1    0    0    0  501  0.00000000000E+00  0.00000000000E+00  0.55905604627E+03  0.55905604628E+03  0.25500000920E-02 0. -1.
        2   -1    0    0  501    0  0.00000000000E+00  0.00000000000E+00 -0.91474463854E+03  0.91474463855E+03  0.25500000920E-02 0.  1.
    10030    2    1    2    0    0  0.00000000000E+00  0.00000000000E+00 -0.35568859227E+03  0.14738006848E+04  0.14302356743E+04 0.  0.
        4    1    3    3  502    0 -0.65697306619E+03  0.37263404782E+02  0.11066562455E+03  0.66727105766E+03  0.12699999809E+01 0. -1.
       -4    1    3    3    0  502  0.65697306619E+03 -0.37263404782E+02 -0.46635421683E+03  0.80652962716E+03  0.12699999809E+01 0.  1.
</event>
<event>
 5   0  0.2993993E-03  0.1289144E+04  0.7818609E-02  0.9038219E-01
       -2   -1    0    0    0  501  0.00000000000E+00  0.00000000000E+00  0.76735559799E+03  0.76735559799E+03  0.25500000920E-02 0.  1.
        2   -1    0    0  501    0  0.00000000000E+00  0.00000000000E+00 -0.54143453962E+03  0.54143453963E+03  0.25500000920E-02 0. -1.
    10030    2    1    2    0    0  0.00000000000E+00  0.00000000000E+00  0.22592105837E+03  0.13087901376E+04  0.12891436304E+04 0.  0.
        3    1    3    3  502    0  0.45179336161E+03 -0.27465382361E+03  0.48725356619E+03  0.71900487647E+03  0.10100000352E+00 0. -1.
       -3    1    3    3    0  502 -0.45179336161E+03  0.27465382361E+03 -0.26133250782E+03  0.58978526115E+03  0.10100000352E+00 0.  1.
</event>
<event>
 5   0  0.2889469E-03  0.9480299E+03  0.7818609E-02  0.9367456E-01
       -2   -1    0    0    0  501  0.00000000000E+00  0.00000000000E+00  0.11669211047E+03  0.11669211050E+03  0.25500000920E-02 0.  1.
        2   -1    0    0  501    0  0.00000000000E+00  0.00000000000E+00 -0.19254957583E+04  0.19254957583E+04  0.25500000920E-02 0. -1.
    10030    2    1    2    0    0  0.00000000000E+00  0.00000000000E+00 -0.18088036478E+04  0.20421878688E+04  0.94802988089E+03 0.  0.
        5    1    3    3  502    0  0.26366680811E+03  0.39376735596E+03 -0.92541516267E+03  0.10397058380E+04  0.46999998093E+01 0.  1.
       -5    1    3    3    0  502 -0.26366680811E+03 -0.39376735596E+03 -0.88338848511E+03  0.10024820307E+04  0.46999998093E+01 0. -1.
</event>
<event>
 5   0  0.1644571E-03  0.1403131E+04  0.7818609E-02  0.8951555E-01
       -1   -1    0    0    0  501  0.00000000000E+00  0.00000000000E+00  0.52006313980E+03  0.52006313982E+03  0.50400001928E-02 0.  1.
        1   -1    0    0  501    0  0.00000000000E+00  0.00000000000E+00 -0.94641291791E+03  0.94641291793E+03  0.50400001928E-02 0. -1.
    10030    2    1    2    0    0  0.00000000000E+00  0.00000000000E+00 -0.42634977811E+03  0.14664760578E+04  0.14031314602E+04 0.  0.
        4    1    3    3  502    0 -0.21016666602E+03  0.38371617161E+02 -0.91158719253E+03  0.93628800644E+03  0.12699999809E+01 0. -1.
       -4    1    3    3    0  502  0.21016666602E+03 -0.38371617161E+02  0.48523741442E+03  0.53018805132E+03  0.12699999809E+01 0.  1.
</event>
<event>
 5   0  0.1631380E-03  0.1386373E+04  0.7818609E-02  0.8963742E-01
       -1   -1    0    0    0  501  0.00000000000E+00  0.00000000000E+00  0.18732707395E+03  0.18732707402E+03  0.50400001928E-02 0.  1.
        1   -1    0    0  501    0  0.00000000000E+00  0.00000000000E+00 -0.25650716996E+04  0.25650716996E+04  0.50400001928E-02 0. -1.
    10030    2    1    2    0    0  0.00000000000E+00  0.00000000000E+00 -0.23777446256E+04  0.27523987736E+04  0.13863727869E+04 0.  0.
        3    1    3    3  502    0  0.47560811112E+03  0.31965955841E+03 -0.19632047021E+04  0.20451303189E+04  0.10100000352E+00 0.  1.
       -3    1    3    3    0  502 -0.47560811112E+03 -0.31965955841E+03 -0.41453992353E+03  0.70726845473E+03  0.10100000352E+00 0. -1.
</event>
<event>
 5   0  0.1560957E-03  0.1377473E+04  0.7818609E-02  0.8970288E-01
        1   -1    0    0  501    0  0.00000000000E+00  0.00000000000E+00  0.12814472797E+04  0.12814472797E+04  0.50400001928E-02 0. -1.
       -1   -1    0    0    0  501  0.00000000000E+00  0.00000000000E+00 -0.37017380178E+03  0.37017380181E+03  0.50400001928E-02 0.  1.
    10030    2    1    2    0    0  0.00000000000E+00  0.00000000000E+00  0.91127347792E+03  0.16516210815E+04  0.13774733556E+04 0.  0.
        5    1    3    3  502    0  0.34566600283E+03  0.37746920627E+02 -0.25717795916E+03  0.43251867961E+03  0.46999998093E+01 0.  1.
       -5    1    3    3    0  502 -0.34566600283E+03 -0.37746920627E+02  0.11684514371E+04  0.12191024019E+04  0.46999998093E+01 0. -1.
</event>
<event>
 5   0  0.3006737E-03  0.1407479E+04  0.7818609E-02  0.8948423E-01
       -2   -1    0    0    0  501  0.00000000000E+00  0.00000000000E+00  0.61952105150E+03  0.61952105151E+03  0.25500000920E-02 0.  1.
        2   -1    0    0  501    0  0.00000000000E+00  0.00000000000E+00 -0.79940674442E+03  0.79940674442E+03  0.25500000920E-02 0. -1.
    10030    2    1    2    0    0  0.00000000000E+00  0.00000000000E+00 -0.17988569291E+03  0.14189277959E+04  0.14074790327E+04 0.  0.
        1    1    3    3  502    0  0.14625023692E+03  0.29268352484E+03 -0.71806510936E+03  0.78909459434E+03  0.50400001928E-02 0. -1.
       -1    1    3    3    0  502 -0.14625023692E+03 -0.29268352484E+03  0.53817941644E+03  0.62983320159E+03  0.50400001928E-02 0.  1.
</event>
<event>
 5   0  0.2889469E-03  0.1410910E+04  0.7818609E-02  0.8945959E-01
        2   -1    0    0  501    0  0.00000000000E+00  0.00000000000E+00  0.97457612546E+03  0.97457612546E+03  0.25500000920E-02 0. -1.
       -2   -1    0    0    0  501  0.00000000000E+00  0.00000000000E+00 -0.51064939602E+03  0.51064939603E+03  0.25500000920E-02 0.  1.
    10030    2    1    2    0    0  0.00000000000E+00  0.00000000000E+00  0.46392672944E+03  0.14852255215E+04  0.14109099331E+04 0.  0.
        5    1    3    3  502    0 -0.14877573118E+03  0.50188117075E+03  0.72976229749E+03  0.89810580033E+03  0.46999998093E+01 0. -1.
       -5    1    3    3    0  502  0.14877573118E+03 -0.50188117075E+03 -0.26583556805E+03  0.58711972117E+03  0.46999998093E+01 0.  1.
</event>
<event>
 5   0  0.1560957E-03  0.1463535E+04  0.7818609E-02  0.8909070E-01
       -1   -1    0    0    0  501  0.00000000000E+00  0.00000000000E+00  0.47319908474E+03  0.47319908477E+03  0.50400001928E-02 0.  1.
        1   -1    0    0  501    0  0.00000000000E+00  0.00000000000E+00 -0.11316249596E+04  0.11316249597E+04  0.50400001928E-02 0. -1.
    10030    2    1    2    0    0  0.00000000000E+00  0.00000000000E+00 -0.65842587490E+03  0.16048240444E+04  0.14635353022E+04 0.  0.
        5    1    3    3  502    0  0.18224665181E+03  0.17223877089E+03  0.42459846377E+03  0.49313890714E+03  0.46999998093E+01 0.  1.
       -5    1    3    3    0  502 -0.18224665181E+03 -0.17223877089E+03 -0.10830243387E+04  0.11116851373E+04  0.46999998093E+01 0. -1.
</event>
<event>
 5   0  0.1586022E-03  0.1386604E+04  0.7818609E-02  0.8963572E-01
        1   -1    0    0  501    0  0.00000000000E+00  0.00000000000E+00  0.10446543992E+04  0.10446543992E+04  0.50400001928E-02 0. -1.
       -1   -1    0    0    0  501  0.00000000000E+00  0.00000000000E+00 -0.46012143486E+03  0.46012143489E+03  0.50400001928E-02 0.  1.
    10030    2    1    2    0    0  0.00000000000E+00  0.00000000000E+00  0.58453296435E+03  0.15047758341E+04  0.13866043143E+04 0.  0.
        1    1    3    3  502    0 -0.29549618284E+03  0.57874652089E+03  0.30005050226E+02  0.65051197728E+03  0.50400001928E-02 0.  1.
       -1    1    3    3    0  502  0.29549618284E+03 -0.57874652089E+03  0.55452791412E+03  0.85426385683E+03  0.50400001928E-02 0. -1.
</event>
<event>
 5   0  0.2760807E-03  0.1382786E+04  0.7818609E-02  0.8966374E-01
        2   -1    0    0  501    0  0.00000000000E+00  0.00000000000E+00  0.24054887359E+04  0.24054887359E+04  0.25500000920E-02 0. -1.
       -2   -1    0    0    0  501  0.00000000000E+00  0.00000000000E+00 -0.19872218633E+03  0.19872218635E+03  0.25500000920E-02 0.  1.
    10030    2    1    2    0    0  0.00000000000E+00  0.00000000000E+00  0.22067665496E+04  0.26042109222E+04  0.13827855666E+04 0.  0.
        4    1    3    3  502    0 -0.30404916926E+03 -0.61843571228E+03  0.12084735471E+04  0.13911572717E+04  0.12699999809E+01 0. -1.
       -4    1    3    3    0  502  0.30404916926E+03  0.61843571228E+03  0.99829300244E+03  0.12130536506E+04  0.12699999809E+01 0.  1.
</event>
<event>
 5   0  0.1586022E-03  0.1387175E+04  0.7818609E-02  0.8963154E-01
        1   -1    0    0  501    0  0.00000000000E+00  0.00000000000E+00  0.10476285531E+04  0.10476285531E+04  0.50400001928E-02 0. -1.
       -1   -1    0    0    0  501  0.00000000000E+00  0.00000000000E+00 -0.45919318325E+03  0.45919318327E+03  0.50400001928E-02 0.  1.
    10030    2    1    2    0    0  0.00000000000E+00  0.00000000000E+00  0.58843536986E+03  0.15068217364E+04  0.13871753893E+04 0.  0.
        1    1    3    3  502    0 -0.44187773616E+03 -0.18258590485E+03 -0.25158502422E+03  0.54026712911E+03  0.50400001928E-02 0.  1.
       -1    1    3    3    0  502  0.44187773616E+03  0.18258590485E+03  0.84002039408E+03  0.96655460728E+03  0.50400001928E-02 0. -1.
</event>
<event>
 5   0  0.2760807E-03  0.1328028E+04  0.7818609E-02  0.9007629E-01
       -2   -1    0    0    0  501  0.00000000000E+00  0.00000000000E+00  0.36230635681E+03  0.36230635681E+03  0.25500000920E-02 0. -1.
        2   -1    0    0  501    0  0.00000000000E+00  0.00000000000E+00 -0.12169659913E+04  0.12169659913E+04  0.25500000920E-02 0.  1.
    10030    2    1    2    0    0  0.00000000000E+00  0.00000000000E+00 -0.85465963448E+03  0.15792723481E+04  0.13280278832E+04 0.  0.
        4    1    3    3  502    0  0.26358281134E+02 -0.59481429281E+02  0.35850549332E+03  0.36436328170E+03  0.12699999809E+01 0. -1.
       -4    1    3    3    0  502 -0.26358281134E+02  0.59481429281E+02 -0.12131651278E+04  0.12149090664E+04  0.12699999809E+01 0.  1.
</event>
<event>
 5   0  0.3006737E-03  0.8769371E+03  0.7818609E-02  0.9454879E-01
        2   -1    0    0  501    0  0.00000000000E+00  0.00000000000E+00  0.85018063082E+03  0.85018063082E+03  0.25500000920E-02 0.  1.
       -2   -1    0    0    0  501  0.00000000000E+00  0.00000000000E+00 -0.22613392505E+03  0.22613392506E+03  0.25500000920E-02 0. -1.
    10030    2    1    2    0    0  0.00000000000E+00  0.00000000000E+00  0.62404670577E+03  0.10763145559E+04  0.87693713129E+03 0.  0.
        1    1    3    3  502    0  0.10321992818E+03 -0.17621816193E+03  0.78824322296E+03  0.81426934901E+03  0.50400001928E-02 0.  1.
       -1    1    3    3    0  502 -0.10321992818E+03  0.17621816193E+03 -0.16419651719E+03  0.26204520688E+03  0.50400001928E-02 0. -1.
</event>
<event>
 5   0  0.1104538E-03  0.1415595E+04  0.7818609E-02  0.8942607E-01
       -4   -1    0    0    0  501  0.00000000000E+00  0.00000000000E+00  0.99321748268E+03  0.99321829464E+03  0.12699999809E+01 0. -1.
        4   -1    0    0  501    0  0.00000000000E+00  0.00000000000E+00 -0.50439633259E+03  0.50439793143E+03  0.12699999809E+01 0.  1.
    10030    2    1    2    0    0  0.00000000000E+00  0.00000000000E+00  0.48882115009E+03  0.14976162261E+04  0.14155946608E+04 0.  0.
        2    1    3    3  502    0  0.16162423292E+03  0.45043394336E+03  0.79612873076E+03  0.92888862946E+03  0.25500000920E-02 0. -1.
       -2    1    3    3    0  502 -0.16162423292E+03 -0.45043394336E+03 -0.30730758067E+03  0.56872759660E+03  0.25500000920E-02 0.  1.
</event>
<event>
 5   0  0.1586022E-03  0.1392078E+04  0.7818609E-02  0.8959573E-01
        1   -1    0    0  501    0  0.00000000000E+00  0.00000000000E+00  0.12717550808E+04  0.12717550808E+04  0.50400001928E-02 0. -1.
       -1   -1    0    0    0  501  0.00000000000E+00  0.00000000000E+00 -0.38094625260E+03  0.38094625263E+03  0.50400001928E-02 0.  1.
    10030    2    1    2    0    0  0.00000000000E+00  0.00000000000E+00  0.89080882822E+03  0.16527013335E+04  0.13920780615E+04 0.  0.
        1    1    3    3  502    0 -0.51363895464E+03 -0.46693828797E+03  0.38470522398E+03  0.79363370006E+03  0.50400001928E-02 0.  1.
       -1    1    3    3    0  502  0.51363895464E+03  0.46693828797E+03  0.50610360424E+03  0.85906763340E+03  0.50400001928E-02 0. -1.
</event>
<event>
 5   0  0.1104538E-03  0.1373450E+04  0.7818609E-02  0.8973264E-01
       -3   -1    0    0    0  501  0.00000000000E+00  0.00000000000E+00  0.59964421929E+03  0.59964422779E+03  0.10100000352E+00 0. -1.
        3   -1    0    0  501    0  0.00000000000E+00  0.00000000000E+00 -0.78645185093E+03  0.78645185741E+03  0.10100000352E+00 0.  1.
    10030    2    1    2    0    0  0.00000000000E+00  0.00000000000E+00 -0.18680763164E+03  0.13860960852E+04  0.13734501324E+04 0.  0.
        2    1    3    3  502    0  0.76430624239E+02 -0.30702660472E+03  0.52170322308E+03  0.61014853053E+03  0.25500000920E-02 0. -1.
       -2    1    3    3    0  502 -0.76430624239E+02  0.30702660472E+03 -0.70851085472E+03  0.77594755467E+03  0.25500000920E-02 0.  1.
</event>
<event>
 5   0  0.2760807E-03  0.1399389E+04  0.7818609E-02  0.8954261E-01
        2   -1    0    0  501    0  0.00000000000E+00  0.00000000000E+00  0.22573226482E+04  0.22573226482E+04  0.25500000920E-02 0. -1.
       -2   -1    0    0    0  501  0.00000000000E+00  0.00000000000E+00 -0.21688177276E+03  0.21688177278E+03  0.25500000920E-02 0.  1.
    10030    2    1    2    0    0  0.00000000000E+00  0.00000000000E+00  0.20404408755E+04  0.24742044210E+04  0.13993886346E+04 0.  0.
        4    1    3    3  502    0  0.45383621486E+03  0.67923604403E+02  0.86340077050E+02  0.46694448038E+03  0.12699999809E+01 0.  1.
       -4    1    3    3    0  502 -0.45383621486E+03 -0.67923604403E+02  0.19541007984E+04  0.20072599406E+04  0.12699999809E+01 0. -1.
</event>
<event>
 5   0  0.1644571E-03  0.1393222E+04  0.7818609E-02  0.8958740E-01
       -1   -1    0    0    0  501  0.00000000000E+00  0.00000000000E+00  0.30765602908E+03  0.30765602912E+03  0.50400001928E-02 0. -1.
        1   -1    0    0  501    0  0.00000000000E+00  0.00000000000E+00 -0.15773023457E+04  0.15773023457E+04  0.50400001928E-02 0.  1.
    10030    2    1    2    0    0  0.00000000000E+00  0.00000000000E+00 -0.12696463166E+04  0.18849583748E+04  0.13932215565E+04 0.  0.
        4    1    3    3  502    0  0.11687005355E+03 -0.27171082631E+02 -0.15632147684E+04  0.15678134143E+04  0.12699999809E+01 0.  1.
       -4    1    3    3    0  502 -0.11687005355E+03  0.27171082631E+02  0.29356845181E+03  0.31714496046E+03  0.12699999809E+01 0. -1.
</event>
<event>
 5   0  0.2760807E-03  0.1316418E+04  0.7818609E-02  0.9016646E-01
       -2   -1    0    0    0  501  0.00000000000E+00  0.00000000000E+00  0.53669321699E+03  0.53669321700E+03  0.25500000920E-02 0. -1.
        2   -1    0    0  501    0  0.00000000000E+00  0.00000000000E+00 -0.80723759316E+03  0.80723759316E+03  0.25500000920E-02 0.  1.
    10030    2    1    2    0    0  0.00000000000E+00  0.00000000000E+00 -0.27054437617E+03  0.13439308102E+04  0.13164177768E+04 0.  0.
        4    1    3    3  502    0  0.15860948428E+03  0.25539585705E+03  0.46250226244E+03  0.55162846914E+03  0.12699999809E+01 0. -1.
       -4    1    3    3    0  502 -0.15860948428E+03 -0.25539585705E+03 -0.73304663861E+03  0.79230234102E+03  0.12699999809E+01 0.  1.
</event>
<event>
 5   0  0.1700207E-03  0.1729486E+04  0.7818609E-02  0.8744724E-01
       -1   -1    0    0    0  501  0.00000000000E+00  0.00000000000E+00  0.41612852166E+03  0.41612852169E+03  0.50400001928E-02 0. -1.
        1   -1    0    0  501    0  0.00000000000E+00  0.00000000000E+00 -0.17969939357E+04  0.17969939357E+04  0.50400001928E-02 0.  1.
    10030    2    1    2    0    0  0.00000000000E+00  0.00000000000E+00 -0.13808654140E+04  0.22131224574E+04  0.17294859698E+04 0.  0.
        2    1    3    3  502    0 -0.27021010976E+03 -0.34922799753E+03 -0.16418588127E+04  0.17001982409E+04  0.25500000920E-02 0.  1.
       -2    1    3    3    0  502  0.27021010976E+03  0.34922799753E+03  0.26099339866E+03  0.51292421645E+03  0.25500000920E-02 0. -1.
</event>
<event>
 5   0  0.3006737E-03  0.1436163E+04  0.7818609E-02  0.8928050E-01
       -2   -1    0    0    0  501  0.00000000000E+00  0.00000000000E+00  0.29276994164E+03  0.29276994165E+03  0.25500000920E-02 0. -1.
        2   -1    0    0  501    0  0.00000000000E+00  0.00000000000E+00 -0.17612492961E+04  0.17612492961E+04  0.25500000920E-02 0.  1.
    10030    2    1    2    0    0  0.00000000000E+00  0.00000000000E+00 -0.14684793545E+04  0.20540192378E+04  0.14361627396E+04 0.  0.
        1    1    3    3  502    0 -0.38869364123E+03  0.22656838791E+03  0.66200671271E+02  0.45475104181E+03  0.50400001928E-02 0. -1.
       -1    1    3    3    0  502  0.38869364123E+03 -0.22656838791E+03 -0.15346800258E+04  0.15992681960E+04  0.50400001928E-02 0.  1.
</event>
<event>
 5   0  0.1631380E-03  0.1399420E+04  0.7818609E-02  0.8954238E-01
       -1   -1    0    0    0  501  0.00000000000E+00  0.00000000000E+00  0.53454031898E+03  0.53454031900E+03  0.50400001928E-02 0. -1.
        1   -1    0    0  501    0  0.00000000000E+00  0.00000000000E+00 -0.91591646771E+03  0.91591646773E+03  0.50400001928E-02 0.  1.
    10030    2    1    2    0    0  0.00000000000E+00  0.00000000000E+00 -0.38137614874E+03  0.14504567867E+04  0.13994202812E+04 0.  0.
        3    1    3    3  502    0  0.40024743327E+03 -0.49526402463E+03  0.10990568047E+03  0.64619171361E+03  0.10100000352E+00 0. -1.
       -3    1    3    3    0  502 -0.40024743327E+03  0.49526402463E+03 -0.49128182920E+03  0.80426507312E+03  0.10100000352E+00 0.  1.
</event>
<event>
 5   0  0.1586022E-03  0.1387369E+04  0.7818609E-02  0.8963012E-01
       -1   -1    0    0    0  501  0.00000000000E+00  0.00000000000E+00  0.54148558534E+03  0.54148558536E+03  0.50400001928E-02 0.  1.
        1   -1    0    0  501    0  0.00000000000E+00  0.00000000000E+00 -0.88866317211E+03  0.88866317213E+03  0.50400001928E-02 0. -1.
    10030    2    1    2    0    0  0.00000000000E+00  0.00000000000E+00 -0.34717758677E+03  0.14301487575E+04  0.13873691620E+04 0.  0.
        1    1    3    3  502    0 -0.36723863189E+03  0.74806666472E+02  0.42813819630E+03  0.56900137544E+03  0.50400001928E-02 0.  1.
       -1    1    3    3    0  502  0.36723863189E+03 -0.74806666472E+02 -0.77531578307E+03  0.86114738205E+03  0.50400001928E-02 0. -1.
</event>
<event>
 5   0  0.1631380E-03  0.1387206E+04  0.7818609E-02  0.8963132E-01
       -1   -1    0    0    0  501  0.00000000000E+00  0.00000000000E+00  0.33955355852E+03  0.33955355856E+03  0.50400001928E-02 0. -1.
        1   -1    0    0  501    0  0.00000000000E+00  0.00000000000E+00 -0.14168158481E+04  0.14168158481E+04  0.50400001928E-02 0.  1.
    10030    2    1    2    0    0  0.00000000000E+00  0.00000000000E+00 -0.10772622896E+04  0.17563694067E+04  0.13872056272E+04 0.  0.
        3    1    3    3  502    0 -0.10844058757E+03  0.31191167593E+03 -0.13108988151E+04  0.13518520512E+04  0.10100000352E+00 0.  1.
       -3    1    3    3    0  502  0.10844058757E+03 -0.31191167593E+03  0.23363652554E+03  0.40451735548E+03  0.10100000352E+00 0. -1.
</event>
<event>
 5   0  0.2993993E-03  0.1412166E+04  0.7818609E-02  0.8945059E-01
       -2   -1    0    0    0  501  0.00000000000E+00  0.00000000000E+00  0.48357400037E+03  0.48357400038E+03  0.25500000920E-02 0.  1.
        2   -1    0    0  501    0  0.00000000000E+00  0.00000000000E+00 -0.10309761627E+04  0.10309761627E+04  0.25500000920E-02 0. -1.
    10030    2    1    2    0    0  0.00000000000E+00  0.00000000000E+00 -0.54740216233E+03  0.15145501631E+04  0.14121660912E+04 0.  0.
        3    1    3    3  502    0 -0.51977663961E+03  0.41345063138E+03 -0.53075280013E+03  0.85018099527E+03  0.10100000352E+00 0. -1.
       -3    1    3    3    0  502  0.51977663961E+03 -0.41345063138E+03 -0.16649362197E+02  0.66436916781E+03  0.10100000352E+00 0.  1.
</event>
<event>
 5   0  0.2917809E-03  0.1397127E+04  0.7818609E-02  0.8955901E-01
       -2   -1    0    0    0  501  0.00000000000E+00  0.00000000000E+00  0.46001926979E+03  0.46001926980E+03  0.25500000920E-02 0.  1.
        2   -1    0    0  501    0  0.00000000000E+00  0.00000000000E+00 -0.10608057622E+04  0.10608057622E+04  0.25500000920E-02 0. -1.
    10030    2    1    2    0    0  0.00000000000E+00  0.00000000000E+00 -0.60078649241E+03  0.15208250320E+04  0.13971271841E+04 0.  0.
        2    1    3    3  502    0 -0.88574264207E+01 -0.17591628139E+03  0.43544998778E+03  0.46972511528E+03  0.25500000920E-02 0.  1.
       -2    1    3    3    0  502  0.88574264207E+01  0.17591628139E+03 -0.10362364802E+04  0.10510999167E+04  0.25500000920E-02 0. -1.
</event>
<event>
 5   0  0.1644571E-03  0.1427372E+04  0.7818609E-02  0.8934240E-01
       -1   -1    0    0    0  501  0.00000000000E+00  0.00000000000E+00  0.83507162529E+03  0.83507162531E+03  0.50400001928E-02 0. -1.
        1   -1    0    0  501    0  0.00000000000E+00  0.00000000000E+00 -0.60994476605E+03  0.60994476607E+03  0.50400001928E-02 0.  1.
    10030    2    1    2    0    0  0.00000000000E+00  0.00000000000E+00  0.22512685925E+03  0.14450163914E+04  0.14273718046E+04 0.  0.
        4    1    3    3  502    0 -0.45294203796E+03  0.55138070263E+03  0.12571576648E+03  0.72455726884E+03  0.12699999809E+01 0. -1.
       -4    1    3    3    0  502  0.45294203796E+03 -0.55138070263E+03  0.99411092768E+02  0.72045912254E+03  0.12699999809E+01 0.  1.
</event>
<event>
 5   0  0.2760807E-03  0.1394460E+04  0.7818609E-02  0.8957838E-01
        2   -1    0    0  501    0  0.00000000000E+00  0.00000000000E+00  0.41947356863E+03  0.41947356864E+03  0.25500000920E-02 0.  1.
       -2   -1    0    0    0  501  0.00000000000E+00  0.00000000000E+00 -0.11589044814E+04  0.11589044814E+04  0.25500000920E-02 0. -1.
    10030    2    1    2    0    0  0.00000000000E+00  0.00000000000E+00 -0.73943091281E+03  0.15783780501E+04  0.13944601802E+04 0.  0.
        4    1    3    3  502    0 -0.56005351921E+03  0.24216178965E+03 -0.75159419463E+03  0.96808972882E+03  0.12699999809E+01 0. -1.
       -4    1    3    3    0  502  0.56005351921E+03 -0.24216178965E+03  0.12163281820E+02  0.61028832126E+03  0.12699999809E+01 0.  1.
</event>
<event>
 5   0  0.2889469E-03  0.1443809E+04  0.7818609E-02  0.8922704E-01
       -2   -1    0    0    0  501  0.00000000000E+00  0.00000000000E+00  0.31426935092E+03  0.31426935093E+03  0.25500000920E-02 0.  1.
        2   -1    0    0  501    0  0.00000000000E+00  0.00000000000E+00 -0.16582789684E+04  0.16582789684E+04  0.25500000920E-02 0. -1.
    10030    2    1    2    0    0  0.00000000000E+00  0.00000000000E+00 -0.13440096175E+04  0.19725483193E+04  0.14438092049E+04 0.  0.
        5    1    3    3  502    0 -0.51784653400E+03  0.42450034881E+03 -0.10405238814E+04  0.12373672118E+04  0.46999998093E+01 0. -1.
       -5    1    3    3    0  502  0.51784653400E+03 -0.42450034881E+03 -0.30348573603E+03  0.73518110754E+03  0.46999998093E+01 0.  1.
</event>
<event>
 5   0  0.1644571E-03  0.1216478E+04  0.7818609E-02  0.9098555E-01
       -1   -1    0    0    0  501  0.00000000000E+00  0.00000000000E+00  0.29919188936E+03  0.29919188940E+03  0.50400001928E-02 0.  1.
        1   -1    0    0  501    0  0.00000000000E+00  0.00000000000E+00 -0.12365126496E+04  0.12365126496E+04  0.50400001928E-02 0. -1.
    10030    2    1    2    0    0  0.00000000000E+00  0.00000000000E+00 -0.93732076027E+03  0.15357045390E+04  0.12164777941E+04 0.  0.
        4    1    3    3  502    0 -0.16100707471E+03  0.51578864551E+03 -0.11610464681E+03  0.55266907535E+03  0.12699999809E+01 0.  1.
       -4    1    3    3    0  502  0.16100707471E+03 -0.51578864551E+03 -0.82121611346E+03  0.98303546368E+03  0.12699999809E+01 0. -1.
</event>
<event>
 5   0  0.3006737E-03  0.9950029E+03  0.7818609E-02  0.9314043E-01
       -2   -1    0    0    0  501  0.00000000000E+00  0.00000000000E+00  0.10814231932E+03  0.10814231935E+03  0.25500000920E-02 0. -1.
        2   -1    0    0  501    0  0.00000000000E+00  0.00000000000E+00 -0.22887217034E+04  0.22887217034E+04  0.25500000920E-02 0.  1.
    10030    2    1    2    0    0  0.00000000000E+00  0.00000000000E+00 -0.21805793841E+04  0.23968640227E+04  0.99500286095E+03 0.  0.
        1    1    3    3  502    0  0.42715490879E+03 -0.24706066277E+03 -0.12427826052E+04  0.13371644966E+04  0.50400001928E-02 0.  1.
       -1    1    3    3    0  502 -0.42715490879E+03  0.24706066277E+03 -0.93779677889E+03  0.10596995262E+04  0.50400001928E-02 0. -1.
</event>
<event>
 5   0  0.1586022E-03  0.1372680E+04  0.7818609E-02  0.8973835E-01
        1   -1    0    0  501    0  0.00000000000E+00  0.00000000000E+00  0.51611584286E+03  0.51611584289E+03  0.50400001928E-02 0.  1.
       -1   -1    0    0    0  501  0.00000000000E+00  0.00000000000E+00 -0.91270737221E+03  0.91270737222E+03  0.50400001928E-02 0. -1.
    10030    2    1    2    0    0  0.00000000000E+00  0.00000000000E+00 -0.39659152934E+03  0.14288232151E+04  0.13726802027E+04 0.  0.
        1    1    3    3  502    0 -0.41994043088E+03 -0.40529508632E+03  0.17765324275E+03  0.61006126510E+03  0.50400001928E-02 0.  1.
       -1    1    3    3    0  502  0.41994043088E+03  0.40529508632E+03 -0.57424477210E+03  0.81876195001E+03  0.50400001928E-02 0. -1.
</event>
<event>
 5   0  0.3006737E-03  0.1450529E+04  0.7818609E-02  0.8918034E-01
        2   -1    0    0  501    0  0.00000000000E+00  0.00000000000E+00  0.41556492765E+03  0.41556492765E+03  0.25500000920E-02 0. -1.
       -2   -1    0    0    0  501  0.00000000000E+00  0.00000000000E+00 -0.12657673330E+04  0.12657673330E+04  0.25500000920E-02 0.  1.
    10030    2    1    2    0    0  0.00000000000E+00  0.00000000000E+00 -0.85020240533E+03  0.16813322606E+04  0.14505288831E+04 0.  0.
        1    1    3    3  502    0  0.26157398968E+03  0.52295552276E+03  0.72246424604E+02  0.58917143240E+03  0.50400001928E-02 0. -1.
       -1    1    3    3    0  502 -0.26157398968E+03 -0.52295552276E+03 -0.92244882994E+03  0.10921608282E+04  0.50400001928E-02 0.  1.
</event>
<event>
 5   0  0.1644571E-03  0.1421313E+04  0.7818609E-02  0.8938534E-01
        1   -1    0    0  501    0  0.00000000000E+00  0.00000000000E+00  0.87734124969E+03  0.87734124971E+03  0.50400001928E-02 0.  1.
       -1   -1    0    0    0  501  0.00000000000E+00  0.00000000000E+00 -0.57563994225E+03  0.57563994227E+03  0.50400001928E-02 0. -1.
    10030    2    1    2    0    0  0.00000000000E+00  0.00000000000E+00  0.30170130744E+03  0.14529811920E+04  0.14213130075E+04 0.  0.
        4    1    3    3  502    0  0.14102145676E+02  0.42820750160E+03 -0.42876597612E+03  0.60613728653E+03  0.12699999809E+01 0. -1.
       -4    1    3    3    0  502 -0.14102145676E+02 -0.42820750160E+03  0.73046728357E+03  0.84684390545E+03  0.12699999809E+01 0.  1.
</event>
<event>
 5   0  0.2917809E-03  0.1478276E+04  0.7818609E-02  0.8899029E-01
        2   -1    0    0  501    0  0.00000000000E+00  0.00000000000E+00  0.49883080348E+03  0.49883080349E+03  0.25500000920E-02 0. -1.
       -2   -1    0    0    0  501  0.00000000000E+00  0.00000000000E+00 -0.10952104741E+04  0.10952104741E+04  0.25500000920E-02 0.  1.
    10030    2    1    2    0    0  0.00000000000E+00  0.00000000000E+00 -0.59637967059E+03  0.15940412776E+04  0.14782756452E+04 0.  0.
        2    1    3    3  502    0  0.73224345021E+03 -0.20949280706E+02 -0.19195905557E+03  0.75727645003E+03  0.25500000920E-02 0. -1.
       -2    1    3    3    0  502 -0.73224345021E+03  0.20949280706E+02 -0.40442061502E+03  0.83676482754E+03  0.25500000920E-02 0.  1.
</event>
<event>
 5   0  0.2917809E-03  0.1401884E+04  0.7818609E-02  0.8952456E-01
       -2   -1    0    0    0  501  0.00000000000E+00  0.00000000000E+00  0.78952125961E+03  0.78952125961E+03  0.25500000920E-02 0. -1.
        2   -1    0    0  501    0  0.00000000000E+00  0.00000000000E+00 -0.62230074415E+03  0.62230074416E+03  0.25500000920E-02 0.  1.
    10030    2    1    2    0    0  0.00000000000E+00  0.00000000000E+00  0.16722051546E+03  0.14118220038E+04  0.14018839715E+04 0.  0.
        2    1    3    3  502    0 -0.58874407560E+03 -0.27596596254E+03  0.34727315092E+03  0.73714004123E+03  0.25500000920E-02 0. -1.
       -2    1    3    3    0  502  0.58874407560E+03  0.27596596254E+03 -0.18005263546E+03  0.67468196254E+03  0.25500000920E-02 0.  1.
</event>
<event>
 5   0  0.1644571E-03  0.1183785E+04  0.7818609E-02  0.9127169E-01
        1   -1    0    0  501    0  0.00000000000E+00  0.00000000000E+00  0.95605917883E+03  0.95605917884E+03  0.50400001928E-02 0. -1.
       -1   -1    0    0    0  501  0.00000000000E+00  0.00000000000E+00 -0.36643833453E+03  0.36643833456E+03  0.50400001928E-02 0.  1.
    10030    2    1    2    0    0  0.00000000000E+00  0.00000000000E+00  0.58962084430E+03  0.13224975134E+04  0.11837850028E+04 0.  0.
        4    1    3    3  502    0  0.38690209340E+02  0.36674322189E+03  0.81202553866E+03  0.89184337831E+03  0.12699999809E+01 0. -1.
       -4    1    3    3    0  502 -0.38690209340E+02 -0.36674322189E+03 -0.22240469436E+03  0.43065413509E+03  0.12699999809E+01 0.  1.
</event>
<event>
 5   0  0.1560957E-03  0.1375313E+04  0.7818609E-02  0.8971885E-01
       -1   -1    0    0    0  501  0.00000000000E+00  0.00000000000E+00  0.77073466852E+03  0.77073466854E+03  0.50400001928E-02 0. -1.
        1   -1    0    0  501    0  0.00000000000E+00  0.00000000000E+00 -0.61353321074E+03  0.61353321076E+03  0.50400001928E-02 0.  1.
    10030    2    1    2    0    0  0.00000000000E+00  0.00000000000E+00  0.15720145778E+03  0.13842678793E+04  0.13753127874E+04 0.  0.
        5    1    3    3  502    0  0.50794978686E+03 -0.40832890700E+03  0.29935448329E+03  0.71720337348E+03  0.46999998093E+01 0. -1.
       -5    1    3    3    0  502 -0.50794978686E+03  0.40832890700E+03 -0.14215302551E+03  0.66706450582E+03  0.46999998093E+01 0.  1.
</event>
<event>
 5   0  0.1700207E-03  0.1386493E+04  0.7818609E-02  0.8963654E-01
        1   -1    0    0  501    0  0.00000000000E+00  0.00000000000E+00  0.12468502432E+04  0.12468502432E+04  0.50400001928E-02 0.  1.
       -1   -1    0    0    0  501  0.00000000000E+00  0.00000000000E+00 -0.38544371261E+03  0.38544371264E+03  0.50400001928E-02 0. -1.
    10030    2    1    2    0    0  0.00000000000E+00  0.00000000000E+00  0.86140653057E+03  0.16322939558E+04  0.13864928227E+04 0.  0.
        2    1    3    3  502    0  0.66953348343E+02 -0.35462939208E+02 -0.38055487322E+03  0.38802368800E+03  0.25500000920E-02 0. -1.
       -2    1    3    3    0  502 -0.66953348343E+02  0.35462939208E+02  0.12419614038E+04  0.12442702678E+04  0.25500000920E-02 0.  1.
</event>
<event>
 5   0  0.2993993E-03  0.1373946E+04  0.7818609E-02  0.8972897E-01
       -2   -1    0    0    0  501  0.00000000000E+00  0.00000000000E+00  0.54406983275E+03  0.54406983276E+03  0.25500000920E-02 0. -1.
        2   -1    0    0  501    0  0.00000000000E+00  0.00000000000E+00 -0.86740994262E+03  0.86740994263E+03  0.25500000920E-02 0.  1.
    10030    2    1    2    0    0  0.00000000000E+00  0.00000000000E+00 -0.32334010987E+03  0.14114797754E+04  0.13739455337E+04 0.  0.
        3    1    3    3  502    0  0.52302743830E+02 -0.20016740992E+03  0.51130517098E+03  0.55157552255E+03  0.10100000352E+00 0. -1.
       -3    1    3    3    0  502 -0.52302743830E+02  0.20016740992E+03 -0.83464528085E+03  0.85990425284E+03  0.10100000352E+00 0.  1.
</event>
<event>
 5   0  0.1700207E-03  0.1408626E+04  0.7818609E-02  0.8947598E-01
       -1   -1    0    0    0  501  0.00000000000E+00  0.00000000000E+00  0.28068732553E+03  0.28068732558E+03  0.50400001928E-02 0. -1.
        1   -1    0    0  501    0  0.00000000000E+00  0.00000000000E+00 -0.17672924292E+04  0.17672924292E+04  0.50400001928E-02 0.  1.
    10030    2    1    2    0    0  0.00000000000E+00  0.00000000000E+00 -0.14866051037E+04  0.20479797548E+04  0.14086256926E+04 0.  0.
        2    1    3    3  502    0  0.34638536212E+03  0.40847049123E+03 -0.78278290098E+02  0.54125636440E+03  0.25500000920E-02 0. -1.
       -2    1    3    3    0  502 -0.34638536212E+03 -0.40847049123E+03 -0.14083268136E+04  0.15067233904E+04  0.25500000920E-02 0.  1.
</event>
<event>
 5   0  0.1586022E-03  0.1394899E+04  0.7818609E-02  0.8957519E-01
       -1   -1    0    0    0  501  0.00000000000E+00  0.00000000000E+00  0.31768291024E+03  0.31768291028E+03  0.50400001928E-02 0.  1.
        1   -1    0    0  501    0  0.00000000000E+00  0.00000000000E+00 -0.15311984936E+04  0.15311984936E+04  0.50400001928E-02 0. -1.
    10030    2    1    2    0    0  0.00000000000E+00  0.00000000000E+00 -0.12135155833E+04  0.18488814039E+04  0.13948986969E+04 0.  0.
        1    1    3    3  502    0 -0.94904894160E+02 -0.54087551905E+03 -0.11766780384E+04  0.12985085568E+04  0.50400001928E-02 0. -1.
       -1    1    3    3    0  502  0.94904894160E+02  0.54087551905E+03 -0.36837544942E+02  0.55037284706E+03  0.50400001928E-02 0.  1.
</event>
<event>
 5   0  0.3006737E-03  0.1200553E+04  0.7818609E-02  0.9112373E-01
        2   -1    0    0  501    0  0.00000000000E+00  0.00000000000E+00  0.67897225182E+03  0.67897225183E+03  0.25500000920E-02 0. -1.
       -2   -1    0    0    0  501  0.00000000000E+00  0.00000000000E+00 -0.53070157176E+03  0.53070157176E+03  0.25500000920E-02 0.  1.
    10030    2    1    2    0    0  0.00000000000E+00  0.00000000000E+00  0.14827068006E+03  0.12096738236E+04  0.12005526081E+04 0.  0.
        1    1    3    3  502    0  0.36289285033E+03 -0.27443346801E+03 -0.32040913884E+03  0.55647728207E+03  0.50400001928E-02 0.  1.
       -1    1    3    3    0  502 -0.36289285033E+03  0.27443346801E+03  0.46867981890E+03  0.65319654152E+03  0.50400001928E-02 0. -1.
</event>
<event>
 5   0  0.1560957E-03  0.1417458E+04  0.7818609E-02  0.8941278E-01
       -1   -1    0    0    0  501  0.00000000000E+00  0.00000000000E+00  0.41410363778E+03  0.41410363781E+03  0.50400001928E-02 0. -1.
        1   -1    0    0  501    0  0.00000000000E+00  0.00000000000E+00 -0.12129735052E+04  0.12129735052E+04  0.50400001928E-02 0.  1.
    10030    2    1    2    0    0  0.00000000000E+00  0.00000000000E+00 -0.79886986745E+03  0.16270771431E+04  0.14174579233E+04 0.  0.
        5    1    3    3  502    0 -0.55896011613E+03  0.43520280237E+03 -0.37544552009E+03  0.80176013817E+03  0.46999998093E+01 0. -1.
       -5    1    3    3    0  502  0.55896011613E+03 -0.43520280237E+03 -0.42342434736E+03  0.82531700488E+03  0.46999998093E+01 0.  1.
</event>
<event>
 5   0  0.1560957E-03  0.1401570E+04  0.7818609E-02  0.8952683E-01
        1   -1    0    0  501    0  0.00000000000E+00  0.00000000000E+00  0.84071593247E+03  0.84071593248E+03  0.50400001928E-02 0. -1.
       -1   -1    0    0    0  501  0.00000000000E+00  0.00000000000E+00 -0.58414485404E+03  0.58414485407E+03  0.50400001928E-02 0.  1.
    10030    2    1    2    0    0  0.00000000000E+00  0.00000000000E+00  0.25657107842E+03  0.14248607865E+04  0.14015703845E+04 0.  0.
        5    1    3    3  502    0 -0.39612239876E+03 -0.12173521954E+03 -0.44621155867E+03  0.60898215374E+03  0.46999998093E+01 0.  1.
       -5    1    3    3    0  502  0.39612239876E+03  0.12173521954E+03  0.70278263709E+03  0.81587863281E+03  0.46999998093E+01 0. -1.
</event>
<event>
 5   0  0.2917809E-03  0.1454800E+04  0.7818609E-02  0.8915079E-01
        2   -1    0    0  501    0  0.00000000000E+00  0.00000000000E+00  0.21141226143E+04  0.21141226143E+04  0.25500000920E-02 0. -1.
       -2   -1    0    0    0  501  0.00000000000E+00  0.00000000000E+00 -0.25027444265E+03  0.25027444266E+03  0.25500000920E-02 0.  1.
    10030    2    1    2    0    0  0.00000000000E+00  0.00000000000E+00  0.18638481717E+04  0.23643970570E+04  0.14548001361E+04 0.  0.
        2    1    3    3  502    0 -0.54714228210E+03 -0.24344007138E+03  0.26086963446E+03  0.65320801541E+03  0.25500000920E-02 0.  1.
       -2    1    3    3    0  502  0.54714228210E+03  0.24344007138E+03  0.16029785372E+04  0.17111890416E+04  0.25500000920E-02 0. -1.
</event>
<event>
 5   0  0.2917809E-03  0.1401737E+04  0.7818609E-02  0.8952562E-01
        2   -1    0    0  501    0  0.00000000000E+00  0.00000000000E+00  0.18151745842E+04  0.18151745842E+04  0.25500000920E-02 0. -1.
       -2   -1    0    0    0  501  0.00000000000E+00  0.00000000000E+00 -0.27061671957E+03  0.27061671958E+03  0.25500000920E-02 0.  1.
    10030    2    1    2    0    0  0.00000000000E+00  0.00000000000E+00  0.15445578646E+04  0.20857913038E+04  0.14017369103E+04 0.  0.
        2    1    3    3  502    0  0.28588670538E+03  0.47895763982E+03  0.14037348940E+04  0.15104976934E+04  0.25500000920E-02 0. -1.
       -2    1    3    3    0  502 -0.28588670538E+03 -0.47895763982E+03  0.14082297058E+03  0.57529361035E+03  0.25500000920E-02 0.  1.
</event>
<event>
 5   0  0.1631380E-03  0.1414809E+04  0.7818609E-02  0.8943168E-01
        1   -1    0    0  501    0  0.00000000000E+00  0.00000000000E+00  0.74045687940E+03  0.74045687942E+03  0.50400001928E-02 0.  1.
       -1   -1    0    0    0  501  0.00000000000E+00  0.00000000000E+00 -0.67582741482E+03  0.67582741483E+03  0.50400001928E-02 0. -1.
    10030    2    1    2    0    0  0.00000000000E+00  0.00000000000E+00  0.64629464585E+02  0.14162842943E+04  0.14148089039E+04 0.  0.
        3    1    3    3  502    0 -0.31268196263E+03 -0.93386527537E+02  0.66060767299E+03  0.73681311137E+03  0.10100000352E+00 0.  1.
       -3    1    3    3    0  502  0.31268196263E+03  0.93386527537E+02 -0.59597820840E+03  0.67947118288E+03  0.10100000352E+00 0. -1.
</event>
<event>
 5   0  0.2889469E-03  0.1410630E+04  0.7818609E-02  0.8946160E-01
       -2   -1    0    0    0  501  0.00000000000E+00  0.00000000000E+00  0.49346528390E+03  0.49346528391E+03  0.25500000920E-02 0.  1.
        2   -1    0    0  501    0  0.00000000000E+00  0.00000000000E+00 -0.10081133912E+04  0.10081133912E+04  0.25500000920E-02 0. -1.
    10030    2    1    2    0    0  0.00000000000E+00  0.00000000000E+00 -0.51464810726E+03  0.15015786751E+04  0.14106295911E+04 0.  0.
        5    1    3    3  502    0  0.21752981302E+03 -0.35080677025E+03  0.35144184931E+03  0.54214211518E+03  0.46999998093E+01 0.  1.
       -5    1    3    3    0  502 -0.21752981302E+03  0.35080677025E+03 -0.86608995657E+03  0.95943655990E+03  0.46999998093E+01 0. -1.
</event>
<event>
 5   0  0.1644571E-03  0.1416687E+04  0.7818609E-02  0.8941827E-01
        1   -1    0    0  501    0  0.00000000000E+00  0.00000000000E+00  0.55716948444E+03  0.55716948446E+03  0.50400001928E-02 0.  1.
       -1   -1    0    0    0  501  0.00000000000E+00  0.00000000000E+00 -0.90053529456E+03  0.90053529457E+03  0.50400001928E-02 0. -1.
    10030    2    1    2    0    0  0.00000000000E+00  0.00000000000E+00 -0.34336581012E+03  0.14577047790E+04  0.14166873837E+04 0.  0.
        4    1    3    3  502    0 -0.11280964292E+03 -0.11533339074E+03  0.53801231482E+03  0.56168200110E+03  0.12699999809E+01 0.  1.
       -4    1    3    3    0  502  0.11280964292E+03  0.11533339074E+03 -0.88137812494E+03  0.89602277794E+03  0.12699999809E+01 0. -1.
</event>
<event>
 5   0  0.2917809E-03  0.1412554E+04  0.7818609E-02  0.8944781E-01
        2   -1    0    0  501    0  0.00000000000E+00  0.00000000000E+00  0.97255668462E+03  0.97255668462E+03  0.25500000920E-02 0. -1.
       -2   -1    0    0    0  501  0.00000000000E+00  0.00000000000E+00 -0.51290317946E+03  0.51290317947E+03  0.25500000920E-02 0.  1.
    10030    2    1    2    0    0  0.00000000000E+00  0.00000000000E+00  0.45965350515E+03  0.14854598641E+04  0.14125543045E+04 0.  0.
        2    1    3    3  502    0  0.11937894267E+03 -0.24106306692E+03  0.91657459583E+03  0.95523385823E+03  0.25500000920E-02 0. -1.
       -2    1    3    3    0  502 -0.11937894267E+03  0.24106306692E+03 -0.45692109067E+03  0.53022600586E+03  0.25500000920E-02 0.  1.
</event>
<event>
 5   0  0.1631380E-03  0.1334330E+04  0.7818609E-02  0.9002775E-01
       -1   -1    0    0    0  501  0.00000000000E+00  0.00000000000E+00  0.30912068462E+03  0.30912068466E+03  0.50400001928E-02 0.  1.
        1   -1    0    0  501    0  0.00000000000E+00  0.00000000000E+00 -0.14399210136E+04  0.14399210137E+04  0.50400001928E-02 0. -1.
    10030    2    1    2    0    0  0.00000000000E+00  0.00000000000E+00 -0.11308003290E+04  0.17490416983E+04  0.13343303483E+04 0.  0.
        3    1    3    3  502    0 -0.53431807809E+03  0.13439859931E+03 -0.10585655730E+04  0.11933649377E+04  0.10100000352E+00 0. -1.
       -3    1    3    3    0  502  0.53431807809E+03 -0.13439859931E+03 -0.72234756039E+02  0.55567676059E+03  0.10100000352E+00 0.  1.
</event>
<event>
 5   0  0.1560957E-03  0.1410687E+04  0.7818609E-02  0.8946119E-01
        1   -1    0    0  501    0  0.00000000000E+00  0.00000000000E+00  0.31775573965E+03  0.31775573969E+03  0.50400001928E-02 0. -1.
       -1   -1    0    0    0  501  0.00000000000E+00  0.00000000000E+00 -0.15656970202E+04  0.15656970202E+04  0.50400001928E-02 0.  1.
    10030    2    1    2    0    0  0.00000000000E+00  0.00000000000E+00 -0.12479412805E+04  0.18834527599E+04  0.14106866622E+04 0.  0.
        5    1    3    3  502    0 -0.46723053519E+03 -0.27888051580E+03 -0.24782827014E+02  0.54471551623E+03  0.46999998093E+01 0. -1.
       -5    1    3    3    0  502  0.46723053519E+03  0.27888051580E+03 -0.12231584535E+04  0.13387372436E+04  0.46999998093E+01 0.  1.
</event>
<event>
 5   0  0.1700207E-03  0.1373228E+04  0.7818609E-02  0.8973429E-01
       -1   -1    0    0    0  501  0.00000000000E+00  0.00000000000E+00  0.82618070390E+03  0.82618070392E+03  0.50400001928E-02 0. -1.
        1   -1    0    0  501    0  0.00000000000E+00  0.00000000000E+00 -0.57062449227E+03  0.57062449229E+03  0.50400001928E-02 0.  1.
    10030    2    1    2    0    0  0.00000000000E+00  0.00000000000E+00  0.25555621163E+03  0.13968051962E+04  0.13732282326E+04 0.  0.
        2    1    3    3  502    0 -0.20036040028E+03 -0.11185500640E+03 -0.53046709042E+03  0.57797159661E+03  0.25500000920E-02 0.  1.
       -2    1    3    3    0  502  0.20036040028E+03  0.11185500640E+03  0.78602330205E+03  0.81883359960E+03  0.25500000920E-02 0. -1.
</event>
<event>
 5   0  0.1560957E-03  0.1423184E+04  0.7818609E-02  0.8937206E-01
       -1   -1    0    0    0  501  0.00000000000E+00  0.00000000000E+00  0.74656961467E+03  0.74656961469E+03  0.50400001928E-02 0. -1.
        1   -1    0    0  501    0  0.00000000000E+00  0.00000000000E+00 -0.67825299999E+03  0.67825300001E+03  0.50400001928E-02 0.  1.
    10030    2    1    2    0    0  0.00000000000E+00  0.00000000000E+00  0.68316614683E+02  0.14248226147E+04  0.14231838685E+04 0.  0.
        5    1    3    3  502    0  0.40511819679E+03 -0.13147192594E+03  0.60484570368E+03  0.73977431420E+03  0.46999998093E+01 0. -1.
       -5    1    3    3    0  502 -0.40511819679E+03  0.13147192594E+03 -0.53652908900E+03  0.68504830050E+03  0.46999998093E+01 0.  1.
</event>
<event>
 5   0  0.2917809E-03  0.1436970E+04  0.7818609E-02  0.8927484E-01
       -2   -1    0    0    0  501  0.00000000000E+00  0.00000000000E+00  0.16281234504E+04  0.16281234504E+04  0.25500000920E-02 0.  1.
        2   -1    0    0  501    0  0.00000000000E+00  0.00000000000E+00 -0.31706497018E+03  0.31706497019E+03  0.25500000920E-02 0. -1.
    10030    2    1    2    0    0  0.00000000000E+00  0.00000000000E+00  0.13110584803E+04  0.19451884206E+04  0.14369703035E+04 0.  0.
        2    1    3    3  502    0 -0.68422045828E+03  0.15650908083E+01  0.95229207281E+03  0.11726125861E+04  0.25500000920E-02 0. -1.
       -2    1    3    3    0  502  0.68422045828E+03 -0.15650908083E+01  0.35876640745E+03  0.77257583457E+03  0.25500000920E-02 0.  1.
</event>
<event>
 5   0  0.2917809E-03  0.1380716E+04  0.7818609E-02  0.8967896E-01
        2   -1    0    0  501    0  0.00000000000E+00  0.00000000000E+00  0.17854888800E+04  0.17854888800E+04  0.25500000920E-02 0. -1.
       -2   -1    0    0    0  501  0.00000000000E+00  0.00000000000E+00 -0.26692658867E+03  0.26692658868E+03  0.25500000920E-02 0.  1.
    10030    2    1    2    0    0  0.00000000000E+00  0.00000000000E+00  0.15185622913E+04  0.20524154687E+04  0.13807164167E+04 0.  0.
        2    1    3    3  502    0 -0.19118781152E+03 -0.41341165066E+03  0.15304400013E+04  0.15967806893E+04  0.25500000920E-02 0. -1.
       -2    1    3    3    0  502  0.19118781152E+03  0.41341165066E+03 -0.11877709964E+02  0.45563477938E+03  0.25500000920E-02 0.  1.
</event>
<event>
 5   0  0.1644571E-03  0.1313407E+04  0.7818609E-02  0.9019000E-01
        1   -1    0    0  501    0  0.00000000000E+00  0.00000000000E+00  0.82745011089E+03  0.82745011091E+03  0.50400001928E-02 0.  1.
       -1   -1    0    0    0  501  0.00000000000E+00  0.00000000000E+00 -0.52119079617E+03  0.52119079620E+03  0.50400001928E-02 0. -1.
    10030    2    1    2    0    0  0.00000000000E+00  0.00000000000E+00  0.30625931472E+03  0.13486409071E+04  0.13134068404E+04 0.  0.
        4    1    3    3  502    0 -0.60874725450E+03 -0.10113790038E+03  0.38377891585E+03  0.72669798672E+03  0.12699999809E+01 0.  1.
       -4    1    3    3    0  502  0.60874725450E+03  0.10113790038E+03 -0.77519601133E+02  0.62194292038E+03  0.12699999809E+01 0. -1.
</event>
<event>
 5   0  0.2760807E-03  0.1400980E+04  0.7818609E-02  0.8953110E-01
        2   -1    0    0  501    0  0.00000000000E+00  0.00000000000E+00  0.12703750689E+04  0.12703750689E+04  0.25500000920E-02 0. -1.
       -2   -1    0    0    0  501  0.00000000000E+00  0.00000000000E+00 -0.38625284714E+03  0.38625284715E+03  0.25500000920E-02 0.  1.
    10030    2    1    2    0    0  0.00000000000E+00  0.00000000000E+00  0.88412222173E+03  0.16566279160E+04  0.14009796391E+04 0.  0.
        4    1    3    3  502    0  0.55273097974E+03 -0.17583366245E+03  0.90648364715E+03  0.10761706316E+04  0.12699999809E+01 0. -1.
       -4    1    3    3    0  502 -0.55273097974E+03  0.17583366245E+03 -0.22361425427E+02  0.58045728444E+03  0.12699999809E+01 0.  1.
</event>
<event>
 5   0  0.1104538E-03  0.1377995E+04  0.7818609E-02  0.8969902E-01
        3   -1    0    0  501    0  0.00000000000E+00  0.00000000000E+00  0.41423926562E+03  0.41423927794E+03  0.10100000352E+00 0.  1.
       -3   -1    0    0    0  501  0.00000000000E+00  0.00000000000E+00 -0.11459990587E+04  0.11459990631E+04  0.10100000352E+00 0. -1.
    10030    2    1    2    0    0  0.00000000000E+00  0.00000000000E+00 -0.73175979307E+03  0.15602383411E+04  0.13779953869E+04 0.  0.
        2    1    3    3  502    0 -0.16838790802E+03  0.66361855060E+03 -0.45339173817E+03  0.82116267360E+03  0.25500000920E-02 0.  1.
       -2    1    3    3    0  502  0.16838790802E+03 -0.66361855060E+03 -0.27836805490E+03  0.73907566748E+03  0.25500000920E-02 0. -1.
</event>
<event>
 5   0  0.1560957E-03  0.1376659E+04  0.7818609E-02  0.8970889E-01
       -1   -1    0    0    0  501  0.00000000000E+00  0.00000000000E+00  0.45399920220E+03  0.45399920223E+03  0.50400001928E-02 0.  1.
        1   -1    0    0  501    0  0.00000000000E+00  0.00000000000E+00 -0.10436086878E+04  0.10436086878E+04  0.50400001928E-02 0. -1.
    10030    2    1    2    0    0  0.00000000000E+00  0.00000000000E+00 -0.58960948560E+03  0.14976078900E+04  0.13766590162E+04 0.  0.
        5    1    3    3  502    0  0.10661242370E+03  0.32718498749E+03  0.35368859053E+03  0.49349157439E+03  0.46999998093E+01 0.  1.
       -5    1    3    3    0  502 -0.10661242370E+03 -0.32718498749E+03 -0.94329807613E+03  0.10041163156E+04  0.46999998093E+01 0. -1.
</event>
<event>
 5   0  0.1631380E-03  0.1407687E+04  0.7818609E-02  0.8948273E-01
        1   -1    0    0  501    0  0.00000000000E+00  0.00000000000E+00  0.91740967270E+03  0.91740967271E+03  0.50400001928E-02 0. -1.
       -1   -1    0    0    0  501  0.00000000000E+00  0.00000000000E+00 -0.53999430003E+03  0.53999430005E+03  0.50400001928E-02 0.  1.
    10030    2    1    2    0    0  0.00000000000E+00  0.00000000000E+00  0.37741537267E+03  0.14574039728E+04  0.14076874569E+04 0.  0.
        3    1    3    3  502    0 -0.16127258687E+03 -0.42949234008E+03 -0.36392658995E+03  0.58558952393E+03  0.10100000352E+00 0.  1.
       -3    1    3    3    0  502  0.16127258687E+03  0.42949234008E+03  0.74134196262E+03  0.87181444884E+03  0.10100000352E+00 0. -1.
</event>
<event>
 5   0  0.2917809E-03  0.1546701E+04  0.7818609E-02  0.8853978E-01
       -2   -1    0    0    0  501  0.00000000000E+00  0.00000000000E+00  0.30537484361E+03  0.30537484362E+03  0.25500000920E-02 0.  1.
        2   -1    0    0  501    0  0.00000000000E+00  0.00000000000E+00 -0.19584805714E+04  0.19584805714E+04  0.25500000920E-02 0. -1.
    10030    2    1    2    0    0  0.00000000000E+00  0.00000000000E+00 -0.16531057278E+04  0.22638554151E+04  0.15467006152E+04 0.  0.
        2    1    3    3  502    0  0.83780104046E+02  0.63532083425E+03 -0.14602026186E+04  0.15946295355E+04  0.25500000920E-02 0. -1.
       -2    1    3    3    0  502 -0.83780104046E+02 -0.63532083425E+03 -0.19290310923E+03  0.66922587952E+03  0.25500000920E-02 0.  1.
</event>
<event>
 5   0  0.1586022E-03  0.1183598E+04  0.7818609E-02  0.9127336E-01
       -1   -1    0    0    0  501  0.00000000000E+00  0.00000000000E+00  0.29396405808E+03  0.29396405812E+03  0.50400001928E-02 0.  1.
        1   -1    0    0  501    0  0.00000000000E+00  0.00000000000E+00 -0.11913897836E+04  0.11913897836E+04  0.50400001928E-02 0. -1.
    10030    2    1    2    0    0  0.00000000000E+00  0.00000000000E+00 -0.89742572552E+03  0.14853538417E+04  0.11835975255E+04 0.  0.
        1    1    3    3  502    0  0.54349560222E+02 -0.47645481521E+03 -0.13510376101E+02  0.47973492255E+03  0.50400001928E-02 0.  1.
       -1    1    3    3    0  502 -0.54349560222E+02  0.47645481521E+03 -0.88391534942E+03  0.10056189192E+04  0.50400001928E-02 0. -1.
</event>
<event>
 5   0  0.2917809E-03  0.1392791E+04  0.7818609E-02  0.8959054E-01
       -2   -1    0    0    0  501  0.00000000000E+00  0.00000000000E+00  0.40762062687E+03  0.40762062687E+03  0.25500000920E-02 0.  1.
        2   -1    0    0  501    0  0.00000000000E+00  0.00000000000E+00 -0.11897493614E+04  0.11897493614E+04  0.25500000920E-02 0. -1.
    10030    2    1    2    0    0  0.00000000000E+00  0.00000000000E+00 -0.78212873454E+03  0.15973699883E+04  0.13927905521E+04 0.  0.
        2    1    3    3  502    0  0.48501011119E+03  0.54504929036E+02  0.17865079819E+03  0.51973233779E+03  0.25500000920E-02 0.  1.
       -2    1    3    3    0  502 -0.48501011119E+03 -0.54504929036E+02 -0.96077953273E+03  0.10776376505E+04  0.25500000920E-02 0. -1.
</event>
<event>
 5   0  0.2917809E-03  0.1393132E+04  0.7818609E-02  0.8958805E-01
        2   -1    0    0  501    0  0.00000000000E+00  0.00000000000E+00  0.47245614327E+03  0.47245614328E+03  0.25500000920E-02 0. -1.
       -2   -1    0    0    0  501  0.00000000000E+00  0.00000000000E+00 -0.10269831170E+04  0.10269831170E+04  0.25500000920E-02 0.  1.
    10030    2    1    2    0    0  0.00000000000E+00  0.00000000000E+00 -0.55452697368E+03  0.14994392602E+04  0.13931324167E+04 0.  0.
        2    1    3    3  502    0  0.40086526186E+03  0.47299986587E+03  0.64424232257E+02  0.62335568738E+03  0.25500000920E-02 0.  1.
       -2    1    3    3    0  502 -0.40086526186E+03 -0.47299986587E+03 -0.61895120594E+03  0.87608357285E+03  0.25500000920E-02 0. -1.
</event>
<event>
 5   0  0.1631380E-03  0.1396217E+04  0.7818609E-02  0.8956562E-01
       -1   -1    0    0    0  501  0.00000000000E+00  0.00000000000E+00  0.48521141419E+03  0.48521141421E+03  0.50400001928E-02 0.  1.
        1   -1    0    0  501    0  0.00000000000E+00  0.00000000000E+00 -0.10044185170E+04  0.10044185170E+04  0.50400001928E-02 0. -1.
    10030    2    1    2    0    0  0.00000000000E+00  0.00000000000E+00 -0.51920710284E+03  0.14896299313E+04  0.13962167871E+04 0.  0.
        3    1    3    3  502    0 -0.64007684950E+03  0.11163598173E+03 -0.53201824269E+03  0.83976448273E+03  0.10100000352E+00 0. -1.
       -3    1    3    3    0  502  0.64007684950E+03 -0.11163598173E+03  0.12811139851E+02  0.64986544853E+03  0.10100000352E+00 0.  1.
</event>
<event>
 5   0  0.1586022E-03  0.1379030E+04  0.7818609E-02  0.8969139E-01
        1   -1    0    0  501    0  0.00000000000E+00  0.00000000000E+00  0.13596975084E+04  0.13596975084E+04  0.50400001928E-02 0. -1.
       -1   -1    0    0    0  501  0.00000000000E+00  0.00000000000E+00 -0.34965922728E+03  0.34965922732E+03  0.50400001928E-02 0.  1.
    10030    2    1    2    0    0  0.00000000000E+00  0.00000000000E+00  0.10100382811E+04  0.17093567357E+04  0.13790297751E+04 0.  0.
        1    1    3    3  502    0 -0.26483411975E+03 -0.25919144070E+03 -0.21574023170E+03  0.42879034681E+03  0.50400001928E-02 0.  1.
       -1    1    3    3    0  502  0.26483411975E+03  0.25919144070E+03  0.12257785128E+04  0.12805663889E+04  0.50400001928E-02 0. -1.
</event>
<event>
 5   0  0.1631380E-03  0.9886102E+03  0.7818609E-02  0.9321126E-01
        1   -1    0    0  501    0  0.00000000000E+00  0.00000000000E+00  0.89874976288E+03  0.89874976289E+03  0.50400001928E-02 0.  1.
       -1   -1    0    0    0  501  0.00000000000E+00  0.00000000000E+00 -0.27186380566E+03  0.27186380571E+03  0.50400001928E-02 0. -1.
    10030    2    1    2    0    0  0.00000000000E+00  0.00000000000E+00  0.62688595721E+03  0.11706135686E+04  0.98861019803E+03 0.  0.
        3    1    3    3  502    0 -0.24534089420E+03 -0.12623246523E+02  0.82134609783E+03  0.85729861970E+03  0.10100000352E+00 0.  1.
       -3    1    3    3    0  502  0.24534089420E+03  0.12623246523E+02 -0.19446014061E+03  0.31331494890E+03  0.10100000352E+00 0. -1.
</event>
<event>
 5   0  0.1104538E-03  0.1578671E+04  0.7818609E-02  0.8833759E-01
        3   -1    0    0  501    0  0.00000000000E+00  0.00000000000E+00  0.35757656757E+03  0.35757658183E+03  0.10100000352E+00 0. -1.
       -3   -1    0    0    0  501  0.00000000000E+00  0.00000000000E+00 -0.17424258213E+04  0.17424258242E+04  0.10100000352E+00 0.  1.
    10030    2    1    2    0    0  0.00000000000E+00  0.00000000000E+00 -0.13848492537E+04  0.21000024060E+04  0.15786711658E+04 0.  0.
        2    1    3    3  502    0 -0.22788245690E+03 -0.72556682611E+03 -0.41126638662E+03  0.86459104442E+03  0.25500000920E-02 0. -1.
       -2    1    3    3    0  502  0.22788245690E+03  0.72556682611E+03 -0.97358286706E+03  0.12354113616E+04  0.25500000920E-02 0.  1.
</event>
<event>
 5   0  0.1644571E-03  0.1292292E+04  0.7818609E-02  0.9035700E-01
       -1   -1    0    0    0  501  0.00000000000E+00  0.00000000000E+00  0.42791355985E+03  0.42791355988E+03  0.50400001928E-02 0. -1.
        1   -1    0    0  501    0  0.00000000000E+00  0.00000000000E+00 -0.97567452103E+03  0.97567452104E+03  0.50400001928E-02 0.  1.
    10030    2    1    2    0    0  0.00000000000E+00  0.00000000000E+00 -0.54776096118E+03  0.14035880809E+04  0.12922915423E+04 0.  0.
        4    1    3    3  502    0  0.39319905465E+03 -0.19204647790E+03  0.24247427823E+03  0.50028265486E+03  0.12699999809E+01 0. -1.
       -4    1    3    3    0  502 -0.39319905465E+03  0.19204647790E+03 -0.79023523941E+03  0.90330542606E+03  0.12699999809E+01 0.  1.
</event>
<event>
 5   0  0.1644571E-03  0.1452542E+04  0.7818609E-02  0.8916640E-01
       -1   -1    0    0    0  501  0.00000000000E+00  0.00000000000E+00  0.19153945758E+04  0.19153945759E+04  0.50400001928E-02 0. -1.
        1   -1    0    0  501    0  0.00000000000E+00  0.00000000000E+00 -0.27538428454E+03  0.27538428459E+03  0.50400001928E-02 0.  1.
    10030    2    1    2    0    0  0.00000000000E+00  0.00000000000E+00  0.16400102913E+04  0.21907788604E+04  0.14525419993E+04 0.  0.
        4    1    3    3  502    0 -0.21278639428E+03 -0.55072462833E+03  0.18208598018E+03  0.61784511240E+03  0.12699999809E+01 0.  1.
       -4    1    3    3    0  502  0.21278639428E+03  0.55072462833E+03  0.14579243111E+04  0.15729337480E+04  0.12699999809E+01 0. -1.
</event>
<event>
 5   0  0.3006737E-03  0.1398008E+04  0.7818609E-02  0.8955262E-01
       -2   -1    0    0    0  501  0.00000000000E+00  0.00000000000E+00  0.85661102195E+03  0.85661102195E+03  0.25500000920E-02 0.  1.
        2   -1    0    0  501    0  0.00000000000E+00  0.00000000000E+00 -0.57039453893E+03  0.57039453894E+03  0.25500000920E-02 0. -1.
    10030    2    1    2    0    0  0.00000000000E+00  0.00000000000E+00  0.28621648302E+03  0.14270055609E+04  0.13980075092E+04 0.  0.
        1    1    3    3  502    0  0.27435728959E+02  0.43035357192E+03  0.70465512560E+03  0.82613301723E+03  0.50400001928E-02 0.  1.
       -1    1    3    3    0  502 -0.27435728959E+02 -0.43035357192E+03 -0.41843864258E+03  0.60087254366E+03  0.50400001928E-02 0. -1.
</event>
<event>
 5   0  0.2993993E-03  0.1477706E+04  0.7818609E-02  0.8899415E-01
       -2   -1    0    0    0  501  0.00000000000E+00  0.00000000000E+00  0.44967981666E+03  0.44967981666E+03  0.25500000920E-02 0.  1.
        2   -1    0    0  501    0  0.00000000000E+00  0.00000000000E+00 -0.12139828899E+04  0.12139828899E+04  0.25500000920E-02 0. -1.
    10030    2    1    2    0    0  0.00000000000E+00  0.00000000000E+00 -0.76430307326E+03  0.16636627066E+04  0.14777057939E+04 0.  0.
        3    1    3    3  502    0  0.72323480910E+03 -0.37497990579E+02 -0.21734391474E+03  0.75611710460E+03  0.10100000352E+00 0.  1.
       -3    1    3    3    0  502 -0.72323480910E+03  0.37497990579E+02 -0.54695915852E+03  0.90754560198E+03  0.10100000352E+00 0. -1.
</event>
<event>
 5   0  0.1560957E-03  0.1411978E+04  0.7818609E-02  0.8945193E-01
       -1   -1    0    0    0  501  0.00000000000E+00  0.00000000000E+00  0.93436149100E+03  0.93436149102E+03  0.50400001928E-02 0. -1.
        1   -1    0    0  501    0  0.00000000000E+00  0.00000000000E+00 -0.53343463527E+03  0.53343463529E+03  0.50400001928E-02 0.  1.
    10030    2    1    2    0    0  0.00000000000E+00  0.00000000000E+00  0.40092685574E+03  0.14677961263E+04  0.14119784434E+04 0.  0.
        5    1    3    3  502    0 -0.29687807820E+03  0.25885444295E+03 -0.40857828763E+03  0.56753900577E+03  0.46999998093E+01 0.  1.
       -5    1    3    3    0  502  0.29687807820E+03 -0.25885444295E+03  0.80950514336E+03  0.90025712054E+03  0.46999998093E+01 0. -1.
</event>
<event>
 5   0  0.2917809E-03  0.1403295E+04  0.7818609E-02  0.8951437E-01
       -2   -1    0    0    0  501  0.00000000000E+00  0.00000000000E+00  0.26723503766E+03  0.26723503767E+03  0.25500000920E-02 0.  1.
        2   -1    0    0  501    0  0.00000000000E+00  0.00000000000E+00 -0.18422325503E+04  0.18422325503E+04  0.25500000920E-02 0. -1.
    10030    2    1    2    0    0  0.00000000000E+00  0.00000000000E+00 -0.15749975127E+04  0.21094675880E+04  0.14032948157E+04 0.  0.
        2    1    3    3  502    0  0.57696695584E+02 -0.38657685284E+03 -0.16634268532E+04  0.17087303672E+04  0.25500000920E-02 0. -1.
       -2    1    3    3    0  502 -0.57696695584E+02  0.38657685284E+03  0.88429340557E+02  0.40073722077E+03  0.25500000920E-02 0.  1.
</event>
<event>
 5   0  0.2760807E-03  0.1375265E+04  0.7818609E-02  0.8971920E-01
        2   -1    0    0  501    0  0.00000000000E+00  0.00000000000E+00  0.10179505652E+04  0.10179505652E+04  0.25500000920E-02 0.  1.
       -2   -1    0    0    0  501  0.00000000000E+00  0.00000000000E+00 -0.46450055967E+03  0.46450055968E+03  0.25500000920E-02 0. -1.
    10030    2    1    2    0    0  0.00000000000E+00  0.00000000000E+00  0.55345000555E+03  0.14824511249E+04  0.13752652214E+04 0.  0.
        4    1    3    3  502    0 -0.23538330702E+03 -0.24026548294E+03  0.92322223874E+03  0.98258522202E+03  0.12699999809E+01 0.  1.
       -4    1    3    3    0  502  0.23538330702E+03  0.24026548294E+03 -0.36977223320E+03  0.49986590288E+03  0.12699999809E+01 0. -1.
</event>
<event>
 5   0  0.1644571E-03  0.1437934E+04  0.7818609E-02  0.8926809E-01
       -1   -1    0    0    0  501  0.00000000000E+00  0.00000000000E+00  0.60976788025E+03  0.60976788027E+03  0.50400001928E-02 0. -1.
        1   -1    0    0  501    0  0.00000000000E+00  0.00000000000E+00 -0.84772140161E+03  0.84772140162E+03  0.50400001928E-02 0.  1.
    10030    2    1    2    0    0  0.00000000000E+00  0.00000000000E+00 -0.23795352136E+03  0.14574892819E+04  0.14379336315E+04 0.  0.
        4    1    3    3  502    0 -0.22011145425E+02 -0.39196691453E+03  0.49153446424E+03  0.62907097775E+03  0.12699999809E+01 0. -1.
       -4    1    3    3    0  502  0.22011145425E+02  0.39196691453E+03 -0.72948798560E+03  0.82841830414E+03  0.12699999809E+01 0.  1.
</event>
<event>
 5   0  0.2889469E-03  0.1397258E+04  0.7818609E-02  0.8955806E-01
       -2   -1    0    0    0  501  0.00000000000E+00  0.00000000000E+00  0.50796916564E+03  0.50796916564E+03  0.25500000920E-02 0.  1.
        2   -1    0    0  501    0  0.00000000000E+00  0.00000000000E+00 -0.96085005488E+03  0.96085005488E+03  0.25500000920E-02 0. -1.
    10030    2    1    2    0    0  0.00000000000E+00  0.00000000000E+00 -0.45288088924E+03  0.14688192205E+04  0.13972576007E+04 0.  0.
        5    1    3    3  502    0 -0.65009552885E+03 -0.22191338034E+03 -0.36019857667E+03  0.77565124227E+03  0.46999998093E+01 0.  1.
       -5    1    3    3    0  502  0.65009552885E+03  0.22191338034E+03 -0.92682312566E+02  0.69316797825E+03  0.46999998093E+01 0. -1.
</event>
<event>
 5   0  0.3006737E-03  0.1301337E+04  0.7818609E-02  0.9028506E-01
       -2   -1    0    0    0  501  0.00000000000E+00  0.00000000000E+00  0.59631475514E+03  0.59631475514E+03  0.25500000920E-02 0.  1.
        2   -1    0    0  501    0  0.00000000000E+00  0.00000000000E+00 -0.70997622722E+03  0.70997622722E+03  0.25500000920E-02 0. -1.
    10030    2    1    2    0    0  0.00000000000E+00  0.00000000000E+00 -0.11366147208E+03  0.13062909824E+04  0.13013366975E+04 0.  0.
        1    1    3    3  502    0 -0.93013382212E+02  0.49891162799E+03 -0.46557254345E+03  0.68871045807E+03  0.50400001928E-02 0. -1.
       -1    1    3    3    0  502  0.93013382212E+02 -0.49891162799E+03  0.35191107137E+03  0.61758052430E+03  0.50400001928E-02 0.  1.
</event>
<event>
 5   0  0.1644571E-03  0.1399507E+04  0.7818609E-02  0.8954175E-01
        1   -1    0    0  501    0  0.00000000000E+00  0.00000000000E+00  0.17359217721E+04  0.17359217721E+04  0.50400001928E-02 0.  1.
       -1   -1    0    0    0  501  0.00000000000E+00  0.00000000000E+00 -0.28207213425E+03  0.28207213430E+03  0.50400001928E-02 0. -1.
    10030    2    1    2    0    0  0.00000000000E+00  0.00000000000E+00  0.14538496378E+04  0.20179939064E+04  0.13995072836E+04 0.  0.
        4    1    3    3  502    0 -0.45384941219E+02  0.66157674858E+03  0.10490601016E+04  0.12410770712E+04  0.12699999809E+01 0. -1.
       -4    1    3    3    0  502  0.45384941219E+02 -0.66157674858E+03  0.40478953625E+03  0.77691683513E+03  0.12699999809E+01 0.  1.
</event>
<event>
 5   0  0.1631380E-03  0.9153797E+03  0.7818609E-02  0.9406558E-01
        1   -1    0    0  501    0  0.00000000000E+00  0.00000000000E+00  0.41628361228E+03  0.41628361231E+03  0.50400001928E-02 0.  1.
       -1   -1    0    0    0  501  0.00000000000E+00  0.00000000000E+00 -0.50321461883E+03  0.50321461885E+03  0.50400001928E-02 0. -1.
    10030    2    1    2    0    0  0.00000000000E+00  0.00000000000E+00 -0.86931006548E+02  0.91949823116E+03  0.91537970111E+03 0.  0.
        3    1    3    3  502    0 -0.89106144834E+02 -0.64001331180E+02  0.40288034140E+03  0.41755078150E+03  0.10100000352E+00 0.  1.
       -3    1    3    3    0  502  0.89106144834E+02  0.64001331180E+02 -0.48981134795E+03  0.50194744966E+03  0.10100000352E+00 0. -1.
</event>
<event>
 5   0  0.2760807E-03  0.1403993E+04  0.7818609E-02  0.8950933E-01
       -2   -1    0    0    0  501  0.00000000000E+00  0.00000000000E+00  0.44150562268E+03  0.44150562269E+03  0.25500000920E-02 0.  1.
        2   -1    0    0  501    0  0.00000000000E+00  0.00000000000E+00 -0.11161791937E+04  0.11161791937E+04  0.25500000920E-02 0. -1.
    10030    2    1    2    0    0  0.00000000000E+00  0.00000000000E+00 -0.67467357106E+03  0.15576848164E+04  0.14039934330E+04 0.  0.
        4    1    3    3  502    0  0.18815294987E+03 -0.36835806251E+03  0.29194597411E+03  0.50628377365E+03  0.12699999809E+01 0.  1.
       -4    1    3    3    0  502 -0.18815294987E+03  0.36835806251E+03 -0.96661954517E+03  0.10514010428E+04  0.12699999809E+01 0. -1.
</event>
<event>
 5   0  0.2993993E-03  0.1388936E+04  0.7818609E-02  0.8961866E-01
        2   -1    0    0  501    0  0.00000000000E+00  0.00000000000E+00  0.56481502343E+03  0.56481502344E+03  0.25500000920E-02 0.  1.
       -2   -1    0    0    0  501  0.00000000000E+00  0.00000000000E+00 -0.85388303692E+03  0.85388303692E+03  0.25500000920E-02 0. -1.
    10030    2    1    2    0    0  0.00000000000E+00  0.00000000000E+00 -0.28906801348E+03  0.14186980604E+04  0.13889362369E+04 0.  0.
        3    1    3    3  502    0 -0.65254364711E+02 -0.55469124451E+03 -0.56610714745E+03  0.79524701914E+03  0.10100000352E+00 0. -1.
       -3    1    3    3    0  502  0.65254364711E+02  0.55469124451E+03  0.27703913397E+03  0.62345104122E+03  0.10100000352E+00 0.  1.
</event>
<event>
 5   0  0.2917809E-03  0.1365974E+04  0.7818609E-02  0.8978823E-01
       -2   -1    0    0    0  501  0.00000000000E+00  0.00000000000E+00  0.16349418819E+04  0.16349418819E+04  0.25500000920E-02 0. -1.
        2   -1    0    0  501    0  0.00000000000E+00  0.00000000000E+00 -0.28531363564E+03  0.28531363565E+03  0.25500000920E-02 0.  1.
    10030    2    1    2    0    0  0.00000000000E+00  0.00000000000E+00  0.13496282463E+04  0.19202555176E+04  0.13659739564E+04 0.  0.
        2    1    3    3  502    0 -0.29333036765E+03  0.42040837327E+03  0.40365507659E+02  0.51421326229E+03  0.25500000920E-02 0.  1.
       -2    1    3    3    0  502  0.29333036765E+03 -0.42040837327E+03  0.13092627386E+04  0.14060422553E+04  0.25500000920E-02 0. -1.
</event>
<event>
 5   0  0.2917809E-03  0.1430374E+04  0.7818609E-02  0.8932121E-01
       -2   -1    0    0    0  501  0.00000000000E+00  0.00000000000E+00  0.48367443393E+03  0.48367443393E+03  0.25500000920E-02 0. -1.
        2   -1    0    0  501    0  0.00000000000E+00  0.00000000000E+00 -0.10575144839E+04  0.10575144839E+04  0.25500000920E-02 0.  1.
    10030    2    1    2    0    0  0.00000000000E+00  0.00000000000E+00 -0.57384004996E+03  0.15411889178E+04  0.14303743837E+04 0.  0.
        2    1    3    3  502    0  0.36397548444E+03  0.61472769860E+03 -0.32305027349E+03  0.78404704955E+03  0.25500000920E-02 0.  1.
       -2    1    3    3    0  502 -0.36397548444E+03 -0.61472769860E+03 -0.25078977647E+03  0.75714186827E+03  0.25500000920E-02 0. -1.
</event>
<event>
 5   0  0.2760807E-03  0.1394847E+04  0.7818609E-02  0.8957557E-01
       -2   -1    0    0    0  501  0.00000000000E+00  0.00000000000E+00  0.31485981920E+03  0.31485981921E+03  0.25500000920E-02 0. -1.
        2   -1    0    0  501    0  0.00000000000E+00  0.00000000000E+00 -0.15448137056E+04  0.15448137056E+04  0.25500000920E-02 0.  1.
    10030    2    1    2    0    0  0.00000000000E+00  0.00000000000E+00 -0.12299538864E+04  0.18596735248E+04  0.13948473236E+04 0.  0.
        4    1    3    3  502    0 -0.57588146919E+03  0.38977267030E+03 -0.54397678342E+03  0.88287856179E+03  0.12699999809E+01 0. -1.
       -4    1    3    3    0  502  0.57588146919E+03 -0.38977267030E+03 -0.68597710297E+03  0.97679496301E+03  0.12699999809E+01 0.  1.
</event>
<event>
 5   0  0.2889469E-03  0.1416054E+04  0.7818609E-02  0.8942279E-01
        2   -1    0    0  501    0  0.00000000000E+00  0.00000000000E+00  0.20629568121E+04  0.20629568121E+04  0.25500000920E-02 0.  1.
       -2   -1    0    0    0  501  0.00000000000E+00  0.00000000000E+00 -0.24300170717E+03  0.24300170719E+03  0.25500000920E-02 0. -1.
    10030    2    1    2    0    0  0.00000000000E+00  0.00000000000E+00  0.18199551049E+04  0.23059585193E+04  0.14160537097E+04 0.  0.
        5    1    3    3  502    0 -0.37145856638E+03 -0.37090552601E+03  0.16836623433E+04  0.17636023793E+04  0.46999998093E+01 0.  1.
       -5    1    3    3    0  502  0.37145856638E+03  0.37090552601E+03  0.13629276158E+03  0.54235614002E+03  0.46999998093E+01 0. -1.
</event>
<event>
 5   0  0.2889469E-03  0.1508340E+04  0.7818609E-02  0.8878926E-01
        2   -1    0    0  501    0  0.00000000000E+00  0.00000000000E+00  0.40161218736E+03  0.40161218737E+03  0.25500000920E-02 0. -1.
       -2   -1    0    0    0  501  0.00000000000E+00  0.00000000000E+00 -0.14162228515E+04  0.14162228515E+04  0.25500000920E-02 0.  1.
    10030    2    1    2    0    0  0.00000000000E+00  0.00000000000E+00 -0.10146106641E+04  0.18178350389E+04  0.15083399579E+04 0.  0.
        5    1    3    3  502    0  0.44325435798E+02  0.11605663911E+02 -0.14145261328E+04  0.14152758410E+04  0.46999998093E+01 0.  1.
       -5    1    3    3    0  502 -0.44325435798E+02 -0.11605663911E+02  0.39991546869E+03  0.40255919787E+03  0.46999998093E+01 0. -1.
</event>
<event>
 5   0  0.2993993E-03  0.1432427E+04  0.7818609E-02  0.8930675E-01
       -2   -1    0    0    0  501  0.00000000000E+00  0.00000000000E+00  0.33826485914E+03  0.33826485915E+03  0.25500000920E-02 0. -1.
        2   -1    0    0  501    0  0.00000000000E+00  0.00000000000E+00 -0.15164495313E+04  0.15164495313E+04  0.25500000920E-02 0.  1.
    10030    2    1    2    0    0  0.00000000000E+00  0.00000000000E+00 -0.11781846722E+04  0.18547143905E+04  0.14324267341E+04 0.  0.
        3    1    3    3  502    0 -0.29265734819E+03  0.85901127727E+02 -0.14281566919E+04  0.14603625831E+04  0.10100000352E+00 0. -1.
       -3    1    3    3    0  502  0.29265734819E+03 -0.85901127727E+02  0.24997201970E+03  0.39435180743E+03  0.10100000352E+00 0.  1.
</event>
<event>
 5   0  0.1586022E-03  0.1395863E+04  0.7818609E-02  0.8956819E-01
       -1   -1    0    0    0  501  0.00000000000E+00  0.00000000000E+00  0.73133806846E+03  0.73133806848E+03  0.50400001928E-02 0. -1.
        1   -1    0    0  501    0  0.00000000000E+00  0.00000000000E+00 -0.66605086654E+03  0.66605086656E+03  0.50400001928E-02 0.  1.
    10030    2    1    2    0    0  0.00000000000E+00  0.00000000000E+00  0.65287201920E+02  0.13973889350E+04  0.13958629650E+04 0.  0.
        1    1    3    3  502    0 -0.25301422419E+03 -0.39302147585E+02  0.68262027798E+03  0.72906193179E+03  0.50400001928E-02 0. -1.
       -1    1    3    3    0  502  0.25301422419E+03  0.39302147585E+02 -0.61733307606E+03  0.66832700325E+03  0.50400001928E-02 0.  1.
</event>
<event>
 5   0  0.1586022E-03  0.1376992E+04  0.7818609E-02  0.8970644E-01
        1   -1    0    0  501    0  0.00000000000E+00  0.00000000000E+00  0.63304421666E+03  0.63304421668E+03  0.50400001928E-02 0.  1.
       -1   -1    0    0    0  501  0.00000000000E+00  0.00000000000E+00 -0.74880486892E+03  0.74880486894E+03  0.50400001928E-02 0. -1.
    10030    2    1    2    0    0  0.00000000000E+00  0.00000000000E+00 -0.11576065227E+03  0.13818490856E+04  0.13769917817E+04 0.  0.
        1    1    3    3  502    0  0.26097916121E+03 -0.52841043459E+03 -0.41508378703E+03  0.72084829212E+03  0.50400001928E-02 0. -1.
       -1    1    3    3    0  502 -0.26097916121E+03  0.52841043459E+03  0.29932313477E+03  0.66100079349E+03  0.50400001928E-02 0.  1.
</event>
<event>
 5   0  0.2917809E-03  0.1383664E+04  0.7818609E-02  0.8965729E-01
       -2   -1    0    0    0  501  0.00000000000E+00  0.00000000000E+00  0.32870005484E+03  0.32870005485E+03  0.25500000920E-02 0. -1.
        2   -1    0    0  501    0  0.00000000000E+00  0.00000000000E+00 -0.14561344921E+04  0.14561344921E+04  0.25500000920E-02 0.  1.
    10030    2    1    2    0    0  0.00000000000E+00  0.00000000000E+00 -0.11274344373E+04  0.17848345470E+04  0.13836639584E+04 0.  0.
        2    1    3    3  502    0 -0.14645106235E+02 -0.66839091402E+03 -0.79327680929E+03  0.10374242089E+04  0.25500000920E-02 0.  1.
       -2    1    3    3    0  502  0.14645106235E+02  0.66839091402E+03 -0.33415762800E+03  0.74741033806E+03  0.25500000920E-02 0. -1.
</event>
<event>
 5   0  0.2760807E-03  0.1414561E+04  0.7818609E-02  0.8943345E-01
        2   -1    0    0  501    0  0.00000000000E+00  0.00000000000E+00  0.19289779399E+04  0.19289779399E+04  0.25500000920E-02 0.  1.
       -2   -1    0    0    0  501  0.00000000000E+00  0.00000000000E+00 -0.25933200242E+03  0.25933200243E+03  0.25500000920E-02 0. -1.
    10030    2    1    2    0    0  0.00000000000E+00  0.00000000000E+00  0.16696459375E+04  0.21883099423E+04  0.14145610086E+04 0.  0.
        4    1    3    3  502    0 -0.43224268255E+03 -0.17330113945E+03  0.11311770729E+02  0.46582892848E+03  0.12699999809E+01 0. -1.
       -4    1    3    3    0  502  0.43224268255E+03  0.17330113945E+03  0.16583341667E+04  0.17224810138E+04  0.12699999809E+01 0.  1.
</event>
<event>
 5   0  0.1560957E-03  0.1357593E+04  0.7818609E-02  0.8985100E-01
        1   -1    0    0  501    0  0.00000000000E+00  0.00000000000E+00  0.11307818316E+04  0.11307818316E+04  0.50400001928E-02 0. -1.
       -1   -1    0    0    0  501  0.00000000000E+00  0.00000000000E+00 -0.40747462891E+03  0.40747462894E+03  0.50400001928E-02 0.  1.
    10030    2    1    2    0    0  0.00000000000E+00  0.00000000000E+00  0.72330720268E+03  0.15382564606E+04  0.13575933224E+04 0.  0.
        5    1    3    3  502    0  0.41057146315E+01  0.66330112163E+02 -0.40376108917E+03  0.40922078124E+03  0.46999998093E+01 0.  1.
       -5    1    3    3    0  502 -0.41057146315E+01 -0.66330112163E+02  0.11270682918E+04  0.11290356793E+04  0.46999998093E+01 0. -1.
</event>
<event>
 5   0  0.1104538E-03  0.1420117E+04  0.7818609E-02  0.8939384E-01
       -3   -1    0    0    0  501  0.00000000000E+00  0.00000000000E+00  0.11167866797E+04  0.11167866843E+04  0.10100000352E+00 0.  1.
        3   -1    0    0  501    0  0.00000000000E+00  0.00000000000E+00 -0.45145853708E+03  0.45145854838E+03  0.10100000352E+00 0. -1.
    10030    2    1    2    0    0  0.00000000000E+00  0.00000000000E+00  0.66532814265E+03  0.15682452327E+04  0.14201167460E+04 0.  0.
        3    1    3    3  502    0  0.26031887044E+03  0.66019741244E+03  0.30661680816E+03  0.77307206323E+03  0.10100000352E+00 0. -1.
       -3    1    3    3    0  502 -0.26031887044E+03 -0.66019741244E+03  0.35871133449E+03  0.79517316944E+03  0.10100000352E+00 0.  1.
</event>
<event>
 5   0  0.2760807E-03  0.1434362E+04  0.7818609E-02  0.8929314E-01
        2   -1    0    0  501    0  0.00000000000E+00  0.00000000000E+00  0.16839585140E+04  0.16839585140E+04  0.25500000920E-02 0. -1.
       -2   -1    0    0    0  501  0.00000000000E+00  0.00000000000E+00 -0.30544021285E+03  0.30544021286E+03  0.25500000920E-02 0.  1.
    10030    2    1    2    0    0  0.00000000000E+00  0.00000000000E+00  0.13785183011E+04  0.19893987268E+04  0.14343620839E+04 0.  0.
        4    1    3    3  502    0 -0.34904756870E+03 -0.11058402222E+03 -0.16603808329E+03  0.40203642769E+03  0.12699999809E+01 0.  1.
       -4    1    3    3    0  502  0.34904756870E+03  0.11058402222E+03  0.15445563844E+04  0.15873622991E+04  0.12699999809E+01 0. -1.
</event>
<event>
 5   0  0.1560957E-03  0.1382183E+04  0.7818609E-02  0.8966817E-01
       -1   -1    0    0    0  501  0.00000000000E+00  0.00000000000E+00  0.10487117947E+04  0.10487117947E+04  0.50400001928E-02 0. -1.
        1   -1    0    0  501    0  0.00000000000E+00  0.00000000000E+00 -0.45542299221E+03  0.45542299223E+03  0.50400001928E-02 0.  1.
    10030    2    1    2    0    0  0.00000000000E+00  0.00000000000E+00  0.59328880249E+03  0.15041347869E+04  0.13821830031E+04 0.  0.
        5    1    3    3  502    0  0.22463858514E+02  0.29337354023E+03  0.97712640969E+03  0.10204757565E+04  0.46999998093E+01 0. -1.
       -5    1    3    3    0  502 -0.22463858514E+02 -0.29337354023E+03 -0.38383760720E+03  0.48365903046E+03  0.46999998093E+01 0.  1.
</event>
<event>
 5   0  0.1644571E-03  0.1267429E+04  0.7818609E-02  0.9055800E-01
       -1   -1    0    0    0  501  0.00000000000E+00  0.00000000000E+00  0.44338574189E+03  0.44338574192E+03  0.50400001928E-02 0. -1.
        1   -1    0    0  501    0  0.00000000000E+00  0.00000000000E+00 -0.90574485411E+03  0.90574485413E+03  0.50400001928E-02 0.  1.
    10030    2    1    2    0    0  0.00000000000E+00  0.00000000000E+00 -0.46235911222E+03  0.13491305960E+04  0.12674294523E+04 0.  0.
        4    1    3    3  502    0 -0.30072151941E+03 -0.52875825104E+03 -0.42032467701E+03  0.73938702131E+03  0.12699999809E+01 0.  1.
       -4    1    3    3    0  502  0.30072151941E+03  0.52875825104E+03 -0.42034435211E+02  0.60974357473E+03  0.12699999809E+01 0. -1.
</event>
<event>
 5   0  0.1586022E-03  0.1408140E+04  0.7818609E-02  0.8947947E-01
        1   -1    0    0  501    0  0.00000000000E+00  0.00000000000E+00  0.49860282539E+03  0.49860282541E+03  0.50400001928E-02 0.  1.
       -1   -1    0    0    0  501  0.00000000000E+00  0.00000000000E+00 -0.99420725295E+03  0.99420725296E+03  0.50400001928E-02 0. -1.
    10030    2    1    2    0    0  0.00000000000E+00  0.00000000000E+00 -0.49560442756E+03  0.14928100784E+04  0.14081399723E+04 0.  0.
        1    1    3    3  502    0 -0.43940591319E+03 -0.35362406827E+03 -0.69455197159E+03  0.89472340948E+03  0.50400001928E-02 0. -1.
       -1    1    3    3    0  502  0.43940591319E+03  0.35362406827E+03  0.19894754403E+03  0.59808666889E+03  0.50400001928E-02 0.  1.
</event>
<event>
 5   0  0.1586022E-03  0.1415186E+04  0.7818609E-02  0.8942899E-01
       -1   -1    0    0    0  501  0.00000000000E+00  0.00000000000E+00  0.91496067899E+03  0.91496067900E+03  0.50400001928E-02 0.  1.
        1   -1    0    0  501    0  0.00000000000E+00  0.00000000000E+00 -0.54722360644E+03  0.54722360646E+03  0.50400001928E-02 0. -1.
    10030    2    1    2    0    0  0.00000000000E+00  0.00000000000E+00  0.36773707255E+03  0.14621842855E+04  0.14151863235E+04 0.  0.
        1    1    3    3  502    0 -0.11017418138E+03 -0.69834361954E+03  0.21427232479E+03  0.73873864823E+03  0.50400001928E-02 0. -1.
       -1    1    3    3    0  502  0.11017418138E+03  0.69834361954E+03  0.15346474776E+03  0.72344563723E+03  0.50400001928E-02 0.  1.
</event>
<event>
 5   0  0.1586022E-03  0.1452811E+04  0.7818609E-02  0.8916454E-01
        1   -1    0    0  501    0  0.00000000000E+00  0.00000000000E+00  0.98620455187E+03  0.98620455188E+03  0.50400001928E-02 0.  1.
       -1   -1    0    0    0  501  0.00000000000E+00  0.00000000000E+00 -0.53504586012E+03  0.53504586014E+03  0.50400001928E-02 0. -1.
    10030    2    1    2    0    0  0.00000000000E+00  0.00000000000E+00  0.45115869175E+03  0.15212504120E+04  0.14528106039E+04 0.  0.
        1    1    3    3  502    0  0.39772589577E+03 -0.27283048762E+03  0.79434563784E+03  0.92930476999E+03  0.50400001928E-02 0.  1.
       -1    1    3    3    0  502 -0.39772589577E+03  0.27283048762E+03 -0.34318694609E+03  0.59194564204E+03  0.50400001928E-02 0. -1.
</event>
<event>
 5   0  0.1104538E-03  0.1423105E+04  0.7818609E-02  0.8937262E-01
       -4   -1    0    0    0  501  0.00000000000E+00  0.00000000000E+00  0.16153631412E+04  0.16153636405E+04  0.12699999809E+01 0.  1.
        4   -1    0    0  501    0  0.00000000000E+00  0.00000000000E+00 -0.31343040783E+03  0.31343298080E+03  0.12699999809E+01 0. -1.
    10030    2    1    2    0    0  0.00000000000E+00  0.00000000000E+00  0.13019327334E+04  0.19287966213E+04  0.14231049026E+04 0.  0.
        5    1    3    3  502    0 -0.54179337282E+03 -0.44584122789E+03  0.81116287123E+03  0.10725305371E+04  0.46999998093E+01 0. -1.
       -5    1    3    3    0  502  0.54179337282E+03  0.44584122789E+03  0.49076986219E+03  0.85626608420E+03  0.46999998093E+01 0.  1.
</event>
<event>
 5   0  0.1560957E-03  0.1449655E+04  0.7818609E-02  0.8918640E-01
       -1   -1    0    0    0  501  0.00000000000E+00  0.00000000000E+00  0.34235413170E+03  0.34235413174E+03  0.50400001928E-02 0.  1.
        1   -1    0    0  501    0  0.00000000000E+00  0.00000000000E+00 -0.15345938691E+04  0.15345938691E+04  0.50400001928E-02 0. -1.
    10030    2    1    2    0    0  0.00000000000E+00  0.00000000000E+00 -0.11922397374E+04  0.18769480009E+04  0.14496545128E+04 0.  0.
        5    1    3    3  502    0 -0.19618329568E+03  0.94398411615E+02 -0.14912384234E+04  0.15070544353E+04  0.46999998093E+01 0. -1.
       -5    1    3    3    0  502  0.19618329568E+03 -0.94398411615E+02  0.29899868597E+03  0.36989356554E+03  0.46999998093E+01 0.  1.
</event>
<event>
 5   0  0.2993993E-03  0.1383720E+04  0.7818609E-02  0.8965688E-01
       -2   -1    0    0    0  501  0.00000000000E+00  0.00000000000E+00  0.50982172439E+03  0.50982172440E+03  0.25500000920E-02 0. -1.
        2   -1    0    0  501    0  0.00000000000E+00  0.00000000000E+00 -0.93889761793E+03  0.93889761793E+03  0.25500000920E-02 0.  1.
    10030    2    1    2    0    0  0.00000000000E+00  0.00000000000E+00 -0.42907589354E+03  0.14487193423E+04  0.13837202067E+04 0.  0.
        3    1    3    3  502    0 -0.60357401035E+03 -0.56045533755E+02  0.13463650735E+03  0.62094257958E+03  0.10100000352E+00 0. -1.
       -3    1    3    3    0  502  0.60357401035E+03  0.56045533755E+02 -0.56371240089E+03  0.82777676274E+03  0.10100000352E+00 0.  1.
</event>
<event>
 5   0  0.1631380E-03  0.1007417E+04  0.7818609E-02  0.9300447E-01
        1   -1    0    0  501    0  0.00000000000E+00  0.00000000000E+00  0.25801986368E+03  0.25801986373E+03  0.50400001928E-02 0.  1.
       -1   -1    0    0    0  501  0.00000000000E+00  0.00000000000E+00 -0.98334461637E+03  0.98334461638E+03  0.50400001928E-02 0. -1.
    10030    2    1    2    0    0  0.00000000000E+00  0.00000000000E+00 -0.72532475269E+03  0.12413644801E+04  0.10074173791E+04 0.  0.
        3    1    3    3  502    0 -0.48220077840E+02 -0.20322795740E+03 -0.92746721861E+03  0.95069565602E+03  0.10100000352E+00 0. -1.
       -3    1    3    3    0  502  0.48220077840E+02  0.20322795740E+03  0.20214246592E+03  0.29066882410E+03  0.10100000352E+00 0.  1.
</event>
<event>
 5   0  0.1700207E-03  0.1441381E+04  0.7818609E-02  0.8924398E-01
       -1   -1    0    0    0  501  0.00000000000E+00  0.00000000000E+00  0.62872796044E+03  0.62872796046E+03  0.50400001928E-02 0.  1.
        1   -1    0    0  501    0  0.00000000000E+00  0.00000000000E+00 -0.82610441265E+03  0.82610441267E+03  0.50400001928E-02 0. -1.
    10030    2    1    2    0    0  0.00000000000E+00  0.00000000000E+00 -0.19737645221E+03  0.14548323731E+04  0.14413812022E+04 0.  0.
        2    1    3    3  502    0 -0.27950274334E+03 -0.43284422823E+03 -0.60729452023E+03  0.79641857320E+03  0.25500000920E-02 0. -1.
       -2    1    3    3    0  502  0.27950274334E+03  0.43284422823E+03  0.40991806801E+03  0.65841379993E+03  0.25500000920E-02 0.  1.
</event>
<event>
 5   0  0.2889469E-03  0.1403050E+04  0.7818609E-02  0.8951614E-01
        2   -1    0    0  501    0  0.00000000000E+00  0.00000000000E+00  0.15977460846E+04  0.15977460847E+04  0.25500000920E-02 0.  1.
       -2   -1    0    0    0  501  0.00000000000E+00  0.00000000000E+00 -0.30801963994E+03  0.30801963995E+03  0.25500000920E-02 0. -1.
    10030    2    1    2    0    0  0.00000000000E+00  0.00000000000E+00  0.12897264447E+04  0.19057657246E+04  0.14030497835E+04 0.  0.
        5    1    3    3  502    0 -0.54422674022E+03 -0.25416331007E+03  0.11371112029E+04  0.12860115516E+04  0.46999998093E+01 0.  1.
       -5    1    3    3    0  502  0.54422674022E+03  0.25416331007E+03  0.15261524176E+03  0.61975417302E+03  0.46999998093E+01 0. -1.
</event>
<event>
 5   0  0.2993993E-03  0.1404033E+04  0.7818609E-02  0.8950905E-01
        2   -1    0    0  501    0  0.00000000000E+00  0.00000000000E+00  0.94164684685E+03  0.94164684685E+03  0.25500000920E-02 0. -1.
       -2   -1    0    0    0  501  0.00000000000E+00  0.00000000000E+00 -0.52336707499E+03  0.52336707499E+03  0.25500000920E-02 0.  1.
    10030    2    1    2    0    0  0.00000000000E+00  0.00000000000E+00  0.41827977186E+03  0.14650139218E+04  0.14040327003E+04 0.  0.
        3    1    3    3  502    0 -0.49948795406E+03  0.27968121699E+03  0.63313476969E+03  0.85356279569E+03  0.10100000352E+00 0. -1.
       -3    1    3    3    0  502  0.49948795406E+03 -0.27968121699E+03 -0.21485499783E+03  0.61145112616E+03  0.10100000352E+00 0.  1.
</event>
<event>
 5   0  0.1586022E-03  0.1387463E+04  0.7818609E-02  0.8962944E-01
       -1   -1    0    0    0  501  0.00000000000E+00  0.00000000000E+00  0.32364397035E+03  0.32364397039E+03  0.50400001928E-02 0.  1.
        1   -1    0    0  501    0  0.00000000000E+00  0.00000000000E+00 -0.14870151045E+04  0.14870151045E+04  0.50400001928E-02 0. -1.
    10030    2    1    2    0    0  0.00000000000E+00  0.00000000000E+00 -0.11633711342E+04  0.18106590749E+04  0.13874631129E+04 0.  0.
        1    1    3    3  502    0 -0.39335504429E+02 -0.69247851317E+03 -0.59965970644E+03  0.91687814712E+03  0.50400001928E-02 0.  1.
       -1    1    3    3    0  502  0.39335504429E+02  0.69247851317E+03 -0.56371142772E+03  0.89378092779E+03  0.50400001928E-02 0. -1.
</event>
<event>
 5   0  0.2760807E-03  0.1295690E+04  0.7818609E-02  0.9032990E-01
       -2   -1    0    0    0  501  0.00000000000E+00  0.00000000000E+00  0.19675170138E+03  0.19675170140E+03  0.25500000920E-02 0. -1.
        2   -1    0    0  501    0  0.00000000000E+00  0.00000000000E+00 -0.21331610581E+04  0.21331610581E+04  0.25500000920E-02 0.  1.
    10030    2    1    2    0    0  0.00000000000E+00  0.00000000000E+00 -0.19364093567E+04  0.23299127595E+04  0.12956898819E+04 0.  0.
        4    1    3    3  502    0 -0.25487887502E+02 -0.36533926784E+03 -0.72525383680E+01  0.36630127661E+03  0.12699999809E+01 0. -1.
       -4    1    3    3    0  502  0.25487887502E+02  0.36533926784E+03 -0.19291568184E+04  0.19636114829E+04  0.12699999809E+01 0.  1.
</event>
<event>
 5   0  0.3006737E-03  0.1158529E+04  0.7818609E-02  0.9149951E-01
        2   -1    0    0  501    0  0.00000000000E+00  0.00000000000E+00  0.81040640174E+03  0.81040640175E+03  0.25500000920E-02 0.  1.
       -2   -1    0    0    0  501  0.00000000000E+00  0.00000000000E+00 -0.41404811445E+03  0.41404811445E+03  0.25500000920E-02 0. -1.
    10030    2    1    2    0    0  0.00000000000E+00  0.00000000000E+00  0.39635828730E+03  0.12244545162E+04  0.11585287956E+04 0.  0.
        1    1    3    3  502    0 -0.27130456804E+03  0.35399432752E+03 -0.19248847250E+03  0.48576739766E+03  0.50400001928E-02 0. -1.
       -1    1    3    3    0  502  0.27130456804E+03 -0.35399432752E+03  0.58884675980E+03  0.73868711854E+03  0.50400001928E-02 0.  1.
</event>
<event>
 5   0  0.2993993E-03  0.1385767E+04  0.7818609E-02  0.8964186E-01
       -2   -1    0    0    0  501  0.00000000000E+00  0.00000000000E+00  0.95092277230E+03  0.95092277231E+03  0.25500000920E-02 0. -1.
        2   -1    0    0  501    0  0.00000000000E+00  0.00000000000E+00 -0.50486515646E+03  0.50486515647E+03  0.25500000920E-02 0.  1.
    10030    2    1    2    0    0  0.00000000000E+00  0.00000000000E+00  0.44605761584E+03  0.14557879288E+04  0.13857673315E+04 0.  0.
        3    1    3    3  502    0 -0.21272091730E+03  0.36918408525E+03 -0.35096810762E+03  0.55201965565E+03  0.10100000352E+00 0.  1.
       -3    1    3    3    0  502  0.21272091730E+03 -0.36918408525E+03  0.79702572346E+03  0.90376827313E+03  0.10100000352E+00 0. -1.
</event>
<event>
 5   0  0.1560957E-03  0.1408745E+04  0.7818609E-02  0.8947512E-01
        1   -1    0    0  501    0  0.00000000000E+00  0.00000000000E+00  0.99320907471E+03  0.99320907472E+03  0.50400001928E-02 0.  1.
       -1   -1    0    0    0  501  0.00000000000E+00  0.00000000000E+00 -0.49953316856E+03  0.49953316858E+03  0.50400001928E-02 0. -1.
    10030    2    1    2    0    0  0.00000000000E+00  0.00000000000E+00  0.49367590615E+03  0.14927422433E+04  0.14087453654E+04 0.  0.
        5    1    3    3  502    0  0.68573956854E+03 -0.83780277885E+02  0.10131433781E+03  0.69824392290E+03  0.46999998093E+01 0. -1.
       -5    1    3    3    0  502 -0.68573956854E+03  0.83780277885E+02  0.39236156834E+03  0.79449832041E+03  0.46999998093E+01 0.  1.
</event>
<event>
 5   0  0.1700207E-03  0.1454046E+04  0.7818609E-02  0.8915600E-01
       -1   -1    0    0    0  501  0.00000000000E+00  0.00000000000E+00  0.48001133366E+03  0.48001133368E+03  0.50400001928E-02 0.  1.
        1   -1    0    0  501    0  0.00000000000E+00  0.00000000000E+00 -0.11011453101E+04  0.11011453101E+04  0.50400001928E-02 0. -1.
    10030    2    1    2    0    0  0.00000000000E+00  0.00000000000E+00 -0.62113397640E+03  0.15811566438E+04  0.14540457061E+04 0.  0.
        2    1    3    3  502    0 -0.37697116420E+03 -0.22478101536E+03 -0.94082770921E+03  0.10381669143E+04  0.25500000920E-02 0. -1.
       -2    1    3    3    0  502  0.37697116420E+03  0.22478101536E+03  0.31969373281E+03  0.54298972947E+03  0.25500000920E-02 0.  1.
</event>
<event>
 5   0  0.1586022E-03  0.1380671E+04  0.7818609E-02  0.8967930E-01
       -1   -1    0    0    0  501  0.00000000000E+00  0.00000000000E+00  0.55274903455E+03  0.55274903457E+03  0.50400001928E-02 0.  1.
        1   -1    0    0  501    0  0.00000000000E+00  0.00000000000E+00 -0.86216899437E+03  0.86216899438E+03  0.50400001928E-02 0. -1.
    10030    2    1    2    0    0  0.00000000000E+00  0.00000000000E+00 -0.30941995982E+03  0.14149180290E+04  0.13806709663E+04 0.  0.
        1    1    3    3  502    0 -0.68355256839E+03 -0.33763178237E+02 -0.62028801872E+02  0.68719112206E+03  0.50400001928E-02 0.  1.
       -1    1    3    3    0  502  0.68355256839E+03  0.33763178237E+02 -0.24739115795E+03  0.72772690689E+03  0.50400001928E-02 0. -1.
</event>
<event>
 5   0  0.2917809E-03  0.1421188E+04  0.7818609E-02  0.8938623E-01
       -2   -1    0    0    0  501  0.00000000000E+00  0.00000000000E+00  0.45154748253E+03  0.45154748253E+03  0.25500000920E-02 0. -1.
        2   -1    0    0  501    0  0.00000000000E+00  0.00000000000E+00 -0.11182525789E+04  0.11182525789E+04  0.25500000920E-02 0.  1.
    10030    2    1    2    0    0  0.00000000000E+00  0.00000000000E+00 -0.66670509633E+03  0.15698000614E+04  0.14211884278E+04 0.  0.
        2    1    3    3  502    0  0.34993201464E+03 -0.34657539263E+03 -0.89914316611E+03  0.10251952745E+04  0.25500000920E-02 0.  1.
       -2    1    3    3    0  502 -0.34993201464E+03  0.34657539263E+03  0.23243806978E+03  0.54460478692E+03  0.25500000920E-02 0. -1.
</event>
<event>
 5   0  0.2760807E-03  0.1020380E+04  0.7818609E-02  0.9286471E-01
       -2   -1    0    0    0  501  0.00000000000E+00  0.00000000000E+00  0.21560611634E+03  0.21560611636E+03  0.25500000920E-02 0.  1.
        2   -1    0    0  501    0  0.00000000000E+00  0.00000000000E+00 -0.12072651013E+04  0.12072651013E+04  0.25500000920E-02 0. -1.
    10030    2    1    2    0    0  0.00000000000E+00  0.00000000000E+00 -0.99165898493E+03  0.14228712176E+04  0.10203798114E+04 0.  0.
        4    1    3    3  502    0 -0.17359075421E+03  0.78704321627E+02 -0.11557518640E+04  0.11713633528E+04  0.12699999809E+01 0. -1.
       -4    1    3    3    0  502  0.17359075421E+03 -0.78704321627E+02  0.16409287911E+03  0.25150786482E+03  0.12699999809E+01 0.  1.
</event>
<event>
 5   0  0.1700207E-03  0.1403739E+04  0.7818609E-02  0.8951116E-01
       -1   -1    0    0    0  501  0.00000000000E+00  0.00000000000E+00  0.50383436168E+03  0.50383436170E+03  0.50400001928E-02 0. -1.
        1   -1    0    0  501    0  0.00000000000E+00  0.00000000000E+00 -0.97774368034E+03  0.97774368036E+03  0.50400001928E-02 0.  1.
    10030    2    1    2    0    0  0.00000000000E+00  0.00000000000E+00 -0.47390931866E+03  0.14815780421E+04  0.14037390970E+04 0.  0.
        2    1    3    3  502    0 -0.22354818032E+03 -0.15153585898E+03 -0.92070777945E+03  0.95949972414E+03  0.25500000920E-02 0.  1.
       -2    1    3    3    0  502  0.22354818032E+03  0.15153585898E+03  0.44679846078E+03  0.52207831792E+03  0.25500000920E-02 0. -1.
</event>
<event>
 5   0  0.1560957E-03  0.1240902E+04  0.7818609E-02  0.9077790E-01
       -1   -1    0    0    0  501  0.00000000000E+00  0.00000000000E+00  0.67763752609E+03  0.67763752611E+03  0.50400001928E-02 0.  1.
        1   -1    0    0  501    0  0.00000000000E+00  0.00000000000E+00 -0.56809007644E+03  0.56809007646E+03  0.50400001928E-02 0. -1.
    10030    2    1    2    0    0  0.00000000000E+00  0.00000000000E+00  0.10954744965E+03  0.12457276026E+04  0.12409015336E+04 0.  0.
        5    1    3    3  502    0  0.46266435485E+01 -0.10042499814E+03  0.66938880886E+03  0.67691214607E+03  0.46999998093E+01 0.  1.
       -5    1    3    3    0  502 -0.46266435485E+01  0.10042499814E+03 -0.55984135921E+03  0.56881545650E+03  0.46999998093E+01 0. -1.
</event>
<event>
 5   0  0.1700207E-03  0.1397439E+04  0.7818609E-02  0.8955674E-01
        1   -1    0    0  501    0  0.00000000000E+00  0.00000000000E+00  0.16440333697E+04  0.16440333697E+04  0.50400001928E-02 0. -1.
       -1   -1    0    0    0  501  0.00000000000E+00  0.00000000000E+00 -0.29695814972E+03  0.29695814977E+03  0.50400001928E-02 0.  1.
    10030    2    1    2    0    0  0.00000000000E+00  0.00000000000E+00  0.13470752200E+04  0.19409915195E+04  0.13974392403E+04 0.  0.
        2    1    3    3  502    0  0.52400921173E+03 -0.45121037061E+03  0.81266051718E+03  0.10670490001E+04  0.25500000920E-02 0.  1.
       -2    1    3    3    0  502 -0.52400921173E+03  0.45121037061E+03  0.53441470280E+03  0.87394251933E+03  0.25500000920E-02 0. -1.
</event>
<event>
 5   0  0.1104538E-03  0.1434439E+04  0.7818609E-02  0.8929260E-01
        3   -1    0    0  501    0  0.00000000000E+00  0.00000000000E+00  0.96670921812E+03  0.96670922340E+03  0.10100000352E+00 0. -1.
       -3   -1    0    0    0  501  0.00000000000E+00  0.00000000000E+00 -0.53211869940E+03  0.53211870899E+03  0.10100000352E+00 0.  1.
    10030    2    1    2    0    0  0.00000000000E+00  0.00000000000E+00  0.43459051872E+03  0.14988279324E+04  0.14344393511E+04 0.  0.
        1    1    3    3  502    0 -0.34148154329E+03 -0.13711551270E+03  0.86055387842E+03  0.93592910305E+03  0.50400001928E-02 0. -1.
       -1    1    3    3    0  502  0.34148154329E+03  0.13711551270E+03 -0.42596335971E+03  0.56289882934E+03  0.50400001928E-02 0.  1.
</event>
<event>
 5   0  0.2917809E-03  0.1429422E+04  0.7818609E-02  0.8932793E-01
       -2   -1    0    0    0  501  0.00000000000E+00  0.00000000000E+00  0.86621454959E+03  0.86621454960E+03  0.25500000920E-02 0.  1.
        2   -1    0    0  501    0  0.00000000000E+00  0.00000000000E+00 -0.58970560635E+03  0.58970560636E+03  0.25500000920E-02 0. -1.
    10030    2    1    2    0    0  0.00000000000E+00  0.00000000000E+00  0.27650894324E+03  0.14559201560E+04  0.14294216680E+04 0.  0.
        2    1    3    3  502    0 -0.17336385106E+03  0.66412535409E+03 -0.64672599816E+02  0.68942008672E+03  0.25500000920E-02 0.  1.
       -2    1    3    3    0  502  0.17336385106E+03 -0.66412535409E+03  0.34118154306E+03  0.76650006923E+03  0.25500000920E-02 0. -1.
</event>
<event>
 5   0  0.2993993E-03  0.1392880E+04  0.7818609E-02  0.8958988E-01
        2   -1    0    0  501    0  0.00000000000E+00  0.00000000000E+00  0.30694135032E+03  0.30694135033E+03  0.25500000920E-02 0. -1.
       -2   -1    0    0    0  501  0.00000000000E+00  0.00000000000E+00 -0.15802008864E+04  0.15802008864E+04  0.25500000920E-02 0.  1.
    10030    2    1    2    0    0  0.00000000000E+00  0.00000000000E+00 -0.12732595360E+04  0.18871422367E+04  0.13928804598E+04 0.  0.
        3    1    3    3  502    0 -0.21765880418E+03  0.88603070032E+02 -0.15248600456E+04  0.15428622842E+04  0.10100000352E+00 0.  1.
       -3    1    3    3    0  502  0.21765880418E+03 -0.88603070032E+02  0.25160050959E+03  0.34427995249E+03  0.10100000352E+00 0. -1.
</event>
<event>
 5   0  0.2917809E-03  0.1502149E+04  0.7818609E-02  0.8883025E-01
        2   -1    0    0  501    0  0.00000000000E+00  0.00000000000E+00  0.17298208157E+04  0.17298208157E+04  0.25500000920E-02 0. -1.
       -2   -1    0    0    0  501  0.00000000000E+00  0.00000000000E+00 -0.32611070411E+03  0.32611070412E+03  0.25500000920E-02 0.  1.
    10030    2    1    2    0    0  0.00000000000E+00  0.00000000000E+00  0.14037101116E+04  0.20559315198E+04  0.15021492392E+04 0.  0.
        2    1    3    3  502    0 -0.39121356394E+03 -0.16343782911E+03 -0.14666236087E+03  0.44863105633E+03  0.25500000920E-02 0.  1.
       -2    1    3    3    0  502  0.39121356394E+03  0.16343782911E+03  0.15503724724E+04  0.16073004635E+04  0.25500000920E-02 0. -1.
</event>
<event>
 5   0  0.1631380E-03  0.1440896E+04  0.7818609E-02  0.8924737E-01
       -1   -1    0    0    0  501  0.00000000000E+00  0.00000000000E+00  0.76412822310E+03  0.76412822312E+03  0.50400001928E-02 0. -1.
        1   -1    0    0  501    0  0.00000000000E+00  0.00000000000E+00 -0.67926422486E+03  0.67926422488E+03  0.50400001928E-02 0.  1.
    10030    2    1    2    0    0  0.00000000000E+00  0.00000000000E+00  0.84863998237E+02  0.14433924480E+04  0.14408955065E+04 0.  0.
        3    1    3    3  502    0 -0.50835239545E+03  0.39041674298E+03  0.37193599288E+03  0.74106935179E+03  0.10100000352E+00 0. -1.
       -3    1    3    3    0  502  0.50835239545E+03 -0.39041674298E+03 -0.28707199465E+03  0.70232309621E+03  0.10100000352E+00 0.  1.
</event>
<event>
 5   0  0.1560957E-03  0.1369359E+04  0.7818609E-02  0.8976302E-01
        1   -1    0    0  501    0  0.00000000000E+00  0.00000000000E+00  0.23644063122E+04  0.23644063122E+04  0.50400001928E-02 0.  1.
       -1   -1    0    0    0  501  0.00000000000E+00  0.00000000000E+00 -0.19826797109E+03  0.19826797115E+03  0.50400001928E-02 0. -1.
    10030    2    1    2    0    0  0.00000000000E+00  0.00000000000E+00  0.21661383411E+04  0.25626742833E+04  0.13693590361E+04 0.  0.
        5    1    3    3  502    0  0.44526251315E+03  0.51827296344E+03  0.11646086441E+04  0.13502595877E+04  0.46999998093E+01 0.  1.
       -5    1    3    3    0  502 -0.44526251315E+03 -0.51827296344E+03  0.10015296970E+04  0.12124146956E+04  0.46999998093E+01 0. -1.
</event>
<event>
 5   0  0.2889469E-03  0.1402765E+04  0.7818609E-02  0.8951819E-01
        2   -1    0    0  501    0  0.00000000000E+00  0.00000000000E+00  0.90215891185E+03  0.90215891186E+03  0.25500000920E-02 0. -1.
       -2   -1    0    0    0  501  0.00000000000E+00  0.00000000000E+00 -0.54528924581E+03  0.54528924582E+03  0.25500000920E-02 0.  1.
    10030    2    1    2    0    0  0.00000000000E+00  0.00000000000E+00  0.35686966604E+03  0.14474481577E+04  0.14027652015E+04 0.  0.
        5    1    3    3  502    0  0.55000995763E+03  0.42760950565E+03  0.94895349052E+02  0.70312734272E+03  0.46999998093E+01 0. -1.
       -5    1    3    3    0  502 -0.55000995763E+03 -0.42760950565E+03  0.26197431699E+03  0.74432081495E+03  0.46999998093E+01 0.  1.
</event>
<event>
 5   0  0.1560957E-03  0.1370876E+04  0.7818609E-02  0.8975174E-01
       -1   -1    0    0    0  501  0.00000000000E+00  0.00000000000E+00  0.14110429399E+04  0.14110429399E+04  0.50400001928E-02 0.  1.
        1   -1    0    0  501    0  0.00000000000E+00  0.00000000000E+00 -0.33296307340E+03  0.33296307344E+03  0.50400001928E-02 0. -1.
    10030    2    1    2    0    0  0.00000000000E+00  0.00000000000E+00  0.10780798665E+04  0.17440060133E+04  0.13708759156E+04 0.  0.
        5    1    3    3  502    0  0.31236025563E+03  0.60781848408E+03  0.47183219902E+03  0.83045767678E+03  0.46999998093E+01 0. -1.
       -5    1    3    3    0  502 -0.31236025563E+03 -0.60781848408E+03  0.60624766744E+03  0.91354833653E+03  0.46999998093E+01 0.  1.
</event>
<event>
 5   0  0.1700207E-03  0.1299347E+04  0.7818609E-02  0.9030083E-01
        1   -1    0    0  501    0  0.00000000000E+00  0.00000000000E+00  0.21961164008E+04  0.21961164008E+04  0.50400001928E-02 0.  1.
       -1   -1    0    0    0  501  0.00000000000E+00  0.00000000000E+00 -0.19219188624E+03  0.19219188630E+03  0.50400001928E-02 0. -1.
    10030    2    1    2    0    0  0.00000000000E+00  0.00000000000E+00  0.20039245146E+04  0.23883082871E+04  0.12993471492E+04 0.  0.
        2    1    3    3  502    0 -0.69396170593E+02  0.18663570173E+03 -0.13472105367E+03  0.24041313600E+03  0.25500000920E-02 0. -1.
       -2    1    3    3    0  502  0.69396170593E+02 -0.18663570173E+03  0.21386455683E+04  0.21478951511E+04  0.25500000920E-02 0.  1.
</event>
<event>
 5   0  0.2889469E-03  0.1389141E+04  0.7818609E-02  0.8961716E-01
       -2   -1    0    0    0  501  0.00000000000E+00  0.00000000000E+00  0.52570276496E+03  0.52570276497E+03  0.25500000920E-02 0.  1.
        2   -1    0    0  501    0  0.00000000000E+00  0.00000000000E+00 -0.91768270078E+03  0.91768270078E+03  0.25500000920E-02 0. -1.
    10030    2    1    2    0    0  0.00000000000E+00  0.00000000000E+00 -0.39197993581E+03  0.14433854658E+04  0.13891412213E+04 0.  0.
        5    1    3    3  502    0 -0.37070749818E+03  0.59125207216E+00  0.41429693375E+03  0.55595722686E+03  0.46999998093E+01 0.  1.
       -5    1    3    3    0  502  0.37070749818E+03 -0.59125207216E+00 -0.80627686956E+03  0.88742823889E+03  0.46999998093E+01 0. -1.
</event>
<event>
 5   0  0.1586022E-03  0.1420951E+04  0.7818609E-02  0.8938791E-01
        1   -1    0    0  501    0  0.00000000000E+00  0.00000000000E+00  0.63870337307E+03  0.63870337309E+03  0.50400001928E-02 0.  1.
       -1   -1    0    0    0  501  0.00000000000E+00  0.00000000000E+00 -0.79031291586E+03  0.79031291588E+03  0.50400001928E-02 0. -1.
    10030    2    1    2    0    0  0.00000000000E+00  0.00000000000E+00 -0.15160954279E+03  0.14290162890E+04  0.14209511254E+04 0.  0.
        1    1    3    3  502    0  0.65668720836E+03 -0.26628498236E+03 -0.12737686353E+03  0.71997961557E+03  0.50400001928E-02 0. -1.
       -1    1    3    3    0  502 -0.65668720836E+03  0.26628498236E+03 -0.24232679260E+02  0.70903667339E+03  0.50400001928E-02 0.  1.
</event>
<event>
 5   0  0.2993993E-03  0.1272923E+04  0.7818609E-02  0.9051317E-01
       -2   -1    0    0    0  501  0.00000000000E+00  0.00000000000E+00  0.61827057563E+03  0.61827057564E+03  0.25500000920E-02 0. -1.
        2   -1    0    0  501    0  0.00000000000E+00  0.00000000000E+00 -0.65518799861E+03  0.65518799862E+03  0.25500000920E-02 0.  1.
    10030    2    1    2    0    0  0.00000000000E+00  0.00000000000E+00 -0.36917422979E+02  0.12734585743E+04  0.12729233458E+04 0.  0.
        3    1    3    3  502    0 -0.23813360580E+03 -0.55724340775E+03  0.17618830829E+03  0.63108649159E+03  0.10100000352E+00 0. -1.
       -3    1    3    3    0  502  0.23813360580E+03  0.55724340775E+03 -0.21310573127E+03  0.64237208267E+03  0.10100000352E+00 0.  1.
</event>
<event>
 5   0  0.2760807E-03  0.1310997E+04  0.7818609E-02  0.9020889E-01
        2   -1    0    0  501    0  0.00000000000E+00  0.00000000000E+00  0.59236345564E+03  0.59236345564E+03  0.25500000920E-02 0. -1.
       -2   -1    0    0    0  501  0.00000000000E+00  0.00000000000E+00 -0.72536311493E+03  0.72536311494E+03  0.25500000920E-02 0.  1.
    10030    2    1    2    0    0  0.00000000000E+00  0.00000000000E+00 -0.13299965929E+03  0.13177265706E+04  0.13109974849E+04 0.  0.
        4    1    3    3  502    0 -0.61773180342E+03  0.11730686760E+03 -0.25271680489E+03  0.67765837891E+03  0.12699999809E+01 0.  1.
       -4    1    3    3    0  502  0.61773180342E+03 -0.11730686760E+03  0.11971714559E+03  0.64006819167E+03  0.12699999809E+01 0. -1.
</event>
<event>
 5   0  0.2993993E-03  0.1326697E+04  0.7818609E-02  0.9008658E-01
        2   -1    0    0  501    0  0.00000000000E+00  0.00000000000E+00  0.57396971048E+03  0.57396971049E+03  0.25500000920E-02 0.  1.
       -2   -1    0    0    0  501  0.00000000000E+00  0.00000000000E+00 -0.76664592300E+03  0.76664592300E+03  0.25500000920E-02 0. -1.
    10030    2    1    2    0    0  0.00000000000E+00  0.00000000000E+00 -0.19267621251E+03  0.13406156335E+04  0.13266974613E+04 0.  0.
        3    1    3    3  502    0  0.24559003054E+03 -0.12449328168E+03 -0.70617455119E+03  0.75795484512E+03  0.10100000352E+00 0. -1.
       -3    1    3    3    0  502 -0.24559003054E+03  0.12449328168E+03  0.51349833868E+03  0.58266078838E+03  0.10100000352E+00 0.  1.
</event>
<event>
 5   0  0.1104538E-03  0.1396564E+04  0.7818609E-02  0.8956310E-01
        4   -1    0    0  501    0  0.00000000000E+00  0.00000000000E+00  0.88079862688E+03  0.88079954247E+03  0.12699999809E+01 0.  1.
       -4   -1    0    0    0  501  0.00000000000E+00  0.00000000000E+00 -0.55358397237E+03  0.55358542915E+03  0.12699999809E+01 0. -1.
    10030    2    1    2    0    0  0.00000000000E+00  0.00000000000E+00  0.32721465452E+03  0.14343849716E+04  0.13965639322E+04 0.  0.
        5    1    3    3  502    0  0.83910742784E+02 -0.35730775234E+03 -0.44650481923E+03  0.57801253121E+03  0.46999998093E+01 0. -1.
       -5    1    3    3    0  502 -0.83910742784E+02  0.35730775234E+03  0.77371947375E+03  0.85637244041E+03  0.46999998093E+01 0.  1.
</event>
<event>
 5   0  0.2760807E-03  0.1426540E+04  0.7818609E-02  0.8934829E-01
        2   -1    0    0  501    0  0.00000000000E+00  0.00000000000E+00  0.51011700723E+03  0.51011700723E+03  0.25500000920E-02 0. -1.
       -2   -1    0    0    0  501  0.00000000000E+00  0.00000000000E+00 -0.99732811607E+03  0.99732811607E+03  0.25500000920E-02 0.  1.
    10030    2    1    2    0    0  0.00000000000E+00  0.00000000000E+00 -0.48721110884E+03  0.15074451233E+04  0.14265399171E+04 0.  0.
        4    1    3    3  502    0 -0.52482084798E+03  0.44779755747E+03 -0.52247328012E+02  0.69187496785E+03  0.12699999809E+01 0.  1.
       -4    1    3    3    0  502  0.52482084798E+03 -0.44779755747E+03 -0.43496378083E+03  0.81557015546E+03  0.12699999809E+01 0. -1.
</event>
<event>
 5   0  0.1560957E-03  0.1409151E+04  0.7818609E-02  0.8947221E-01
       -1   -1    0    0    0  501  0.00000000000E+00  0.00000000000E+00  0.78896815589E+03  0.78896815591E+03  0.50400001928E-02 0. -1.
        1   -1    0    0  501    0  0.00000000000E+00  0.00000000000E+00 -0.62921035625E+03  0.62921035627E+03  0.50400001928E-02 0.  1.
    10030    2    1    2    0    0  0.00000000000E+00  0.00000000000E+00  0.15975779964E+03  0.14181785122E+04  0.14091514247E+04 0.  0.
        5    1    3    3  502    0 -0.56189961952E+03  0.33550139676E+03 -0.18277664101E+03  0.67950111122E+03  0.46999998093E+01 0.  1.
       -5    1    3    3    0  502  0.56189961952E+03 -0.33550139676E+03  0.34253444066E+03  0.73867740096E+03  0.46999998093E+01 0. -1.
</event>
<event>
 5   0  0.1104538E-03  0.1195417E+04  0.7818609E-02  0.9116878E-01
        4   -1    0    0  501    0  0.00000000000E+00  0.00000000000E+00  0.30737752225E+03  0.30738014589E+03  0.12699999809E+01 0.  1.
       -4   -1    0    0    0  501  0.00000000000E+00  0.00000000000E+00 -0.11622608730E+04  0.11622615668E+04  0.12699999809E+01 0. -1.
    10030    2    1    2    0    0  0.00000000000E+00  0.00000000000E+00 -0.85488335071E+03  0.14696417127E+04  0.11954167560E+04 0.  0.
        4    1    3    3  502    0 -0.30676149735E+03  0.28193060112E+02 -0.10571476583E+04  0.11011177272E+04  0.12699999809E+01 0. -1.
       -4    1    3    3    0  502  0.30676149735E+03 -0.28193060112E+02  0.20226430755E+03  0.36852398552E+03  0.12699999809E+01 0.  1.
</event>
<event>
 5   0  0.1104538E-03  0.1421577E+04  0.7818609E-02  0.8938346E-01
       -3   -1    0    0    0  501  0.00000000000E+00  0.00000000000E+00  0.36455523050E+03  0.36455524449E+03  0.10100000352E+00 0. -1.
        3   -1    0    0  501    0  0.00000000000E+00  0.00000000000E+00 -0.13858546741E+04  0.13858546778E+04  0.10100000352E+00 0.  1.
    10030    2    1    2    0    0  0.00000000000E+00  0.00000000000E+00 -0.10212994436E+04  0.17504099223E+04  0.14215774135E+04 0.  0.
        4    1    3    3  502    0 -0.28325560223E+02 -0.34139180173E+03  0.25620197016E+03  0.42777536402E+03  0.12699999809E+01 0. -1.
       -4    1    3    3    0  502  0.28325560223E+02  0.34139180173E+03 -0.12775014138E+04  0.13226345583E+04  0.12699999809E+01 0.  1.
</event>
<event>
 5   0  0.1700207E-03  0.1382121E+04  0.7818609E-02  0.8966863E-01
        1   -1    0    0  501    0  0.00000000000E+00  0.00000000000E+00  0.11890431568E+04  0.11890431568E+04  0.50400001928E-02 0.  1.
       -1   -1    0    0    0  501  0.00000000000E+00  0.00000000000E+00 -0.40163796648E+03  0.40163796651E+03  0.50400001928E-02 0. -1.
    10030    2    1    2    0    0  0.00000000000E+00  0.00000000000E+00  0.78740519030E+03  0.15906811233E+04  0.13821213776E+04 0.  0.
        2    1    3    3  502    0 -0.24671299613E+03 -0.28800142949E+03  0.10585919338E+04  0.11244683224E+04  0.25500000920E-02 0.  1.
       -2    1    3    3    0  502  0.24671299613E+03  0.28800142949E+03 -0.27118674350E+03  0.46621280088E+03  0.25500000920E-02 0. -1.
</event>
<event>
 5   0  0.1631380E-03  0.1408541E+04  0.7818609E-02  0.8947659E-01
       -1   -1    0    0    0  501  0.00000000000E+00  0.00000000000E+00  0.61043498490E+03  0.61043498492E+03  0.50400001928E-02 0. -1.
        1   -1    0    0  501    0  0.00000000000E+00  0.00000000000E+00 -0.81252995808E+03  0.81252995810E+03  0.50400001928E-02 0.  1.
    10030    2    1    2    0    0  0.00000000000E+00  0.00000000000E+00 -0.20209497318E+03  0.14229649430E+04  0.14085406813E+04 0.  0.
        3    1    3    3  502    0  0.10678563384E+03  0.54254300905E+03  0.33958491113E+03  0.64890215775E+03  0.10100000352E+00 0. -1.
       -3    1    3    3    0  502 -0.10678563384E+03 -0.54254300905E+03 -0.54167988432E+03  0.77406278527E+03  0.10100000352E+00 0.  1.
</event>
<event>
 5   0  0.1560957E-03  0.9601914E+03  0.7818609E-02  0.9353317E-01
       -1   -1    0    0    0  501  0.00000000000E+00  0.00000000000E+00  0.59071559646E+03  0.59071559648E+03  0.50400001928E-02 0. -1.
        1   -1    0    0  501    0  0.00000000000E+00  0.00000000000E+00 -0.39019091285E+03  0.39019091288E+03  0.50400001928E-02 0.  1.
    10030    2    1    2    0    0  0.00000000000E+00  0.00000000000E+00  0.20052468361E+03  0.98090650937E+03  0.96019135144E+03 0.  0.
        5    1    3    3  502    0  0.40218738121E+02  0.43333630731E+03  0.30729651788E+03  0.53277682197E+03  0.46999998093E+01 0. -1.
       -5    1    3    3    0  502 -0.40218738121E+02 -0.43333630731E+03 -0.10677183426E+03  0.44812968739E+03  0.46999998093E+01 0.  1.
</event>
<event>
 5   0  0.2889469E-03  0.1365643E+04  0.7818609E-02  0.8979071E-01
        2   -1    0    0  501    0  0.00000000000E+00  0.00000000000E+00  0.21350475939E+04  0.21350475939E+04  0.25500000920E-02 0.  1.
       -2   -1    0    0    0  501  0.00000000000E+00  0.00000000000E+00 -0.21837681640E+03  0.21837681642E+03  0.25500000920E-02 0. -1.
    10030    2    1    2    0    0  0.00000000000E+00  0.00000000000E+00  0.19166707774E+04  0.23534244103E+04  0.13656425542E+04 0.  0.
        5    1    3    3  502    0 -0.35243328344E+02  0.54383237189E+03  0.16672568507E+04  0.17540704766E+04  0.46999998093E+01 0.  1.
       -5    1    3    3    0  502  0.35243328344E+02 -0.54383237189E+03  0.24941392679E+03  0.59935393365E+03  0.46999998093E+01 0. -1.
</event>
<event>
 5   0  0.1586022E-03  0.1335395E+04  0.7818609E-02  0.9001958E-01
       -1   -1    0    0    0  501  0.00000000000E+00  0.00000000000E+00  0.56494640230E+03  0.56494640232E+03  0.50400001928E-02 0.  1.
        1   -1    0    0  501    0  0.00000000000E+00  0.00000000000E+00 -0.78913707681E+03  0.78913707682E+03  0.50400001928E-02 0. -1.
    10030    2    1    2    0    0  0.00000000000E+00  0.00000000000E+00 -0.22419067451E+03  0.13540834791E+04  0.13353953010E+04 0.  0.
        1    1    3    3  502    0 -0.32082610170E+03  0.56901112689E+03 -0.25229489026E+03  0.70025406942E+03  0.50400001928E-02 0. -1.
       -1    1    3    3    0  502  0.32082610170E+03 -0.56901112689E+03  0.28104215758E+02  0.65382940973E+03  0.50400001928E-02 0.  1.
</event>
<event>
 5   0  0.1560957E-03  0.1397765E+04  0.7818609E-02  0.8955438E-01
       -1   -1    0    0    0  501  0.00000000000E+00  0.00000000000E+00  0.51096138712E+03  0.51096138714E+03  0.50400001928E-02 0.  1.
        1   -1    0    0  501    0  0.00000000000E+00  0.00000000000E+00 -0.95591658042E+03  0.95591658043E+03  0.50400001928E-02 0. -1.
    10030    2    1    2    0    0  0.00000000000E+00  0.00000000000E+00 -0.44495519330E+03  0.14668779676E+04  0.13977645895E+04 0.  0.
        5    1    3    3  502    0 -0.15188817812E+03 -0.51673901838E+01  0.49339331393E+03  0.51629039581E+03  0.46999998093E+01 0.  1.
       -5    1    3    3    0  502  0.15188817812E+03  0.51673901838E+01 -0.93834850723E+03  0.95058757177E+03  0.46999998093E+01 0. -1.
</event>
<event>
 5   0  0.1644571E-03  0.1468942E+04  0.7818609E-02  0.8905373E-01
        1   -1    0    0  501    0  0.00000000000E+00  0.00000000000E+00  0.13380705806E+04  0.13380705806E+04  0.50400001928E-02 0.  1.
       -1   -1    0    0    0  501  0.00000000000E+00  0.00000000000E+00 -0.40315312366E+03  0.40315312370E+03  0.50400001928E-02 0. -1.
    10030    2    1    2    0    0  0.00000000000E+00  0.00000000000E+00  0.93491745696E+03  0.17412237043E+04  0.14689415704E+04 0.  0.
        4    1    3    3  502    0 -0.33542900453E+03  0.93799895550E+02  0.12339516459E+04  0.12821658686E+04  0.12699999809E+01 0.  1.
       -4    1    3    3    0  502  0.33542900453E+03 -0.93799895550E+02 -0.29903418890E+03  0.45905783569E+03  0.12699999809E+01 0. -1.
</event>
<event>
 5   0  0.1700207E-03  0.1389931E+04  0.7818609E-02  0.8961139E-01
       -1   -1    0    0    0  501  0.00000000000E+00  0.00000000000E+00  0.11744178259E+04  0.11744178260E+04  0.50400001928E-02 0.  1.
        1   -1    0    0  501    0  0.00000000000E+00  0.00000000000E+00 -0.41124803277E+03  0.41124803280E+03  0.50400001928E-02 0. -1.
    10030    2    1    2    0    0  0.00000000000E+00  0.00000000000E+00  0.76316979317E+03  0.15856658588E+04  0.13899309632E+04 0.  0.
        2    1    3    3  502    0 -0.11098312758E+03  0.76397711452E+02  0.11593748392E+04  0.11671777425E+04  0.25500000920E-02 0.  1.
       -2    1    3    3    0  502  0.11098312758E+03 -0.76397711452E+02 -0.39620504601E+03  0.41848811622E+03  0.25500000920E-02 0. -1.
</event>
<event>
 5   0  0.2917809E-03  0.1395385E+04  0.7818609E-02  0.8957166E-01
        2   -1    0    0  501    0  0.00000000000E+00  0.00000000000E+00  0.16195177385E+04  0.16195177385E+04  0.25500000920E-02 0. -1.
       -2   -1    0    0    0  501  0.00000000000E+00  0.00000000000E+00 -0.30056757233E+03  0.30056757234E+03  0.25500000920E-02 0.  1.
    10030    2    1    2    0    0  0.00000000000E+00  0.00000000000E+00  0.13189501662E+04  0.19200853109E+04  0.13953845564E+04 0.  0.
        2    1    3    3  502    0 -0.49766994241E+03  0.14454035785E+03  0.16696823101E+02  0.51850368420E+03  0.25500000920E-02 0.  1.
       -2    1    3    3    0  502  0.49766994241E+03 -0.14454035785E+03  0.13022533431E+04  0.14015816267E+04  0.25500000920E-02 0. -1.
</event>
<event>
 5   0  0.2993993E-03  0.1408017E+04  0.7818609E-02  0.8948036E-01
       -2   -1    0    0    0  501  0.00000000000E+00  0.00000000000E+00  0.60979546402E+03  0.60979546402E+03  0.25500000920E-02 0. -1.
        2   -1    0    0  501    0  0.00000000000E+00  0.00000000000E+00 -0.81277739305E+03  0.81277739305E+03  0.25500000920E-02 0.  1.
    10030    2    1    2    0    0  0.00000000000E+00  0.00000000000E+00 -0.20298192903E+03  0.14225728571E+04  0.14080169993E+04 0.  0.
        3    1    3    3  502    0 -0.50934129106E+03  0.48164985340E+03 -0.16706823621E+03  0.72064341932E+03  0.10100000352E+00 0. -1.
       -3    1    3    3    0  502  0.50934129106E+03 -0.48164985340E+03 -0.35913692825E+02  0.70192943776E+03  0.10100000352E+00 0.  1.
</event>
<event>
 5   0  0.2760807E-03  0.1089544E+04  0.7818609E-02  0.9215444E-01
       -2   -1    0    0    0  501  0.00000000000E+00  0.00000000000E+00  0.42775683503E+03  0.42775683504E+03  0.25500000920E-02 0. -1.
        2   -1    0    0  501    0  0.00000000000E+00  0.00000000000E+00 -0.69379698666E+03  0.69379698666E+03  0.25500000920E-02 0.  1.
    10030    2    1    2    0    0  0.00000000000E+00  0.00000000000E+00 -0.26604015163E+03  0.11215538217E+04  0.10895437636E+04 0.  0.
        4    1    3    3  502    0  0.10870484638E+03  0.47419970210E+03  0.11932001792E+03  0.50092013403E+03  0.12699999809E+01 0. -1.
       -4    1    3    3    0  502 -0.10870484638E+03 -0.47419970210E+03 -0.38536016955E+03  0.62063368767E+03  0.12699999809E+01 0.  1.
</event>
<event>
 5   0  0.1560957E-03  0.1381364E+04  0.7818609E-02  0.8967420E-01
        1   -1    0    0  501    0  0.00000000000E+00  0.00000000000E+00  0.57827780681E+03  0.57827780683E+03  0.50400001928E-02 0. -1.
       -1   -1    0    0    0  501  0.00000000000E+00  0.00000000000E+00 -0.82493542265E+03  0.82493542266E+03  0.50400001928E-02 0.  1.
    10030    2    1    2    0    0  0.00000000000E+00  0.00000000000E+00 -0.24665761584E+03  0.14032132295E+04  0.13813643212E+04 0.  0.
        5    1    3    3  502    0 -0.51774265804E+03  0.59379355229E+00  0.34102502684E+03  0.61998223480E+03  0.46999998093E+01 0. -1.
       -5    1    3    3    0  502  0.51774265804E+03 -0.59379355229E+00 -0.58768264268E+03  0.78323099469E+03  0.46999998093E+01 0.  1.
</event>
<event>
 5   0  0.3006737E-03  0.1322190E+04  0.7818609E-02  0.9012151E-01
        2   -1    0    0  501    0  0.00000000000E+00  0.00000000000E+00  0.18544053217E+04  0.18544053217E+04  0.25500000920E-02 0.  1.
       -2   -1    0    0    0  501  0.00000000000E+00  0.00000000000E+00 -0.23568019659E+03  0.23568019660E+03  0.25500000920E-02 0. -1.
    10030    2    1    2    0    0  0.00000000000E+00  0.00000000000E+00  0.16187251251E+04  0.20900855183E+04  0.13221900178E+04 0.  0.
        1    1    3    3  502    0 -0.59997489824E+03 -0.79270699599E+02  0.38876669790E+03  0.71930054063E+03  0.50400001928E-02 0. -1.
       -1    1    3    3    0  502  0.59997489824E+03  0.79270699599E+02  0.12299584272E+04  0.13707849777E+04  0.50400001928E-02 0.  1.
</event>
<event>
 5   0  0.2889469E-03  0.1490621E+04  0.7818609E-02  0.8890714E-01
       -2   -1    0    0    0  501  0.00000000000E+00  0.00000000000E+00  0.28364429324E+03  0.28364429325E+03  0.25500000920E-02 0.  1.
        2   -1    0    0  501    0  0.00000000000E+00  0.00000000000E+00 -0.19583950676E+04  0.19583950676E+04  0.25500000920E-02 0. -1.
    10030    2    1    2    0    0  0.00000000000E+00  0.00000000000E+00 -0.16747507743E+04  0.22420393608E+04  0.14906207899E+04 0.  0.
        5    1    3    3  502    0 -0.65079068165E+03  0.19105749517E+03 -0.13020272269E+04  0.14681036977E+04  0.46999998093E+01 0. -1.
       -5    1    3    3    0  502  0.65079068165E+03 -0.19105749517E+03 -0.37272354747E+03  0.77393566310E+03  0.46999998093E+01 0.  1.
</event>
<event>
 5   0  0.1644571E-03  0.1394621E+04  0.7818609E-02  0.8957721E-01
        1   -1    0    0  501    0  0.00000000000E+00  0.00000000000E+00  0.13203399783E+04  0.13203399783E+04  0.50400001928E-02 0.  1.
       -1   -1    0    0    0  501  0.00000000000E+00  0.00000000000E+00 -0.36827020389E+03  0.36827020393E+03  0.50400001928E-02 0. -1.
    10030    2    1    2    0    0  0.00000000000E+00  0.00000000000E+00  0.95206977439E+03  0.16886101822E+04  0.13946209134E+04 0.  0.
        4    1    3    3  502    0  0.47433904599E+03  0.48767742646E+03  0.29076450211E+03  0.73984620795E+03  0.12699999809E+01 0.  1.
       -4    1    3    3    0  502 -0.47433904599E+03 -0.48767742646E+03  0.66130527228E+03  0.94876397427E+03  0.12699999809E+01 0. -1.
</event>
<event>
 5   0  0.1700207E-03  0.1414160E+04  0.7818609E-02  0.8943632E-01
        1   -1    0    0  501    0  0.00000000000E+00  0.00000000000E+00  0.11265540972E+04  0.11265540972E+04  0.50400001928E-02 0. -1.
       -1   -1    0    0    0  501  0.00000000000E+00  0.00000000000E+00 -0.44379788922E+03  0.44379788925E+03  0.50400001928E-02 0.  1.
    10030    2    1    2    0    0  0.00000000000E+00  0.00000000000E+00  0.68275620795E+03  0.15703519864E+04  0.14141602886E+04 0.  0.
        2    1    3    3  502    0  0.24051386953E+02  0.43691448455E+02  0.11245984585E+04  0.11257038264E+04  0.25500000920E-02 0. -1.
       -2    1    3    3    0  502 -0.24051386953E+02 -0.43691448455E+02 -0.44184225053E+03  0.44464816006E+03  0.25500000920E-02 0.  1.
</event>
<event>
 5   0  0.1700207E-03  0.1366788E+04  0.7818609E-02  0.8978216E-01
        1   -1    0    0  501    0  0.00000000000E+00  0.00000000000E+00  0.73803180998E+03  0.73803181000E+03  0.50400001928E-02 0.  1.
       -1   -1    0    0    0  501  0.00000000000E+00  0.00000000000E+00 -0.63280085090E+03  0.63280085092E+03  0.50400001928E-02 0. -1.
    10030    2    1    2    0    0  0.00000000000E+00  0.00000000000E+00  0.10523095908E+03  0.13708326609E+04  0.13667877046E+04 0.  0.
        2    1    3    3  502    0  0.27385659191E+03  0.33381273992E+03  0.58389890631E+03  0.72619991123E+03  0.25500000920E-02 0.  1.
       -2    1    3    3    0  502 -0.27385659191E+03 -0.33381273992E+03 -0.47866794723E+03  0.64463274969E+03  0.25500000920E-02 0. -1.
</event>
<event>
 5   0  0.1631380E-03  0.1362603E+04  0.7818609E-02  0.8981342E-01
        1   -1    0    0  501    0  0.00000000000E+00  0.00000000000E+00  0.33485369979E+03  0.33485369983E+03  0.50400001928E-02 0. -1.
       -1   -1    0    0    0  501  0.00000000000E+00  0.00000000000E+00 -0.13861920528E+04  0.13861920528E+04  0.50400001928E-02 0.  1.
    10030    2    1    2    0    0  0.00000000000E+00  0.00000000000E+00 -0.10513383530E+04  0.17210457526E+04  0.13626027118E+04 0.  0.
        3    1    3    3  502    0  0.64853100887E+03 -0.79013597589E+02 -0.28161483758E+03  0.71143695786E+03  0.10100000352E+00 0. -1.
       -3    1    3    3    0  502 -0.64853100887E+03  0.79013597589E+02 -0.76972351543E+03  0.10096087948E+04  0.10100000352E+00 0.  1.
</event>
<event>
 5   0  0.1700207E-03  0.1289729E+04  0.7818609E-02  0.9037750E-01
       -1   -1    0    0    0  501  0.00000000000E+00  0.00000000000E+00  0.60602589014E+03  0.60602589016E+03  0.50400001928E-02 0.  1.
        1   -1    0    0  501    0  0.00000000000E+00  0.00000000000E+00 -0.68619225878E+03  0.68619225880E+03  0.50400001928E-02 0. -1.
    10030    2    1    2    0    0  0.00000000000E+00  0.00000000000E+00 -0.80166368646E+02  0.12922181490E+04  0.12897290792E+04 0.  0.
        2    1    3    3  502    0 -0.61240687974E+03  0.17102521844E+03  0.67634592999E+02  0.63942650076E+03  0.25500000920E-02 0.  1.
       -2    1    3    3    0  502  0.61240687974E+03 -0.17102521844E+03 -0.14780096165E+03  0.65279164820E+03  0.25500000920E-02 0. -1.
</event>
<event>
 5   0  0.2917809E-03  0.1380279E+04  0.7818609E-02  0.8968218E-01
       -2   -1    0    0    0  501  0.00000000000E+00  0.00000000000E+00  0.17853489242E+03  0.17853489243E+03  0.25500000920E-02 0.  1.
        2   -1    0    0  501    0  0.00000000000E+00  0.00000000000E+00 -0.26677848005E+04  0.26677848005E+04  0.25500000920E-02 0. -1.
    10030    2    1    2    0    0  0.00000000000E+00  0.00000000000E+00 -0.24892499081E+04  0.28463196930E+04  0.13802792071E+04 0.  0.
        2    1    3    3  502    0 -0.60678324589E+03 -0.12574457690E+03 -0.18711031709E+04  0.19710465957E+04  0.25500000920E-02 0. -1.
       -2    1    3    3    0  502  0.60678324589E+03  0.12574457690E+03 -0.61814673716E+03  0.87527309726E+03  0.25500000920E-02 0.  1.
</event>
<event>
 5   0  0.2917809E-03  0.1380195E+04  0.7818609E-02  0.8968281E-01
        2   -1    0    0  501    0  0.00000000000E+00  0.00000000000E+00  0.60703668602E+03  0.60703668603E+03  0.25500000920E-02 0. -1.
       -2   -1    0    0    0  501  0.00000000000E+00  0.00000000000E+00 -0.78452314583E+03  0.78452314583E+03  0.25500000920E-02 0.  1.
    10030    2    1    2    0    0  0.00000000000E+00  0.00000000000E+00 -0.17748645980E+03  0.13915598319E+04  0.13801946682E+04 0.  0.
        2    1    3    3  502    0  0.62387292750E+03  0.25133332626E+03 -0.24444433990E+03  0.71563880965E+03  0.25500000920E-02 0. -1.
       -2    1    3    3    0  502 -0.62387292750E+03 -0.25133332626E+03  0.66957880099E+02  0.67592102221E+03  0.25500000920E-02 0.  1.
</event>
<event>
 5   0  0.2993993E-03  0.1385658E+04  0.7818609E-02  0.8964266E-01
        2   -1    0    0  501    0  0.00000000000E+00  0.00000000000E+00  0.41142649100E+03  0.41142649101E+03  0.25500000920E-02 0. -1.
       -2   -1    0    0    0  501  0.00000000000E+00  0.00000000000E+00 -0.11667016520E+04  0.11667016520E+04  0.25500000920E-02 0.  1.
    10030    2    1    2    0    0  0.00000000000E+00  0.00000000000E+00 -0.75527516104E+03  0.15781281431E+04  0.13856579185E+04 0.  0.
        3    1    3    3  502    0  0.35257705583E+03  0.58602699814E+03 -0.25146221101E+03  0.72867789634E+03  0.10100000352E+00 0. -1.
       -3    1    3    3    0  502 -0.35257705583E+03 -0.58602699814E+03 -0.50381295002E+03  0.84945024672E+03  0.10100000352E+00 0.  1.
</event>
<event>
 5   0  0.1586022E-03  0.1224774E+04  0.7818609E-02  0.9091444E-01
       -1   -1    0    0    0  501  0.00000000000E+00  0.00000000000E+00  0.38299362671E+03  0.38299362674E+03  0.50400001928E-02 0. -1.
        1   -1    0    0  501    0  0.00000000000E+00  0.00000000000E+00 -0.97917561459E+03  0.97917561461E+03  0.50400001928E-02 0.  1.
    10030    2    1    2    0    0  0.00000000000E+00  0.00000000000E+00 -0.59618198789E+03  0.13621692413E+04  0.12247742973E+04 0.  0.
        1    1    3    3  502    0 -0.15089755155E+03 -0.39829105777E+03 -0.78746550487E+03  0.89526965722E+03  0.50400001928E-02 0.  1.
       -1    1    3    3    0  502  0.15089755155E+03  0.39829105777E+03  0.19128351699E+03  0.46689958412E+03  0.50400001928E-02 0. -1.
</event>
<event>
 5   0  0.1700207E-03  0.1361146E+04  0.7818609E-02  0.8982433E-01
        1   -1    0    0  501    0  0.00000000000E+00  0.00000000000E+00  0.95600831119E+03  0.95600831120E+03  0.50400001928E-02 0. -1.
       -1   -1    0    0    0  501  0.00000000000E+00  0.00000000000E+00 -0.48449352529E+03  0.48449352532E+03  0.50400001928E-02 0.  1.
    10030    2    1    2    0    0  0.00000000000E+00  0.00000000000E+00  0.47151478590E+03  0.14405018365E+04  0.13611463359E+04 0.  0.
        2    1    3    3  502    0  0.28347399868E+03  0.59987074122E+03  0.39617781548E+03  0.77276081395E+03  0.25500000920E-02 0. -1.
       -2    1    3    3    0  502 -0.28347399868E+03 -0.59987074122E+03  0.75336970424E+02  0.66774102257E+03  0.25500000920E-02 0.  1.
</event>
<event>
 5   0  0.1700207E-03  0.1413456E+04  0.7818609E-02  0.8944135E-01
        1   -1    0    0  501    0  0.00000000000E+00  0.00000000000E+00  0.19264330948E+04  0.19264330948E+04  0.50400001928E-02 0. -1.
       -1   -1    0    0    0  501  0.00000000000E+00  0.00000000000E+00 -0.25926911006E+03  0.25926911011E+03  0.50400001928E-02 0.  1.
    10030    2    1    2    0    0  0.00000000000E+00  0.00000000000E+00  0.16671639848E+04  0.21857022049E+04  0.14134561813E+04 0.  0.
        2    1    3    3  502    0  0.23811432678E+03 -0.51420330058E+03  0.14866505052E+04  0.15909849753E+04  0.25500000920E-02 0. -1.
       -2    1    3    3    0  502 -0.23811432678E+03  0.51420330058E+03  0.18051347957E+03  0.59471722966E+03  0.25500000920E-02 0.  1.
</event>
<event>
 5   0  0.2993993E-03  0.1400061E+04  0.7818609E-02  0.8953774E-01
        2   -1    0    0  501    0  0.00000000000E+00  0.00000000000E+00  0.76956987252E+03  0.76956987253E+03  0.25500000920E-02 0.  1.
       -2   -1    0    0    0  501  0.00000000000E+00  0.00000000000E+00 -0.63677498469E+03  0.63677498470E+03  0.25500000920E-02 0. -1.
    10030    2    1    2    0    0  0.00000000000E+00  0.00000000000E+00  0.13279488783E+03  0.14063448572E+04  0.14000612041E+04 0.  0.
        3    1    3    3  502    0 -0.42812647719E+03  0.37056227183E+03  0.47986866777E+03  0.74221467668E+03  0.10100000352E+00 0.  1.
       -3    1    3    3    0  502  0.42812647719E+03 -0.37056227183E+03 -0.34707377994E+03  0.66413018054E+03  0.10100000352E+00 0. -1.
</event>
<event>
 5   0  0.2917809E-03  0.1419696E+04  0.7818609E-02  0.8939684E-01
       -2   -1    0    0    0  501  0.00000000000E+00  0.00000000000E+00  0.26975372664E+03  0.26975372666E+03  0.25500000920E-02 0.  1.
        2   -1    0    0  501    0  0.00000000000E+00  0.00000000000E+00 -0.18679409753E+04  0.18679409753E+04  0.25500000920E-02 0. -1.
    10030    2    1    2    0    0  0.00000000000E+00  0.00000000000E+00 -0.15981872487E+04  0.21376947020E+04  0.14196957974E+04 0.  0.
        2    1    3    3  502    0 -0.35885215841E+03  0.53337505627E+03 -0.34581740683E+03  0.72996815076E+03  0.25500000920E-02 0.  1.
       -2    1    3    3    0  502  0.35885215841E+03 -0.53337505627E+03 -0.12523698419E+04  0.14077265512E+04  0.25500000920E-02 0. -1.
</event>
<event>
 5   0  0.2917809E-03  0.1366396E+04  0.7818609E-02  0.8978509E-01
       -2   -1    0    0    0  501  0.00000000000E+00  0.00000000000E+00  0.30156407090E+03  0.30156407091E+03  0.25500000920E-02 0.  1.
        2   -1    0    0  501    0  0.00000000000E+00  0.00000000000E+00 -0.15477951265E+04  0.15477951265E+04  0.25500000920E-02 0. -1.
    10030    2    1    2    0    0  0.00000000000E+00  0.00000000000E+00 -0.12462310556E+04  0.18493591974E+04  0.13663958420E+04 0.  0.
        2    1    3    3  502    0 -0.44288083575E+03 -0.41503597215E+02 -0.13249502071E+04  0.13976262142E+04  0.25500000920E-02 0.  1.
       -2    1    3    3    0  502  0.44288083575E+03  0.41503597215E+02  0.78719151571E+02  0.45173298317E+03  0.25500000920E-02 0. -1.
</event>
<event>
 5   0  0.1644571E-03  0.1440935E+04  0.7818609E-02  0.8924709E-01
       -1   -1    0    0    0  501  0.00000000000E+00  0.00000000000E+00  0.10652384417E+04  0.10652384417E+04  0.50400001928E-02 0. -1.
        1   -1    0    0  501    0  0.00000000000E+00  0.00000000000E+00 -0.48728399935E+03  0.48728399938E+03  0.50400001928E-02 0.  1.
    10030    2    1    2    0    0  0.00000000000E+00  0.00000000000E+00  0.57795444237E+03  0.15525224411E+04  0.14409353187E+04 0.  0.
        4    1    3    3  502    0 -0.56448925087E+03 -0.25559528602E+03  0.68499345633E+03  0.92368539704E+03  0.12699999809E+01 0.  1.
       -4    1    3    3    0  502  0.56448925087E+03  0.25559528602E+03 -0.10703901396E+03  0.62883704407E+03  0.12699999809E+01 0. -1.
</event>
<event>
 5   0  0.1104538E-03  0.7715236E+03  0.7818609E-02  0.9602176E-01
       -3   -1    0    0    0  501  0.00000000000E+00  0.00000000000E+00  0.24756796968E+03  0.24756799028E+03  0.10100000352E+00 0. -1.
        3   -1    0    0  501    0  0.00000000000E+00  0.00000000000E+00 -0.60109609524E+03  0.60109610373E+03  0.10100000352E+00 0.  1.
    10030    2    1    2    0    0  0.00000000000E+00  0.00000000000E+00 -0.35352812556E+03  0.84866409401E+03  0.77152356341E+03 0.  0.
        2    1    3    3  502    0  0.19413958685E+03 -0.16216612735E+03 -0.49712998648E+03  0.55778692662E+03  0.25500000920E-02 0.  1.
       -2    1    3    3    0  502 -0.19413958685E+03  0.16216612735E+03  0.14360186092E+03  0.29087716739E+03  0.25500000920E-02 0. -1.
</event>
<event>
 5   0  0.3006737E-03  0.1406079E+04  0.7818609E-02  0.8949430E-01
        2   -1    0    0  501    0  0.00000000000E+00  0.00000000000E+00  0.16728507534E+04  0.16728507534E+04  0.25500000920E-02 0.  1.
       -2   -1    0    0    0  501  0.00000000000E+00  0.00000000000E+00 -0.29546262336E+03  0.29546262337E+03  0.25500000920E-02 0. -1.
    10030    2    1    2    0    0  0.00000000000E+00  0.00000000000E+00  0.13773881301E+04  0.19683133768E+04  0.14060794744E+04 0.  0.
        1    1    3    3  502    0 -0.58125120971E+02 -0.28666790124E+03  0.15836277780E+04  0.16104142183E+04  0.50400001928E-02 0.  1.
       -1    1    3    3    0  502  0.58125120971E+02  0.28666790124E+03 -0.20623964788E+03  0.35789915853E+03  0.50400001928E-02 0. -1.
</event>
<event>
 5   0  0.2993993E-03  0.1324266E+04  0.7818609E-02  0.9010541E-01
        2   -1    0    0  501    0  0.00000000000E+00  0.00000000000E+00  0.18063500804E+04  0.18063500804E+04  0.25500000920E-02 0. -1.
       -2   -1    0    0    0  501  0.00000000000E+00  0.00000000000E+00 -0.24271035167E+03  0.24271035168E+03  0.25500000920E-02 0.  1.
    10030    2    1    2    0    0  0.00000000000E+00  0.00000000000E+00  0.15636397287E+04  0.20490604320E+04  0.13242656278E+04 0.  0.
        3    1    3    3  502    0  0.39275272490E+03 -0.49875783630E+03  0.49066993609E+03  0.80235346237E+03  0.10100000352E+00 0. -1.
       -3    1    3    3    0  502 -0.39275272490E+03  0.49875783630E+03  0.10729697926E+04  0.12467069697E+04  0.10100000352E+00 0.  1.
</event>
<event>
 5   0  0.1104538E-03  0.1394052E+04  0.7818609E-02  0.8958136E-01
        4   -1    0    0  501    0  0.00000000000E+00  0.00000000000E+00  0.10499217538E+04  0.10499225219E+04  0.12699999809E+01 0.  1.
       -4   -1    0    0    0  501  0.00000000000E+00  0.00000000000E+00 -0.46274218191E+03  0.46274392467E+03  0.12699999809E+01 0. -1.
    10030    2    1    2    0    0  0.00000000000E+00  0.00000000000E+00  0.58717957191E+03  0.15126664466E+04  0.13940516235E+04 0.  0.
        5    1    3    3  502    0  0.51856801170E+03  0.17825947887E+03 -0.17329209471E+03  0.57510126469E+03  0.46999998093E+01 0. -1.
       -5    1    3    3    0  502 -0.51856801170E+03 -0.17825947887E+03  0.76047166662E+03  0.93756518189E+03  0.46999998093E+01 0.  1.
</event>
<event>
 5   0  0.2993993E-03  0.1450071E+04  0.7818609E-02  0.8918352E-01
       -2   -1    0    0    0  501  0.00000000000E+00  0.00000000000E+00  0.68188863593E+03  0.68188863593E+03  0.25500000920E-02 0. -1.
        2   -1    0    0  501    0  0.00000000000E+00  0.00000000000E+00 -0.77091211812E+03  0.77091211813E+03  0.25500000920E-02 0.  1.
    10030    2    1    2    0    0  0.00000000000E+00  0.00000000000E+00 -0.89023482197E+02  0.14528007541E+04  0.14500706364E+04 0.  0.
        3    1    3    3  502    0  0.17084840910E+03 -0.70423697040E+03 -0.21288084349E+02  0.72497729765E+03  0.10100000352E+00 0.  1.
       -3    1    3    3    0  502 -0.17084840910E+03  0.70423697040E+03 -0.67735397848E+02  0.72782345641E+03  0.10100000352E+00 0. -1.
</event>
<event>
 5   0  0.2917809E-03  0.1322542E+04  0.7818609E-02  0.9011877E-01
       -2   -1    0    0    0  501  0.00000000000E+00  0.00000000000E+00  0.24302286465E+03  0.24302286467E+03  0.25500000920E-02 0. -1.
        2   -1    0    0  501    0  0.00000000000E+00  0.00000000000E+00 -0.17993349564E+04  0.17993349564E+04  0.25500000920E-02 0.  1.
    10030    2    1    2    0    0  0.00000000000E+00  0.00000000000E+00 -0.15563120917E+04  0.20423578211E+04  0.13225423027E+04 0.  0.
        2    1    3    3  502    0  0.61479032920E+03  0.17591672348E+03 -0.10382432346E+04  0.12193698605E+04  0.25500000920E-02 0.  1.
       -2    1    3    3    0  502 -0.61479032920E+03 -0.17591672348E+03 -0.51806885708E+03  0.82298796052E+03  0.25500000920E-02 0. -1.
</event>
<event>
 5   0  0.2889469E-03  0.1363649E+04  0.7818609E-02  0.8980560E-01
       -2   -1    0    0    0  501  0.00000000000E+00  0.00000000000E+00  0.32233674157E+03  0.32233674158E+03  0.25500000920E-02 0. -1.
        2   -1    0    0  501    0  0.00000000000E+00  0.00000000000E+00 -0.14422320237E+04  0.14422320237E+04  0.25500000920E-02 0.  1.
    10030    2    1    2    0    0  0.00000000000E+00  0.00000000000E+00 -0.11198952822E+04  0.17645687653E+04  0.13636485928E+04 0.  0.
        5    1    3    3  502    0 -0.18758486248E+03 -0.19466950009E+03  0.24999848706E+03  0.36824669507E+03  0.46999998093E+01 0. -1.
       -5    1    3    3    0  502  0.18758486248E+03  0.19466950009E+03 -0.13698937692E+04  0.13963220703E+04  0.46999998093E+01 0.  1.
</event>
<event>
 5   0  0.1560957E-03  0.1419674E+04  0.7818609E-02  0.8939699E-01
       -1   -1    0    0    0  501  0.00000000000E+00  0.00000000000E+00  0.31376878475E+03  0.31376878479E+03  0.50400001928E-02 0. -1.
        1   -1    0    0  501    0  0.00000000000E+00  0.00000000000E+00 -0.16058601426E+04  0.16058601426E+04  0.50400001928E-02 0.  1.
    10030    2    1    2    0    0  0.00000000000E+00  0.00000000000E+00 -0.12920913579E+04  0.19196289274E+04  0.14196743084E+04 0.  0.
        5    1    3    3  502    0 -0.51463761502E+03  0.22729758599E+03 -0.60807086145E+02  0.56589368181E+03  0.46999998093E+01 0. -1.
       -5    1    3    3    0  502  0.51463761502E+03 -0.22729758599E+03 -0.12312842717E+04  0.13537352456E+04  0.46999998093E+01 0.  1.
</event>
<event>
 5   0  0.1560957E-03  0.1268709E+04  0.7818609E-02  0.9054754E-01
       -1   -1    0    0    0  501  0.00000000000E+00  0.00000000000E+00  0.11598329192E+04  0.11598329192E+04  0.50400001928E-02 0.  1.
        1   -1    0    0  501    0  0.00000000000E+00  0.00000000000E+00 -0.34695144273E+03  0.34695144277E+03  0.50400001928E-02 0. -1.
    10030    2    1    2    0    0  0.00000000000E+00  0.00000000000E+00  0.81288147648E+03  0.15067843620E+04  0.12687091151E+04 0.  0.
        5    1    3    3  502    0  0.12841311641E+03 -0.38634591870E+03 -0.17128859780E+03  0.44171820327E+03  0.46999998093E+01 0. -1.
       -5    1    3    3    0  502 -0.12841311641E+03  0.38634591870E+03  0.98417007428E+03  0.10650661587E+04  0.46999998093E+01 0.  1.
</event>
<event>
 5   0  0.3006737E-03  0.1402399E+04  0.7818609E-02  0.8952084E-01
        2   -1    0    0  501    0  0.00000000000E+00  0.00000000000E+00  0.71533957866E+03  0.71533957867E+03  0.25500000920E-02 0.  1.
       -2   -1    0    0    0  501  0.00000000000E+00  0.00000000000E+00 -0.68733940781E+03  0.68733940781E+03  0.25500000920E-02 0. -1.
    10030    2    1    2    0    0  0.00000000000E+00  0.00000000000E+00  0.28000170856E+02  0.14026789865E+04  0.14023994900E+04 0.  0.
        1    1    3    3  502    0 -0.23191938039E+03  0.11320106794E+03 -0.63811144974E+03  0.68832209255E+03  0.50400001928E-02 0. -1.
       -1    1    3    3    0  502  0.23191938039E+03 -0.11320106794E+03  0.66611162060E+03  0.71435689393E+03  0.50400001928E-02 0.  1.
</event>
<event>
 5   0  0.1700207E-03  0.1379737E+04  0.7818609E-02  0.8968618E-01
       -1   -1    0    0    0  501  0.00000000000E+00  0.00000000000E+00  0.68961645465E+03  0.68961645467E+03  0.50400001928E-02 0. -1.
        1   -1    0    0  501    0  0.00000000000E+00  0.00000000000E+00 -0.69012072818E+03  0.69012072820E+03  0.50400001928E-02 0.  1.
    10030    2    1    2    0    0  0.00000000000E+00  0.00000000000E+00 -0.50427353393E+00  0.13797371829E+04  0.13797370907E+04 0.  0.
        2    1    3    3  502    0 -0.42266898717E+03 -0.49044470061E+03  0.23793589897E+03  0.68978153723E+03  0.25500000920E-02 0. -1.
       -2    1    3    3    0  502  0.42266898717E+03  0.49044470061E+03 -0.23844017251E+03  0.68995564564E+03  0.25500000920E-02 0.  1.
</event>
<event>
 5   0  0.2917809E-03  0.1290597E+04  0.7818609E-02  0.9037055E-01
       -2   -1    0    0    0  501  0.00000000000E+00  0.00000000000E+00  0.13297006798E+04  0.13297006798E+04  0.25500000920E-02 0. -1.
        2   -1    0    0  501    0  0.00000000000E+00  0.00000000000E+00 -0.31316092657E+03  0.31316092658E+03  0.25500000920E-02 0.  1.
    10030    2    1    2    0    0  0.00000000000E+00  0.00000000000E+00  0.10165397532E+04  0.16428616064E+04  0.12905972214E+04 0.  0.
        2    1    3    3  502    0 -0.13508485511E+03 -0.47040316115E+02 -0.29272585534E+03  0.32580536492E+03  0.25500000920E-02 0.  1.
       -2    1    3    3    0  502  0.13508485511E+03  0.47040316115E+02  0.13092656086E+04  0.13170562415E+04  0.25500000920E-02 0. -1.
</event>
<event>
 5   0  0.1586022E-03  0.1399069E+04  0.7818609E-02  0.8954493E-01
       -1   -1    0    0    0  501  0.00000000000E+00  0.00000000000E+00  0.31432089652E+03  0.31432089656E+03  0.50400001928E-02 0. -1.
        1   -1    0    0  501    0  0.00000000000E+00  0.00000000000E+00 -0.15568443781E+04  0.15568443781E+04  0.50400001928E-02 0.  1.
    10030    2    1    2    0    0  0.00000000000E+00  0.00000000000E+00 -0.12425234816E+04  0.18711652747E+04  0.13990692917E+04 0.  0.
        1    1    3    3  502    0 -0.60217808554E+03  0.35227838541E+03 -0.68985294035E+03  0.98112975027E+03  0.50400001928E-02 0.  1.
       -1    1    3    3    0  502  0.60217808554E+03 -0.35227838541E+03 -0.55267054124E+03  0.89003552441E+03  0.50400001928E-02 0. -1.
</event>
<event>
 5   0  0.2760807E-03  0.1396749E+04  0.7818609E-02  0.8956175E-01
       -2   -1    0    0    0  501  0.00000000000E+00  0.00000000000E+00  0.36844629203E+03  0.36844629204E+03  0.25500000920E-02 0.  1.
        2   -1    0    0  501    0  0.00000000000E+00  0.00000000000E+00 -0.13237394209E+04  0.13237394209E+04  0.25500000920E-02 0. -1.
    10030    2    1    2    0    0  0.00000000000E+00  0.00000000000E+00 -0.95529312888E+03  0.16921857130E+04  0.13967489127E+04 0.  0.
        4    1    3    3  502    0  0.24903283289E+03  0.59489750649E+03 -0.15300311658E+03  0.66282121395E+03  0.12699999809E+01 0. -1.
       -4    1    3    3    0  502 -0.24903283289E+03 -0.59489750649E+03 -0.80229001230E+03  0.10293644990E+04  0.12699999809E+01 0.  1.
</event>
<event>
 5   0  0.1644571E-03  0.1529289E+04  0.7818609E-02  0.8865207E-01
        1   -1    0    0  501    0  0.00000000000E+00  0.00000000000E+00  0.82094990730E+03  0.82094990731E+03  0.50400001928E-02 0. -1.
       -1   -1    0    0    0  501  0.00000000000E+00  0.00000000000E+00 -0.71220054658E+03  0.71220054660E+03  0.50400001928E-02 0.  1.
    10030    2    1    2    0    0  0.00000000000E+00  0.00000000000E+00  0.10874936072E+03  0.15331504539E+04  0.15292886879E+04 0.  0.
        4    1    3    3  502    0 -0.58730560239E+03  0.16175199629E+03  0.51769729838E+03  0.79943960656E+03  0.12699999809E+01 0. -1.
       -4    1    3    3    0  502  0.58730560239E+03 -0.16175199629E+03 -0.40894793766E+03  0.73371084735E+03  0.12699999809E+01 0.  1.
</event>
<event>
 5   0  0.2889469E-03  0.1380909E+04  0.7818609E-02  0.8967755E-01
       -2   -1    0    0    0  501  0.00000000000E+00  0.00000000000E+00  0.34405067074E+03  0.34405067075E+03  0.25500000920E-02 0. -1.
        2   -1    0    0  501    0  0.00000000000E+00  0.00000000000E+00 -0.13856304694E+04  0.13856304694E+04  0.25500000920E-02 0.  1.
    10030    2    1    2    0    0  0.00000000000E+00  0.00000000000E+00 -0.10415797987E+04  0.17296811402E+04  0.13809085305E+04 0.  0.
        5    1    3    3  502    0  0.29308783594E+03 -0.16854579757E+03  0.23324828118E+03  0.41077367993E+03  0.46999998093E+01 0. -1.
       -5    1    3    3    0  502 -0.29308783594E+03  0.16854579757E+03 -0.12748280799E+04  0.13189074603E+04  0.46999998093E+01 0.  1.
</event>
<event>
 5   0  0.1644571E-03  0.1445798E+04  0.7818609E-02  0.8921319E-01
       -1   -1    0    0    0  501  0.00000000000E+00  0.00000000000E+00  0.52268875835E+03  0.52268875837E+03  0.50400001928E-02 0.  1.
        1   -1    0    0  501    0  0.00000000000E+00  0.00000000000E+00 -0.99979691820E+03  0.99979691821E+03  0.50400001928E-02 0. -1.
    10030    2    1    2    0    0  0.00000000000E+00  0.00000000000E+00 -0.47710815985E+03  0.15224856766E+04  0.14457975098E+04 0.  0.
        4    1    3    3  502    0  0.68596786806E+03 -0.71680964965E+02 -0.10525059970E+02  0.68978436234E+03  0.12699999809E+01 0.  1.
       -4    1    3    3    0  502 -0.68596786806E+03  0.71680964965E+02 -0.46658309988E+03  0.83270131424E+03  0.12699999809E+01 0. -1.
</event>
<event>
 5   0  0.1560957E-03  0.1394893E+04  0.7818609E-02  0.8957524E-01
       -1   -1    0    0    0  501  0.00000000000E+00  0.00000000000E+00  0.91927242272E+03  0.91927242274E+03  0.50400001928E-02 0. -1.
        1   -1    0    0  501    0  0.00000000000E+00  0.00000000000E+00 -0.52914825230E+03  0.52914825232E+03  0.50400001928E-02 0.  1.
    10030    2    1    2    0    0  0.00000000000E+00  0.00000000000E+00  0.39012417043E+03  0.14484206751E+04  0.13948926782E+04 0.  0.
        5    1    3    3  502    0  0.62016456240E+03 -0.31036680345E+03  0.11821068163E+03  0.70351083317E+03  0.46999998093E+01 0. -1.
       -5    1    3    3    0  502 -0.62016456240E+03  0.31036680345E+03  0.27191348880E+03  0.74490984188E+03  0.46999998093E+01 0.  1.
</event>
<event>
 5   0  0.3006737E-03  0.1420034E+04  0.7818609E-02  0.8939443E-01
        2   -1    0    0  501    0  0.00000000000E+00  0.00000000000E+00  0.16038383151E+04  0.16038383151E+04  0.25500000920E-02 0. -1.
       -2   -1    0    0    0  501  0.00000000000E+00  0.00000000000E+00 -0.31432347800E+03  0.31432347801E+03  0.25500000920E-02 0.  1.
    10030    2    1    2    0    0  0.00000000000E+00  0.00000000000E+00  0.12895148371E+04  0.19181617931E+04  0.14200338551E+04 0.  0.
        1    1    3    3  502    0  0.38957669964E+03  0.80666855094E+02  0.14391377372E+04  0.14931157266E+04  0.50400001928E-02 0. -1.
       -1    1    3    3    0  502 -0.38957669964E+03 -0.80666855094E+02 -0.14962290008E+03  0.42504606652E+03  0.50400001928E-02 0.  1.
</event>
<event>
 5   0  0.1631380E-03  0.1364434E+04  0.7818609E-02  0.8979973E-01
       -1   -1    0    0    0  501  0.00000000000E+00  0.00000000000E+00  0.34507411184E+03  0.34507411188E+03  0.50400001928E-02 0.  1.
        1   -1    0    0  501    0  0.00000000000E+00  0.00000000000E+00 -0.13487545959E+04  0.13487545959E+04  0.50400001928E-02 0. -1.
    10030    2    1    2    0    0  0.00000000000E+00  0.00000000000E+00 -0.10036804841E+04  0.16938287078E+04  0.13644343800E+04 0.  0.
        3    1    3    3  502    0  0.35330481157E+03 -0.50796400634E+03 -0.85855756258E+03  0.10582876830E+04  0.10100000352E+00 0. -1.
       -3    1    3    3    0  502 -0.35330481157E+03  0.50796400634E+03 -0.14512292149E+03  0.63554102476E+03  0.10100000352E+00 0.  1.
</event>
<event>
 5   0  0.3006737E-03  0.1256792E+04  0.7818609E-02  0.9064549E-01
        2   -1    0    0  501    0  0.00000000000E+00  0.00000000000E+00  0.70217208157E+03  0.70217208158E+03  0.25500000920E-02 0. -1.
       -2   -1    0    0    0  501  0.00000000000E+00  0.00000000000E+00 -0.56237158516E+03  0.56237158517E+03  0.25500000920E-02 0.  1.
    10030    2    1    2    0    0  0.00000000000E+00  0.00000000000E+00  0.13980049641E+03  0.12645436667E+04  0.12567921492E+04 0.  0.
        1    1    3    3  502    0  0.57271288871E+03 -0.33062355222E+02  0.32797481866E+03  0.66080303717E+03  0.50400001928E-02 0. -1.
       -1    1    3    3    0  502 -0.57271288871E+03  0.33062355222E+02 -0.18817432225E+03  0.60374062958E+03  0.50400001928E-02 0.  1.
</event>
<event>
 5   0  0.1631380E-03  0.1439161E+04  0.7818609E-02  0.8925949E-01
       -1   -1    0    0    0  501  0.00000000000E+00  0.00000000000E+00  0.55651443503E+03  0.55651443506E+03  0.50400001928E-02 0.  1.
        1   -1    0    0  501    0  0.00000000000E+00  0.00000000000E+00 -0.93042764288E+03  0.93042764289E+03  0.50400001928E-02 0. -1.
    10030    2    1    2    0    0  0.00000000000E+00  0.00000000000E+00 -0.37391320785E+03  0.14869420780E+04  0.14391614420E+04 0.  0.
        3    1    3    3  502    0 -0.17991544556E+03 -0.46536364522E+02  0.53129317653E+03  0.56285668726E+03  0.10100000352E+00 0.  1.
       -3    1    3    3    0  502  0.17991544556E+03  0.46536364522E+02 -0.90520638437E+03  0.92408539069E+03  0.10100000352E+00 0. -1.
</event>
<event>
 5   0  0.1560957E-03  0.1492092E+04  0.7818609E-02  0.8889728E-01
       -1   -1    0    0    0  501  0.00000000000E+00  0.00000000000E+00  0.10911536907E+04  0.10911536907E+04  0.50400001928E-02 0. -1.
        1   -1    0    0  501    0  0.00000000000E+00  0.00000000000E+00 -0.51008851294E+03  0.51008851297E+03  0.50400001928E-02 0.  1.
    10030    2    1    2    0    0  0.00000000000E+00  0.00000000000E+00  0.58106517780E+03  0.16012422037E+04  0.14920924415E+04 0.  0.
        5    1    3    3  502    0 -0.47417602735E+03  0.22981564202E+03  0.85727960843E+03  0.10062845280E+04  0.46999998093E+01 0. -1.
       -5    1    3    3    0  502  0.47417602735E+03 -0.22981564202E+03 -0.27621443063E+03  0.59495767573E+03  0.46999998093E+01 0.  1.
</event>
<event>
 5   0  0.2760807E-03  0.1433575E+04  0.7818609E-02  0.8929867E-01
       -2   -1    0    0    0  501  0.00000000000E+00  0.00000000000E+00  0.72688018396E+03  0.72688018397E+03  0.25500000920E-02 0. -1.
        2   -1    0    0  501    0  0.00000000000E+00  0.00000000000E+00 -0.70683521007E+03  0.70683521007E+03  0.25500000920E-02 0.  1.
    10030    2    1    2    0    0  0.00000000000E+00  0.00000000000E+00  0.20044973898E+02  0.14337153940E+04  0.14335752614E+04 0.  0.
        4    1    3    3  502    0 -0.66975724292E+03  0.93609488283E+02  0.24762810464E+03  0.72017969414E+03  0.12699999809E+01 0. -1.
       -4    1    3    3    0  502  0.66975724292E+03 -0.93609488283E+02 -0.22758313074E+03  0.71353569990E+03  0.12699999809E+01 0.  1.
</event>
<event>
 5   0  0.2917809E-03  0.1384130E+04  0.7818609E-02  0.8965387E-01
       -2   -1    0    0    0  501  0.00000000000E+00  0.00000000000E+00  0.56772698188E+03  0.56772698188E+03  0.25500000920E-02 0. -1.
        2   -1    0    0  501    0  0.00000000000E+00  0.00000000000E+00 -0.84363459801E+03  0.84363459802E+03  0.25500000920E-02 0.  1.
    10030    2    1    2    0    0  0.00000000000E+00  0.00000000000E+00 -0.27590761613E+03  0.14113615799E+04  0.13841302311E+04 0.  0.
        2    1    3    3  502    0 -0.55020790698E+03 -0.16416472737E+03  0.25600911407E+03  0.62866482732E+03  0.25500000920E-02 0. -1.
       -2    1    3    3    0  502  0.55020790698E+03  0.16416472737E+03 -0.53191673021E+03  0.78269675258E+03  0.25500000920E-02 0.  1.
</event>
<event>
 5   0  0.1644571E-03  0.1421775E+04  0.7818609E-02  0.8938206E-01
        1   -1    0    0  501    0  0.00000000000E+00  0.00000000000E+00  0.64550457393E+03  0.64550457395E+03  0.50400001928E-02 0.  1.
       -1   -1    0    0    0  501  0.00000000000E+00  0.00000000000E+00 -0.78289297188E+03  0.78289297190E+03  0.50400001928E-02 0. -1.
    10030    2    1    2    0    0  0.00000000000E+00  0.00000000000E+00 -0.13738839795E+03  0.14283975458E+04  0.14217749390E+04 0.  0.
        4    1    3    3  502    0 -0.69369642932E+03  0.12879632592E+03  0.18636829714E+02  0.70579896143E+03  0.12699999809E+01 0.  1.
       -4    1    3    3    0  502  0.69369642932E+03 -0.12879632592E+03 -0.15602522767E+03  0.72259858441E+03  0.12699999809E+01 0. -1.
</event>
<event>
 5   0  0.2889469E-03  0.9652017E+03  0.7818609E-02  0.9347556E-01
        2   -1    0    0  501    0  0.00000000000E+00  0.00000000000E+00  0.14427766016E+04  0.14427766016E+04  0.25500000920E-02 0.  1.
       -2   -1    0    0    0  501  0.00000000000E+00  0.00000000000E+00 -0.16142735020E+03  0.16142735022E+03  0.25500000920E-02 0. -1.
    10030    2    1    2    0    0  0.00000000000E+00  0.00000000000E+00  0.12813492514E+04  0.16042039518E+04  0.96520174830E+03 0.  0.
        5    1    3    3  502    0 -0.32589426126E+03 -0.34297400319E+03  0.79872823111E+03  0.92834644048E+03  0.46999998093E+01 0.  1.
       -5    1    3    3    0  502  0.32589426126E+03  0.34297400319E+03  0.48262102025E+03  0.67585751129E+03  0.46999998093E+01 0. -1.
</event>
<event>
 5   0  0.1586022E-03  0.1396678E+04  0.7818609E-02  0.8956227E-01
       -1   -1    0    0    0  501  0.00000000000E+00  0.00000000000E+00  0.36691571951E+03  0.36691571954E+03  0.50400001928E-02 0.  1.
        1   -1    0    0  501    0  0.00000000000E+00  0.00000000000E+00 -0.13291257434E+04  0.13291257434E+04  0.50400001928E-02 0. -1.
    10030    2    1    2    0    0  0.00000000000E+00  0.00000000000E+00 -0.96221002385E+03  0.16960414629E+04  0.13966776700E+04 0.  0.
        1    1    3    3  502    0  0.10236315597E+03  0.67282111056E+02  0.35376762573E+03  0.37437498743E+03  0.50400001928E-02 0.  1.
       -1    1    3    3    0  502 -0.10236315597E+03 -0.67282111056E+02 -0.13159776496E+04  0.13216664755E+04  0.50400001928E-02 0. -1.
</event>
<event>
 5   0  0.2760807E-03  0.1444868E+04  0.7818609E-02  0.8921966E-01
       -2   -1    0    0    0  501  0.00000000000E+00  0.00000000000E+00  0.64383355191E+03  0.64383355191E+03  0.25500000920E-02 0.  1.
        2   -1    0    0  501    0  0.00000000000E+00  0.00000000000E+00 -0.81063000639E+03  0.81063000639E+03  0.25500000920E-02 0. -1.
    10030    2    1    2    0    0  0.00000000000E+00  0.00000000000E+00 -0.16679645448E+03  0.14544635583E+04  0.14448678781E+04 0.  0.
        4    1    3    3  502    0  0.22995227860E+03 -0.63749945796E+03  0.16851476605E+03  0.69834264413E+03  0.12699999809E+01 0. -1.
       -4    1    3    3    0  502 -0.22995227860E+03  0.63749945796E+03 -0.33531122053E+03  0.75612091417E+03  0.12699999809E+01 0.  1.
</event>
<event>
 5   0  0.1700207E-03  0.1532447E+04  0.7818609E-02  0.8863158E-01
        1   -1    0    0  501    0  0.00000000000E+00  0.00000000000E+00  0.16621939114E+04  0.16621939114E+04  0.50400001928E-02 0.  1.
       -1   -1    0    0    0  501  0.00000000000E+00  0.00000000000E+00 -0.35320695878E+03  0.35320695881E+03  0.50400001928E-02 0. -1.
    10030    2    1    2    0    0  0.00000000000E+00  0.00000000000E+00  0.13089869526E+04  0.20154008702E+04  0.15324470058E+04 0.  0.
        2    1    3    3  502    0  0.74749064902E+03  0.11546523821E+03  0.49329228197E+03  0.90300153215E+03  0.25500000920E-02 0.  1.
       -2    1    3    3    0  502 -0.74749064902E+03 -0.11546523821E+03  0.81569467062E+03  0.11123993380E+04  0.25500000920E-02 0. -1.
</event>
<event>
 5   0  0.1700207E-03  0.1407530E+04  0.7818609E-02  0.8948386E-01
        1   -1    0    0  501    0  0.00000000000E+00  0.00000000000E+00  0.21878518622E+03  0.21878518628E+03  0.50400001928E-02 0. -1.
       -1   -1    0    0    0  501  0.00000000000E+00  0.00000000000E+00 -0.22637955552E+04  0.22637955552E+04  0.50400001928E-02 0.  1.
    10030    2    1    2    0    0  0.00000000000E+00  0.00000000000E+00 -0.20450103690E+04  0.24825807415E+04  0.14075296547E+04 0.  0.
        2    1    3    3  502    0 -0.17006759776E+03  0.39248765066E+03 -0.36810260354E+02  0.42933033785E+03  0.25500000920E-02 0. -1.
       -2    1    3    3    0  502  0.17006759776E+03 -0.39248765066E+03 -0.20082001086E+04  0.20532504037E+04  0.25500000920E-02 0.  1.
</event>
<event>
 5   0  0.2917809E-03  0.1364202E+04  0.7818609E-02  0.8980146E-01
        2   -1    0    0  501    0  0.00000000000E+00  0.00000000000E+00  0.31168264582E+04  0.31168264582E+04  0.25500000920E-02 0. -1.
       -2   -1    0    0    0  501  0.00000000000E+00  0.00000000000E+00 -0.14927425331E+03  0.14927425333E+03  0.25500000920E-02 0.  1.
    10030    2    1    2    0    0  0.00000000000E+00  0.00000000000E+00  0.29675522049E+04  0.32661007115E+04  0.13642022464E+04 0.  0.
        2    1    3    3  502    0 -0.49564173617E+03 -0.20858648197E+03  0.47911005891E+03  0.72021906365E+03  0.25500000920E-02 0.  1.
       -2    1    3    3    0  502  0.49564173617E+03  0.20858648197E+03  0.24884421460E+04  0.25458816479E+04  0.25500000920E-02 0. -1.
</event>
<event>
 5   0  0.1560957E-03  0.1444835E+04  0.7818609E-02  0.8921989E-01
       -1   -1    0    0    0  501  0.00000000000E+00  0.00000000000E+00  0.69298031069E+03  0.69298031071E+03  0.50400001928E-02 0.  1.
        1   -1    0    0  501    0  0.00000000000E+00  0.00000000000E+00 -0.75310514278E+03  0.75310514280E+03  0.50400001928E-02 0. -1.
    10030    2    1    2    0    0  0.00000000000E+00  0.00000000000E+00 -0.60124832089E+02  0.14460854535E+04  0.14448349883E+04 0.  0.
        5    1    3    3  502    0 -0.64226724473E+03  0.22560380344E+03  0.21193322867E+03  0.71298111700E+03  0.46999998093E+01 0.  1.
       -5    1    3    3    0  502  0.64226724473E+03 -0.22560380344E+03 -0.27205806076E+03  0.73310433651E+03  0.46999998093E+01 0. -1.
</event>
<event>
 5   0  0.1644571E-03  0.1457979E+04  0.7818609E-02  0.8912887E-01
       -1   -1    0    0    0  501  0.00000000000E+00  0.00000000000E+00  0.43217447503E+03  0.43217447506E+03  0.50400001928E-02 0.  1.
        1   -1    0    0  501    0  0.00000000000E+00  0.00000000000E+00 -0.12296560576E+04  0.12296560577E+04  0.50400001928E-02 0. -1.
    10030    2    1    2    0    0  0.00000000000E+00  0.00000000000E+00 -0.79748158261E+03  0.16618305327E+04  0.14579793705E+04 0.  0.
        4    1    3    3  502    0 -0.41881758902E+03  0.22805166448E+01 -0.10788318232E+04  0.11572783110E+04  0.12699999809E+01 0. -1.
       -4    1    3    3    0  502  0.41881758902E+03 -0.22805166448E+01  0.28135024056E+03  0.50455222167E+03  0.12699999809E+01 0.  1.
</event>
<event>
 5   0  0.1560957E-03  0.1564676E+04  0.7818609E-02  0.8842548E-01
        1   -1    0    0  501    0  0.00000000000E+00  0.00000000000E+00  0.18153888348E+04  0.18153888348E+04  0.50400001928E-02 0. -1.
       -1   -1    0    0    0  501  0.00000000000E+00  0.00000000000E+00 -0.33714700770E+03  0.33714700774E+03  0.50400001928E-02 0.  1.
    10030    2    1    2    0    0  0.00000000000E+00  0.00000000000E+00  0.14782418271E+04  0.21525358425E+04  0.15646762138E+04 0.  0.
        5    1    3    3  502    0  0.19246960873E+03 -0.16721693611E+02  0.17820361819E+04  0.17924840889E+04  0.46999998093E+01 0. -1.
       -5    1    3    3    0  502 -0.19246960873E+03  0.16721693611E+02 -0.30379435479E+03  0.36005175367E+03  0.46999998093E+01 0.  1.
</event>
<event>
 5   0  0.2917809E-03  0.1384943E+04  0.7818609E-02  0.8964790E-01
        2   -1    0    0  501    0  0.00000000000E+00  0.00000000000E+00  0.42325822153E+03  0.42325822154E+03  0.25500000920E-02 0.  1.
       -2   -1    0    0    0  501  0.00000000000E+00  0.00000000000E+00 -0.11329179797E+04  0.11329179797E+04  0.25500000920E-02 0. -1.
    10030    2    1    2    0    0  0.00000000000E+00  0.00000000000E+00 -0.70965975815E+03  0.15561762012E+04  0.13849431024E+04 0.  0.
        2    1    3    3  502    0  0.68461243771E+03  0.95240262434E+02 -0.40186127945E+03  0.79953573115E+03  0.25500000920E-02 0. -1.
       -2    1    3    3    0  502 -0.68461243771E+03 -0.95240262434E+02 -0.30779847869E+03  0.75664047007E+03  0.25500000920E-02 0.  1.
</event>
<event>
 5   0  0.2917809E-03  0.1415824E+04  0.7818609E-02  0.8942443E-01
       -2   -1    0    0    0  501  0.00000000000E+00  0.00000000000E+00  0.36302928702E+03  0.36302928703E+03  0.25500000920E-02 0.  1.
        2   -1    0    0  501    0  0.00000000000E+00  0.00000000000E+00 -0.13804374971E+04  0.13804374971E+04  0.25500000920E-02 0. -1.
    10030    2    1    2    0    0  0.00000000000E+00  0.00000000000E+00 -0.10174082101E+04  0.17434667842E+04  0.14158237749E+04 0.  0.
        2    1    3    3  502    0  0.29925821182E+03 -0.56481329516E+03 -0.88336547426E+03  0.10903687894E+04  0.25500000920E-02 0. -1.
       -2    1    3    3    0  502 -0.29925821182E+03  0.56481329516E+03 -0.13404273584E+03  0.65309799477E+03  0.25500000920E-02 0.  1.
</event>
<event>
 5   0  0.1586022E-03  0.1441449E+04  0.7818609E-02  0.8924350E-01
        1   -1    0    0  501    0  0.00000000000E+00  0.00000000000E+00  0.12996061874E+04  0.12996061874E+04  0.50400001928E-02 0.  1.
       -1   -1    0    0    0  501  0.00000000000E+00  0.00000000000E+00 -0.39969345413E+03  0.39969345416E+03  0.50400001928E-02 0. -1.
    10030    2    1    2    0    0  0.00000000000E+00  0.00000000000E+00  0.89991273328E+03  0.16992996416E+04  0.14414493901E+04 0.  0.
        1    1    3    3  502    0  0.29310099565E+03  0.65577126271E+03  0.38021329370E+03  0.81271538153E+03  0.50400001928E-02 0. -1.
       -1    1    3    3    0  502 -0.29310099565E+03 -0.65577126271E+03  0.51969943958E+03  0.88658426005E+03  0.50400001928E-02 0.  1.
</event>
<event>
 5   0  0.2993993E-03  0.1398432E+04  0.7818609E-02  0.8954954E-01
        2   -1    0    0  501    0  0.00000000000E+00  0.00000000000E+00  0.38442168256E+03  0.38442168256E+03  0.25500000920E-02 0. -1.
       -2   -1    0    0    0  501  0.00000000000E+00  0.00000000000E+00 -0.12717889569E+04  0.12717889569E+04  0.25500000920E-02 0.  1.
    10030    2    1    2    0    0  0.00000000000E+00  0.00000000000E+00 -0.88736727435E+03  0.16562106395E+04  0.13984323376E+04 0.  0.
        3    1    3    3  502    0 -0.14371771947E+03 -0.61682532358E+03 -0.79456433352E+03  0.10161007593E+04  0.10100000352E+00 0.  1.
       -3    1    3    3    0  502  0.14371771947E+03  0.61682532358E+03 -0.92802940839E+02  0.64010988020E+03  0.10100000352E+00 0. -1.
</event>
<event>
 5   0  0.2993993E-03  0.1394519E+04  0.7818609E-02  0.8957795E-01
        2   -1    0    0  501    0  0.00000000000E+00  0.00000000000E+00  0.13295600857E+04  0.13295600857E+04  0.25500000920E-02 0. -1.
       -2   -1    0    0    0  501  0.00000000000E+00  0.00000000000E+00 -0.36566306857E+03  0.36566306858E+03  0.25500000920E-02 0.  1.
    10030    2    1    2    0    0  0.00000000000E+00  0.00000000000E+00  0.96389701711E+03  0.16952231543E+04  0.13945193018E+04 0.  0.
        3    1    3    3  502    0 -0.30735009055E+03 -0.99773202605E+02  0.12330405203E+04  0.12746794519E+04  0.10100000352E+00 0. -1.
       -3    1    3    3    0  502  0.30735009055E+03  0.99773202605E+02 -0.26914350318E+03  0.42054370240E+03  0.10100000352E+00 0.  1.
</event>
<event>
 5   0  0.2760807E-03  0.1376942E+04  0.7818609E-02  0.8970681E-01
        2   -1    0    0  501    0  0.00000000000E+00  0.00000000000E+00  0.10659156351E+04  0.10659156351E+04  0.25500000920E-02 0. -1.
       -2   -1    0    0    0  501  0.00000000000E+00  0.00000000000E+00 -0.44468059222E+03  0.44468059223E+03  0.25500000920E-02 0.  1.
    10030    2    1    2    0    0  0.00000000000E+00  0.00000000000E+00  0.62123504288E+03  0.15105962273E+04  0.13769415324E+04 0.  0.
        4    1    3    3  502    0 -0.56378202800E+03 -0.35835089174E+03  0.12794742019E+03  0.68017475103E+03  0.12699999809E+01 0.  1.
       -4    1    3    3    0  502  0.56378202800E+03  0.35835089174E+03  0.49328762269E+03  0.83042147630E+03  0.12699999809E+01 0. -1.
</event>
<event>
 5   0  0.1644571E-03  0.1387015E+04  0.7818609E-02  0.8963271E-01
       -1   -1    0    0    0  501  0.00000000000E+00  0.00000000000E+00  0.94452412205E+03  0.94452412206E+03  0.50400001928E-02 0.  1.
        1   -1    0    0  501    0  0.00000000000E+00  0.00000000000E+00 -0.50920134431E+03  0.50920134433E+03  0.50400001928E-02 0. -1.
    10030    2    1    2    0    0  0.00000000000E+00  0.00000000000E+00  0.43532277774E+03  0.14537254664E+04  0.13870154328E+04 0.  0.
        4    1    3    3  502    0  0.33829741752E+03  0.49105881700E+02 -0.41476262030E+03  0.53748132471E+03  0.12699999809E+01 0. -1.
       -4    1    3    3    0  502 -0.33829741752E+03 -0.49105881700E+02  0.85008539804E+03  0.91624414168E+03  0.12699999809E+01 0.  1.
</event>
<event>
 5   0  0.1644571E-03  0.1411698E+04  0.7818609E-02  0.8945394E-01
       -1   -1    0    0    0  501  0.00000000000E+00  0.00000000000E+00  0.10929067256E+04  0.10929067257E+04  0.50400001928E-02 0.  1.
        1   -1    0    0  501    0  0.00000000000E+00  0.00000000000E+00 -0.45586921899E+03  0.45586921901E+03  0.50400001928E-02 0. -1.
    10030    2    1    2    0    0  0.00000000000E+00  0.00000000000E+00  0.63703750666E+03  0.15487759447E+04  0.14116976099E+04 0.  0.
        4    1    3    3  502    0  0.61356693745E+01  0.19241783921E+03  0.10635458964E+04  0.10808301244E+04  0.12699999809E+01 0.  1.
       -4    1    3    3    0  502 -0.61356693745E+01 -0.19241783921E+03 -0.42650838971E+03  0.46794582024E+03  0.12699999809E+01 0. -1.
</event>
<event>
 5   0  0.2889469E-03  0.1405152E+04  0.7818609E-02  0.8950098E-01
       -2   -1    0    0    0  501  0.00000000000E+00  0.00000000000E+00  0.34830495661E+03  0.34830495662E+03  0.25500000920E-02 0. -1.
        2   -1    0    0  501    0  0.00000000000E+00  0.00000000000E+00 -0.14171859067E+04  0.14171859067E+04  0.25500000920E-02 0.  1.
    10030    2    1    2    0    0  0.00000000000E+00  0.00000000000E+00 -0.10688809501E+04  0.17654908633E+04  0.14051517722E+04 0.  0.
        5    1    3    3  502    0 -0.18449446095E+03 -0.27975343092E+02  0.31657944374E+03  0.36751253059E+03  0.46999998093E+01 0. -1.
       -5    1    3    3    0  502  0.18449446095E+03  0.27975343092E+02 -0.13854603938E+04  0.13979783327E+04  0.46999998093E+01 0.  1.
</event>
<event>
 5   0  0.1644571E-03  0.1417649E+04  0.7818609E-02  0.8941142E-01
       -1   -1    0    0    0  501  0.00000000000E+00  0.00000000000E+00  0.92236700094E+03  0.92236700095E+03  0.50400001928E-02 0. -1.
        1   -1    0    0  501    0  0.00000000000E+00  0.00000000000E+00 -0.54472040590E+03  0.54472040593E+03  0.50400001928E-02 0.  1.
    10030    2    1    2    0    0  0.00000000000E+00  0.00000000000E+00  0.37764659503E+03  0.14670874069E+04  0.14176489370E+04 0.  0.
        4    1    3    3  502    0  0.40698408103E+03 -0.56149358986E+03  0.37012528717E+02  0.69446571827E+03  0.12699999809E+01 0.  1.
       -4    1    3    3    0  502 -0.40698408103E+03  0.56149358986E+03  0.34063406632E+03  0.77262168861E+03  0.12699999809E+01 0. -1.
</event>
<event>
 5   0  0.2993993E-03  0.8575255E+03  0.7818609E-02  0.9480292E-01
       -2   -1    0    0    0  501  0.00000000000E+00  0.00000000000E+00  0.17636414313E+03  0.17636414314E+03  0.25500000920E-02 0.  1.
        2   -1    0    0  501    0  0.00000000000E+00  0.00000000000E+00 -0.10423744587E+04  0.10423744587E+04  0.25500000920E-02 0. -1.
    10030    2    1    2    0    0  0.00000000000E+00  0.00000000000E+00 -0.86601031558E+03  0.12187386019E+04  0.85752545907E+03 0.  0.
        3    1    3    3  502    0 -0.42802762064E+03  0.61135273199E+01 -0.46759821557E+03  0.63395040868E+03  0.10100000352E+00 0. -1.
       -3    1    3    3    0  502  0.42802762064E+03 -0.61135273199E+01 -0.39841210001E+03  0.58478819318E+03  0.10100000352E+00 0.  1.
</event>
<event>
 5   0  0.2993993E-03  0.1394354E+04  0.7818609E-02  0.8957916E-01
       -2   -1    0    0    0  501  0.00000000000E+00  0.00000000000E+00  0.70355013071E+03  0.70355013071E+03  0.25500000920E-02 0. -1.
        2   -1    0    0  501    0  0.00000000000E+00  0.00000000000E+00 -0.69086126885E+03  0.69086126885E+03  0.25500000920E-02 0.  1.
    10030    2    1    2    0    0  0.00000000000E+00  0.00000000000E+00  0.12688861858E+02  0.13944113996E+04  0.13943536653E+04 0.  0.
        3    1    3    3  502    0  0.10083117568E+03  0.68564118479E+03  0.82405226293E+02  0.69789783765E+03  0.10100000352E+00 0.  1.
       -3    1    3    3    0  502 -0.10083117568E+03 -0.68564118479E+03 -0.69716364435E+02  0.69651356192E+03  0.10100000352E+00 0. -1.
</event>
<event>
 5   0  0.1644571E-03  0.1435340E+04  0.7818609E-02  0.8928628E-01
        1   -1    0    0  501    0  0.00000000000E+00  0.00000000000E+00  0.49006053892E+03  0.49006053895E+03  0.50400001928E-02 0.  1.
       -1   -1    0    0    0  501  0.00000000000E+00  0.00000000000E+00 -0.10509929275E+04  0.10509929275E+04  0.50400001928E-02 0. -1.
    10030    2    1    2    0    0  0.00000000000E+00  0.00000000000E+00 -0.56093238858E+03  0.15410534665E+04  0.14353399047E+04 0.  0.
        4    1    3    3  502    0  0.42990651171E+03 -0.29429592186E+02  0.33570337441E+03  0.54624543770E+03  0.12699999809E+01 0.  1.
       -4    1    3    3    0  502 -0.42990651171E+03  0.29429592186E+02 -0.89663576300E+03  0.99480802877E+03  0.12699999809E+01 0. -1.
</event>
<event>
 5   0  0.1631380E-03  0.1321332E+04  0.7818609E-02  0.9012818E-01
       -1   -1    0    0    0  501  0.00000000000E+00  0.00000000000E+00  0.63312409347E+03  0.63312409349E+03  0.50400001928E-02 0.  1.
        1   -1    0    0  501    0  0.00000000000E+00  0.00000000000E+00 -0.68940563764E+03  0.68940563766E+03  0.50400001928E-02 0. -1.
    10030    2    1    2    0    0  0.00000000000E+00  0.00000000000E+00 -0.56281544178E+02  0.13225297311E+04  0.13213316304E+04 0.  0.
        3    1    3    3  502    0  0.31824491080E+03  0.49565920384E+03 -0.32761340531E+03  0.67400921592E+03  0.10100000352E+00 0.  1.
       -3    1    3    3    0  502 -0.31824491080E+03 -0.49565920384E+03  0.27133186114E+03  0.64852051523E+03  0.10100000352E+00 0. -1.
</event>
<event>
 5   0  0.1644571E-03  0.1396897E+04  0.7818609E-02  0.8956067E-01
       -1   -1    0    0    0  501  0.00000000000E+00  0.00000000000E+00  0.11753489022E+04  0.11753489022E+04  0.50400001928E-02 0.  1.
        1   -1    0    0  501    0  0.00000000000E+00  0.00000000000E+00 -0.41505171861E+03  0.41505171864E+03  0.50400001928E-02 0. -1.
    10030    2    1    2    0    0  0.00000000000E+00  0.00000000000E+00  0.76029718356E+03  0.15904006208E+04  0.13968973933E+04 0.  0.
        4    1    3    3  502    0 -0.57058599995E+02  0.23159917421E+03 -0.36724258763E+03  0.43790705908E+03  0.12699999809E+01 0. -1.
       -4    1    3    3    0  502  0.57058599995E+02 -0.23159917421E+03  0.11275397712E+04  0.11524935617E+04  0.12699999809E+01 0.  1.
</event>
<event>
 5   0  0.2889469E-03  0.1394579E+04  0.7818609E-02  0.8957752E-01
       -2   -1    0    0    0  501  0.00000000000E+00  0.00000000000E+00  0.87906831218E+03  0.87906831219E+03  0.25500000920E-02 0. -1.
        2   -1    0    0  501    0  0.00000000000E+00  0.00000000000E+00 -0.55309979916E+03  0.55309979916E+03  0.25500000920E-02 0.  1.
    10030    2    1    2    0    0  0.00000000000E+00  0.00000000000E+00  0.32596851302E+03  0.14321681113E+04  0.13945787994E+04 0.  0.
        5    1    3    3  502    0  0.87977138628E+01 -0.27314595793E+03  0.82176080597E+03  0.86602484163E+03  0.46999998093E+01 0. -1.
       -5    1    3    3    0  502 -0.87977138628E+01  0.27314595793E+03 -0.49579229294E+03  0.56614326972E+03  0.46999998093E+01 0.  1.
</event>
<event>
 5   0  0.1644571E-03  0.1428893E+04  0.7818609E-02  0.8933166E-01
        1   -1    0    0  501    0  0.00000000000E+00  0.00000000000E+00  0.20572785159E+04  0.20572785159E+04  0.50400001928E-02 0.  1.
       -1   -1    0    0    0  501  0.00000000000E+00  0.00000000000E+00 -0.24811102253E+03  0.24811102258E+03  0.50400001928E-02 0. -1.
    10030    2    1    2    0    0  0.00000000000E+00  0.00000000000E+00  0.18091674934E+04  0.23053895385E+04  0.14288925450E+04 0.  0.
        4    1    3    3  502    0  0.30848718920E+03 -0.39351221002E+03  0.81245491999E+02  0.50657541216E+03  0.12699999809E+01 0. -1.
       -4    1    3    3    0  502 -0.30848718920E+03  0.39351221002E+03  0.17279220014E+04  0.17988141264E+04  0.12699999809E+01 0.  1.
</event>
<event>
 5   0  0.1104538E-03  0.1384011E+04  0.7818609E-02  0.8965474E-01
        3   -1    0    0  501    0  0.00000000000E+00  0.00000000000E+00  0.55227611451E+03  0.55227612375E+03  0.10100000352E+00 0. -1.
       -3   -1    0    0    0  501  0.00000000000E+00  0.00000000000E+00 -0.86708700912E+03  0.86708701500E+03  0.10100000352E+00 0.  1.
    10030    2    1    2    0    0  0.00000000000E+00  0.00000000000E+00 -0.31481089460E+03  0.14193631387E+04  0.13840107732E+04 0.  0.
        3    1    3    3  502    0  0.42160511280E+03  0.52596319747E+03 -0.31787362763E+03  0.74527297655E+03  0.10100000352E+00 0.  1.
       -3    1    3    3    0  502 -0.42160511280E+03 -0.52596319747E+03  0.30627330295E+01  0.67409016219E+03  0.10100000352E+00 0. -1.
</event>
<event>
 5   0  0.1700207E-03  0.1386992E+04  0.7818609E-02  0.8963289E-01
        1   -1    0    0  501    0  0.00000000000E+00  0.00000000000E+00  0.25703668832E+03  0.25703668837E+03  0.50400001928E-02 0. -1.
       -1   -1    0    0    0  501  0.00000000000E+00  0.00000000000E+00 -0.18710808704E+04  0.18710808704E+04  0.50400001928E-02 0.  1.
    10030    2    1    2    0    0  0.00000000000E+00  0.00000000000E+00 -0.16140441821E+04  0.21281175588E+04  0.13869916086E+04 0.  0.
        2    1    3    3  502    0 -0.11505522691E+03  0.56110045443E+03 -0.14069178884E+04  0.15190422541E+04  0.25500000920E-02 0.  1.
       -2    1    3    3    0  502  0.11505522691E+03 -0.56110045443E+03 -0.20712629373E+03  0.60907530468E+03  0.25500000920E-02 0. -1.
</event>
<event>
 5   0  0.1560957E-03  0.1417359E+04  0.7818609E-02  0.8941348E-01
       -1   -1    0    0    0  501  0.00000000000E+00  0.00000000000E+00  0.45350754199E+03  0.45350754202E+03  0.50400001928E-02 0. -1.
        1   -1    0    0  501    0  0.00000000000E+00  0.00000000000E+00 -0.11074278318E+04  0.11074278318E+04  0.50400001928E-02 0.  1.
    10030    2    1    2    0    0  0.00000000000E+00  0.00000000000E+00 -0.65392028979E+03  0.15609353738E+04  0.14173593390E+04 0.  0.
        5    1    3    3  502    0  0.12131315710E+03  0.48785813871E+03 -0.87703887961E+03  0.10109113373E+04  0.46999998093E+01 0.  1.
       -5    1    3    3    0  502 -0.12131315710E+03 -0.48785813871E+03  0.22311858981E+03  0.55002403649E+03  0.46999998093E+01 0. -1.
</event>
<event>
 5   0  0.2917809E-03  0.1310987E+04  0.7818609E-02  0.9020898E-01
        2   -1    0    0  501    0  0.00000000000E+00  0.00000000000E+00  0.71071711146E+03  0.71071711147E+03  0.25500000920E-02 0. -1.
       -2   -1    0    0    0  501  0.00000000000E+00  0.00000000000E+00 -0.60456062547E+03  0.60456062548E+03  0.25500000920E-02 0.  1.
    10030    2    1    2    0    0  0.00000000000E+00  0.00000000000E+00  0.10615648599E+03  0.13152777369E+04  0.13109867756E+04 0.  0.
        2    1    3    3  502    0  0.47785211867E+02  0.65126358819E+03 -0.40633656966E+01  0.65302695099E+03  0.25500000920E-02 0.  1.
       -2    1    3    3    0  502 -0.47785211867E+02 -0.65126358819E+03  0.11021985169E+03  0.66225078595E+03  0.25500000920E-02 0. -1.
</event>
<event>
 5   0  0.2760807E-03  0.1405897E+04  0.7818609E-02  0.8949561E-01
        2   -1    0    0  501    0  0.00000000000E+00  0.00000000000E+00  0.16377715557E+04  0.16377715557E+04  0.25500000920E-02 0.  1.
       -2   -1    0    0    0  501  0.00000000000E+00  0.00000000000E+00 -0.30171260987E+03  0.30171260988E+03  0.25500000920E-02 0. -1.
    10030    2    1    2    0    0  0.00000000000E+00  0.00000000000E+00  0.13360589458E+04  0.19394841656E+04  0.14058966256E+04 0.  0.
        4    1    3    3  502    0 -0.22728762381E+01 -0.25344975296E+03  0.15725385353E+04  0.15928342667E+04  0.12699999809E+01 0.  1.
       -4    1    3    3    0  502  0.22728762381E+01  0.25344975296E+03 -0.23647958949E+03  0.34664989887E+03  0.12699999809E+01 0. -1.
</event>
<event>
 5   0  0.2993993E-03  0.1395704E+04  0.7818609E-02  0.8956934E-01
        2   -1    0    0  501    0  0.00000000000E+00  0.00000000000E+00  0.14289118039E+04  0.14289118039E+04  0.25500000920E-02 0. -1.
       -2   -1    0    0    0  501  0.00000000000E+00  0.00000000000E+00 -0.34081697875E+03  0.34081697876E+03  0.25500000920E-02 0.  1.
    10030    2    1    2    0    0  0.00000000000E+00  0.00000000000E+00  0.10880948252E+04  0.17697287827E+04  0.13957039857E+04 0.  0.
        3    1    3    3  502    0  0.22048755445E+03  0.64684505296E+03  0.72325116903E+03  0.99504550042E+03  0.10100000352E+00 0. -1.
       -3    1    3    3    0  502 -0.22048755445E+03 -0.64684505296E+03  0.36484365615E+03  0.77468328227E+03  0.10100000352E+00 0.  1.
</event>
<event>
 5   0  0.1644571E-03  0.1314155E+04  0.7818609E-02  0.9018415E-01
       -1   -1    0    0    0  501  0.00000000000E+00  0.00000000000E+00  0.24577389272E+03  0.24577389277E+03  0.50400001928E-02 0. -1.
        1   -1    0    0  501    0  0.00000000000E+00  0.00000000000E+00 -0.17567004935E+04  0.17567004935E+04  0.50400001928E-02 0.  1.
    10030    2    1    2    0    0  0.00000000000E+00  0.00000000000E+00 -0.15109266008E+04  0.20024743863E+04  0.13141554226E+04 0.  0.
        4    1    3    3  502    0 -0.85786529196E+02  0.17088418686E+03 -0.17133685134E+04  0.17240052232E+04  0.12699999809E+01 0.  1.
       -4    1    3    3    0  502  0.85786529196E+02 -0.17088418686E+03  0.20244191263E+03  0.27846916310E+03  0.12699999809E+01 0. -1.
</event>
<event>
 5   0  0.1631380E-03  0.1374610E+04  0.7818609E-02  0.8972405E-01
       -1   -1    0    0    0  501  0.00000000000E+00  0.00000000000E+00  0.33384862760E+03  0.33384862764E+03  0.50400001928E-02 0. -1.
        1   -1    0    0  501    0  0.00000000000E+00  0.00000000000E+00 -0.14149762514E+04  0.14149762514E+04  0.50400001928E-02 0.  1.
    10030    2    1    2    0    0  0.00000000000E+00  0.00000000000E+00 -0.10811276238E+04  0.17488248790E+04  0.13746095877E+04 0.  0.
        3    1    3    3  502    0  0.47596746730E+03  0.56741847345E+02  0.86097840480E+02  0.48700874274E+03  0.10100000352E+00 0. -1.
       -3    1    3    3    0  502 -0.47596746730E+03 -0.56741847345E+02 -0.11672254642E+04  0.12618161363E+04  0.10100000352E+00 0.  1.
</event>
<event>
 5   0  0.1560957E-03  0.1483698E+04  0.7818609E-02  0.8895366E-01
        1   -1    0    0  501    0  0.00000000000E+00  0.00000000000E+00  0.60926025307E+03  0.60926025309E+03  0.50400001928E-02 0. -1.
       -1   -1    0    0    0  501  0.00000000000E+00  0.00000000000E+00 -0.90329252884E+03  0.90329252885E+03  0.50400001928E-02 0.  1.
    10030    2    1    2    0    0  0.00000000000E+00  0.00000000000E+00 -0.29403227577E+03  0.15125527819E+04  0.14836983989E+04 0.  0.
        5    1    3    3  502    0  0.30767819500E+03  0.44445357020E+03 -0.66494498404E+03  0.85695902442E+03  0.46999998093E+01 0.  1.
       -5    1    3    3    0  502 -0.30767819500E+03 -0.44445357020E+03  0.37091270827E+03  0.65559375752E+03  0.46999998093E+01 0. -1.
</event>
<event>
 5   0  0.1560957E-03  0.1436677E+04  0.7818609E-02  0.8927690E-01
       -1   -1    0    0    0  501  0.00000000000E+00  0.00000000000E+00  0.39214987341E+03  0.39214987344E+03  0.50400001928E-02 0. -1.
        1   -1    0    0  501    0  0.00000000000E+00  0.00000000000E+00 -0.13158492544E+04  0.13158492544E+04  0.50400001928E-02 0.  1.
    10030    2    1    2    0    0  0.00000000000E+00  0.00000000000E+00 -0.92369938098E+03  0.17079991278E+04  0.14366768858E+04 0.  0.
        5    1    3    3  502    0  0.62330092619E+03 -0.18290393641E+03 -0.82640385816E+03  0.10511533291E+04  0.46999998093E+01 0.  1.
       -5    1    3    3    0  502 -0.62330092619E+03  0.18290393641E+03 -0.97295522823E+02  0.65684579873E+03  0.46999998093E+01 0. -1.
</event>
<event>
 5   0  0.2917809E-03  0.7858414E+03  0.7818609E-02  0.9580740E-01
        2   -1    0    0  501    0  0.00000000000E+00  0.00000000000E+00  0.32656959947E+03  0.32656959948E+03  0.25500000920E-02 0. -1.
       -2   -1    0    0    0  501  0.00000000000E+00  0.00000000000E+00 -0.47275272222E+03  0.47275272223E+03  0.25500000920E-02 0.  1.
    10030    2    1    2    0    0  0.00000000000E+00  0.00000000000E+00 -0.14618312275E+03  0.79932232171E+03  0.78584137624E+03 0.  0.
        2    1    3    3  502    0  0.34510030882E+02  0.30483944054E+03 -0.32279972840E+03  0.44532874531E+03  0.25500000920E-02 0.  1.
       -2    1    3    3    0  502 -0.34510030882E+02 -0.30483944054E+03  0.17661660564E+03  0.35399357640E+03  0.25500000920E-02 0. -1.
</event>
<event>
 5   0  0.2917809E-03  0.1417484E+04  0.7818609E-02  0.8941259E-01
        2   -1    0    0  501    0  0.00000000000E+00  0.00000000000E+00  0.77540778221E+03  0.77540778221E+03  0.25500000920E-02 0.  1.
       -2   -1    0    0    0  501  0.00000000000E+00  0.00000000000E+00 -0.64780788730E+03  0.64780788731E+03  0.25500000920E-02 0. -1.
    10030    2    1    2    0    0  0.00000000000E+00  0.00000000000E+00  0.12759989491E+03  0.14232156695E+04  0.14174840771E+04 0.  0.
        2    1    3    3  502    0 -0.19110538534E+00  0.23225410946E+03  0.73611430248E+03  0.77188488404E+03  0.25500000920E-02 0.  1.
       -2    1    3    3    0  502  0.19110538534E+00 -0.23225410946E+03 -0.60851440758E+03  0.65133078548E+03  0.25500000920E-02 0. -1.
</event>
<event>
 5   0  0.1631380E-03  0.1384563E+04  0.7818609E-02  0.8965069E-01
        1   -1    0    0  501    0  0.00000000000E+00  0.00000000000E+00  0.10602139554E+04  0.10602139554E+04  0.50400001928E-02 0. -1.
       -1   -1    0    0    0  501  0.00000000000E+00  0.00000000000E+00 -0.45203503252E+03  0.45203503255E+03  0.50400001928E-02 0.  1.
    10030    2    1    2    0    0  0.00000000000E+00  0.00000000000E+00  0.60817892288E+03  0.15122489880E+04  0.13845632522E+04 0.  0.
        3    1    3    3  502    0 -0.17240339837E+03 -0.46212706727E+03 -0.22647532309E+03  0.54274804490E+03  0.10100000352E+00 0.  1.
       -3    1    3    3    0  502  0.17240339837E+03  0.46212706727E+03  0.83465424596E+03  0.96950094305E+03  0.10100000352E+00 0. -1.
</event>
<event>
 5   0  0.1586022E-03  0.1446378E+04  0.7818609E-02  0.8920915E-01
       -1   -1    0    0    0  501  0.00000000000E+00  0.00000000000E+00  0.51185232674E+03  0.51185232676E+03  0.50400001928E-02 0. -1.
        1   -1    0    0  501    0  0.00000000000E+00  0.00000000000E+00 -0.10217838300E+04  0.10217838300E+04  0.50400001928E-02 0.  1.
    10030    2    1    2    0    0  0.00000000000E+00  0.00000000000E+00 -0.50993150324E+03  0.15336361567E+04  0.14463781398E+04 0.  0.
        1    1    3    3  502    0  0.39205033382E+03  0.33205898573E+03  0.28469443784E+03  0.58738195173E+03  0.50400001928E-02 0. -1.
       -1    1    3    3    0  502 -0.39205033382E+03 -0.33205898573E+03 -0.79462594108E+03  0.94625420502E+03  0.50400001928E-02 0.  1.
</event>
<event>
 5   0  0.3006737E-03  0.1425853E+04  0.7818609E-02  0.8935314E-01
        2   -1    0    0  501    0  0.00000000000E+00  0.00000000000E+00  0.89602282972E+03  0.89602282972E+03  0.25500000920E-02 0.  1.
       -2   -1    0    0    0  501  0.00000000000E+00  0.00000000000E+00 -0.56724480881E+03  0.56724480882E+03  0.25500000920E-02 0. -1.
    10030    2    1    2    0    0  0.00000000000E+00  0.00000000000E+00  0.32877802091E+03  0.14632676385E+04  0.14258531463E+04 0.  0.
        1    1    3    3  502    0  0.34559649973E+02  0.71166244133E+03  0.18966242846E+03  0.73731244164E+03  0.50400001928E-02 0. -1.
       -1    1    3    3    0  502 -0.34559649973E+02 -0.71166244133E+03  0.13911559245E+03  0.72595519689E+03  0.50400001928E-02 0.  1.
</event>
<event>
 5   0  0.2889469E-03  0.1421911E+04  0.7818609E-02  0.8938109E-01
       -2   -1    0    0    0  501  0.00000000000E+00  0.00000000000E+00  0.73197329908E+03  0.73197329909E+03  0.25500000920E-02 0.  1.
        2   -1    0    0  501    0  0.00000000000E+00  0.00000000000E+00 -0.69054112913E+03  0.69054112914E+03  0.25500000920E-02 0. -1.
    10030    2    1    2    0    0  0.00000000000E+00  0.00000000000E+00  0.41432169951E+02  0.14225144282E+04  0.14219109233E+04 0.  0.
        5    1    3    3  502    0 -0.28832534439E+03 -0.57010699038E+03  0.33274924122E+03  0.72034549505E+03  0.46999998093E+01 0.  1.
       -5    1    3    3    0  502  0.28832534439E+03  0.57010699038E+03 -0.29131707127E+03  0.70216893318E+03  0.46999998093E+01 0. -1.
</event>
<event>
 5   0  0.1700207E-03  0.9601416E+03  0.7818609E-02  0.9353375E-01
        1   -1    0    0  501    0  0.00000000000E+00  0.00000000000E+00  0.21489004719E+03  0.21489004725E+03  0.50400001928E-02 0.  1.
       -1   -1    0    0    0  501  0.00000000000E+00  0.00000000000E+00 -0.10724924306E+04  0.10724924306E+04  0.50400001928E-02 0. -1.
    10030    2    1    2    0    0  0.00000000000E+00  0.00000000000E+00 -0.85760238338E+03  0.12873824778E+04  0.96014155010E+03 0.  0.
        2    1    3    3  502    0 -0.18087022134E+03  0.69810035333E+02  0.16006477969E+03  0.25141243347E+03  0.25500000920E-02 0.  1.
       -2    1    3    3    0  502  0.18087022134E+03 -0.69810035333E+02 -0.10176671631E+04  0.10359700443E+04  0.25500000920E-02 0. -1.
</event>
<event>
 5   0  0.1700207E-03  0.1244624E+04  0.7818609E-02  0.9074669E-01
       -1   -1    0    0    0  501  0.00000000000E+00  0.00000000000E+00  0.46162777060E+03  0.46162777063E+03  0.50400001928E-02 0.  1.
        1   -1    0    0  501    0  0.00000000000E+00  0.00000000000E+00 -0.83892769734E+03  0.83892769735E+03  0.50400001928E-02 0. -1.
    10030    2    1    2    0    0  0.00000000000E+00  0.00000000000E+00 -0.37729992674E+03  0.13005554680E+04  0.12446241564E+04 0.  0.
        2    1    3    3  502    0  0.52196598347E+03 -0.13329303401E+03  0.13688949895E+03  0.55583653690E+03  0.25500000920E-02 0.  1.
       -2    1    3    3    0  502 -0.52196598347E+03  0.13329303401E+03 -0.51418942569E+03  0.74471893108E+03  0.25500000920E-02 0. -1.
</event>
<event>
 5   0  0.1631380E-03  0.1464316E+04  0.7818609E-02  0.8908535E-01
       -1   -1    0    0    0  501  0.00000000000E+00  0.00000000000E+00  0.14650709541E+04  0.14650709541E+04  0.50400001928E-02 0.  1.
        1   -1    0    0  501    0  0.00000000000E+00  0.00000000000E+00 -0.36589031833E+03  0.36589031836E+03  0.50400001928E-02 0. -1.
    10030    2    1    2    0    0  0.00000000000E+00  0.00000000000E+00  0.10991806357E+04  0.18309612724E+04  0.14643159192E+04 0.  0.
        3    1    3    3  502    0 -0.56667877237E+03 -0.44795792114E+03  0.69892721786E+03  0.10051320293E+04  0.10100000352E+00 0.  1.
       -3    1    3    3    0  502  0.56667877237E+03  0.44795792114E+03  0.40025341787E+03  0.82582924318E+03  0.10100000352E+00 0. -1.
</event>
<event>
 5   0  0.2993993E-03  0.1398038E+04  0.7818609E-02  0.8955240E-01
       -2   -1    0    0    0  501  0.00000000000E+00  0.00000000000E+00  0.51819139525E+03  0.51819139526E+03  0.25500000920E-02 0. -1.
        2   -1    0    0  501    0  0.00000000000E+00  0.00000000000E+00 -0.94294832451E+03  0.94294832451E+03  0.25500000920E-02 0.  1.
    10030    2    1    2    0    0  0.00000000000E+00  0.00000000000E+00 -0.42475692926E+03  0.14611397198E+04  0.13980382083E+04 0.  0.
        3    1    3    3  502    0 -0.39387215276E+03  0.20445655473E+03 -0.77683880494E+03  0.89465987646E+03  0.10100000352E+00 0.  1.
       -3    1    3    3    0  502  0.39387215276E+03 -0.20445655473E+03  0.35208187568E+03  0.56647984331E+03  0.10100000352E+00 0. -1.
</event>
<event>
 5   0  0.1560957E-03  0.1361957E+04  0.7818609E-02  0.8981826E-01
        1   -1    0    0  501    0  0.00000000000E+00  0.00000000000E+00  0.67810879734E+03  0.67810879736E+03  0.50400001928E-02 0.  1.
       -1   -1    0    0    0  501  0.00000000000E+00  0.00000000000E+00 -0.68386025394E+03  0.68386025396E+03  0.50400001928E-02 0. -1.
    10030    2    1    2    0    0  0.00000000000E+00  0.00000000000E+00 -0.57514566016E+01  0.13619690513E+04  0.13619569074E+04 0.  0.
        5    1    3    3  502    0  0.32545919501E+03  0.34567102313E+03 -0.49103724883E+03  0.68304598204E+03  0.46999998093E+01 0. -1.
       -5    1    3    3    0  502 -0.32545919501E+03 -0.34567102313E+03  0.48528579223E+03  0.67892306927E+03  0.46999998093E+01 0.  1.
</event>
<event>
 5   0  0.1700207E-03  0.1344544E+04  0.7818609E-02  0.8994969E-01
        1   -1    0    0  501    0  0.00000000000E+00  0.00000000000E+00  0.73435158482E+03  0.73435158483E+03  0.50400001928E-02 0.  1.
       -1   -1    0    0    0  501  0.00000000000E+00  0.00000000000E+00 -0.61544008408E+03  0.61544008410E+03  0.50400001928E-02 0. -1.
    10030    2    1    2    0    0  0.00000000000E+00  0.00000000000E+00  0.11891150074E+03  0.13497916689E+04  0.13445436417E+04 0.  0.
        2    1    3    3  502    0 -0.28641326816E+03 -0.26208100140E+03 -0.49153109685E+03  0.62635599354E+03  0.25500000920E-02 0. -1.
       -2    1    3    3    0  502  0.28641326816E+03  0.26208100140E+03  0.61044259759E+03  0.72343567539E+03  0.25500000920E-02 0.  1.
</event>
<event>
 5   0  0.2993993E-03  0.1260427E+04  0.7818609E-02  0.9061549E-01
       -2   -1    0    0    0  501  0.00000000000E+00  0.00000000000E+00  0.30925193305E+03  0.30925193306E+03  0.25500000920E-02 0.  1.
        2   -1    0    0  501    0  0.00000000000E+00  0.00000000000E+00 -0.12842898313E+04  0.12842898313E+04  0.25500000920E-02 0. -1.
    10030    2    1    2    0    0  0.00000000000E+00  0.00000000000E+00 -0.97503789821E+03  0.15935417643E+04  0.12604270910E+04 0.  0.
        3    1    3    3  502    0  0.37493210159E+03  0.42518480815E+03 -0.83562957353E+03  0.10097687836E+04  0.10100000352E+00 0. -1.
       -3    1    3    3    0  502 -0.37493210159E+03 -0.42518480815E+03 -0.13940832468E+03  0.58377298077E+03  0.10100000352E+00 0.  1.
</event>
<event>
 5   0  0.2889469E-03  0.1385220E+04  0.7818609E-02  0.8964587E-01
        2   -1    0    0  501    0  0.00000000000E+00  0.00000000000E+00  0.10723122849E+04  0.10723122849E+04  0.25500000920E-02 0. -1.
       -2   -1    0    0    0  501  0.00000000000E+00  0.00000000000E+00 -0.44735889211E+03  0.44735889212E+03  0.25500000920E-02 0.  1.
    10030    2    1    2    0    0  0.00000000000E+00  0.00000000000E+00  0.62495339278E+03  0.15196711770E+04  0.13852197454E+04 0.  0.
        5    1    3    3  502    0 -0.13469952483E+03 -0.16226799554E+03 -0.41126088540E+03  0.46220392709E+03  0.46999998093E+01 0.  1.
       -5    1    3    3    0  502  0.13469952483E+03  0.16226799554E+03  0.10362142782E+04  0.10574672499E+04  0.46999998093E+01 0. -1.
</event>
<event>
 5   0  0.2889469E-03  0.1425108E+04  0.7818609E-02  0.8935842E-01
       -2   -1    0    0    0  501  0.00000000000E+00  0.00000000000E+00  0.67624622735E+03  0.67624622735E+03  0.25500000920E-02 0. -1.
        2   -1    0    0  501    0  0.00000000000E+00  0.00000000000E+00 -0.75081098786E+03  0.75081098787E+03  0.25500000920E-02 0.  1.
    10030    2    1    2    0    0  0.00000000000E+00  0.00000000000E+00 -0.74564760515E+02  0.14270572152E+04  0.14251078528E+04 0.  0.
        5    1    3    3  502    0  0.60909141030E+03 -0.98251236620E+02 -0.39423225343E+03  0.73217949387E+03  0.46999998093E+01 0.  1.
       -5    1    3    3    0  502 -0.60909141030E+03  0.98251236620E+02  0.31966749291E+03  0.69487772135E+03  0.46999998093E+01 0. -1.
</event>
<event>
 5   0  0.2889469E-03  0.1391202E+04  0.7818609E-02  0.8960212E-01
       -2   -1    0    0    0  501  0.00000000000E+00  0.00000000000E+00  0.11498719761E+04  0.11498719761E+04  0.25500000920E-02 0.  1.
        2   -1    0    0  501    0  0.00000000000E+00  0.00000000000E+00 -0.42079521534E+03  0.42079521535E+03  0.25500000920E-02 0. -1.
    10030    2    1    2    0    0  0.00000000000E+00  0.00000000000E+00  0.72907676075E+03  0.15706671914E+04  0.13912018197E+04 0.  0.
        5    1    3    3  502    0 -0.31431643828E+02 -0.16671977312E+03 -0.39706003266E+03  0.43181267990E+03  0.46999998093E+01 0. -1.
       -5    1    3    3    0  502  0.31431643828E+02  0.16671977312E+03  0.11261367934E+04  0.11388545115E+04  0.46999998093E+01 0.  1.
</event>
<event>
 5   0  0.2917809E-03  0.1366928E+04  0.7818609E-02  0.8978112E-01
        2   -1    0    0  501    0  0.00000000000E+00  0.00000000000E+00  0.47390332072E+03  0.47390332073E+03  0.25500000920E-02 0.  1.
       -2   -1    0    0    0  501  0.00000000000E+00  0.00000000000E+00 -0.98569313963E+03  0.98569313963E+03  0.25500000920E-02 0. -1.
    10030    2    1    2    0    0  0.00000000000E+00  0.00000000000E+00 -0.51178981891E+03  0.14595964604E+04  0.13669283113E+04 0.  0.
        2    1    3    3  502    0  0.23679682163E+02  0.16157840066E+03 -0.96455472706E+03  0.97828121131E+03  0.25500000920E-02 0. -1.
       -2    1    3    3    0  502 -0.23679682163E+02 -0.16157840066E+03  0.45276490815E+03  0.48131524905E+03  0.25500000920E-02 0.  1.
</event>
<event>
 5   0  0.2760807E-03  0.1354046E+04  0.7818609E-02  0.8987771E-01
       -2   -1    0    0    0  501  0.00000000000E+00  0.00000000000E+00  0.76452111544E+03  0.76452111544E+03  0.25500000920E-02 0.  1.
        2   -1    0    0  501    0  0.00000000000E+00  0.00000000000E+00 -0.59953928417E+03  0.59953928417E+03  0.25500000920E-02 0. -1.
    10030    2    1    2    0    0  0.00000000000E+00  0.00000000000E+00  0.16498183127E+03  0.13640603996E+04  0.13540464428E+04 0.  0.
        4    1    3    3  502    0  0.31621313200E+03 -0.58046206767E+03 -0.64988055558E+02  0.66419275599E+03  0.12699999809E+01 0.  1.
       -4    1    3    3    0  502 -0.31621313200E+03  0.58046206767E+03  0.22996988683E+03  0.69986764362E+03  0.12699999809E+01 0. -1.
</event>
<event>
 5   0  0.2993993E-03  0.1062453E+04  0.7818609E-02  0.9242580E-01
       -2   -1    0    0    0  501  0.00000000000E+00  0.00000000000E+00  0.26803222809E+03  0.26803222810E+03  0.25500000920E-02 0. -1.
        2   -1    0    0  501    0  0.00000000000E+00  0.00000000000E+00 -0.10528649155E+04  0.10528649155E+04  0.25500000920E-02 0.  1.
    10030    2    1    2    0    0  0.00000000000E+00  0.00000000000E+00 -0.78483268742E+03  0.13208971436E+04  0.10624532539E+04 0.  0.
        3    1    3    3  502    0  0.16607822645E+03 -0.23593643997E+03 -0.94695933619E+03  0.98993937976E+03  0.10100000352E+00 0.  1.
       -3    1    3    3    0  502 -0.16607822645E+03  0.23593643997E+03  0.16212664877E+03  0.33095776385E+03  0.10100000352E+00 0. -1.
</event>
<event>
 5   0  0.2889469E-03  0.1397588E+04  0.7818609E-02  0.8955566E-01
        2   -1    0    0  501    0  0.00000000000E+00  0.00000000000E+00  0.14006527989E+04  0.14006527989E+04  0.25500000920E-02 0. -1.
       -2   -1    0    0    0  501  0.00000000000E+00  0.00000000000E+00 -0.34863272014E+03  0.34863272015E+03  0.25500000920E-02 0.  1.
    10030    2    1    2    0    0  0.00000000000E+00  0.00000000000E+00  0.10520200787E+04  0.17492855190E+04  0.13975884877E+04 0.  0.
        5    1    3    3  502    0  0.57940341564E+02 -0.30650460223E+03 -0.25663302287E+03  0.40396132587E+03  0.46999998093E+01 0.  1.
       -5    1    3    3    0  502 -0.57940341564E+02  0.30650460223E+03  0.13086531016E+04  0.13453241931E+04  0.46999998093E+01 0. -1.
</event>
<event>
 5   0  0.2760807E-03  0.1418503E+04  0.7818609E-02  0.8940533E-01
        2   -1    0    0  501    0  0.00000000000E+00  0.00000000000E+00  0.14471640814E+04  0.14471640814E+04  0.25500000920E-02 0.  1.
       -2   -1    0    0    0  501  0.00000000000E+00  0.00000000000E+00 -0.34760251566E+03  0.34760251567E+03  0.25500000920E-02 0. -1.
    10030    2    1    2    0    0  0.00000000000E+00  0.00000000000E+00  0.10995615657E+04  0.17947665971E+04  0.14185032609E+04 0.  0.
        4    1    3    3  502    0 -0.14420044154E+03  0.20967305597E+03 -0.28785133188E+03  0.38420900550E+03  0.12699999809E+01 0. -1.
       -4    1    3    3    0  502  0.14420044154E+03 -0.20967305597E+03  0.13874128976E+04  0.14105575916E+04  0.12699999809E+01 0.  1.
</event>
<event>
 5   0  0.1104538E-03  0.1403929E+04  0.7818609E-02  0.8950979E-01
       -3   -1    0    0    0  501  0.00000000000E+00  0.00000000000E+00  0.71825004551E+03  0.71825005261E+03  0.10100000352E+00 0. -1.
        3   -1    0    0  501    0  0.00000000000E+00  0.00000000000E+00 -0.68604829380E+03  0.68604830124E+03  0.10100000352E+00 0.  1.
    10030    2    1    2    0    0  0.00000000000E+00  0.00000000000E+00  0.32201751701E+02  0.14042983538E+04  0.14039290986E+04 0.  0.
        4    1    3    3  502    0 -0.20610268935E+03 -0.40557863151E+03 -0.51862393167E+03  0.68988748379E+03  0.12699999809E+01 0.  1.
       -4    1    3    3    0  502  0.20610268935E+03  0.40557863151E+03  0.55082568337E+03  0.71441087005E+03  0.12699999809E+01 0. -1.
</event>
<event>
 5   0  0.3006737E-03  0.1287816E+04  0.7818609E-02  0.9039283E-01
       -2   -1    0    0    0  501  0.00000000000E+00  0.00000000000E+00  0.48392724130E+03  0.48392724131E+03  0.25500000920E-02 0.  1.
        2   -1    0    0  501    0  0.00000000000E+00  0.00000000000E+00 -0.85677656474E+03  0.85677656474E+03  0.25500000920E-02 0. -1.
    10030    2    1    2    0    0  0.00000000000E+00  0.00000000000E+00 -0.37284932344E+03  0.13407038061E+04  0.12878160108E+04 0.  0.
        1    1    3    3  502    0 -0.47787361343E+03 -0.12136976604E+03  0.24473795753E+03  0.55044570886E+03  0.50400001928E-02 0.  1.
       -1    1    3    3    0  502  0.47787361343E+03  0.12136976604E+03 -0.61758728097E+03  0.79025809719E+03  0.50400001928E-02 0. -1.
</event>
<event>
 5   0  0.1700207E-03  0.1271250E+04  0.7818609E-02  0.9052680E-01
        1   -1    0    0  501    0  0.00000000000E+00  0.00000000000E+00  0.58731713306E+03  0.58731713308E+03  0.50400001928E-02 0.  1.
       -1   -1    0    0    0  501  0.00000000000E+00  0.00000000000E+00 -0.68790592267E+03  0.68790592268E+03  0.50400001928E-02 0. -1.
    10030    2    1    2    0    0  0.00000000000E+00  0.00000000000E+00 -0.10058878961E+03  0.12752230558E+04  0.12712496755E+04 0.  0.
        2    1    3    3  502    0  0.35444269346E+03 -0.38299015500E+03  0.31375568905E+03  0.60889548709E+03  0.25500000920E-02 0.  1.
       -2    1    3    3    0  502 -0.35444269346E+03  0.38299015500E+03 -0.41434447866E+03  0.66632756868E+03  0.25500000920E-02 0. -1.
</event>
<event>
 5   0  0.2993993E-03  0.1281775E+04  0.7818609E-02  0.9044144E-01
        2   -1    0    0  501    0  0.00000000000E+00  0.00000000000E+00  0.15160407682E+04  0.15160407682E+04  0.25500000920E-02 0.  1.
       -2   -1    0    0    0  501  0.00000000000E+00  0.00000000000E+00 -0.27092706955E+03  0.27092706956E+03  0.25500000920E-02 0. -1.
    10030    2    1    2    0    0  0.00000000000E+00  0.00000000000E+00  0.12451136986E+04  0.17869678378E+04  0.12817745241E+04 0.  0.
        3    1    3    3  502    0  0.49530827367E+02  0.33017336582E+03 -0.14011156786E+03  0.36207598098E+03  0.10100000352E+00 0. -1.
       -3    1    3    3    0  502 -0.49530827367E+02 -0.33017336582E+03  0.13852252665E+04  0.14248918568E+04  0.10100000352E+00 0.  1.
</event>
<event>
 5   0  0.1644571E-03  0.1440888E+04  0.7818609E-02  0.8924742E-01
        1   -1    0    0  501    0  0.00000000000E+00  0.00000000000E+00  0.14649909746E+04  0.14649909746E+04  0.50400001928E-02 0. -1.
       -1   -1    0    0    0  501  0.00000000000E+00  0.00000000000E+00 -0.35429544596E+03  0.35429544600E+03  0.50400001928E-02 0.  1.
    10030    2    1    2    0    0  0.00000000000E+00  0.00000000000E+00  0.11106955287E+04  0.18192864206E+04  0.14408881021E+04 0.  0.
        4    1    3    3  502    0  0.25359083577E+03  0.59135415121E+03  0.96454006265E+03  0.11594598697E+04  0.12699999809E+01 0. -1.
       -4    1    3    3    0  502 -0.25359083577E+03 -0.59135415121E+03  0.14615546601E+03  0.65982655091E+03  0.12699999809E+01 0.  1.
</event>
<event>
 5   0  0.1586022E-03  0.1357831E+04  0.7818609E-02  0.8984921E-01
       -1   -1    0    0    0  501  0.00000000000E+00  0.00000000000E+00  0.39430128440E+03  0.39430128443E+03  0.50400001928E-02 0.  1.
        1   -1    0    0  501    0  0.00000000000E+00  0.00000000000E+00 -0.11689698713E+04  0.11689698713E+04  0.50400001928E-02 0. -1.
    10030    2    1    2    0    0  0.00000000000E+00  0.00000000000E+00 -0.77466858692E+03  0.15632711558E+04  0.13578310966E+04 0.  0.
        1    1    3    3  502    0  0.32946245126E+03 -0.98805524104E+02 -0.10612317722E+04  0.11155809754E+04  0.50400001928E-02 0. -1.
       -1    1    3    3    0  502 -0.32946245126E+03  0.98805524104E+02  0.28656318528E+03  0.44769018033E+03  0.50400001928E-02 0.  1.
</event>
<event>
 5   0  0.1560957E-03  0.1422286E+04  0.7818609E-02  0.8937843E-01
       -1   -1    0    0    0  501  0.00000000000E+00  0.00000000000E+00  0.49072092057E+03  0.49072092060E+03  0.50400001928E-02 0. -1.
        1   -1    0    0  501    0  0.00000000000E+00  0.00000000000E+00 -0.10305750015E+04  0.10305750016E+04  0.50400001928E-02 0.  1.
    10030    2    1    2    0    0  0.00000000000E+00  0.00000000000E+00 -0.53985408097E+03  0.15212959221E+04  0.14222864880E+04 0.  0.
        5    1    3    3  502    0  0.79006314749E+02 -0.29270228207E+03 -0.95796834912E+03  0.10048094703E+04  0.46999998093E+01 0.  1.
       -5    1    3    3    0  502 -0.79006314749E+02  0.29270228207E+03  0.41811426815E+03  0.51648645184E+03  0.46999998093E+01 0. -1.
</event>
<event>
 5   0  0.2760807E-03  0.1502768E+04  0.7818609E-02  0.8882614E-01
       -2   -1    0    0    0  501  0.00000000000E+00  0.00000000000E+00  0.43937595047E+03  0.43937595048E+03  0.25500000920E-02 0.  1.
        2   -1    0    0  501    0  0.00000000000E+00  0.00000000000E+00 -0.12849545558E+04  0.12849545558E+04  0.25500000920E-02 0. -1.
    10030    2    1    2    0    0  0.00000000000E+00  0.00000000000E+00 -0.84557860533E+03  0.17243305063E+04  0.15027682846E+04 0.  0.
        4    1    3    3  502    0 -0.32406582235E+03 -0.52814976059E+03 -0.91043705584E+03  0.11012983576E+04  0.12699999809E+01 0.  1.
       -4    1    3    3    0  502  0.32406582235E+03  0.52814976059E+03  0.64858450508E+02  0.62303214871E+03  0.12699999809E+01 0. -1.
</event>
<event>
 5   0  0.1700207E-03  0.1181595E+04  0.7818609E-02  0.9129120E-01
        1   -1    0    0  501    0  0.00000000000E+00  0.00000000000E+00  0.13279234363E+04  0.13279234363E+04  0.50400001928E-02 0.  1.
       -1   -1    0    0    0  501  0.00000000000E+00  0.00000000000E+00 -0.26284791854E+03  0.26284791859E+03  0.50400001928E-02 0. -1.
    10030    2    1    2    0    0  0.00000000000E+00  0.00000000000E+00  0.10650755178E+04  0.15907713549E+04  0.11815953813E+04 0.  0.
        2    1    3    3  502    0  0.55158582934E+03  0.18891114136E+03  0.66101911507E+03  0.88140831455E+03  0.25500000920E-02 0.  1.
       -2    1    3    3    0  502 -0.55158582934E+03 -0.18891114136E+03  0.40405640270E+03  0.70936304036E+03  0.25500000920E-02 0. -1.
</event>
<event>
 5   0  0.2917809E-03  0.1340539E+04  0.7818609E-02  0.8998021E-01
        2   -1    0    0  501    0  0.00000000000E+00  0.00000000000E+00  0.11303372267E+04  0.11303372267E+04  0.25500000920E-02 0.  1.
       -2   -1    0    0    0  501  0.00000000000E+00  0.00000000000E+00 -0.39745755010E+03  0.39745755011E+03  0.25500000920E-02 0. -1.
    10030    2    1    2    0    0  0.00000000000E+00  0.00000000000E+00  0.73287967655E+03  0.15277947768E+04  0.13405387945E+04 0.  0.
        2    1    3    3  502    0 -0.24128259760E+02 -0.66902827552E+03  0.40389479322E+03  0.78186444501E+03  0.25500000920E-02 0.  1.
       -2    1    3    3    0  502  0.24128259760E+02  0.66902827552E+03  0.32898488334E+03  0.74593033176E+03  0.25500000920E-02 0. -1.
</event>
<event>
 5   0  0.3006737E-03  0.1310996E+04  0.7818609E-02  0.9020890E-01
       -2   -1    0    0    0  501  0.00000000000E+00  0.00000000000E+00  0.25541976783E+03  0.25541976784E+03  0.25500000920E-02 0.  1.
        2   -1    0    0  501    0  0.00000000000E+00  0.00000000000E+00 -0.16822420153E+04  0.16822420153E+04  0.25500000920E-02 0. -1.
    10030    2    1    2    0    0  0.00000000000E+00  0.00000000000E+00 -0.14268222474E+04  0.19376617831E+04  0.13109963615E+04 0.  0.
        1    1    3    3  502    0 -0.34570277006E+03 -0.55216804654E+03 -0.82078716779E+03  0.10478986266E+04  0.50400001928E-02 0.  1.
       -1    1    3    3    0  502  0.34570277006E+03  0.55216804654E+03 -0.60603507965E+03  0.88976315648E+03  0.50400001928E-02 0. -1.
</event>
<event>
 5   0  0.2889469E-03  0.1439567E+04  0.7818609E-02  0.8925666E-01
        2   -1    0    0  501    0  0.00000000000E+00  0.00000000000E+00  0.11843423420E+04  0.11843423420E+04  0.25500000920E-02 0.  1.
       -2   -1    0    0    0  501  0.00000000000E+00  0.00000000000E+00 -0.43744796565E+03  0.43744796566E+03  0.25500000920E-02 0. -1.
    10030    2    1    2    0    0  0.00000000000E+00  0.00000000000E+00  0.74689437631E+03  0.16217903076E+04  0.14395668073E+04 0.  0.
        5    1    3    3  502    0 -0.37044677580E+03  0.49428499044E+03  0.78970000638E+03  0.10025949609E+04  0.46999998093E+01 0.  1.
       -5    1    3    3    0  502  0.37044677580E+03 -0.49428499044E+03 -0.42805630076E+02  0.61919534676E+03  0.46999998093E+01 0. -1.
</event>
<event>
 5   0  0.1700207E-03  0.1260533E+04  0.7818609E-02  0.9061462E-01
       -1   -1    0    0    0  501  0.00000000000E+00  0.00000000000E+00  0.33713611415E+03  0.33713611418E+03  0.50400001928E-02 0. -1.
        1   -1    0    0  501    0  0.00000000000E+00  0.00000000000E+00 -0.11782657912E+04  0.11782657912E+04  0.50400001928E-02 0.  1.
    10030    2    1    2    0    0  0.00000000000E+00  0.00000000000E+00 -0.84112967708E+03  0.15154019054E+04  0.12605331417E+04 0.  0.
        2    1    3    3  502    0 -0.47418819364E+02  0.41911678499E+03  0.14245165910E+03  0.44519647244E+03  0.25500000920E-02 0. -1.
       -2    1    3    3    0  502  0.47418819364E+02 -0.41911678499E+03 -0.98358133619E+03  0.10702054330E+04  0.25500000920E-02 0.  1.
</event>
<event>
 5   0  0.1644571E-03  0.1393427E+04  0.7818609E-02  0.8958590E-01
       -1   -1    0    0    0  501  0.00000000000E+00  0.00000000000E+00  0.75862986493E+03  0.75862986495E+03  0.50400001928E-02 0. -1.
        1   -1    0    0  501    0  0.00000000000E+00  0.00000000000E+00 -0.63985037855E+03  0.63985037857E+03  0.50400001928E-02 0.  1.
    10030    2    1    2    0    0  0.00000000000E+00  0.00000000000E+00  0.11877948639E+03  0.13984802435E+04  0.13934268639E+04 0.  0.
        4    1    3    3  502    0 -0.76807406910E+02  0.61013527061E+03 -0.26927852919E+03  0.67132478383E+03  0.12699999809E+01 0.  1.
       -4    1    3    3    0  502  0.76807406910E+02 -0.61013527061E+03  0.38805801558E+03  0.72715545969E+03  0.12699999809E+01 0. -1.
</event>
<event>
 5   0  0.2760807E-03  0.1425421E+04  0.7818609E-02  0.8935620E-01
       -2   -1    0    0    0  501  0.00000000000E+00  0.00000000000E+00  0.68505576451E+03  0.68505576451E+03  0.25500000920E-02 0. -1.
        2   -1    0    0  501    0  0.00000000000E+00  0.00000000000E+00 -0.74148208957E+03  0.74148208958E+03  0.25500000920E-02 0.  1.
    10030    2    1    2    0    0  0.00000000000E+00  0.00000000000E+00 -0.56426325066E+02  0.14265378541E+04  0.14254214531E+04 0.  0.
        4    1    3    3  502    0 -0.56570869400E+03  0.20278727513E+03 -0.41166591135E+03  0.72843629845E+03  0.12699999809E+01 0.  1.
       -4    1    3    3    0  502  0.56570869400E+03 -0.20278727513E+03  0.35523958629E+03  0.69810155564E+03  0.12699999809E+01 0. -1.
</event>
<event>
 5   0  0.2993993E-03  0.1479752E+04  0.7818609E-02  0.8898030E-01
        2   -1    0    0  501    0  0.00000000000E+00  0.00000000000E+00  0.11758990481E+04  0.11758990481E+04  0.25500000920E-02 0.  1.
       -2   -1    0    0    0  501  0.00000000000E+00  0.00000000000E+00 -0.46553038096E+03  0.46553038096E+03  0.25500000920E-02 0. -1.
    10030    2    1    2    0    0  0.00000000000E+00  0.00000000000E+00  0.71036866713E+03  0.16414294290E+04  0.14797523196E+04 0.  0.
        3    1    3    3  502    0  0.21664578421E+03 -0.34979897816E+03  0.10372860772E+04  0.11159109002E+04  0.10100000352E+00 0.  1.
       -3    1    3    3    0  502 -0.21664578421E+03  0.34979897816E+03 -0.32691741011E+03  0.52551852885E+03  0.10100000352E+00 0. -1.
</event>
<event>
 5   0  0.1586022E-03  0.1435124E+04  0.7818609E-02  0.8928779E-01
       -1   -1    0    0    0  501  0.00000000000E+00  0.00000000000E+00  0.42948208114E+03  0.42948208117E+03  0.50400001928E-02 0. -1.
        1   -1    0    0  501    0  0.00000000000E+00  0.00000000000E+00 -0.11988741771E+04  0.11988741771E+04  0.50400001928E-02 0.  1.
    10030    2    1    2    0    0  0.00000000000E+00  0.00000000000E+00 -0.76939209596E+03  0.16283562583E+04  0.14351236555E+04 0.  0.
        1    1    3    3  502    0  0.13748937832E+02  0.64488252370E+02  0.42603733793E+03  0.43110970915E+03  0.50400001928E-02 0. -1.
       -1    1    3    3    0  502 -0.13748937832E+02 -0.64488252370E+02 -0.11954294339E+04  0.11972465491E+04  0.50400001928E-02 0.  1.
</event>
<event>
 5   0  0.1586022E-03  0.1045145E+04  0.7818609E-02  0.9260371E-01
       -1   -1    0    0    0  501  0.00000000000E+00  0.00000000000E+00  0.29952195076E+03  0.29952195081E+03  0.50400001928E-02 0. -1.
        1   -1    0    0  501    0  0.00000000000E+00  0.00000000000E+00 -0.91172541247E+03  0.91172541249E+03  0.50400001928E-02 0.  1.
    10030    2    1    2    0    0  0.00000000000E+00  0.00000000000E+00 -0.61220346171E+03  0.12112473633E+04  0.10451445338E+04 0.  0.
        1    1    3    3  502    0  0.40595671634E+03 -0.25407673553E+03 -0.54844224442E+03  0.72811038900E+03  0.50400001928E-02 0.  1.
       -1    1    3    3    0  502 -0.40595671634E+03  0.25407673553E+03 -0.63761217292E+02  0.48313697430E+03  0.50400001928E-02 0. -1.
</event>
<event>
 5   0  0.1700207E-03  0.1378043E+04  0.7818609E-02  0.8969867E-01
        1   -1    0    0  501    0  0.00000000000E+00  0.00000000000E+00  0.15046851311E+04  0.15046851311E+04  0.50400001928E-02 0.  1.
       -1   -1    0    0    0  501  0.00000000000E+00  0.00000000000E+00 -0.31551493918E+03  0.31551493922E+03  0.50400001928E-02 0. -1.
    10030    2    1    2    0    0  0.00000000000E+00  0.00000000000E+00  0.11891701920E+04  0.18202000704E+04  0.13780430148E+04 0.  0.
        2    1    3    3  502    0  0.19662606785E+03 -0.25751968542E+03  0.13977849513E+04  0.14348452770E+04  0.25500000920E-02 0.  1.
       -2    1    3    3    0  502 -0.19662606785E+03  0.25751968542E+03 -0.20861475933E+03  0.38535479335E+03  0.25500000920E-02 0. -1.
</event>
<event>
 5   0  0.1700207E-03  0.1433974E+04  0.7818609E-02  0.8929587E-01
       -1   -1    0    0    0  501  0.00000000000E+00  0.00000000000E+00  0.87283914117E+03  0.87283914119E+03  0.50400001928E-02 0.  1.
        1   -1    0    0  501    0  0.00000000000E+00  0.00000000000E+00 -0.58896356165E+03  0.58896356167E+03  0.50400001928E-02 0. -1.
    10030    2    1    2    0    0  0.00000000000E+00  0.00000000000E+00  0.28387557952E+03  0.14618027029E+04  0.14339741272E+04 0.  0.
        2    1    3    3  502    0  0.23287516631E+03  0.54005608095E+03 -0.27611716402E+03  0.64971693985E+03  0.25500000920E-02 0. -1.
       -2    1    3    3    0  502 -0.23287516631E+03 -0.54005608095E+03  0.55999274354E+03  0.81208576301E+03  0.25500000920E-02 0.  1.
</event>
<event>
 5   0  0.2889469E-03  0.1410137E+04  0.7818609E-02  0.8946514E-01
       -2   -1    0    0    0  501  0.00000000000E+00  0.00000000000E+00  0.32173230006E+03  0.32173230007E+03  0.25500000920E-02 0.  1.
        2   -1    0    0  501    0  0.00000000000E+00  0.00000000000E+00 -0.15451394453E+04  0.15451394453E+04  0.25500000920E-02 0. -1.
    10030    2    1    2    0    0  0.00000000000E+00  0.00000000000E+00 -0.12234071453E+04  0.18668717454E+04  0.14101365433E+04 0.  0.
        5    1    3    3  502    0  0.30952279905E+03  0.38447124606E+03  0.54830441112E+02  0.49663967768E+03  0.46999998093E+01 0.  1.
       -5    1    3    3    0  502 -0.30952279905E+03 -0.38447124606E+03 -0.12782375864E+04  0.13702320677E+04  0.46999998093E+01 0. -1.
</event>
<event>
 5   0  0.1560957E-03  0.1389420E+04  0.7818609E-02  0.8961512E-01
        1   -1    0    0  501    0  0.00000000000E+00  0.00000000000E+00  0.65016574864E+03  0.65016574866E+03  0.50400001928E-02 0. -1.
       -1   -1    0    0    0  501  0.00000000000E+00  0.00000000000E+00 -0.74230634713E+03  0.74230634715E+03  0.50400001928E-02 0.  1.
    10030    2    1    2    0    0  0.00000000000E+00  0.00000000000E+00 -0.92140598489E+02  0.13924720958E+04  0.13894202560E+04 0.  0.
        5    1    3    3  502    0  0.50579404951E+02 -0.23068796293E+03  0.60868304894E+03  0.65291068034E+03  0.46999998093E+01 0. -1.
       -5    1    3    3    0  502 -0.50579404951E+02  0.23068796293E+03 -0.70082364743E+03  0.73956141546E+03  0.46999998093E+01 0.  1.
</event>
<event>
 5   0  0.1631380E-03  0.1273875E+04  0.7818609E-02  0.9050543E-01
       -1   -1    0    0    0  501  0.00000000000E+00  0.00000000000E+00  0.43025892173E+03  0.43025892176E+03  0.50400001928E-02 0.  1.
        1   -1    0    0  501    0  0.00000000000E+00  0.00000000000E+00 -0.94289627719E+03  0.94289627720E+03  0.50400001928E-02 0. -1.
    10030    2    1    2    0    0  0.00000000000E+00  0.00000000000E+00 -0.51263735546E+03  0.13731551990E+04  0.12738752459E+04 0.  0.
        3    1    3    3  502    0  0.13776457888E+03 -0.54306846189E+03 -0.58289412637E+03  0.80849737554E+03  0.10100000352E+00 0. -1.
       -3    1    3    3    0  502 -0.13776457888E+03  0.54306846189E+03  0.70256770908E+02  0.56465782342E+03  0.10100000352E+00 0.  1.
</event>
<event>
 5   0  0.1560957E-03  0.1032163E+04  0.7818609E-02  0.9273956E-01
       -1   -1    0    0    0  501  0.00000000000E+00  0.00000000000E+00  0.17999750961E+03  0.17999750968E+03  0.50400001928E-02 0. -1.
        1   -1    0    0  501    0  0.00000000000E+00  0.00000000000E+00 -0.14796877786E+04  0.14796877786E+04  0.50400001928E-02 0.  1.
    10030    2    1    2    0    0  0.00000000000E+00  0.00000000000E+00 -0.12996902690E+04  0.16596852883E+04  0.10321630011E+04 0.  0.
        5    1    3    3  502    0 -0.18023601854E+03  0.11787488813E+03 -0.14039436743E+04  0.14203729941E+04  0.46999998093E+01 0.  1.
       -5    1    3    3    0  502  0.18023601854E+03 -0.11787488813E+03  0.10425340535E+03  0.23931229420E+03  0.46999998093E+01 0. -1.
</event>
<event>
 5   0  0.1586022E-03  0.1417675E+04  0.7818609E-02  0.8941123E-01
       -1   -1    0    0    0  501  0.00000000000E+00  0.00000000000E+00  0.46848658196E+03  0.46848658199E+03  0.50400001928E-02 0. -1.
        1   -1    0    0  501    0  0.00000000000E+00  0.00000000000E+00 -0.10724969946E+04  0.10724969946E+04  0.50400001928E-02 0.  1.
    10030    2    1    2    0    0  0.00000000000E+00  0.00000000000E+00 -0.60401041261E+03  0.15409835766E+04  0.14176747881E+04 0.  0.
        1    1    3    3  502    0  0.23992641452E+03  0.19401282859E+03  0.39165880373E+03  0.49860032151E+03  0.50400001928E-02 0. -1.
       -1    1    3    3    0  502 -0.23992641452E+03 -0.19401282859E+03 -0.99566921634E+03  0.10423832551E+04  0.50400001928E-02 0.  1.
</event>
<event>
 5   0  0.2917809E-03  0.1269312E+04  0.7818609E-02  0.9054261E-01
        2   -1    0    0  501    0  0.00000000000E+00  0.00000000000E+00  0.77404278254E+03  0.77404278254E+03  0.25500000920E-02 0. -1.
       -2   -1    0    0    0  501  0.00000000000E+00  0.00000000000E+00 -0.52036936802E+03  0.52036936802E+03  0.25500000920E-02 0.  1.
    10030    2    1    2    0    0  0.00000000000E+00  0.00000000000E+00  0.25367341452E+03  0.12944121506E+04  0.12693118664E+04 0.  0.
        2    1    3    3  502    0  0.91581876257E+02  0.22634185650E+03 -0.47055484064E+03  0.53013180825E+03  0.25500000920E-02 0.  1.
       -2    1    3    3    0  502 -0.91581876257E+02 -0.22634185650E+03  0.72422825516E+03  0.76428034231E+03  0.25500000920E-02 0. -1.
</event>
<event>
 5   0  0.3006737E-03  0.1411661E+04  0.7818609E-02  0.8945421E-01
        2   -1    0    0  501    0  0.00000000000E+00  0.00000000000E+00  0.13749302154E+04  0.13749302154E+04  0.25500000920E-02 0.  1.
       -2   -1    0    0    0  501  0.00000000000E+00  0.00000000000E+00 -0.36234340004E+03  0.36234340005E+03  0.25500000920E-02 0. -1.
    10030    2    1    2    0    0  0.00000000000E+00  0.00000000000E+00  0.10125868153E+04  0.17372736154E+04  0.14116612753E+04 0.  0.
        1    1    3    3  502    0  0.19661270935E+03  0.48135202779E+03 -0.81132693064E+02  0.52624979435E+03  0.50400001928E-02 0. -1.
       -1    1    3    3    0  502 -0.19661270935E+03 -0.48135202779E+03  0.10937195084E+04  0.12110238211E+04  0.50400001928E-02 0.  1.
</event>
<event>
 5   0  0.1560957E-03  0.7164661E+03  0.7818609E-02  0.9689480E-01
        1   -1    0    0  501    0  0.00000000000E+00  0.00000000000E+00  0.12421347389E+04  0.12421347389E+04  0.50400001928E-02 0. -1.
       -1   -1    0    0    0  501  0.00000000000E+00  0.00000000000E+00 -0.10331481101E+03  0.10331481114E+03  0.50400001928E-02 0.  1.
    10030    2    1    2    0    0  0.00000000000E+00  0.00000000000E+00  0.11388199279E+04  0.13454495500E+04  0.71646609380E+03 0.  0.
        5    1    3    3  502    0  0.64989004642E+02  0.18643482094E+03  0.81501994119E+01  0.19766139970E+03  0.46999998093E+01 0.  1.
       -5    1    3    3    0  502 -0.64989004642E+02 -0.18643482094E+03  0.11306697284E+04  0.11477881503E+04  0.46999998093E+01 0. -1.
</event>
<event>
 5   0  0.1700207E-03  0.1320172E+04  0.7818609E-02  0.9013720E-01
       -1   -1    0    0    0  501  0.00000000000E+00  0.00000000000E+00  0.39844426020E+03  0.39844426023E+03  0.50400001928E-02 0. -1.
        1   -1    0    0  501    0  0.00000000000E+00  0.00000000000E+00 -0.10935361554E+04  0.10935361554E+04  0.50400001928E-02 0.  1.
    10030    2    1    2    0    0  0.00000000000E+00  0.00000000000E+00 -0.69509189521E+03  0.14919804157E+04  0.13201715108E+04 0.  0.
        2    1    3    3  502    0  0.36500396665E+02 -0.10647349315E+02 -0.10922975735E+04  0.10929591182E+04  0.25500000920E-02 0.  1.
       -2    1    3    3    0  502 -0.36500396665E+02  0.10647349315E+02  0.39720567825E+03  0.39902129748E+03  0.25500000920E-02 0. -1.
</event>
<event>
 5   0  0.1631380E-03  0.1385322E+04  0.7818609E-02  0.8964512E-01
       -1   -1    0    0    0  501  0.00000000000E+00  0.00000000000E+00  0.43717515256E+03  0.43717515259E+03  0.50400001928E-02 0. -1.
        1   -1    0    0  501    0  0.00000000000E+00  0.00000000000E+00 -0.10974527429E+04  0.10974527429E+04  0.50400001928E-02 0.  1.
    10030    2    1    2    0    0  0.00000000000E+00  0.00000000000E+00 -0.66027759034E+03  0.15346278955E+04  0.13853217248E+04 0.  0.
        3    1    3    3  502    0 -0.44691976672E+03  0.11962748100E+03 -0.90118808201E+03  0.10130093689E+04  0.10100000352E+00 0.  1.
       -3    1    3    3    0  502  0.44691976672E+03 -0.11962748100E+03  0.24091049168E+03  0.52161852661E+03  0.10100000352E+00 0. -1.
</event>
<event>
 5   0  0.2917809E-03  0.1411009E+04  0.7818609E-02  0.8945888E-01
       -2   -1    0    0    0  501  0.00000000000E+00  0.00000000000E+00  0.85304389115E+03  0.85304389116E+03  0.25500000920E-02 0. -1.
        2   -1    0    0  501    0  0.00000000000E+00  0.00000000000E+00 -0.58348293685E+03  0.58348293686E+03  0.25500000920E-02 0.  1.
    10030    2    1    2    0    0  0.00000000000E+00  0.00000000000E+00  0.26956095430E+03  0.14365268280E+04  0.14110089367E+04 0.  0.
        2    1    3    3  502    0  0.93125714349E+02 -0.36448870022E+03 -0.47284830477E+03  0.60424327103E+03  0.25500000920E-02 0.  1.
       -2    1    3    3    0  502 -0.93125714349E+02  0.36448870022E+03  0.74240925907E+03  0.83228355698E+03  0.25500000920E-02 0. -1.
</event>
<event>
 5   0  0.3006737E-03  0.1368968E+04  0.7818609E-02  0.8976593E-01
        2   -1    0    0  501    0  0.00000000000E+00  0.00000000000E+00  0.12363008391E+04  0.12363008391E+04  0.25500000920E-02 0.  1.
       -2   -1    0    0    0  501  0.00000000000E+00  0.00000000000E+00 -0.37896788066E+03  0.37896788067E+03  0.25500000920E-02 0. -1.
    10030    2    1    2    0    0  0.00000000000E+00  0.00000000000E+00  0.85733295841E+03  0.16152687197E+04  0.13689679454E+04 0.  0.
        1    1    3    3  502    0  0.53558966552E+03 -0.80573574023E+01 -0.74145893398E+02  0.54075763920E+03  0.50400001928E-02 0. -1.
       -1    1    3    3    0  502 -0.53558966552E+03  0.80573574023E+01  0.93147885181E+03  0.10745110805E+04  0.50400001928E-02 0.  1.
</event>
<event>
 5   0  0.1586022E-03  0.1391597E+04  0.7818609E-02  0.8959924E-01
       -1   -1    0    0    0  501  0.00000000000E+00  0.00000000000E+00  0.43649042609E+03  0.43649042612E+03  0.50400001928E-02 0.  1.
        1   -1    0    0  501    0  0.00000000000E+00  0.00000000000E+00 -0.11091551838E+04  0.11091551839E+04  0.50400001928E-02 0. -1.
    10030    2    1    2    0    0  0.00000000000E+00  0.00000000000E+00 -0.67266475776E+03  0.15456456100E+04  0.13915970952E+04 0.  0.
        1    1    3    3  502    0 -0.63959037190E+03 -0.22651957903E+02 -0.63958915741E+03  0.90480011347E+03  0.50400001928E-02 0. -1.
       -1    1    3    3    0  502  0.63959037190E+03  0.22651957903E+02 -0.33075600345E+02  0.64084549651E+03  0.50400001928E-02 0.  1.
</event>
<event>
 5   0  0.2917809E-03  0.1409411E+04  0.7818609E-02  0.8947035E-01
       -2   -1    0    0    0  501  0.00000000000E+00  0.00000000000E+00  0.18863229285E+03  0.18863229287E+03  0.25500000920E-02 0.  1.
        2   -1    0    0  501    0  0.00000000000E+00  0.00000000000E+00 -0.26326867954E+04  0.26326867954E+04  0.25500000920E-02 0. -1.
    10030    2    1    2    0    0  0.00000000000E+00  0.00000000000E+00 -0.24440545025E+04  0.28213190882E+04  0.14094108650E+04 0.  0.
        2    1    3    3  502    0  0.15356923447E+03 -0.12260193007E+03  0.13267846130E+03  0.23710402175E+03  0.25500000920E-02 0.  1.
       -2    1    3    3    0  502 -0.15356923447E+03  0.12260193007E+03 -0.25767329638E+04  0.25842150665E+04  0.25500000920E-02 0. -1.
</event>
<event>
 5   0  0.1644571E-03  0.1383298E+04  0.7818609E-02  0.8965998E-01
       -1   -1    0    0    0  501  0.00000000000E+00  0.00000000000E+00  0.37951552125E+03  0.37951552128E+03  0.50400001928E-02 0.  1.
        1   -1    0    0  501    0  0.00000000000E+00  0.00000000000E+00 -0.12604971679E+04  0.12604971679E+04  0.50400001928E-02 0. -1.
    10030    2    1    2    0    0  0.00000000000E+00  0.00000000000E+00 -0.88098164666E+03  0.16400126892E+04  0.13832978562E+04 0.  0.
        4    1    3    3  502    0  0.49165203023E+03  0.67705519953E+02 -0.10116298277E+04  0.11268106662E+04  0.12699999809E+01 0. -1.
       -4    1    3    3    0  502 -0.49165203023E+03 -0.67705519953E+02  0.13064818107E+03  0.51320202297E+03  0.12699999809E+01 0.  1.
</event>
<event>
 5   0  0.1104538E-03  0.1200991E+04  0.7818609E-02  0.9111989E-01
        3   -1    0    0  501    0  0.00000000000E+00  0.00000000000E+00  0.14482300759E+04  0.14482300794E+04  0.10100000352E+00 0.  1.
       -3   -1    0    0    0  501  0.00000000000E+00  0.00000000000E+00 -0.24899006650E+03  0.24899008699E+03  0.10100000352E+00 0. -1.
    10030    2    1    2    0    0  0.00000000000E+00  0.00000000000E+00  0.11992400094E+04  0.16972201664E+04  0.12009911295E+04 0.  0.
        5    1    3    3  502    0 -0.44956180088E+03 -0.89945336941E+02  0.11476305116E+04  0.12358292186E+04  0.46999998093E+01 0.  1.
       -5    1    3    3    0  502  0.44956180088E+03  0.89945336941E+02  0.51609497802E+02  0.46139094779E+03  0.46999998093E+01 0. -1.
</event>
<event>
 5   0  0.1631380E-03  0.1340312E+04  0.7818609E-02  0.8998194E-01
        1   -1    0    0  501    0  0.00000000000E+00  0.00000000000E+00  0.10721852867E+04  0.10721852867E+04  0.50400001928E-02 0.  1.
       -1   -1    0    0    0  501  0.00000000000E+00  0.00000000000E+00 -0.41887284569E+03  0.41887284572E+03  0.50400001928E-02 0. -1.
    10030    2    1    2    0    0  0.00000000000E+00  0.00000000000E+00  0.65331244097E+03  0.14910581324E+04  0.13403123549E+04 0.  0.
        3    1    3    3  502    0  0.31015495324E+03 -0.54734148114E+03  0.69748957415E+02  0.63296423221E+03  0.10100000352E+00 0. -1.
       -3    1    3    3    0  502 -0.31015495324E+03  0.54734148114E+03  0.58356348355E+03  0.85809390018E+03  0.10100000352E+00 0.  1.
</event>
<event>
 5   0  0.2889469E-03  0.1378388E+04  0.7818609E-02  0.8969613E-01
       -2   -1    0    0    0  501  0.00000000000E+00  0.00000000000E+00  0.44844104744E+03  0.44844104745E+03  0.25500000920E-02 0. -1.
        2   -1    0    0  501    0  0.00000000000E+00  0.00000000000E+00 -0.10591986371E+04  0.10591986371E+04  0.25500000920E-02 0.  1.
    10030    2    1    2    0    0  0.00000000000E+00  0.00000000000E+00 -0.61075758969E+03  0.15076396846E+04  0.13783876759E+04 0.  0.
        5    1    3    3  502    0 -0.22415643998E+02 -0.64424835959E+03 -0.38786647722E+02  0.64582110833E+03  0.46999998093E+01 0. -1.
       -5    1    3    3    0  502  0.22415643998E+02  0.64424835959E+03 -0.57197094197E+03  0.86181857626E+03  0.46999998093E+01 0.  1.
</event>
<event>
 5   0  0.2917809E-03  0.1418401E+04  0.7818609E-02  0.8940606E-01
        2   -1    0    0  501    0  0.00000000000E+00  0.00000000000E+00  0.92905441106E+03  0.92905441107E+03  0.25500000920E-02 0. -1.
       -2   -1    0    0    0  501  0.00000000000E+00  0.00000000000E+00 -0.54137326874E+03  0.54137326875E+03  0.25500000920E-02 0.  1.
    10030    2    1    2    0    0  0.00000000000E+00  0.00000000000E+00  0.38768114232E+03  0.14704276798E+04  0.14184008226E+04 0.  0.
        2    1    3    3  502    0 -0.59460489457E+03  0.38645476747E+03  0.18561509152E+03  0.73304517607E+03  0.25500000920E-02 0. -1.
       -2    1    3    3    0  502  0.59460489457E+03 -0.38645476747E+03  0.20206605080E+03  0.73738250375E+03  0.25500000920E-02 0.  1.
</event>
<event>
 5   0  0.1104538E-03  0.1416735E+04  0.7818609E-02  0.8941793E-01
        3   -1    0    0  501    0  0.00000000000E+00  0.00000000000E+00  0.16819645378E+04  0.16819645409E+04  0.10100000352E+00 0.  1.
       -3   -1    0    0    0  501  0.00000000000E+00  0.00000000000E+00 -0.29833259062E+03  0.29833260772E+03  0.10100000352E+00 0. -1.
    10030    2    1    2    0    0  0.00000000000E+00  0.00000000000E+00  0.13836319472E+04  0.19802971486E+04  0.14167354839E+04 0.  0.
        2    1    3    3  502    0  0.56692157626E+02 -0.69779215339E+03  0.54090028543E+03  0.88470391028E+03  0.25500000920E-02 0.  1.
       -2    1    3    3    0  502 -0.56692157626E+02  0.69779215339E+03  0.84273166178E+03  0.10955932383E+04  0.25500000920E-02 0. -1.
</event>
<event>
 5   0  0.1560957E-03  0.1374932E+04  0.7818609E-02  0.8972167E-01
        1   -1    0    0  501    0  0.00000000000E+00  0.00000000000E+00  0.60669495699E+03  0.60669495701E+03  0.50400001928E-02 0. -1.
       -1   -1    0    0    0  501  0.00000000000E+00  0.00000000000E+00 -0.77898986798E+03  0.77898986799E+03  0.50400001928E-02 0.  1.
    10030    2    1    2    0    0  0.00000000000E+00  0.00000000000E+00 -0.17229491099E+03  0.13856848250E+04  0.13749315975E+04 0.  0.
        5    1    3    3  502    0  0.95107298413E+02 -0.60696471827E+03 -0.39700028424E+03  0.73149359746E+03  0.46999998093E+01 0.  1.
       -5    1    3    3    0  502 -0.95107298413E+02  0.60696471827E+03  0.22470537325E+03  0.65419122755E+03  0.46999998093E+01 0. -1.
</event>
<event>
 5   0  0.1700207E-03  0.1384417E+04  0.7818609E-02  0.8965176E-01
       -1   -1    0    0    0  501  0.00000000000E+00  0.00000000000E+00  0.34181769675E+03  0.34181769679E+03  0.50400001928E-02 0. -1.
        1   -1    0    0  501    0  0.00000000000E+00  0.00000000000E+00 -0.14017785790E+04  0.14017785791E+04  0.50400001928E-02 0.  1.
    10030    2    1    2    0    0  0.00000000000E+00  0.00000000000E+00 -0.10599608823E+04  0.17435962758E+04  0.13844171702E+04 0.  0.
        2    1    3    3  502    0  0.27623159385E+02 -0.32729087603E+03 -0.12973845152E+04  0.13383157089E+04  0.25500000920E-02 0.  1.
       -2    1    3    3    0  502 -0.27623159385E+02  0.32729087603E+03  0.23742363289E+03  0.40528056693E+03  0.25500000920E-02 0. -1.
</event>
<event>
 5   0  0.1586022E-03  0.1607428E+04  0.7818609E-02  0.8815998E-01
        1   -1    0    0  501    0  0.00000000000E+00  0.00000000000E+00  0.14119085458E+04  0.14119085458E+04  0.50400001928E-02 0. -1.
       -1   -1    0    0    0  501  0.00000000000E+00  0.00000000000E+00 -0.45750559241E+03  0.45750559244E+03  0.50400001928E-02 0.  1.
    10030    2    1    2    0    0  0.00000000000E+00  0.00000000000E+00  0.95440295337E+03  0.18694141382E+04  0.16074278282E+04 0.  0.
        1    1    3    3  502    0 -0.10270797506E+03  0.67103760149E+03 -0.23173549565E+02  0.67924767513E+03  0.50400001928E-02 0.  1.
       -1    1    3    3    0  502  0.10270797506E+03 -0.67103760149E+03  0.97757650293E+03  0.11901664631E+04  0.50400001928E-02 0. -1.
</event>
<event>
 5   0  0.2917809E-03  0.1401250E+04  0.7818609E-02  0.8952914E-01
        2   -1    0    0  501    0  0.00000000000E+00  0.00000000000E+00  0.90845847577E+03  0.90845847578E+03  0.25500000920E-02 0. -1.
       -2   -1    0    0    0  501  0.00000000000E+00  0.00000000000E+00 -0.54033919978E+03  0.54033919979E+03  0.25500000920E-02 0.  1.
    10030    2    1    2    0    0  0.00000000000E+00  0.00000000000E+00  0.36811927599E+03  0.14487976756E+04  0.14012504785E+04 0.  0.
        2    1    3    3  502    0 -0.13069788220E+03  0.24468281494E+03 -0.48114049626E+03  0.55538076442E+03  0.25500000920E-02 0.  1.
       -2    1    3    3    0  502  0.13069788220E+03 -0.24468281494E+03  0.84925977225E+03  0.89341691114E+03  0.25500000920E-02 0. -1.
</event>
<event>
 5   0  0.1586022E-03  0.1327393E+04  0.7818609E-02  0.9008120E-01
       -1   -1    0    0    0  501  0.00000000000E+00  0.00000000000E+00  0.43634077850E+03  0.43634077852E+03  0.50400001928E-02 0. -1.
        1   -1    0    0  501    0  0.00000000000E+00  0.00000000000E+00 -0.10095161526E+04  0.10095161526E+04  0.50400001928E-02 0.  1.
    10030    2    1    2    0    0  0.00000000000E+00  0.00000000000E+00 -0.57317537412E+03  0.14458569312E+04  0.13273930299E+04 0.  0.
        1    1    3    3  502    0  0.21210158516E+03 -0.60382387546E+03 -0.95107402561E+02  0.64702068982E+03  0.50400001928E-02 0.  1.
       -1    1    3    3    0  502 -0.21210158516E+03  0.60382387546E+03 -0.47806797156E+03  0.79883624133E+03  0.50400001928E-02 0. -1.
</event>
<event>
 5   0  0.2889469E-03  0.1232511E+04  0.7818609E-02  0.9084866E-01
       -2   -1    0    0    0  501  0.00000000000E+00  0.00000000000E+00  0.87320197111E+03  0.87320197112E+03  0.25500000920E-02 0.  1.
        2   -1    0    0  501    0  0.00000000000E+00  0.00000000000E+00 -0.43491757929E+03  0.43491757930E+03  0.25500000920E-02 0. -1.
    10030    2    1    2    0    0  0.00000000000E+00  0.00000000000E+00  0.43828439182E+03  0.13081195504E+04  0.12325110750E+04 0.  0.
        5    1    3    3  502    0 -0.23244432462E+03 -0.27146752298E+03 -0.31367397703E+03  0.47554014966E+03  0.46999998093E+01 0. -1.
       -5    1    3    3    0  502  0.23244432462E+03  0.27146752298E+03  0.75195836885E+03  0.83257940075E+03  0.46999998093E+01 0.  1.
</event>
<event>
 5   0  0.1631380E-03  0.1411149E+04  0.7818609E-02  0.8945788E-01
       -1   -1    0    0    0  501  0.00000000000E+00  0.00000000000E+00  0.60632140097E+03  0.60632140099E+03  0.50400001928E-02 0. -1.
        1   -1    0    0  501    0  0.00000000000E+00  0.00000000000E+00 -0.82107518542E+03  0.82107518543E+03  0.50400001928E-02 0.  1.
    10030    2    1    2    0    0  0.00000000000E+00  0.00000000000E+00 -0.21475378445E+03  0.14273965864E+04  0.14111491158E+04 0.  0.
        3    1    3    3  502    0  0.46967294040E+03  0.23936437786E+03 -0.58176220158E+03  0.78507021706E+03  0.10100000352E+00 0.  1.
       -3    1    3    3    0  502 -0.46967294040E+03 -0.23936437786E+03  0.36700841712E+03  0.64232636936E+03  0.10100000352E+00 0. -1.
</event>
<event>
 5   0  0.1104538E-03  0.1403406E+04  0.7818609E-02  0.8951357E-01
        3   -1    0    0  501    0  0.00000000000E+00  0.00000000000E+00  0.10060417328E+04  0.10060417379E+04  0.10100000352E+00 0. -1.
       -3   -1    0    0    0  501  0.00000000000E+00  0.00000000000E+00 -0.48942976781E+03  0.48942977823E+03  0.10100000352E+00 0.  1.
    10030    2    1    2    0    0  0.00000000000E+00  0.00000000000E+00  0.51661196499E+03  0.14954715161E+04  0.14034055483E+04 0.  0.
        2    1    3    3  502    0 -0.37039345522E+03  0.20145869147E+03  0.85600305143E+03  0.95421074198E+03  0.25500000920E-02 0. -1.
       -2    1    3    3    0  502  0.37039345522E+03 -0.20145869147E+03 -0.33939108644E+03  0.54126077412E+03  0.25500000920E-02 0.  1.
</event>
<event>
 5   0  0.1560957E-03  0.1388074E+04  0.7818609E-02  0.8962497E-01
        1   -1    0    0  501    0  0.00000000000E+00  0.00000000000E+00  0.86455784700E+03  0.86455784701E+03  0.50400001928E-02 0.  1.
       -1   -1    0    0    0  501  0.00000000000E+00  0.00000000000E+00 -0.55714847099E+03  0.55714847101E+03  0.50400001928E-02 0. -1.
    10030    2    1    2    0    0  0.00000000000E+00  0.00000000000E+00  0.30740937601E+03  0.14217063180E+04  0.13880736041E+04 0.  0.
        5    1    3    3  502    0  0.50587469166E+03 -0.37966961299E+03  0.44629537757E+03  0.77411877173E+03  0.46999998093E+01 0.  1.
       -5    1    3    3    0  502 -0.50587469166E+03  0.37966961299E+03 -0.13888600156E+03  0.64758754630E+03  0.46999998093E+01 0. -1.
</event>
<event>
 5   0  0.2917809E-03  0.1384770E+04  0.7818609E-02  0.8964917E-01
        2   -1    0    0  501    0  0.00000000000E+00  0.00000000000E+00  0.87485818991E+03  0.87485818991E+03  0.25500000920E-02 0.  1.
       -2   -1    0    0    0  501  0.00000000000E+00  0.00000000000E+00 -0.54797117255E+03  0.54797117256E+03  0.25500000920E-02 0. -1.
    10030    2    1    2    0    0  0.00000000000E+00  0.00000000000E+00  0.32688701736E+03  0.14228293625E+04  0.13847701154E+04 0.  0.
        2    1    3    3  502    0  0.53570524906E+03 -0.35999788456E+03  0.42096817867E+03  0.77057952102E+03  0.25500000920E-02 0. -1.
       -2    1    3    3    0  502 -0.53570524906E+03  0.35999788456E+03 -0.94081161316E+02  0.65224984145E+03  0.25500000920E-02 0.  1.
</event>
<event>
 5   0  0.1104538E-03  0.1376301E+04  0.7818609E-02  0.8971154E-01
        3   -1    0    0  501    0  0.00000000000E+00  0.00000000000E+00  0.63913946676E+03  0.63913947474E+03  0.10100000352E+00 0.  1.
       -3   -1    0    0    0  501  0.00000000000E+00  0.00000000000E+00 -0.74092004047E+03  0.74092004735E+03  0.10100000352E+00 0. -1.
    10030    2    1    2    0    0  0.00000000000E+00  0.00000000000E+00 -0.10178057371E+03  0.13800595221E+04  0.13763012023E+04 0.  0.
        2    1    3    3  502    0 -0.16382610945E+03 -0.49817362755E+03 -0.49768002401E+03  0.72298088746E+03  0.25500000920E-02 0. -1.
       -2    1    3    3    0  502  0.16382610945E+03  0.49817362755E+03  0.39589945030E+03  0.65707863463E+03  0.25500000920E-02 0.  1.
</event>
<event>
 5   0  0.1586022E-03  0.1400363E+04  0.7818609E-02  0.8953556E-01
       -1   -1    0    0    0  501  0.00000000000E+00  0.00000000000E+00  0.69377894136E+03  0.69377894138E+03  0.50400001928E-02 0. -1.
        1   -1    0    0  501    0  0.00000000000E+00  0.00000000000E+00 -0.70664317351E+03  0.70664317353E+03  0.50400001928E-02 0.  1.
    10030    2    1    2    0    0  0.00000000000E+00  0.00000000000E+00 -0.12864232147E+02  0.14004221149E+04  0.14003630285E+04 0.  0.
        1    1    3    3  502    0 -0.47410963062E+03 -0.25622159988E+03 -0.45346854164E+03  0.70431751957E+03  0.50400001928E-02 0.  1.
       -1    1    3    3    0  502  0.47410963062E+03  0.25622159988E+03  0.44060430949E+03  0.69610459534E+03  0.50400001928E-02 0. -1.
</event>
<event>
 5   0  0.2917809E-03  0.1293485E+04  0.7818609E-02  0.9034747E-01
       -2   -1    0    0    0  501  0.00000000000E+00  0.00000000000E+00  0.43538161974E+03  0.43538161975E+03  0.25500000920E-02 0.  1.
        2   -1    0    0  501    0  0.00000000000E+00  0.00000000000E+00 -0.96071149420E+03  0.96071149420E+03  0.25500000920E-02 0. -1.
    10030    2    1    2    0    0  0.00000000000E+00  0.00000000000E+00 -0.52532987446E+03  0.13960931140E+04  0.12934854100E+04 0.  0.
        2    1    3    3  502    0  0.13396163719E+02 -0.53756651528E+03  0.12517075794E+03  0.55210953099E+03  0.25500000920E-02 0.  1.
       -2    1    3    3    0  502 -0.13396163719E+02  0.53756651528E+03 -0.65050063240E+03  0.84398358296E+03  0.25500000920E-02 0. -1.
</event>
<event>
 5   0  0.1700207E-03  0.1172667E+04  0.7818609E-02  0.9137124E-01
        1   -1    0    0  501    0  0.00000000000E+00  0.00000000000E+00  0.11831656300E+04  0.11831656300E+04  0.50400001928E-02 0.  1.
       -1   -1    0    0    0  501  0.00000000000E+00  0.00000000000E+00 -0.29056516514E+03  0.29056516519E+03  0.50400001928E-02 0. -1.
    10030    2    1    2    0    0  0.00000000000E+00  0.00000000000E+00  0.89260046488E+03  0.14737307952E+04  0.11726665625E+04 0.  0.
        2    1    3    3  502    0  0.74019626709E+02 -0.29640310231E+03  0.10752366561E+04  0.11177958538E+04  0.25500000920E-02 0.  1.
       -2    1    3    3    0  502 -0.74019626709E+02  0.29640310231E+03 -0.18263619119E+03  0.35593494143E+03  0.25500000920E-02 0. -1.
</event>
<event>
 5   0  0.1700207E-03  0.1396225E+04  0.7818609E-02  0.8956556E-01
       -1   -1    0    0    0  501  0.00000000000E+00  0.00000000000E+00  0.63687379357E+03  0.63687379359E+03  0.50400001928E-02 0.  1.
        1   -1    0    0  501    0  0.00000000000E+00  0.00000000000E+00 -0.76523911662E+03  0.76523911664E+03  0.50400001928E-02 0. -1.
    10030    2    1    2    0    0  0.00000000000E+00  0.00000000000E+00 -0.12836532305E+03  0.14021129102E+04  0.13962245367E+04 0.  0.
        2    1    3    3  502    0 -0.46273845901E+03  0.44720310091E+03 -0.33595891586E+03  0.72593793679E+03  0.25500000920E-02 0. -1.
       -2    1    3    3    0  502  0.46273845901E+03 -0.44720310091E+03  0.20759359281E+03  0.67617497344E+03  0.25500000920E-02 0.  1.
</event>
<event>
 5   0  0.1644571E-03  0.1282908E+04  0.7818609E-02  0.9043230E-01
        1   -1    0    0  501    0  0.00000000000E+00  0.00000000000E+00  0.87091169921E+03  0.87091169922E+03  0.50400001928E-02 0.  1.
       -1   -1    0    0    0  501  0.00000000000E+00  0.00000000000E+00 -0.47245118412E+03  0.47245118415E+03  0.50400001928E-02 0. -1.
    10030    2    1    2    0    0  0.00000000000E+00  0.00000000000E+00  0.39846051508E+03  0.13433628834E+04  0.12829080459E+04 0.  0.
        4    1    3    3  502    0  0.30954245476E+02 -0.58116432479E+03  0.48166546310E+03  0.75545573594E+03  0.12699999809E+01 0. -1.
       -4    1    3    3    0  502 -0.30954245476E+02  0.58116432479E+03 -0.83204948012E+02  0.58790714743E+03  0.12699999809E+01 0.  1.
</event>
<event>
 5   0  0.1644571E-03  0.1395732E+04  0.7818609E-02  0.8956914E-01
       -1   -1    0    0    0  501  0.00000000000E+00  0.00000000000E+00  0.32921090527E+03  0.32921090531E+03  0.50400001928E-02 0.  1.
        1   -1    0    0  501    0  0.00000000000E+00  0.00000000000E+00 -0.14793464523E+04  0.14793464523E+04  0.50400001928E-02 0. -1.
    10030    2    1    2    0    0  0.00000000000E+00  0.00000000000E+00 -0.11501355470E+04  0.18085573576E+04  0.13957320442E+04 0.  0.
        4    1    3    3  502    0 -0.13065081339E+03 -0.39222025533E+03  0.15346429517E+03  0.44097535818E+03  0.12699999809E+01 0.  1.
       -4    1    3    3    0  502  0.13065081339E+03  0.39222025533E+03 -0.13035998422E+04  0.13675819994E+04  0.12699999809E+01 0. -1.
</event>
<event>
 5   0  0.1560957E-03  0.1408218E+04  0.7818609E-02  0.8947892E-01
        1   -1    0    0  501    0  0.00000000000E+00  0.00000000000E+00  0.40463621654E+03  0.40463621657E+03  0.50400001928E-02 0. -1.
       -1   -1    0    0    0  501  0.00000000000E+00  0.00000000000E+00 -0.12252219016E+04  0.12252219016E+04  0.50400001928E-02 0.  1.
    10030    2    1    2    0    0  0.00000000000E+00  0.00000000000E+00 -0.82058568506E+03  0.16298581182E+04  0.14082175325E+04 0.  0.
        5    1    3    3  502    0  0.11005462178E+03  0.39194543443E+03  0.25459151787E+03  0.48017931475E+03  0.46999998093E+01 0. -1.
       -5    1    3    3    0  502 -0.11005462178E+03 -0.39194543443E+03 -0.10751772029E+04  0.11496788034E+04  0.46999998093E+01 0.  1.
</event>
<event>
 5   0  0.1631380E-03  0.1430666E+04  0.7818609E-02  0.8931915E-01
        1   -1    0    0  501    0  0.00000000000E+00  0.00000000000E+00  0.13681702050E+04  0.13681702050E+04  0.50400001928E-02 0.  1.
       -1   -1    0    0    0  501  0.00000000000E+00  0.00000000000E+00 -0.37400420604E+03  0.37400420607E+03  0.50400001928E-02 0. -1.
    10030    2    1    2    0    0  0.00000000000E+00  0.00000000000E+00  0.99416599894E+03  0.17421744111E+04  0.14306661543E+04 0.  0.
        3    1    3    3  502    0  0.29341770849E+03  0.16501206429E+03 -0.27151855085E+03  0.43248730232E+03  0.10100000352E+00 0. -1.
       -3    1    3    3    0  502 -0.29341770849E+03 -0.16501206429E+03  0.12656845498E+04  0.13096871087E+04  0.10100000352E+00 0.  1.
</event>
<event>
 5   0  0.2889469E-03  0.1390601E+04  0.7818609E-02  0.8960650E-01
        2   -1    0    0  501    0  0.00000000000E+00  0.00000000000E+00  0.50823396945E+03  0.50823396946E+03  0.25500000920E-02 0. -1.
       -2   -1    0    0    0  501  0.00000000000E+00  0.00000000000E+00 -0.95122145229E+03  0.95122145229E+03  0.25500000920E-02 0.  1.
    10030    2    1    2    0    0  0.00000000000E+00  0.00000000000E+00 -0.44298748284E+03  0.14594554218E+04  0.13906013872E+04 0.  0.
        5    1    3    3  502    0 -0.23260852747E+03 -0.35811295483E+03  0.35437227167E+03  0.55493550291E+03  0.46999998093E+01 0. -1.
       -5    1    3    3    0  502  0.23260852747E+03  0.35811295483E+03 -0.79735975451E+03  0.90451991884E+03  0.46999998093E+01 0.  1.
</event>
<event>
 5   0  0.1560957E-03  0.1400937E+04  0.7818609E-02  0.8953140E-01
        1   -1    0    0  501    0  0.00000000000E+00  0.00000000000E+00  0.20988624501E+04  0.20988624501E+04  0.50400001928E-02 0. -1.
       -1   -1    0    0    0  501  0.00000000000E+00  0.00000000000E+00 -0.23377251454E+03  0.23377251460E+03  0.50400001928E-02 0.  1.
    10030    2    1    2    0    0  0.00000000000E+00  0.00000000000E+00  0.18650899356E+04  0.23326349647E+04  0.14009373330E+04 0.  0.
        5    1    3    3  502    0  0.63743660401E+03 -0.60084385470E+02  0.45954473369E+03  0.78812372745E+03  0.46999998093E+01 0. -1.
       -5    1    3    3    0  502 -0.63743660401E+03  0.60084385470E+02  0.14055452019E+04  0.15445112373E+04  0.46999998093E+01 0.  1.
</event>
<event>
 5   0  0.3006737E-03  0.1414328E+04  0.7818609E-02  0.8943512E-01
        2   -1    0    0  501    0  0.00000000000E+00  0.00000000000E+00  0.17093247990E+04  0.17093247990E+04  0.25500000920E-02 0.  1.
       -2   -1    0    0    0  501  0.00000000000E+00  0.00000000000E+00 -0.29256052403E+03  0.29256052404E+03  0.25500000920E-02 0. -1.
    10030    2    1    2    0    0  0.00000000000E+00  0.00000000000E+00  0.14167642749E+04  0.20018853230E+04  0.14143280510E+04 0.  0.
        1    1    3    3  502    0 -0.53642054536E+03 -0.36050799511E+03  0.11146085434E+04  0.12884351831E+04  0.50400001928E-02 0.  1.
       -1    1    3    3    0  502  0.53642054536E+03  0.36050799511E+03  0.30215573157E+03  0.71345013993E+03  0.50400001928E-02 0. -1.
</event>
<event>
 5   0  0.1631380E-03  0.1399412E+04  0.7818609E-02  0.8954244E-01
        1   -1    0    0  501    0  0.00000000000E+00  0.00000000000E+00  0.76810893699E+03  0.76810893700E+03  0.50400001928E-02 0.  1.
       -1   -1    0    0    0  501  0.00000000000E+00  0.00000000000E+00 -0.63739472809E+03  0.63739472811E+03  0.50400001928E-02 0. -1.
    10030    2    1    2    0    0  0.00000000000E+00  0.00000000000E+00  0.13071420889E+03  0.14055036651E+04  0.13994121438E+04 0.  0.
        3    1    3    3  502    0  0.48329560959E+03 -0.29587055412E+03  0.47760029555E+03  0.74109114389E+03  0.10100000352E+00 0.  1.
       -3    1    3    3    0  502 -0.48329560959E+03  0.29587055412E+03 -0.34688608665E+03  0.66441252122E+03  0.10100000352E+00 0. -1.
</event>
<event>
 5   0  0.1700207E-03  0.1519231E+04  0.7818609E-02  0.8871765E-01
        1   -1    0    0  501    0  0.00000000000E+00  0.00000000000E+00  0.30757846070E+03  0.30757846075E+03  0.50400001928E-02 0. -1.
       -1   -1    0    0    0  501  0.00000000000E+00  0.00000000000E+00 -0.18759941007E+04  0.18759941007E+04  0.50400001928E-02 0.  1.
    10030    2    1    2    0    0  0.00000000000E+00  0.00000000000E+00 -0.15684156400E+04  0.21835725615E+04  0.15192305656E+04 0.  0.
        2    1    3    3  502    0  0.14332749159E+03  0.29408931502E+03 -0.17695464596E+04  0.17995349310E+04  0.25500000920E-02 0.  1.
       -2    1    3    3    0  502 -0.14332749159E+03 -0.29408931502E+03  0.20113081959E+03  0.38403763051E+03  0.25500000920E-02 0. -1.
</event>
<event>
 5   0  0.1104538E-03  0.1074107E+04  0.7818609E-02  0.9230803E-01
        3   -1    0    0  501    0  0.00000000000E+00  0.00000000000E+00  0.97258384206E+03  0.97258384730E+03  0.10100000352E+00 0. -1.
       -3   -1    0    0    0  501  0.00000000000E+00  0.00000000000E+00 -0.29655687933E+03  0.29655689653E+03  0.10100000352E+00 0.  1.
    10030    2    1    2    0    0  0.00000000000E+00  0.00000000000E+00  0.67602696273E+03  0.12691407438E+04  0.10741069655E+04 0.  0.
        5    1    3    3  502    0  0.14161929840E+03 -0.51162872773E+03  0.24213537377E+03  0.58349945154E+03  0.46999998093E+01 0.  1.
       -5    1    3    3    0  502 -0.14161929840E+03  0.51162872773E+03  0.43389158895E+03  0.68564129228E+03  0.46999998093E+01 0. -1.
</event>
<event>
 5   0  0.3006737E-03  0.1415096E+04  0.7818609E-02  0.8942963E-01
       -2   -1    0    0    0  501  0.00000000000E+00  0.00000000000E+00  0.36328683489E+03  0.36328683490E+03  0.25500000920E-02 0. -1.
        2   -1    0    0  501    0  0.00000000000E+00  0.00000000000E+00 -0.13780419683E+04  0.13780419683E+04  0.25500000920E-02 0.  1.
    10030    2    1    2    0    0  0.00000000000E+00  0.00000000000E+00 -0.10147551334E+04  0.17413288032E+04  0.14150964702E+04 0.  0.
        1    1    3    3  502    0  0.62667014876E+03 -0.15818421224E+03 -0.86165001805E+03  0.10771158127E+04  0.50400001928E-02 0.  1.
       -1    1    3    3    0  502 -0.62667014876E+03  0.15818421224E+03 -0.15310511534E+03  0.66421299047E+03  0.50400001928E-02 0. -1.
</event>
<event>
 5   0  0.2993993E-03  0.1424868E+04  0.7818609E-02  0.8936012E-01
       -2   -1    0    0    0  501  0.00000000000E+00  0.00000000000E+00  0.78959109619E+03  0.78959109620E+03  0.25500000920E-02 0. -1.
        2   -1    0    0  501    0  0.00000000000E+00  0.00000000000E+00 -0.64281681375E+03  0.64281681376E+03  0.25500000920E-02 0.  1.
    10030    2    1    2    0    0  0.00000000000E+00  0.00000000000E+00  0.14677428244E+03  0.14324079100E+04  0.14248683204E+04 0.  0.
        3    1    3    3  502    0 -0.38774978913E+03 -0.38772710578E+03  0.53063476704E+03  0.76305666482E+03  0.10100000352E+00 0. -1.
       -3    1    3    3    0  502  0.38774978913E+03  0.38772710578E+03 -0.38386048460E+03  0.66935124514E+03  0.10100000352E+00 0.  1.
</event>
<event>
 5   0  0.3006737E-03  0.1446222E+04  0.7818609E-02  0.8921024E-01
        2   -1    0    0  501    0  0.00000000000E+00  0.00000000000E+00  0.10751272783E+04  0.10751272783E+04  0.25500000920E-02 0.  1.
       -2   -1    0    0    0  501  0.00000000000E+00  0.00000000000E+00 -0.48635137079E+03  0.48635137079E+03  0.25500000920E-02 0. -1.
    10030    2    1    2    0    0  0.00000000000E+00  0.00000000000E+00  0.58877590752E+03  0.15614786491E+04  0.14462221483E+04 0.  0.
        1    1    3    3  502    0  0.32213254158E+03  0.36663463003E+03  0.87048313303E+03  0.99796353200E+03  0.50400001928E-02 0.  1.
       -1    1    3    3    0  502 -0.32213254158E+03 -0.36663463003E+03 -0.28170722551E+03  0.56351511711E+03  0.50400001928E-02 0. -1.
</event>
<event>
 5   0  0.2993993E-03  0.1393795E+04  0.7818609E-02  0.8958322E-01
        2   -1    0    0  501    0  0.00000000000E+00  0.00000000000E+00  0.12525308890E+04  0.12525308890E+04  0.25500000920E-02 0.  1.
       -2   -1    0    0    0  501  0.00000000000E+00  0.00000000000E+00 -0.38774808026E+03  0.38774808027E+03  0.25500000920E-02 0. -1.
    10030    2    1    2    0    0  0.00000000000E+00  0.00000000000E+00  0.86478280874E+03  0.16402789693E+04  0.13937954623E+04 0.  0.
        3    1    3    3  502    0 -0.15938073473E+03  0.61982619960E+03  0.10778800064E+03  0.64900308134E+03  0.10100000352E+00 0. -1.
       -3    1    3    3    0  502  0.15938073473E+03 -0.61982619960E+03  0.75699480811E+03  0.99127588794E+03  0.10100000352E+00 0.  1.
</event>
<event>
 5   0  0.2917809E-03  0.1417608E+04  0.7818609E-02  0.8941171E-01
        2   -1    0    0  501    0  0.00000000000E+00  0.00000000000E+00  0.10848997918E+04  0.10848997918E+04  0.25500000920E-02 0.  1.
       -2   -1    0    0    0  501  0.00000000000E+00  0.00000000000E+00 -0.46308711781E+03  0.46308711781E+03  0.25500000920E-02 0. -1.
    10030    2    1    2    0    0  0.00000000000E+00  0.00000000000E+00  0.62181267404E+03  0.15479869097E+04  0.14176080103E+04 0.  0.
        2    1    3    3  502    0  0.54607604081E+02 -0.69527472403E+03  0.17272049423E+03  0.71848542186E+03  0.25500000920E-02 0. -1.
       -2    1    3    3    0  502 -0.54607604081E+02  0.69527472403E+03  0.44909217980E+03  0.82950148780E+03  0.25500000920E-02 0.  1.
</event>
<event>
 5   0  0.3006737E-03  0.1459087E+04  0.7818609E-02  0.8912125E-01
       -2   -1    0    0    0  501  0.00000000000E+00  0.00000000000E+00  0.83053430346E+03  0.83053430346E+03  0.25500000920E-02 0. -1.
        2   -1    0    0  501    0  0.00000000000E+00  0.00000000000E+00 -0.64083251476E+03  0.64083251476E+03  0.25500000920E-02 0.  1.
    10030    2    1    2    0    0  0.00000000000E+00  0.00000000000E+00  0.18970178870E+03  0.14713668182E+04  0.14590865448E+04 0.  0.
        1    1    3    3  502    0  0.13567408181E+03  0.71102976869E+03  0.18651476926E+03  0.74750153686E+03  0.50400001928E-02 0. -1.
       -1    1    3    3    0  502 -0.13567408181E+03 -0.71102976869E+03  0.31870194404E+01  0.72386528136E+03  0.50400001928E-02 0.  1.
</event>
<event>
 5   0  0.1560957E-03  0.1401885E+04  0.7818609E-02  0.8952455E-01
       -1   -1    0    0    0  501  0.00000000000E+00  0.00000000000E+00  0.38353897569E+03  0.38353897573E+03  0.50400001928E-02 0. -1.
        1   -1    0    0  501    0  0.00000000000E+00  0.00000000000E+00 -0.12810185831E+04  0.12810185831E+04  0.50400001928E-02 0.  1.
    10030    2    1    2    0    0  0.00000000000E+00  0.00000000000E+00 -0.89747960740E+03  0.16645575588E+04  0.14018852382E+04 0.  0.
        5    1    3    3  502    0  0.63221442246E+03  0.38825885638E+02 -0.92338762033E+02  0.64011800657E+03  0.46999998093E+01 0. -1.
       -5    1    3    3    0  502 -0.63221442246E+03 -0.38825885638E+02 -0.80514084537E+03  0.10244395523E+04  0.46999998093E+01 0.  1.
</event>
<event>
 5   0  0.1560957E-03  0.1552159E+04  0.7818609E-02  0.8850490E-01
        1   -1    0    0  501    0  0.00000000000E+00  0.00000000000E+00  0.11429240989E+04  0.11429240989E+04  0.50400001928E-02 0. -1.
       -1   -1    0    0    0  501  0.00000000000E+00  0.00000000000E+00 -0.52698131631E+03  0.52698131633E+03  0.50400001928E-02 0.  1.
    10030    2    1    2    0    0  0.00000000000E+00  0.00000000000E+00  0.61594278263E+03  0.16699054153E+04  0.15521593296E+04 0.  0.
        5    1    3    3  502    0 -0.97371251934E+02 -0.41061771749E+03  0.10086768860E+04  0.10934071615E+04  0.46999998093E+01 0. -1.
       -5    1    3    3    0  502  0.97371251934E+02  0.41061771749E+03 -0.39273410335E+03  0.57649825373E+03  0.46999998093E+01 0.  1.
</event>
<event>
 5   0  0.2917809E-03  0.1207596E+04  0.7818609E-02  0.9106233E-01
        2   -1    0    0  501    0  0.00000000000E+00  0.00000000000E+00  0.88160628070E+03  0.88160628071E+03  0.25500000920E-02 0.  1.
       -2   -1    0    0    0  501  0.00000000000E+00  0.00000000000E+00 -0.41353181317E+03  0.41353181318E+03  0.25500000920E-02 0. -1.
    10030    2    1    2    0    0  0.00000000000E+00  0.00000000000E+00  0.46807446753E+03  0.12951380939E+04  0.12075963626E+04 0.  0.
        2    1    3    3  502    0 -0.44044549659E+03  0.36650507769E+03  0.43824509839E+03  0.72137159198E+03  0.25500000920E-02 0.  1.
       -2    1    3    3    0  502  0.44044549659E+03 -0.36650507769E+03  0.29829369144E+02  0.57376650191E+03  0.25500000920E-02 0. -1.
</event>
<event>
 5   0  0.1631380E-03  0.8950493E+03  0.7818609E-02  0.9431791E-01
       -1   -1    0    0    0  501  0.00000000000E+00  0.00000000000E+00  0.43357822310E+03  0.43357822312E+03  0.50400001928E-02 0. -1.
        1   -1    0    0  501    0  0.00000000000E+00  0.00000000000E+00 -0.46191968962E+03  0.46191968964E+03  0.50400001928E-02 0.  1.
    10030    2    1    2    0    0  0.00000000000E+00  0.00000000000E+00 -0.28341466520E+02  0.89549791277E+03  0.89504931319E+03 0.  0.
        3    1    3    3  502    0  0.36041679994E+02  0.44193354377E+03  0.46473574432E+02  0.44582963464E+03  0.10100000352E+00 0.  1.
       -3    1    3    3    0  502 -0.36041679994E+02 -0.44193354377E+03 -0.74815040952E+02  0.44966827813E+03  0.10100000352E+00 0. -1.
</event>
<event>
 5   0  0.1560957E-03  0.1414412E+04  0.7818609E-02  0.8943452E-01
        1   -1    0    0  501    0  0.00000000000E+00  0.00000000000E+00  0.91453204411E+03  0.91453204412E+03  0.50400001928E-02 0. -1.
       -1   -1    0    0    0  501  0.00000000000E+00  0.00000000000E+00 -0.54688141186E+03  0.54688141189E+03  0.50400001928E-02 0.  1.
    10030    2    1    2    0    0  0.00000000000E+00  0.00000000000E+00  0.36765063225E+03  0.14614134560E+04  0.14144123522E+04 0.  0.
        5    1    3    3  502    0  0.47611503461E+03  0.93966461562E+02  0.71531477985E+03  0.86441456857E+03  0.46999998093E+01 0. -1.
       -5    1    3    3    0  502 -0.47611503461E+03 -0.93966461562E+02 -0.34766414760E+03  0.59699888744E+03  0.46999998093E+01 0.  1.
</event>
<event>
 5   0  0.2889469E-03  0.1575180E+04  0.7818609E-02  0.8835943E-01
        2   -1    0    0  501    0  0.00000000000E+00  0.00000000000E+00  0.13015216010E+04  0.13015216010E+04  0.25500000920E-02 0.  1.
       -2   -1    0    0    0  501  0.00000000000E+00  0.00000000000E+00 -0.47659422869E+03  0.47659422870E+03  0.25500000920E-02 0. -1.
    10030    2    1    2    0    0  0.00000000000E+00  0.00000000000E+00  0.82492737236E+03  0.17781158297E+04  0.15751795880E+04 0.  0.
        5    1    3    3  502    0 -0.50513529138E+02  0.24068761567E+03  0.12570496872E+04  0.12808895936E+04  0.46999998093E+01 0.  1.
       -5    1    3    3    0  502  0.50513529138E+02 -0.24068761567E+03 -0.43212231481E+03  0.49722623615E+03  0.46999998093E+01 0. -1.
</event>
<event>
 5   0  0.2993993E-03  0.1456420E+04  0.7818609E-02  0.8913962E-01
       -2   -1    0    0    0  501  0.00000000000E+00  0.00000000000E+00  0.61661591307E+03  0.61661591308E+03  0.25500000920E-02 0.  1.
        2   -1    0    0  501    0  0.00000000000E+00  0.00000000000E+00 -0.85999970205E+03  0.85999970205E+03  0.25500000920E-02 0. -1.
    10030    2    1    2    0    0  0.00000000000E+00  0.00000000000E+00 -0.24338378898E+03  0.14766156151E+04  0.14564195845E+04 0.  0.
        3    1    3    3  502    0 -0.59385007681E+03 -0.41723594584E+03 -0.18206375767E+03  0.74825862527E+03  0.10100000352E+00 0.  1.
       -3    1    3    3    0  502  0.59385007681E+03  0.41723594584E+03 -0.61320031307E+02  0.72835698986E+03  0.10100000352E+00 0. -1.
</event>
<event>
 5   0  0.1560957E-03  0.1445890E+04  0.7818609E-02  0.8921255E-01
       -1   -1    0    0    0  501  0.00000000000E+00  0.00000000000E+00  0.28278908942E+03  0.28278908946E+03  0.50400001928E-02 0. -1.
        1   -1    0    0  501    0  0.00000000000E+00  0.00000000000E+00 -0.18481941467E+04  0.18481941467E+04  0.50400001928E-02 0.  1.
    10030    2    1    2    0    0  0.00000000000E+00  0.00000000000E+00 -0.15654050573E+04  0.21309832362E+04  0.14458895392E+04 0.  0.
        5    1    3    3  502    0 -0.16894848146E+03  0.29020481717E+03  0.16084794196E+03  0.37236618499E+03  0.46999998093E+01 0. -1.
       -5    1    3    3    0  502  0.16894848146E+03 -0.29020481717E+03 -0.17262529993E+04  0.17586170512E+04  0.46999998093E+01 0.  1.
</event>
<event>
 5   0  0.2917809E-03  0.1319087E+04  0.7818609E-02  0.9014565E-01
       -2   -1    0    0    0  501  0.00000000000E+00  0.00000000000E+00  0.91096873420E+03  0.91096873420E+03  0.25500000920E-02 0.  1.
        2   -1    0    0  501    0  0.00000000000E+00  0.00000000000E+00 -0.47751098450E+03  0.47751098451E+03  0.25500000920E-02 0. -1.
    10030    2    1    2    0    0  0.00000000000E+00  0.00000000000E+00  0.43345774970E+03  0.13884797187E+04  0.13190869223E+04 0.  0.
        2    1    3    3  502    0 -0.43215099883E+03 -0.45550056142E+03  0.42924682852E+03  0.76058404338E+03  0.25500000920E-02 0. -1.
       -2    1    3    3    0  502  0.43215099883E+03  0.45550056142E+03  0.42109211763E+01  0.62789567534E+03  0.25500000920E-02 0.  1.
</event>
<event>
 5   0  0.1586022E-03  0.1348180E+04  0.7818609E-02  0.8992207E-01
       -1   -1    0    0    0  501  0.00000000000E+00  0.00000000000E+00  0.61665597329E+03  0.61665597331E+03  0.50400001928E-02 0.  1.
        1   -1    0    0  501    0  0.00000000000E+00  0.00000000000E+00 -0.73687303106E+03  0.73687303108E+03  0.50400001928E-02 0. -1.
    10030    2    1    2    0    0  0.00000000000E+00  0.00000000000E+00 -0.12021705777E+03  0.13535290044E+04  0.13481797450E+04 0.  0.
        1    1    3    3  502    0  0.11260925264E+03  0.51737283541E+03  0.35872976222E+03  0.63956433369E+03  0.50400001928E-02 0.  1.
       -1    1    3    3    0  502 -0.11260925264E+03 -0.51737283541E+03 -0.47894681999E+03  0.71396467070E+03  0.50400001928E-02 0. -1.
</event>
<event>
 5   0  0.1104538E-03  0.1293326E+04  0.7818609E-02  0.9034875E-01
        3   -1    0    0  501    0  0.00000000000E+00  0.00000000000E+00  0.14631286113E+04  0.14631286148E+04  0.10100000352E+00 0.  1.
       -3   -1    0    0    0  501  0.00000000000E+00  0.00000000000E+00 -0.28580725572E+03  0.28580727356E+03  0.10100000352E+00 0. -1.
    10030    2    1    2    0    0  0.00000000000E+00  0.00000000000E+00  0.11773213555E+04  0.17489358883E+04  0.12933256230E+04 0.  0.
        1    1    3    3  502    0  0.83006455884E+02 -0.30702594975E+03  0.13500518239E+04  0.13870093485E+04  0.50400001928E-02 0.  1.
       -1    1    3    3    0  502 -0.83006455884E+02  0.30702594975E+03 -0.17273046832E+03  0.36192653986E+03  0.50400001928E-02 0. -1.
</event>
<event>
 5   0  0.3006737E-03  0.1424477E+04  0.7818609E-02  0.8936289E-01
       -2   -1    0    0    0  501  0.00000000000E+00  0.00000000000E+00  0.31657588158E+03  0.31657588159E+03  0.25500000920E-02 0. -1.
        2   -1    0    0  501    0  0.00000000000E+00  0.00000000000E+00 -0.16024086257E+04  0.16024086257E+04  0.25500000920E-02 0.  1.
    10030    2    1    2    0    0  0.00000000000E+00  0.00000000000E+00 -0.12858327441E+04  0.19189845073E+04  0.14244773404E+04 0.  0.
        1    1    3    3  502    0 -0.55623206961E+03  0.17327811691E+03 -0.11948608045E+04  0.13293275605E+04  0.50400001928E-02 0.  1.
       -1    1    3    3    0  502  0.55623206961E+03 -0.17327811691E+03 -0.90971939664E+02  0.58965694679E+03  0.50400001928E-02 0. -1.
</event>
<event>
 5   0  0.1700207E-03  0.1340718E+04  0.7818609E-02  0.8997885E-01
       -1   -1    0    0    0  501  0.00000000000E+00  0.00000000000E+00  0.35109228574E+03  0.35109228578E+03  0.50400001928E-02 0.  1.
        1   -1    0    0  501    0  0.00000000000E+00  0.00000000000E+00 -0.12799513303E+04  0.12799513303E+04  0.50400001928E-02 0. -1.
    10030    2    1    2    0    0  0.00000000000E+00  0.00000000000E+00 -0.92885904457E+03  0.16310436161E+04  0.13407177753E+04 0.  0.
        2    1    3    3  502    0  0.24212335762E+03 -0.36626122604E+03 -0.10806910029E+04  0.11664750532E+04  0.25500000920E-02 0. -1.
       -2    1    3    3    0  502 -0.24212335762E+03  0.36626122604E+03  0.15183195837E+03  0.46456856286E+03  0.25500000920E-02 0.  1.
</event>
<event>
 5   0  0.1631380E-03  0.1249145E+04  0.7818609E-02  0.9070895E-01
       -1   -1    0    0    0  501  0.00000000000E+00  0.00000000000E+00  0.73170214500E+03  0.73170214501E+03  0.50400001928E-02 0.  1.
        1   -1    0    0  501    0  0.00000000000E+00  0.00000000000E+00 -0.53312762554E+03  0.53312762556E+03  0.50400001928E-02 0. -1.
    10030    2    1    2    0    0  0.00000000000E+00  0.00000000000E+00  0.19857451946E+03  0.12648297706E+04  0.12491447109E+04 0.  0.
        3    1    3    3  502    0 -0.33909980304E+03  0.78193242367E+02 -0.42586541620E+03  0.54996747403E+03  0.10100000352E+00 0. -1.
       -3    1    3    3    0  502  0.33909980304E+03 -0.78193242367E+02  0.62443993566E+03  0.71486229654E+03  0.10100000352E+00 0.  1.
</event>
<event>
 5   0  0.1560957E-03  0.1051311E+04  0.7818609E-02  0.9253992E-01
        1   -1    0    0  501    0  0.00000000000E+00  0.00000000000E+00  0.94250836846E+03  0.94250836847E+03  0.50400001928E-02 0.  1.
       -1   -1    0    0    0  501  0.00000000000E+00  0.00000000000E+00 -0.29316825235E+03  0.29316825239E+03  0.50400001928E-02 0. -1.
    10030    2    1    2    0    0  0.00000000000E+00  0.00000000000E+00  0.64934011611E+03  0.12356766209E+04  0.10513106701E+04 0.  0.
        5    1    3    3  502    0  0.70931578116E+01  0.31810943065E+03  0.81642840121E+03  0.87625415666E+03  0.46999998093E+01 0.  1.
       -5    1    3    3    0  502 -0.70931578116E+01 -0.31810943065E+03 -0.16708828510E+03  0.35942246421E+03  0.46999998093E+01 0. -1.
</event>
<event>
 5   0  0.1700207E-03  0.1417531E+04  0.7818609E-02  0.8941226E-01
       -1   -1    0    0    0  501  0.00000000000E+00  0.00000000000E+00  0.25893525956E+03  0.25893525961E+03  0.50400001928E-02 0.  1.
        1   -1    0    0  501    0  0.00000000000E+00  0.00000000000E+00 -0.19400539759E+04  0.19400539759E+04  0.50400001928E-02 0. -1.
    10030    2    1    2    0    0  0.00000000000E+00  0.00000000000E+00 -0.16811187163E+04  0.21989892355E+04  0.14175307825E+04 0.  0.
        2    1    3    3  502    0  0.49905102701E+03 -0.18956318425E+03 -0.15637997399E+04  0.16524090761E+04  0.25500000920E-02 0. -1.
       -2    1    3    3    0  502 -0.49905102701E+03  0.18956318425E+03 -0.11731897645E+03  0.54658015938E+03  0.25500000920E-02 0.  1.
</event>
<event>
 5   0  0.2760807E-03  0.1424418E+04  0.7818609E-02  0.8936331E-01
       -2   -1    0    0    0  501  0.00000000000E+00  0.00000000000E+00  0.61686120317E+03  0.61686120318E+03  0.25500000920E-02 0. -1.
        2   -1    0    0  501    0  0.00000000000E+00  0.00000000000E+00 -0.82229458395E+03  0.82229458396E+03  0.25500000920E-02 0.  1.
    10030    2    1    2    0    0  0.00000000000E+00  0.00000000000E+00 -0.20543338078E+03  0.14391557871E+04  0.14244179533E+04 0.  0.
        4    1    3    3  502    0  0.21027686655E+03 -0.38320548775E+03  0.46539751533E+03  0.63848200180E+03  0.12699999809E+01 0. -1.
       -4    1    3    3    0  502 -0.21027686655E+03  0.38320548775E+03 -0.67083089611E+03  0.80067378533E+03  0.12699999809E+01 0.  1.
</event>
<event>
 5   0  0.1644571E-03  0.1534171E+04  0.7818609E-02  0.8862042E-01
       -1   -1    0    0    0  501  0.00000000000E+00  0.00000000000E+00  0.55589191591E+03  0.55589191593E+03  0.50400001928E-02 0.  1.
        1   -1    0    0  501    0  0.00000000000E+00  0.00000000000E+00 -0.10585150621E+04  0.10585150621E+04  0.50400001928E-02 0. -1.
    10030    2    1    2    0    0  0.00000000000E+00  0.00000000000E+00 -0.50262314622E+03  0.16144069781E+04  0.15341707414E+04 0.  0.
        4    1    3    3  502    0 -0.67147665360E+03 -0.32644141334E+03 -0.43650867830E+03  0.86486203050E+03  0.12699999809E+01 0. -1.
       -4    1    3    3    0  502  0.67147665360E+03  0.32644141334E+03 -0.66114467921E+02  0.74954494757E+03  0.12699999809E+01 0.  1.
</event>
<event>
 5   0  0.1560957E-03  0.1312723E+04  0.7818609E-02  0.9019536E-01
       -1   -1    0    0    0  501  0.00000000000E+00  0.00000000000E+00  0.68990752498E+03  0.68990752500E+03  0.50400001928E-02 0. -1.
        1   -1    0    0  501    0  0.00000000000E+00  0.00000000000E+00 -0.62444635572E+03  0.62444635574E+03  0.50400001928E-02 0.  1.
    10030    2    1    2    0    0  0.00000000000E+00  0.00000000000E+00  0.65461169262E+02  0.13143538807E+04  0.13127227274E+04 0.  0.
        5    1    3    3  502    0  0.26522974843E+03 -0.53416940908E+03 -0.24166171476E+03  0.64351087903E+03  0.46999998093E+01 0. -1.
       -5    1    3    3    0  502 -0.26522974843E+03  0.53416940908E+03  0.30712288402E+03  0.67084300170E+03  0.46999998093E+01 0.  1.
</event>
<event>
 5   0  0.1104538E-03  0.1348380E+04  0.7818609E-02  0.8992055E-01
       -4   -1    0    0    0  501  0.00000000000E+00  0.00000000000E+00  0.42947396148E+03  0.42947583924E+03  0.12699999809E+01 0. -1.
        4   -1    0    0  501    0  0.00000000000E+00  0.00000000000E+00 -0.10583422560E+04  0.10583430180E+04  0.12699999809E+01 0.  1.
    10030    2    1    2    0    0  0.00000000000E+00  0.00000000000E+00 -0.62886829455E+03  0.14878188573E+04  0.13483803692E+04 0.  0.
        1    1    3    3  502    0  0.24844455181E+03  0.43594501952E+03  0.18241941029E+03  0.53390036209E+03  0.50400001928E-02 0. -1.
       -1    1    3    3    0  502 -0.24844455181E+03 -0.43594501952E+03 -0.81128770485E+03  0.95391849517E+03  0.50400001928E-02 0.  1.
</event>
<event>
 5   0  0.3006737E-03  0.1484844E+04  0.7818609E-02  0.8894594E-01
        2   -1    0    0  501    0  0.00000000000E+00  0.00000000000E+00  0.77498852198E+03  0.77498852198E+03  0.25500000920E-02 0. -1.
       -2   -1    0    0    0  501  0.00000000000E+00  0.00000000000E+00 -0.71122430076E+03  0.71122430076E+03  0.25500000920E-02 0.  1.
    10030    2    1    2    0    0  0.00000000000E+00  0.00000000000E+00  0.63764221216E+02  0.14862128227E+04  0.14848443281E+04 0.  0.
        1    1    3    3  502    0 -0.46214309803E+03  0.51803416127E+03  0.29528816563E+03  0.75440753979E+03  0.50400001928E-02 0.  1.
       -1    1    3    3    0  502  0.46214309803E+03 -0.51803416127E+03 -0.23152394442E+03  0.73180528296E+03  0.50400001928E-02 0. -1.
</event>
<event>
 5   0  0.2993993E-03  0.1417115E+04  0.7818609E-02  0.8941522E-01
       -2   -1    0    0    0  501  0.00000000000E+00  0.00000000000E+00  0.35937945734E+03  0.35937945735E+03  0.25500000920E-02 0.  1.
        2   -1    0    0  501    0  0.00000000000E+00  0.00000000000E+00 -0.13970015597E+04  0.13970015597E+04  0.25500000920E-02 0. -1.
    10030    2    1    2    0    0  0.00000000000E+00  0.00000000000E+00 -0.10376221024E+04  0.17563810171E+04  0.14171149035E+04 0.  0.
        3    1    3    3  502    0 -0.58511424220E+03 -0.21728061035E+03 -0.10313092465E+03  0.63261800313E+03  0.10100000352E+00 0.  1.
       -3    1    3    3    0  502  0.58511424220E+03  0.21728061035E+03 -0.93449117774E+03  0.11237630140E+04  0.10100000352E+00 0. -1.
</event>
<event>
 5   0  0.2993993E-03  0.1211776E+04  0.7818609E-02  0.9102611E-01
        2   -1    0    0  501    0  0.00000000000E+00  0.00000000000E+00  0.15213513070E+04  0.15213513070E+04  0.25500000920E-02 0. -1.
       -2   -1    0    0    0  501  0.00000000000E+00  0.00000000000E+00 -0.24129878252E+03  0.24129878253E+03  0.25500000920E-02 0.  1.
    10030    2    1    2    0    0  0.00000000000E+00  0.00000000000E+00  0.12800525245E+04  0.17626500895E+04  0.12117759169E+04 0.  0.
        3    1    3    3  502    0  0.14643393453E+02  0.41904484396E+03  0.12762161225E+04  0.13433319067E+04  0.10100000352E+00 0. -1.
       -3    1    3    3    0  502 -0.14643393453E+02 -0.41904484396E+03  0.38364019861E+01  0.41931818277E+03  0.10100000352E+00 0.  1.
</event>
<event>
 5   0  0.1644571E-03  0.1459098E+04  0.7818609E-02  0.8912117E-01
       -1   -1    0    0    0  501  0.00000000000E+00  0.00000000000E+00  0.72376666500E+03  0.72376666502E+03  0.50400001928E-02 0.  1.
        1   -1    0    0  501    0  0.00000000000E+00  0.00000000000E+00 -0.73537745413E+03  0.73537745414E+03  0.50400001928E-02 0. -1.
    10030    2    1    2    0    0  0.00000000000E+00  0.00000000000E+00 -0.11610789124E+02  0.14591441192E+04  0.14590979234E+04 0.  0.
        4    1    3    3  502    0  0.51514748226E+03  0.40803822758E+03 -0.32262443829E+03  0.73209307108E+03  0.12699999809E+01 0. -1.
       -4    1    3    3    0  502 -0.51514748226E+03 -0.40803822758E+03  0.31101364917E+03  0.72705104808E+03  0.12699999809E+01 0.  1.
</event>
<event>
 5   0  0.3006737E-03  0.1385168E+04  0.7818609E-02  0.8964626E-01
        2   -1    0    0  501    0  0.00000000000E+00  0.00000000000E+00  0.15630231177E+04  0.15630231177E+04  0.25500000920E-02 0. -1.
       -2   -1    0    0    0  501  0.00000000000E+00  0.00000000000E+00 -0.30688749672E+03  0.30688749673E+03  0.25500000920E-02 0.  1.
    10030    2    1    2    0    0  0.00000000000E+00  0.00000000000E+00  0.12561356209E+04  0.18699106144E+04  0.13851675017E+04 0.  0.
        1    1    3    3  502    0  0.61293612383E+03  0.22805709327E+03  0.32031553571E+03  0.72821890399E+03  0.50400001928E-02 0.  1.
       -1    1    3    3    0  502 -0.61293612383E+03 -0.22805709327E+03  0.93582008523E+03  0.11416917104E+04  0.50400001928E-02 0. -1.
</event>
<event>
 5   0  0.1700207E-03  0.1415505E+04  0.7818609E-02  0.8942671E-01
       -1   -1    0    0    0  501  0.00000000000E+00  0.00000000000E+00  0.66778437698E+03  0.66778437700E+03  0.50400001928E-02 0.  1.
        1   -1    0    0  501    0  0.00000000000E+00  0.00000000000E+00 -0.75011231317E+03  0.75011231319E+03  0.50400001928E-02 0. -1.
    10030    2    1    2    0    0  0.00000000000E+00  0.00000000000E+00 -0.82327936191E+02  0.14178966902E+04  0.14155045514E+04 0.  0.
        2    1    3    3  502    0  0.51227175884E+03  0.70054775300E+02 -0.52528524910E+03  0.73705808412E+03  0.25500000920E-02 0. -1.
       -2    1    3    3    0  502 -0.51227175884E+03 -0.70054775300E+02  0.44295731291E+03  0.68083860607E+03  0.25500000920E-02 0.  1.
</event>
<event>
 5   0  0.1586022E-03  0.1393242E+04  0.7818609E-02  0.8958725E-01
        1   -1    0    0  501    0  0.00000000000E+00  0.00000000000E+00  0.89350702277E+03  0.89350702279E+03  0.50400001928E-02 0. -1.
       -1   -1    0    0    0  501  0.00000000000E+00  0.00000000000E+00 -0.54311909028E+03  0.54311909031E+03  0.50400001928E-02 0.  1.
    10030    2    1    2    0    0  0.00000000000E+00  0.00000000000E+00  0.35038793249E+03  0.14366261131E+04  0.13932418618E+04 0.  0.
        1    1    3    3  502    0  0.37785664865E+03  0.35327053468E+03  0.65631179052E+03  0.83565596031E+03  0.50400001928E-02 0. -1.
       -1    1    3    3    0  502 -0.37785664865E+03 -0.35327053468E+03 -0.30592385803E+03  0.60097015278E+03  0.50400001928E-02 0.  1.
</event>
<event>
 5   0  0.1560957E-03  0.1388660E+04  0.7818609E-02  0.8962068E-01
        1   -1    0    0  501    0  0.00000000000E+00  0.00000000000E+00  0.11161708141E+04  0.11161708142E+04  0.50400001928E-02 0. -1.
       -1   -1    0    0    0  501  0.00000000000E+00  0.00000000000E+00 -0.43191814235E+03  0.43191814238E+03  0.50400001928E-02 0.  1.
    10030    2    1    2    0    0  0.00000000000E+00  0.00000000000E+00  0.68425267180E+03  0.15480889565E+04  0.13886603971E+04 0.  0.
        5    1    3    3  502    0  0.47626107177E+03  0.48325732607E+03  0.50638587646E+03  0.84664691434E+03  0.46999998093E+01 0. -1.
       -5    1    3    3    0  502 -0.47626107177E+03 -0.48325732607E+03  0.17786679534E+03  0.70144204220E+03  0.46999998093E+01 0.  1.
</event>
<event>
 5   0  0.2917809E-03  0.1392816E+04  0.7818609E-02  0.8959035E-01
       -2   -1    0    0    0  501  0.00000000000E+00  0.00000000000E+00  0.20632495042E+03  0.20632495044E+03  0.25500000920E-02 0. -1.
        2   -1    0    0  501    0  0.00000000000E+00  0.00000000000E+00 -0.23505836561E+04  0.23505836561E+04  0.25500000920E-02 0.  1.
    10030    2    1    2    0    0  0.00000000000E+00  0.00000000000E+00 -0.21442587057E+04  0.25569086065E+04  0.13928159338E+04 0.  0.
        2    1    3    3  502    0 -0.49463723541E+03 -0.12708131203E+03 -0.20295145074E+03  0.54954976653E+03  0.25500000920E-02 0. -1.
       -2    1    3    3    0  502  0.49463723541E+03  0.12708131203E+03 -0.19413072549E+04  0.20073588400E+04  0.25500000920E-02 0.  1.
</event>
<event>
 5   0  0.3006737E-03  0.1398149E+04  0.7818609E-02  0.8955159E-01
        2   -1    0    0  501    0  0.00000000000E+00  0.00000000000E+00  0.91293687060E+03  0.91293687061E+03  0.25500000920E-02 0. -1.
       -2   -1    0    0    0  501  0.00000000000E+00  0.00000000000E+00 -0.53531105802E+03  0.53531105802E+03  0.25500000920E-02 0.  1.
    10030    2    1    2    0    0  0.00000000000E+00  0.00000000000E+00  0.37762581259E+03  0.14482479286E+04  0.13981490652E+04 0.  0.
        1    1    3    3  502    0 -0.39333123025E+03 -0.55672485174E+03  0.28164754386E+02  0.68223549501E+03  0.50400001928E-02 0.  1.
       -1    1    3    3    0  502  0.39333123025E+03  0.55672485174E+03  0.34946105820E+03  0.76601243362E+03  0.50400001928E-02 0. -1.
</event>
<event>
 5   0  0.2889469E-03  0.1379161E+04  0.7818609E-02  0.8969042E-01
        2   -1    0    0  501    0  0.00000000000E+00  0.00000000000E+00  0.13885079446E+04  0.13885079446E+04  0.25500000920E-02 0. -1.
       -2   -1    0    0    0  501  0.00000000000E+00  0.00000000000E+00 -0.34246940846E+03  0.34246940847E+03  0.25500000920E-02 0.  1.
    10030    2    1    2    0    0  0.00000000000E+00  0.00000000000E+00  0.10460385361E+04  0.17309773530E+04  0.13791613313E+04 0.  0.
        5    1    3    3  502    0 -0.44451533205E+03 -0.48557617792E+03  0.26543033852E+03  0.70982635876E+03  0.46999998093E+01 0.  1.
       -5    1    3    3    0  502  0.44451533205E+03  0.48557617792E+03  0.78060819758E+03  0.10211509943E+04  0.46999998093E+01 0. -1.
</event>
<event>
 5   0  0.1104538E-03  0.1403682E+04  0.7818609E-02  0.8951158E-01
        3   -1    0    0  501    0  0.00000000000E+00  0.00000000000E+00  0.11967285531E+04  0.11967285574E+04  0.10100000352E+00 0. -1.
       -3   -1    0    0    0  501  0.00000000000E+00  0.00000000000E+00 -0.41160589298E+03  0.41160590537E+03  0.10100000352E+00 0.  1.
    10030    2    1    2    0    0  0.00000000000E+00  0.00000000000E+00  0.78512266013E+03  0.16083344627E+04  0.14036816422E+04 0.  0.
        4    1    3    3  502    0  0.65087071746E+03 -0.27851420339E+02  0.69172309861E+03  0.95020568853E+03  0.12699999809E+01 0. -1.
       -4    1    3    3    0  502 -0.65087071746E+03  0.27851420339E+02  0.93399561523E+02  0.65812877422E+03  0.12699999809E+01 0.  1.
</event>
<event>
 5   0  0.1104538E-03  0.1341974E+04  0.7818609E-02  0.8996926E-01
       -4   -1    0    0    0  501  0.00000000000E+00  0.00000000000E+00  0.71416072902E+03  0.71416185824E+03  0.12699999809E+01 0. -1.
        4   -1    0    0  501    0  0.00000000000E+00  0.00000000000E+00 -0.63042133734E+03  0.63042261656E+03  0.12699999809E+01 0.  1.
    10030    2    1    2    0    0  0.00000000000E+00  0.00000000000E+00  0.83739391677E+02  0.13445844748E+04  0.13419743381E+04 0.  0.
        4    1    3    3  502    0  0.16366852996E+03  0.33256901413E+03  0.60227199070E+03  0.70719353825E+03  0.12699999809E+01 0. -1.
       -4    1    3    3    0  502 -0.16366852996E+03 -0.33256901413E+03 -0.51853259902E+03  0.63739093656E+03  0.12699999809E+01 0.  1.
</event>
<event>
 5   0  0.2760807E-03  0.1389862E+04  0.7818609E-02  0.8961190E-01
        2   -1    0    0  501    0  0.00000000000E+00  0.00000000000E+00  0.11931321186E+04  0.11931321186E+04  0.25500000920E-02 0. -1.
       -2   -1    0    0    0  501  0.00000000000E+00  0.00000000000E+00 -0.40475737050E+03  0.40475737051E+03  0.25500000920E-02 0.  1.
    10030    2    1    2    0    0  0.00000000000E+00  0.00000000000E+00  0.78837474812E+03  0.15978894891E+04  0.13898618910E+04 0.  0.
        4    1    3    3  502    0  0.56872905176E+03 -0.32682662195E+03  0.65800968758E+03  0.92911072374E+03  0.12699999809E+01 0.  1.
       -4    1    3    3    0  502 -0.56872905176E+03  0.32682662195E+03  0.13036506054E+03  0.66877876539E+03  0.12699999809E+01 0. -1.
</event>
<event>
 5   0  0.3006737E-03  0.1404599E+04  0.7818609E-02  0.8950496E-01
       -2   -1    0    0    0  501  0.00000000000E+00  0.00000000000E+00  0.59607107936E+03  0.59607107937E+03  0.25500000920E-02 0. -1.
        2   -1    0    0  501    0  0.00000000000E+00  0.00000000000E+00 -0.82745911385E+03  0.82745911386E+03  0.25500000920E-02 0.  1.
    10030    2    1    2    0    0  0.00000000000E+00  0.00000000000E+00 -0.23138803449E+03  0.14235301932E+04  0.14045987998E+04 0.  0.
        1    1    3    3  502    0 -0.55124670304E+03 -0.40971960599E+03  0.32846631624E+02  0.68762052353E+03  0.50400001928E-02 0. -1.
       -1    1    3    3    0  502  0.55124670304E+03  0.40971960599E+03 -0.26423466611E+03  0.73590966969E+03  0.50400001928E-02 0.  1.
</event>
<event>
 5   0  0.1586022E-03  0.1399156E+04  0.7818609E-02  0.8954429E-01
        1   -1    0    0  501    0  0.00000000000E+00  0.00000000000E+00  0.11991107440E+04  0.11991107440E+04  0.50400001928E-02 0.  1.
       -1   -1    0    0    0  501  0.00000000000E+00  0.00000000000E+00 -0.40814379851E+03  0.40814379854E+03  0.50400001928E-02 0. -1.
    10030    2    1    2    0    0  0.00000000000E+00  0.00000000000E+00  0.79096694545E+03  0.16072545425E+04  0.13991563371E+04 0.  0.
        1    1    3    3  502    0  0.77050627177E+02 -0.34714092098E+03  0.10875556470E+04  0.11442119137E+04  0.50400001928E-02 0.  1.
       -1    1    3    3    0  502 -0.77050627177E+02  0.34714092098E+03 -0.29658870155E+03  0.46304262879E+03  0.50400001928E-02 0. -1.
</event>
<event>
 5   0  0.1560957E-03  0.1420894E+04  0.7818609E-02  0.8938832E-01
       -1   -1    0    0    0  501  0.00000000000E+00  0.00000000000E+00  0.58793571778E+03  0.58793571780E+03  0.50400001928E-02 0. -1.
        1   -1    0    0  501    0  0.00000000000E+00  0.00000000000E+00 -0.85848603990E+03  0.85848603992E+03  0.50400001928E-02 0.  1.
    10030    2    1    2    0    0  0.00000000000E+00  0.00000000000E+00 -0.27055032212E+03  0.14464217577E+04  0.14208935303E+04 0.  0.
        5    1    3    3  502    0  0.55445644233E+03 -0.20780873689E+02 -0.58693423856E+03  0.80769281385E+03  0.46999998093E+01 0.  1.
       -5    1    3    3    0  502 -0.55445644233E+03  0.20780873689E+02  0.31638391644E+03  0.63872894387E+03  0.46999998093E+01 0. -1.
</event>
<event>
 5   0  0.2889469E-03  0.1382375E+04  0.7818609E-02  0.8966676E-01
       -2   -1    0    0    0  501  0.00000000000E+00  0.00000000000E+00  0.32016378513E+03  0.32016378514E+03  0.25500000920E-02 0. -1.
        2   -1    0    0  501    0  0.00000000000E+00  0.00000000000E+00 -0.14921748671E+04  0.14921748671E+04  0.25500000920E-02 0.  1.
    10030    2    1    2    0    0  0.00000000000E+00  0.00000000000E+00 -0.11720110819E+04  0.18123386522E+04  0.13823752798E+04 0.  0.
        5    1    3    3  502    0  0.45651489460E+03 -0.32284391468E+03 -0.11186852780E+04  0.12506449869E+04  0.46999998093E+01 0.  1.
       -5    1    3    3    0  502 -0.45651489460E+03  0.32284391468E+03 -0.53325803979E+02  0.56169366527E+03  0.46999998093E+01 0. -1.
</event>
<event>
 5   0  0.2889469E-03  0.8188330E+03  0.7818609E-02  0.9533150E-01
        2   -1    0    0  501    0  0.00000000000E+00  0.00000000000E+00  0.81014683841E+03  0.81014683841E+03  0.25500000920E-02 0.  1.
       -2   -1    0    0    0  501  0.00000000000E+00  0.00000000000E+00 -0.20690305710E+03  0.20690305712E+03  0.25500000920E-02 0. -1.
    10030    2    1    2    0    0  0.00000000000E+00  0.00000000000E+00  0.60324378131E+03  0.10170498955E+04  0.81883296850E+03 0.  0.
        5    1    3    3  502    0 -0.19039790679E+03 -0.29414514830E+03  0.38645383281E+02  0.35254543938E+03  0.46999998093E+01 0. -1.
       -5    1    3    3    0  502  0.19039790679E+03  0.29414514830E+03  0.56459839802E+03  0.66450445614E+03  0.46999998093E+01 0.  1.
</event>
<event>
 5   0  0.2889469E-03  0.1383012E+04  0.7818609E-02  0.8966208E-01
       -2   -1    0    0    0  501  0.00000000000E+00  0.00000000000E+00  0.80497742988E+03  0.80497742989E+03  0.25500000920E-02 0. -1.
        2   -1    0    0  501    0  0.00000000000E+00  0.00000000000E+00 -0.59402938631E+03  0.59402938632E+03  0.25500000920E-02 0.  1.
    10030    2    1    2    0    0  0.00000000000E+00  0.00000000000E+00  0.21094804357E+03  0.13990068162E+04  0.13830115671E+04 0.  0.
        5    1    3    3  502    0  0.20461597591E+03 -0.25106320081E+03 -0.51254013488E+03  0.60631667325E+03  0.46999998093E+01 0.  1.
       -5    1    3    3    0  502 -0.20461597591E+03  0.25106320081E+03  0.72348817844E+03  0.79269014296E+03  0.46999998093E+01 0. -1.
</event>
<event>
 5   0  0.2760807E-03  0.1389763E+04  0.7818609E-02  0.8961262E-01
       -2   -1    0    0    0  501  0.00000000000E+00  0.00000000000E+00  0.32707167949E+03  0.32707167950E+03  0.25500000920E-02 0. -1.
        2   -1    0    0  501    0  0.00000000000E+00  0.00000000000E+00 -0.14763132641E+04  0.14763132641E+04  0.25500000920E-02 0.  1.
    10030    2    1    2    0    0  0.00000000000E+00  0.00000000000E+00 -0.11492415847E+04  0.18033849436E+04  0.13897629420E+04 0.  0.
        4    1    3    3  502    0 -0.60932372911E+03 -0.12507980700E+03 -0.97654455037E+03  0.11578260822E+04  0.12699999809E+01 0.  1.
       -4    1    3    3    0  502  0.60932372911E+03  0.12507980700E+03 -0.17269703429E+03  0.64555886140E+03  0.12699999809E+01 0. -1.
</event>
<event>
 5   0  0.2760807E-03  0.1370293E+04  0.7818609E-02  0.8975607E-01
        2   -1    0    0  501    0  0.00000000000E+00  0.00000000000E+00  0.11316206322E+04  0.11316206322E+04  0.25500000920E-02 0.  1.
       -2   -1    0    0    0  501  0.00000000000E+00  0.00000000000E+00 -0.41482579078E+03  0.41482579079E+03  0.25500000920E-02 0. -1.
    10030    2    1    2    0    0  0.00000000000E+00  0.00000000000E+00  0.71679484142E+03  0.15464464230E+04  0.13702925580E+04 0.  0.
        4    1    3    3  502    0 -0.63101726436E+03 -0.99593350346E+02  0.78930507417E+02  0.64368723869E+03  0.12699999809E+01 0. -1.
       -4    1    3    3    0  502  0.63101726436E+03  0.99593350346E+02  0.63786433401E+03  0.90275918430E+03  0.12699999809E+01 0.  1.
</event>
<event>
 5   0  0.1560957E-03  0.1414457E+04  0.7818609E-02  0.8943420E-01
       -1   -1    0    0    0  501  0.00000000000E+00  0.00000000000E+00  0.41756078263E+03  0.41756078266E+03  0.50400001928E-02 0. -1.
        1   -1    0    0  501    0  0.00000000000E+00  0.00000000000E+00 -0.11978434800E+04  0.11978434800E+04  0.50400001928E-02 0.  1.
    10030    2    1    2    0    0  0.00000000000E+00  0.00000000000E+00 -0.78028269737E+03  0.16154042627E+04  0.14144574381E+04 0.  0.
        5    1    3    3  502    0 -0.68515722397E+03  0.86108525193E+02 -0.56445252258E+03  0.89189900768E+03  0.46999998093E+01 0.  1.
       -5    1    3    3    0  502  0.68515722397E+03 -0.86108525193E+02 -0.21583017480E+03  0.72350525500E+03  0.46999998093E+01 0. -1.
</event>
<event>
 5   0  0.2993993E-03  0.1407358E+04  0.7818609E-02  0.8948509E-01
       -2   -1    0    0    0  501  0.00000000000E+00  0.00000000000E+00  0.39978750010E+03  0.39978750011E+03  0.25500000920E-02 0.  1.
        2   -1    0    0  501    0  0.00000000000E+00  0.00000000000E+00 -0.12385690560E+04  0.12385690560E+04  0.25500000920E-02 0. -1.
    10030    2    1    2    0    0  0.00000000000E+00  0.00000000000E+00 -0.83878155594E+03  0.16383565561E+04  0.14073584144E+04 0.  0.
        3    1    3    3  502    0 -0.49748638385E+03  0.20937238408E+03  0.10619427029E+03  0.55009701924E+03  0.10100000352E+00 0.  1.
       -3    1    3    3    0  502  0.49748638385E+03 -0.20937238408E+03 -0.94497582622E+03  0.10882595369E+04  0.10100000352E+00 0. -1.
</event>
<event>
 5   0  0.2917809E-03  0.1713894E+04  0.7818609E-02  0.8753480E-01
       -2   -1    0    0    0  501  0.00000000000E+00  0.00000000000E+00  0.68918617244E+03  0.68918617245E+03  0.25500000920E-02 0. -1.
        2   -1    0    0  501    0  0.00000000000E+00  0.00000000000E+00 -0.10655440218E+04  0.10655440218E+04  0.25500000920E-02 0.  1.
    10030    2    1    2    0    0  0.00000000000E+00  0.00000000000E+00 -0.37635784937E+03  0.17547301943E+04  0.17138940527E+04 0.  0.
        2    1    3    3  502    0  0.84400164403E+03 -0.97885278266E+02 -0.30236153381E+03  0.90185519899E+03  0.25500000920E-02 0.  1.
       -2    1    3    3    0  502 -0.84400164403E+03  0.97885278266E+02 -0.73996315560E+02  0.85287499526E+03  0.25500000920E-02 0. -1.
</event>
<event>
 5   0  0.1631380E-03  0.1399233E+04  0.7818609E-02  0.8954374E-01
        1   -1    0    0  501    0  0.00000000000E+00  0.00000000000E+00  0.42735294611E+03  0.42735294614E+03  0.50400001928E-02 0.  1.
       -1   -1    0    0    0  501  0.00000000000E+00  0.00000000000E+00 -0.11453380590E+04  0.11453380590E+04  0.50400001928E-02 0. -1.
    10030    2    1    2    0    0  0.00000000000E+00  0.00000000000E+00 -0.71798511292E+03  0.15726910052E+04  0.13992334957E+04 0.  0.
        3    1    3    3  502    0  0.33913594299E+03  0.96863457350E+02  0.32011726871E+03  0.47630955599E+03  0.10100000352E+00 0.  1.
       -3    1    3    3    0  502 -0.33913594299E+03 -0.96863457350E+02 -0.10381023816E+04  0.10963814492E+04  0.10100000352E+00 0. -1.
</event>
<event>
 5   0  0.2889469E-03  0.1447551E+04  0.7818609E-02  0.8920100E-01
        2   -1    0    0  501    0  0.00000000000E+00  0.00000000000E+00  0.50283011115E+03  0.50283011116E+03  0.25500000920E-02 0. -1.
       -2   -1    0    0    0  501  0.00000000000E+00  0.00000000000E+00 -0.10418051192E+04  0.10418051192E+04  0.25500000920E-02 0.  1.
    10030    2    1    2    0    0  0.00000000000E+00  0.00000000000E+00 -0.53897500801E+03  0.15446352303E+04  0.14475510131E+04 0.  0.
        5    1    3    3  502    0 -0.44997195376E+03 -0.43866897392E+03 -0.65262828633E+03  0.90600827699E+03  0.46999998093E+01 0.  1.
       -5    1    3    3    0  502  0.44997195376E+03  0.43866897392E+03  0.11365327832E+03  0.63862695333E+03  0.46999998093E+01 0. -1.
</event>
<event>
 5   0  0.2917809E-03  0.1386654E+04  0.7818609E-02  0.8963536E-01
       -2   -1    0    0    0  501  0.00000000000E+00  0.00000000000E+00  0.87312078206E+03  0.87312078207E+03  0.25500000920E-02 0. -1.
        2   -1    0    0  501    0  0.00000000000E+00  0.00000000000E+00 -0.55055643696E+03  0.55055643696E+03  0.25500000920E-02 0.  1.
    10030    2    1    2    0    0  0.00000000000E+00  0.00000000000E+00  0.32256434510E+03  0.14236772190E+04  0.13866539104E+04 0.  0.
        2    1    3    3  502    0 -0.13956873497E+03 -0.40058127995E+03  0.72433827367E+03  0.83941094128E+03  0.25500000920E-02 0. -1.
       -2    1    3    3    0  502  0.13956873497E+03  0.40058127995E+03 -0.40177392857E+03  0.58426627775E+03  0.25500000920E-02 0.  1.
</event>
<event>
 5   0  0.1586022E-03  0.1357410E+04  0.7818609E-02  0.8985238E-01
        1   -1    0    0  501    0  0.00000000000E+00  0.00000000000E+00  0.12734756655E+04  0.12734756655E+04  0.50400001928E-02 0.  1.
       -1   -1    0    0    0  501  0.00000000000E+00  0.00000000000E+00 -0.36171893107E+03  0.36171893111E+03  0.50400001928E-02 0. -1.
    10030    2    1    2    0    0  0.00000000000E+00  0.00000000000E+00  0.91175673446E+03  0.16351945966E+04  0.13574096751E+04 0.  0.
        1    1    3    3  502    0  0.20426122272E+02  0.67813932283E+03  0.47841804201E+03  0.83016503816E+03  0.50400001928E-02 0.  1.
       -1    1    3    3    0  502 -0.20426122272E+02 -0.67813932283E+03  0.43333869245E+03  0.80502955849E+03  0.50400001928E-02 0. -1.
</event>
<event>
 5   0  0.2889469E-03  0.1402118E+04  0.7818609E-02  0.8952287E-01
        2   -1    0    0  501    0  0.00000000000E+00  0.00000000000E+00  0.61423379115E+03  0.61423379116E+03  0.25500000920E-02 0. -1.
       -2   -1    0    0    0  501  0.00000000000E+00  0.00000000000E+00 -0.80015685523E+03  0.80015685523E+03  0.25500000920E-02 0.  1.
    10030    2    1    2    0    0  0.00000000000E+00  0.00000000000E+00 -0.18592306408E+03  0.14143906464E+04  0.14021175111E+04 0.  0.
        5    1    3    3  502    0  0.89086450166E+02  0.60732053108E+03 -0.43458006674E+03  0.75210142101E+03  0.46999998093E+01 0.  1.
       -5    1    3    3    0  502 -0.89086450166E+02 -0.60732053108E+03  0.24865700266E+03  0.66228922538E+03  0.46999998093E+01 0. -1.
</event>
<event>
 5   0  0.2889469E-03  0.1421723E+04  0.7818609E-02  0.8938243E-01
       -2   -1    0    0    0  501  0.00000000000E+00  0.00000000000E+00  0.12577868337E+04  0.12577868337E+04  0.25500000920E-02 0.  1.
        2   -1    0    0  501    0  0.00000000000E+00  0.00000000000E+00 -0.40175630827E+03  0.40175630828E+03  0.25500000920E-02 0. -1.
    10030    2    1    2    0    0  0.00000000000E+00  0.00000000000E+00  0.85603052548E+03  0.16595431420E+04  0.14217226100E+04 0.  0.
        5    1    3    3  502    0 -0.50165442207E+03  0.46982583577E+03  0.21626403483E+03  0.72054541695E+03  0.46999998093E+01 0. -1.
       -5    1    3    3    0  502  0.50165442207E+03 -0.46982583577E+03  0.63976649065E+03  0.93899772507E+03  0.46999998093E+01 0.  1.
</event>
<event>
 5   0  0.2993993E-03  0.1299474E+04  0.7818609E-02  0.9029982E-01
        2   -1    0    0  501    0  0.00000000000E+00  0.00000000000E+00  0.29071528854E+03  0.29071528855E+03  0.25500000920E-02 0. -1.
       -2   -1    0    0    0  501  0.00000000000E+00  0.00000000000E+00 -0.14521372014E+04  0.14521372014E+04  0.25500000920E-02 0.  1.
    10030    2    1    2    0    0  0.00000000000E+00  0.00000000000E+00 -0.11614219129E+04  0.17428524900E+04  0.12994744869E+04 0.  0.
        3    1    3    3  502    0 -0.16118647098E+02 -0.56283024441E+03 -0.14586327141E+03  0.58164748685E+03  0.10100000352E+00 0. -1.
       -3    1    3    3    0  502  0.16118647098E+02  0.56283024441E+03 -0.10155586415E+04  0.11612050031E+04  0.10100000352E+00 0.  1.
</event>
<event>
 5   0  0.1700207E-03  0.1441800E+04  0.7818609E-02  0.8924105E-01
       -1   -1    0    0    0  501  0.00000000000E+00  0.00000000000E+00  0.37789755954E+03  0.37789755957E+03  0.50400001928E-02 0.  1.
        1   -1    0    0  501    0  0.00000000000E+00  0.00000000000E+00 -0.13752316860E+04  0.13752316860E+04  0.50400001928E-02 0. -1.
    10030    2    1    2    0    0  0.00000000000E+00  0.00000000000E+00 -0.99733412642E+03  0.17531292455E+04  0.14417998446E+04 0.  0.
        2    1    3    3  502    0  0.57960342286E+03  0.41828123645E+03 -0.61271451129E+03  0.94144484326E+03  0.25500000920E-02 0. -1.
       -2    1    3    3    0  502 -0.57960342286E+03 -0.41828123645E+03 -0.38461961513E+03  0.81168440228E+03  0.25500000920E-02 0.  1.
</event>
<event>
 5   0  0.1560957E-03  0.1389666E+04  0.7818609E-02  0.8961333E-01
        1   -1    0    0  501    0  0.00000000000E+00  0.00000000000E+00  0.42336498702E+03  0.42336498705E+03  0.50400001928E-02 0.  1.
       -1   -1    0    0    0  501  0.00000000000E+00  0.00000000000E+00 -0.11403701332E+04  0.11403701332E+04  0.50400001928E-02 0. -1.
    10030    2    1    2    0    0  0.00000000000E+00  0.00000000000E+00 -0.71700514621E+03  0.15637351203E+04  0.13896658399E+04 0.  0.
        5    1    3    3  502    0 -0.28738019648E+03  0.36378707951E+03  0.22385854996E+03  0.51484284683E+03  0.46999998093E+01 0.  1.
       -5    1    3    3    0  502  0.28738019648E+03 -0.36378707951E+03 -0.94086369617E+03  0.10488922735E+04  0.46999998093E+01 0. -1.
</event>
<event>
 5   0  0.2917809E-03  0.1400824E+04  0.7818609E-02  0.8953223E-01
       -2   -1    0    0    0  501  0.00000000000E+00  0.00000000000E+00  0.11071660393E+04  0.11071660393E+04  0.25500000920E-02 0. -1.
        2   -1    0    0  501    0  0.00000000000E+00  0.00000000000E+00 -0.44309232677E+03  0.44309232678E+03  0.25500000920E-02 0.  1.
    10030    2    1    2    0    0  0.00000000000E+00  0.00000000000E+00  0.66407371252E+03  0.15502583661E+04  0.14008237241E+04 0.  0.
        2    1    3    3  502    0  0.41059838090E+02 -0.55582604202E+03 -0.13741865511E+03  0.57403169431E+03  0.25500000920E-02 0.  1.
       -2    1    3    3    0  502 -0.41059838090E+02  0.55582604202E+03  0.80149236763E+03  0.97622667177E+03  0.25500000920E-02 0. -1.
</event>
<event>
 5   0  0.3006737E-03  0.1429610E+04  0.7818609E-02  0.8932660E-01
        2   -1    0    0  501    0  0.00000000000E+00  0.00000000000E+00  0.24258301798E+04  0.24258301798E+04  0.25500000920E-02 0. -1.
       -2   -1    0    0    0  501  0.00000000000E+00  0.00000000000E+00 -0.21062738940E+03  0.21062738942E+03  0.25500000920E-02 0.  1.
    10030    2    1    2    0    0  0.00000000000E+00  0.00000000000E+00  0.22152027904E+04  0.26364575692E+04  0.14296101258E+04 0.  0.
        1    1    3    3  502    0 -0.62941644705E+03 -0.51630281016E+02  0.17251001046E+04  0.18370631782E+04  0.50400001928E-02 0. -1.
       -1    1    3    3    0  502  0.62941644705E+03  0.51630281016E+02  0.49010268576E+03  0.79939439099E+03  0.50400001928E-02 0.  1.
</event>
<event>
 5   0  0.1700207E-03  0.1444529E+04  0.7818609E-02  0.8922202E-01
       -1   -1    0    0    0  501  0.00000000000E+00  0.00000000000E+00  0.21347986033E+03  0.21347986039E+03  0.50400001928E-02 0.  1.
        1   -1    0    0  501    0  0.00000000000E+00  0.00000000000E+00 -0.24436310056E+04  0.24436310056E+04  0.50400001928E-02 0. -1.
    10030    2    1    2    0    0  0.00000000000E+00  0.00000000000E+00 -0.22301511453E+04  0.26571108660E+04  0.14445289971E+04 0.  0.
        2    1    3    3  502    0 -0.64203080061E+03 -0.12834554160E+03 -0.16759959948E+04  0.17993439643E+04  0.25500000920E-02 0. -1.
       -2    1    3    3    0  502  0.64203080061E+03  0.12834554160E+03 -0.55415515045E+03  0.85776690176E+03  0.25500000920E-02 0.  1.
</event>
<event>
 5   0  0.1631380E-03  0.1404726E+04  0.7818609E-02  0.8950405E-01
        1   -1    0    0  501    0  0.00000000000E+00  0.00000000000E+00  0.12821135898E+04  0.12821135898E+04  0.50400001928E-02 0.  1.
       -1   -1    0    0    0  501  0.00000000000E+00  0.00000000000E+00 -0.38476600152E+03  0.38476600155E+03  0.50400001928E-02 0. -1.
    10030    2    1    2    0    0  0.00000000000E+00  0.00000000000E+00  0.89734758830E+03  0.16668795914E+04  0.14047259085E+04 0.  0.
        3    1    3    3  502    0 -0.21583882974E+03  0.39910410595E+03 -0.18751889270E+03  0.49095196622E+03  0.10100000352E+00 0. -1.
       -3    1    3    3    0  502  0.21583882974E+03 -0.39910410595E+03  0.10848664810E+04  0.11759276252E+04  0.10100000352E+00 0.  1.
</event>
<event>
 5   0  0.2917809E-03  0.1438851E+04  0.7818609E-02  0.8926167E-01
        2   -1    0    0  501    0  0.00000000000E+00  0.00000000000E+00  0.12029787688E+04  0.12029787688E+04  0.25500000920E-02 0.  1.
       -2   -1    0    0    0  501  0.00000000000E+00  0.00000000000E+00 -0.43024261146E+03  0.43024261146E+03  0.25500000920E-02 0. -1.
    10030    2    1    2    0    0  0.00000000000E+00  0.00000000000E+00  0.77273615738E+03  0.16332213803E+04  0.14388505510E+04 0.  0.
        2    1    3    3  502    0  0.24139642274E+03 -0.55636317747E+03 -0.52898359581E+02  0.60877783683E+03  0.25500000920E-02 0. -1.
       -2    1    3    3    0  502 -0.24139642274E+03  0.55636317747E+03  0.82563451696E+03  0.10244435435E+04  0.25500000920E-02 0.  1.
</event>
<event>
 5   0  0.1586022E-03  0.1401692E+04  0.7818609E-02  0.8952595E-01
       -1   -1    0    0    0  501  0.00000000000E+00  0.00000000000E+00  0.51921737640E+03  0.51921737643E+03  0.50400001928E-02 0. -1.
        1   -1    0    0  501    0  0.00000000000E+00  0.00000000000E+00 -0.94601071702E+03  0.94601071703E+03  0.50400001928E-02 0.  1.
    10030    2    1    2    0    0  0.00000000000E+00  0.00000000000E+00 -0.42679334061E+03  0.14652280935E+04  0.14016921239E+04 0.  0.
        1    1    3    3  502    0 -0.39654407485E+03 -0.24817623843E+02 -0.81690691772E+03  0.90840521244E+03  0.50400001928E-02 0.  1.
       -1    1    3    3    0  502  0.39654407485E+03  0.24817623843E+02  0.39011357710E+03  0.55682288101E+03  0.50400001928E-02 0. -1.
</event>
<event>
 5   0  0.1586022E-03  0.1378237E+04  0.7818609E-02  0.8969724E-01
       -1   -1    0    0    0  501  0.00000000000E+00  0.00000000000E+00  0.11374290161E+04  0.11374290161E+04  0.50400001928E-02 0. -1.
        1   -1    0    0  501    0  0.00000000000E+00  0.00000000000E+00 -0.41750676638E+03  0.41750676641E+03  0.50400001928E-02 0.  1.
    10030    2    1    2    0    0  0.00000000000E+00  0.00000000000E+00  0.71992224972E+03  0.15549357825E+04  0.13782370051E+04 0.  0.
        1    1    3    3  502    0 -0.61049334872E+03  0.31957526632E+03  0.36823871790E+03  0.78130034754E+03  0.50400001928E-02 0. -1.
       -1    1    3    3    0  502  0.61049334872E+03 -0.31957526632E+03  0.35168353181E+03  0.77363543497E+03  0.50400001928E-02 0.  1.
</event>
<event>
 5   0  0.1700207E-03  0.1388270E+04  0.7818609E-02  0.8962353E-01
       -1   -1    0    0    0  501  0.00000000000E+00  0.00000000000E+00  0.34530860010E+03  0.34530860014E+03  0.50400001928E-02 0.  1.
        1   -1    0    0  501    0  0.00000000000E+00  0.00000000000E+00 -0.13953416486E+04  0.13953416486E+04  0.50400001928E-02 0. -1.
    10030    2    1    2    0    0  0.00000000000E+00  0.00000000000E+00 -0.10500330485E+04  0.17406502487E+04  0.13882701054E+04 0.  0.
        2    1    3    3  502    0 -0.12357375086E+03  0.62315673136E+03 -0.87570425112E+03  0.10818746319E+04  0.25500000920E-02 0. -1.
       -2    1    3    3    0  502  0.12357375086E+03 -0.62315673136E+03 -0.17432879737E+03  0.65877561683E+03  0.25500000920E-02 0.  1.
</event>
<event>
 5   0  0.2760807E-03  0.1383009E+04  0.7818609E-02  0.8966210E-01
        2   -1    0    0  501    0  0.00000000000E+00  0.00000000000E+00  0.19823256686E+04  0.19823256686E+04  0.25500000920E-02 0. -1.
       -2   -1    0    0    0  501  0.00000000000E+00  0.00000000000E+00 -0.24122109305E+03  0.24122109307E+03  0.25500000920E-02 0.  1.
    10030    2    1    2    0    0  0.00000000000E+00  0.00000000000E+00  0.17411045756E+04  0.22235467617E+04  0.13830094209E+04 0.  0.
        4    1    3    3  502    0  0.20874423829E+03 -0.52638578399E+03  0.15086546617E+04  0.16114268993E+04  0.12699999809E+01 0.  1.
       -4    1    3    3    0  502 -0.20874423829E+03  0.52638578399E+03  0.23244991391E+03  0.61211986243E+03  0.12699999809E+01 0. -1.
</event>
<event>
 5   0  0.2889469E-03  0.1394840E+04  0.7818609E-02  0.8957562E-01
       -2   -1    0    0    0  501  0.00000000000E+00  0.00000000000E+00  0.75419013157E+03  0.75419013158E+03  0.25500000920E-02 0.  1.
        2   -1    0    0  501    0  0.00000000000E+00  0.00000000000E+00 -0.64492290425E+03  0.64492290425E+03  0.25500000920E-02 0. -1.
    10030    2    1    2    0    0  0.00000000000E+00  0.00000000000E+00  0.10926722732E+03  0.13991130358E+04  0.13948397614E+04 0.  0.
        5    1    3    3  502    0  0.17797509841E+03 -0.49793578813E+03 -0.40146507248E+03  0.66393635175E+03  0.46999998093E+01 0. -1.
       -5    1    3    3    0  502 -0.17797509841E+03  0.49793578813E+03  0.51073229981E+03  0.73517668408E+03  0.46999998093E+01 0.  1.
</event>
<event>
 5   0  0.2760807E-03  0.1351204E+04  0.7818609E-02  0.8989917E-01
       -2   -1    0    0    0  501  0.00000000000E+00  0.00000000000E+00  0.38511731209E+03  0.38511731210E+03  0.25500000920E-02 0. -1.
        2   -1    0    0  501    0  0.00000000000E+00  0.00000000000E+00 -0.11851926577E+04  0.11851926577E+04  0.25500000920E-02 0.  1.
    10030    2    1    2    0    0  0.00000000000E+00  0.00000000000E+00 -0.80007534561E+03  0.15703099698E+04  0.13512042194E+04 0.  0.
        4    1    3    3  502    0  0.22644079453E+03 -0.46290705268E+03  0.10770374225E+03  0.52645995275E+03  0.12699999809E+01 0. -1.
       -4    1    3    3    0  502 -0.22644079453E+03  0.46290705268E+03 -0.90777908786E+03  0.10438500171E+04  0.12699999809E+01 0.  1.
</event>
<event>
 5   0  0.3006737E-03  0.1423134E+04  0.7818609E-02  0.8937241E-01
        2   -1    0    0  501    0  0.00000000000E+00  0.00000000000E+00  0.14484301344E+04  0.14484301344E+04  0.25500000920E-02 0.  1.
       -2   -1    0    0    0  501  0.00000000000E+00  0.00000000000E+00 -0.34956991369E+03  0.34956991370E+03  0.25500000920E-02 0. -1.
    10030    2    1    2    0    0  0.00000000000E+00  0.00000000000E+00  0.10988602207E+04  0.17980000481E+04  0.14231340023E+04 0.  0.
        1    1    3    3  502    0  0.66103060665E+01  0.60698738185E+03  0.80349334971E+02  0.61231804932E+03  0.50400001928E-02 0. -1.
       -1    1    3    3    0  502 -0.66103060665E+01 -0.60698738185E+03  0.10185108858E+04  0.11856819988E+04  0.50400001928E-02 0.  1.
</event>
<event>
 5   0  0.2889469E-03  0.1379901E+04  0.7818609E-02  0.8968497E-01
       -2   -1    0    0    0  501  0.00000000000E+00  0.00000000000E+00  0.25509792114E+03  0.25509792116E+03  0.25500000920E-02 0. -1.
        2   -1    0    0  501    0  0.00000000000E+00  0.00000000000E+00 -0.18660749547E+04  0.18660749547E+04  0.25500000920E-02 0.  1.
    10030    2    1    2    0    0  0.00000000000E+00  0.00000000000E+00 -0.16109770336E+04  0.21211728759E+04  0.13799012163E+04 0.  0.
        5    1    3    3  502    0  0.52512387843E+03 -0.44728641491E+03 -0.78432617993E+03  0.10445141795E+04  0.46999998093E+01 0.  1.
       -5    1    3    3    0  502 -0.52512387843E+03  0.44728641491E+03 -0.82665085366E+03  0.10766586964E+04  0.46999998093E+01 0. -1.
</event>
<event>
 5   0  0.2993993E-03  0.1402893E+04  0.7818609E-02  0.8951727E-01
       -2   -1    0    0    0  501  0.00000000000E+00  0.00000000000E+00  0.56182478708E+03  0.56182478708E+03  0.25500000920E-02 0.  1.
        2   -1    0    0  501    0  0.00000000000E+00  0.00000000000E+00 -0.87576631244E+03  0.87576631244E+03  0.25500000920E-02 0. -1.
    10030    2    1    2    0    0  0.00000000000E+00  0.00000000000E+00 -0.31394152536E+03  0.14375910995E+04  0.14028930423E+04 0.  0.
        3    1    3    3  502    0  0.16391671850E+03 -0.12249793569E+03  0.53055785632E+03  0.56865286771E+03  0.10100000352E+00 0.  1.
       -3    1    3    3    0  502 -0.16391671850E+03  0.12249793569E+03 -0.84449938168E+03  0.86893823181E+03  0.10100000352E+00 0. -1.
</event>
<event>
 5   0  0.2760807E-03  0.1384632E+04  0.7818609E-02  0.8965018E-01
        2   -1    0    0  501    0  0.00000000000E+00  0.00000000000E+00  0.18103114961E+04  0.18103114962E+04  0.25500000920E-02 0. -1.
       -2   -1    0    0    0  501  0.00000000000E+00  0.00000000000E+00 -0.26476194530E+03  0.26476194531E+03  0.25500000920E-02 0.  1.
    10030    2    1    2    0    0  0.00000000000E+00  0.00000000000E+00  0.15455495509E+04  0.20750734415E+04  0.13846322159E+04 0.  0.
        4    1    3    3  502    0 -0.39613365720E+03 -0.20810224185E+03 -0.18918274377E+02  0.44787044045E+03  0.12699999809E+01 0.  1.
       -4    1    3    3    0  502  0.39613365720E+03  0.20810224185E+03  0.15644678252E+04  0.16272030010E+04  0.12699999809E+01 0. -1.
</event>
<event>
 5   0  0.1631380E-03  0.1401211E+04  0.7818609E-02  0.8952943E-01
        1   -1    0    0  501    0  0.00000000000E+00  0.00000000000E+00  0.10133032947E+04  0.10133032947E+04  0.50400001928E-02 0. -1.
       -1   -1    0    0    0  501  0.00000000000E+00  0.00000000000E+00 -0.48440367685E+03  0.48440367688E+03  0.50400001928E-02 0.  1.
    10030    2    1    2    0    0  0.00000000000E+00  0.00000000000E+00  0.52889961785E+03  0.14977069716E+04  0.14012106790E+04 0.  0.
        3    1    3    3  502    0 -0.61584383805E+03 -0.26042813371E+03  0.48804834009E+03  0.82781497821E+03  0.10100000352E+00 0. -1.
       -3    1    3    3    0  502  0.61584383805E+03  0.26042813371E+03  0.40851277756E+02  0.66989199337E+03  0.10100000352E+00 0.  1.
</event>
<event>
 5   0  0.1700207E-03  0.1381229E+04  0.7818609E-02  0.8967519E-01
        1   -1    0    0  501    0  0.00000000000E+00  0.00000000000E+00  0.12402276581E+04  0.12402276581E+04  0.50400001928E-02 0. -1.
       -1   -1    0    0    0  501  0.00000000000E+00  0.00000000000E+00 -0.38456496542E+03  0.38456496546E+03  0.50400001928E-02 0.  1.
    10030    2    1    2    0    0  0.00000000000E+00  0.00000000000E+00  0.85566269264E+03  0.16247926235E+04  0.13812285929E+04 0.  0.
        2    1    3    3  502    0 -0.66091861850E+03 -0.19685787473E+03  0.47155671666E+03  0.83542335385E+03  0.25500000920E-02 0. -1.
       -2    1    3    3    0  502  0.66091861850E+03  0.19685787473E+03  0.38410597598E+03  0.78936926968E+03  0.25500000920E-02 0.  1.
</event>
<event>
 5   0  0.1560957E-03  0.1312674E+04  0.7818609E-02  0.9019575E-01
       -1   -1    0    0    0  501  0.00000000000E+00  0.00000000000E+00  0.25681005872E+03  0.25681005877E+03  0.50400001928E-02 0. -1.
        1   -1    0    0  501    0  0.00000000000E+00  0.00000000000E+00 -0.16774189040E+04  0.16774189040E+04  0.50400001928E-02 0.  1.
    10030    2    1    2    0    0  0.00000000000E+00  0.00000000000E+00 -0.14206088453E+04  0.19342289628E+04  0.13126736796E+04 0.  0.
        5    1    3    3  502    0 -0.12724270933E+03 -0.62808431480E+03 -0.91908139705E+03  0.11204522828E+04  0.46999998093E+01 0.  1.
       -5    1    3    3    0  502  0.12724270933E+03  0.62808431480E+03 -0.50152744820E+03  0.81377667998E+03  0.46999998093E+01 0. -1.
</event>
<event>
 5   0  0.2760807E-03  0.8450096E+03  0.7818609E-02  0.9497059E-01
        2   -1    0    0  501    0  0.00000000000E+00  0.00000000000E+00  0.15124136869E+04  0.15124136869E+04  0.25500000920E-02 0.  1.
       -2   -1    0    0    0  501  0.00000000000E+00  0.00000000000E+00 -0.11803007689E+03  0.11803007692E+03  0.25500000920E-02 0. -1.
    10030    2    1    2    0    0  0.00000000000E+00  0.00000000000E+00  0.13943836101E+04  0.16304437639E+04  0.84500959470E+03 0.  0.
        4    1    3    3  502    0 -0.57716035292E+01 -0.40214490116E+02 -0.11424883032E+03  0.12126386416E+03  0.12699999809E+01 0. -1.
       -4    1    3    3    0  502  0.57716035292E+01  0.40214490116E+02  0.15086324404E+04  0.15091798997E+04  0.12699999809E+01 0.  1.
</event>
<event>
 5   0  0.1586022E-03  0.1401515E+04  0.7818609E-02  0.8952723E-01
        1   -1    0    0  501    0  0.00000000000E+00  0.00000000000E+00  0.41351883832E+03  0.41351883835E+03  0.50400001928E-02 0. -1.
       -1   -1    0    0    0  501  0.00000000000E+00  0.00000000000E+00 -0.11875180543E+04  0.11875180543E+04  0.50400001928E-02 0.  1.
    10030    2    1    2    0    0  0.00000000000E+00  0.00000000000E+00 -0.77399921594E+03  0.16010368926E+04  0.14015150179E+04 0.  0.
        1    1    3    3  502    0 -0.57338507060E+03 -0.30259438191E+03 -0.69080612365E+03  0.94738951843E+03  0.50400001928E-02 0.  1.
       -1    1    3    3    0  502  0.57338507060E+03  0.30259438191E+03 -0.83193092290E+02  0.65364737419E+03  0.50400001928E-02 0. -1.
</event>
<event>
 5   0  0.1560957E-03  0.1401178E+04  0.7818609E-02  0.8952966E-01
       -1   -1    0    0    0  501  0.00000000000E+00  0.00000000000E+00  0.43549441980E+03  0.43549441983E+03  0.50400001928E-02 0.  1.
        1   -1    0    0  501    0  0.00000000000E+00  0.00000000000E+00 -0.11270525172E+04  0.11270525172E+04  0.50400001928E-02 0. -1.
    10030    2    1    2    0    0  0.00000000000E+00  0.00000000000E+00 -0.69155809737E+03  0.15625469370E+04  0.14011781929E+04 0.  0.
        5    1    3    3  502    0  0.43799530863E+03  0.23626069974E+03 -0.89566353346E+03  0.10246434813E+04  0.46999998093E+01 0. -1.
       -5    1    3    3    0  502 -0.43799530863E+03 -0.23626069974E+03  0.20410543609E+03  0.53790345571E+03  0.46999998093E+01 0.  1.
</event>
<event>
 5   0  0.1586022E-03  0.1419110E+04  0.7818609E-02  0.8940101E-01
        1   -1    0    0  501    0  0.00000000000E+00  0.00000000000E+00  0.16610986785E+04  0.16610986785E+04  0.50400001928E-02 0.  1.
       -1   -1    0    0    0  501  0.00000000000E+00  0.00000000000E+00 -0.30309359209E+03  0.30309359214E+03  0.50400001928E-02 0. -1.
    10030    2    1    2    0    0  0.00000000000E+00  0.00000000000E+00  0.13580050864E+04  0.19641922707E+04  0.14191100949E+04 0.  0.
        1    1    3    3  502    0  0.54082091159E+03  0.14301003984E+03  0.74847061126E+02  0.56439455391E+03  0.50400001928E-02 0. -1.
       -1    1    3    3    0  502 -0.54082091159E+03 -0.14301003984E+03  0.12831580253E+04  0.13997977168E+04  0.50400001928E-02 0.  1.
</event>
<event>
 5   0  0.1700207E-03  0.1330032E+04  0.7818609E-02  0.9006083E-01
        1   -1    0    0  501    0  0.00000000000E+00  0.00000000000E+00  0.17638897178E+04  0.17638897179E+04  0.50400001928E-02 0. -1.
       -1   -1    0    0    0  501  0.00000000000E+00  0.00000000000E+00 -0.25072204093E+03  0.25072204099E+03  0.50400001928E-02 0.  1.
    10030    2    1    2    0    0  0.00000000000E+00  0.00000000000E+00  0.15131676769E+04  0.20146117588E+04  0.13300316238E+04 0.  0.
        2    1    3    3  502    0 -0.45833983488E+03 -0.46871700400E+03  0.92576406612E+03  0.11343765425E+04  0.25500000920E-02 0.  1.
       -2    1    3    3    0  502  0.45833983488E+03  0.46871700400E+03  0.58740361079E+03  0.88023521632E+03  0.25500000920E-02 0. -1.
</event>
<event>
 5   0  0.2889469E-03  0.1403120E+04  0.7818609E-02  0.8951563E-01
        2   -1    0    0  501    0  0.00000000000E+00  0.00000000000E+00  0.55850666879E+03  0.55850666880E+03  0.25500000920E-02 0. -1.
       -2   -1    0    0    0  501  0.00000000000E+00  0.00000000000E+00 -0.88125466278E+03  0.88125466278E+03  0.25500000920E-02 0.  1.
    10030    2    1    2    0    0  0.00000000000E+00  0.00000000000E+00 -0.32274799398E+03  0.14397613316E+04  0.14031202458E+04 0.  0.
        5    1    3    3  502    0  0.19507970339E+03  0.54774089621E+03 -0.56416568211E+03  0.81017355359E+03  0.46999998093E+01 0.  1.
       -5    1    3    3    0  502 -0.19507970339E+03 -0.54774089621E+03  0.24141768813E+03  0.62958777800E+03  0.46999998093E+01 0. -1.
</event>
<event>
 5   0  0.2760807E-03  0.1457849E+04  0.7818609E-02  0.8912977E-01
        2   -1    0    0  501    0  0.00000000000E+00  0.00000000000E+00  0.10426724186E+04  0.10426724186E+04  0.25500000920E-02 0.  1.
       -2   -1    0    0    0  501  0.00000000000E+00  0.00000000000E+00 -0.50958564033E+03  0.50958564034E+03  0.25500000920E-02 0. -1.
    10030    2    1    2    0    0  0.00000000000E+00  0.00000000000E+00  0.53308677828E+03  0.15522580590E+04  0.14578489525E+04 0.  0.
        4    1    3    3  502    0  0.25297793840E+03 -0.55093206646E+03  0.69748196184E+03  0.92412481795E+03  0.12699999809E+01 0.  1.
       -4    1    3    3    0  502 -0.25297793840E+03  0.55093206646E+03 -0.16439518356E+03  0.62813324100E+03  0.12699999809E+01 0. -1.
</event>
<event>
 5   0  0.1631380E-03  0.1391337E+04  0.7818609E-02  0.8960113E-01
       -1   -1    0    0    0  501  0.00000000000E+00  0.00000000000E+00  0.36086316344E+03  0.36086316347E+03  0.50400001928E-02 0. -1.
        1   -1    0    0  501    0  0.00000000000E+00  0.00000000000E+00 -0.13411034778E+04  0.13411034778E+04  0.50400001928E-02 0.  1.
    10030    2    1    2    0    0  0.00000000000E+00  0.00000000000E+00 -0.98024031440E+03  0.17019666413E+04  0.13913372611E+04 0.  0.
        3    1    3    3  502    0  0.64267920502E+03 -0.33969538355E+02 -0.16702132919E+03  0.66489595028E+03  0.10100000352E+00 0. -1.
       -3    1    3    3    0  502 -0.64267920502E+03  0.33969538355E+02 -0.81321898522E+03  0.10370706910E+04  0.10100000352E+00 0.  1.
</event>
<event>
 5   0  0.1700207E-03  0.1402890E+04  0.7818609E-02  0.8951730E-01
       -1   -1    0    0    0  501  0.00000000000E+00  0.00000000000E+00  0.82915815087E+03  0.82915815089E+03  0.50400001928E-02 0.  1.
        1   -1    0    0  501    0  0.00000000000E+00  0.00000000000E+00 -0.59340290582E+03  0.59340290584E+03  0.50400001928E-02 0. -1.
    10030    2    1    2    0    0  0.00000000000E+00  0.00000000000E+00  0.23575524506E+03  0.14225610567E+04  0.14028896694E+04 0.  0.
        2    1    3    3  502    0 -0.26670119325E+03 -0.31566952000E+03 -0.45685741162E+03  0.61603203398E+03  0.25500000920E-02 0. -1.
       -2    1    3    3    0  502  0.26670119325E+03  0.31566952000E+03  0.69261265667E+03  0.80652902274E+03  0.25500000920E-02 0.  1.
</event>
<event>
 5   0  0.2760807E-03  0.1397844E+04  0.7818609E-02  0.8955381E-01
        2   -1    0    0  501    0  0.00000000000E+00  0.00000000000E+00  0.15706199658E+04  0.15706199658E+04  0.25500000920E-02 0. -1.
       -2   -1    0    0    0  501  0.00000000000E+00  0.00000000000E+00 -0.31101860052E+03  0.31101860053E+03  0.25500000920E-02 0.  1.
    10030    2    1    2    0    0  0.00000000000E+00  0.00000000000E+00  0.12596013653E+04  0.18816385663E+04  0.13978440882E+04 0.  0.
        4    1    3    3  502    0  0.32117422131E+03 -0.21111533451E+03  0.14155911868E+04  0.14668410227E+04  0.12699999809E+01 0. -1.
       -4    1    3    3    0  502 -0.32117422131E+03  0.21111533451E+03 -0.15598982149E+03  0.41479754363E+03  0.12699999809E+01 0.  1.
</event>
<event>
 5   0  0.1586022E-03  0.1364320E+04  0.7818609E-02  0.8980058E-01
       -1   -1    0    0    0  501  0.00000000000E+00  0.00000000000E+00  0.55834593705E+03  0.55834593707E+03  0.50400001928E-02 0.  1.
        1   -1    0    0  501    0  0.00000000000E+00  0.00000000000E+00 -0.83343056698E+03  0.83343056699E+03  0.50400001928E-02 0. -1.
    10030    2    1    2    0    0  0.00000000000E+00  0.00000000000E+00 -0.27508462993E+03  0.13917765041E+04  0.13643204476E+04 0.  0.
        1    1    3    3  502    0 -0.18024727116E+03 -0.25351544085E+03 -0.75687073016E+03  0.81829851503E+03  0.50400001928E-02 0. -1.
       -1    1    3    3    0  502  0.18024727116E+03  0.25351544085E+03  0.48178610023E+03  0.57347798903E+03  0.50400001928E-02 0.  1.
</event>
<event>
 5   0  0.2760807E-03  0.1401270E+04  0.7818609E-02  0.8952900E-01
       -2   -1    0    0    0  501  0.00000000000E+00  0.00000000000E+00  0.66989824057E+03  0.66989824058E+03  0.25500000920E-02 0. -1.
        2   -1    0    0  501    0  0.00000000000E+00  0.00000000000E+00 -0.73278158587E+03  0.73278158588E+03  0.25500000920E-02 0.  1.
    10030    2    1    2    0    0  0.00000000000E+00  0.00000000000E+00 -0.62883345301E+02  0.14026798265E+04  0.14012695602E+04 0.  0.
        4    1    3    3  502    0 -0.24683690762E+02  0.69972355188E+03 -0.56252421744E+01  0.70018254041E+03  0.12699999809E+01 0. -1.
       -4    1    3    3    0  502  0.24683690762E+02 -0.69972355188E+03 -0.57258103126E+02  0.70249728605E+03  0.12699999809E+01 0.  1.
</event>
<event>
 5   0  0.1586022E-03  0.1035022E+04  0.7818609E-02  0.9270946E-01
        1   -1    0    0  501    0  0.00000000000E+00  0.00000000000E+00  0.99149830991E+03  0.99149830993E+03  0.50400001928E-02 0.  1.
       -1   -1    0    0    0  501  0.00000000000E+00  0.00000000000E+00 -0.27011402038E+03  0.27011402042E+03  0.50400001928E-02 0. -1.
    10030    2    1    2    0    0  0.00000000000E+00  0.00000000000E+00  0.72138428954E+03  0.12616123304E+04  0.10350219219E+04 0.  0.
        1    1    3    3  502    0  0.35135449190E+03 -0.30386348598E+03  0.82642415328E+02  0.47181857311E+03  0.50400001928E-02 0. -1.
       -1    1    3    3    0  502 -0.35135449190E+03  0.30386348598E+03  0.63874187421E+03  0.78979375725E+03  0.50400001928E-02 0.  1.
</event>
<event>
 5   0  0.1586022E-03  0.1421033E+04  0.7818609E-02  0.8938733E-01
        1   -1    0    0  501    0  0.00000000000E+00  0.00000000000E+00  0.13408663807E+04  0.13408663807E+04  0.50400001928E-02 0. -1.
       -1   -1    0    0    0  501  0.00000000000E+00  0.00000000000E+00 -0.37649802496E+03  0.37649802500E+03  0.50400001928E-02 0.  1.
    10030    2    1    2    0    0  0.00000000000E+00  0.00000000000E+00  0.96436835571E+03  0.17173644057E+04  0.14210327851E+04 0.  0.
        1    1    3    3  502    0  0.68576443786E+03  0.10094770787E+03  0.29352051420E+03  0.75274005888E+03  0.50400001928E-02 0. -1.
       -1    1    3    3    0  502 -0.68576443786E+03 -0.10094770787E+03  0.67084784151E+03  0.96462434680E+03  0.50400001928E-02 0.  1.
</event>
<event>
 5   0  0.2993993E-03  0.1399240E+04  0.7818609E-02  0.8954369E-01
        2   -1    0    0  501    0  0.00000000000E+00  0.00000000000E+00  0.54176888585E+03  0.54176888585E+03  0.25500000920E-02 0. -1.
       -2   -1    0    0    0  501  0.00000000000E+00  0.00000000000E+00 -0.90346325181E+03  0.90346325181E+03  0.25500000920E-02 0.  1.
    10030    2    1    2    0    0  0.00000000000E+00  0.00000000000E+00 -0.36169436596E+03  0.14452321377E+04  0.13992401929E+04 0.  0.
        3    1    3    3  502    0 -0.36593357959E+03  0.41217239577E+03 -0.62591052206E+03  0.83400087550E+03  0.10100000352E+00 0.  1.
       -3    1    3    3    0  502  0.36593357959E+03 -0.41217239577E+03  0.26421615610E+03  0.61123126216E+03  0.10100000352E+00 0. -1.
</event>
<event>
 5   0  0.1560957E-03  0.1469890E+04  0.7818609E-02  0.8904726E-01
        1   -1    0    0  501    0  0.00000000000E+00  0.00000000000E+00  0.28297151685E+04  0.28297151685E+04  0.50400001928E-02 0.  1.
       -1   -1    0    0    0  501  0.00000000000E+00  0.00000000000E+00 -0.19088289158E+03  0.19088289165E+03  0.50400001928E-02 0. -1.
    10030    2    1    2    0    0  0.00000000000E+00  0.00000000000E+00  0.26388322769E+04  0.30205980602E+04  0.14698900827E+04 0.  0.
        5    1    3    3  502    0 -0.14967451782E+03 -0.21355040441E+03 -0.92576352206E+02  0.27676471504E+03  0.46999998093E+01 0. -1.
       -5    1    3    3    0  502  0.14967451782E+03  0.21355040441E+03  0.27314086291E+04  0.27438333451E+04  0.46999998093E+01 0.  1.
</event>
<event>
 5   0  0.2993993E-03  0.1387126E+04  0.7818609E-02  0.8963190E-01
        2   -1    0    0  501    0  0.00000000000E+00  0.00000000000E+00  0.33925563499E+03  0.33925563500E+03  0.25500000920E-02 0. -1.
       -2   -1    0    0    0  501  0.00000000000E+00  0.00000000000E+00 -0.14178981093E+04  0.14178981093E+04  0.25500000920E-02 0.  1.
    10030    2    1    2    0    0  0.00000000000E+00  0.00000000000E+00 -0.10786424743E+04  0.17571537443E+04  0.13871264159E+04 0.  0.
        3    1    3    3  502    0  0.45936364344E+03  0.10915761766E+03 -0.11828787449E+04  0.12736296470E+04  0.10100000352E+00 0.  1.
       -3    1    3    3    0  502 -0.45936364344E+03 -0.10915761766E+03  0.10423627054E+03  0.48352409733E+03  0.10100000352E+00 0. -1.
</event>
<event>
 5   0  0.2760807E-03  0.1449145E+04  0.7818609E-02  0.8918994E-01
        2   -1    0    0  501    0  0.00000000000E+00  0.00000000000E+00  0.15451109376E+04  0.15451109376E+04  0.25500000920E-02 0. -1.
       -2   -1    0    0    0  501  0.00000000000E+00  0.00000000000E+00 -0.33978469759E+03  0.33978469760E+03  0.25500000920E-02 0.  1.
    10030    2    1    2    0    0  0.00000000000E+00  0.00000000000E+00  0.12053262400E+04  0.18848956352E+04  0.14491446480E+04 0.  0.
        4    1    3    3  502    0 -0.62363331272E+03 -0.66673028676E+02  0.13074254566E+03  0.64067076383E+03  0.12699999809E+01 0.  1.
       -4    1    3    3    0  502  0.62363331272E+03  0.66673028676E+02  0.10745836943E+04  0.12442248713E+04  0.12699999809E+01 0. -1.
</event>
<event>
 5   0  0.2993993E-03  0.1417447E+04  0.7818609E-02  0.8941285E-01
       -2   -1    0    0    0  501  0.00000000000E+00  0.00000000000E+00  0.66967524325E+03  0.66967524325E+03  0.25500000920E-02 0.  1.
        2   -1    0    0  501    0  0.00000000000E+00  0.00000000000E+00 -0.75004894192E+03  0.75004894192E+03  0.25500000920E-02 0. -1.
    10030    2    1    2    0    0  0.00000000000E+00  0.00000000000E+00 -0.80373698673E+02  0.14197241852E+04  0.14174472937E+04 0.  0.
        3    1    3    3  502    0  0.61731232826E+03  0.31707895809E+03  0.10383432386E+03  0.70170873823E+03  0.10100000352E+00 0. -1.
       -3    1    3    3    0  502 -0.61731232826E+03 -0.31707895809E+03 -0.18420802253E+03  0.71801544695E+03  0.10100000352E+00 0.  1.
</event>
<event>
 5   0  0.3006737E-03  0.1424413E+04  0.7818609E-02  0.8936334E-01
        2   -1    0    0  501    0  0.00000000000E+00  0.00000000000E+00  0.65274548810E+03  0.65274548810E+03  0.25500000920E-02 0. -1.
       -2   -1    0    0    0  501  0.00000000000E+00  0.00000000000E+00 -0.77708388425E+03  0.77708388425E+03  0.25500000920E-02 0.  1.
    10030    2    1    2    0    0  0.00000000000E+00  0.00000000000E+00 -0.12433839615E+03  0.14298293724E+04  0.14244128605E+04 0.  0.
        1    1    3    3  502    0 -0.65198362008E+03 -0.22940739144E+03  0.11032021944E+03  0.69991495408E+03  0.50400001928E-02 0. -1.
       -1    1    3    3    0  502  0.65198362008E+03  0.22940739144E+03 -0.23465861559E+03  0.72991441827E+03  0.50400001928E-02 0.  1.
</event>
<event>
 5   0  0.1700207E-03  0.1406195E+04  0.7818609E-02  0.8949346E-01
        1   -1    0    0  501    0  0.00000000000E+00  0.00000000000E+00  0.71992619874E+03  0.71992619875E+03  0.50400001928E-02 0.  1.
       -1   -1    0    0    0  501  0.00000000000E+00  0.00000000000E+00 -0.68666260070E+03  0.68666260072E+03  0.50400001928E-02 0. -1.
    10030    2    1    2    0    0  0.00000000000E+00  0.00000000000E+00  0.33263598032E+02  0.14065887995E+04  0.14061954288E+04 0.  0.
        2    1    3    3  502    0 -0.48692226844E+03  0.50016347707E+03  0.10085509577E+03  0.70528614735E+03  0.25500000920E-02 0. -1.
       -2    1    3    3    0  502  0.48692226844E+03 -0.50016347707E+03 -0.67591497736E+02  0.70130265212E+03  0.25500000920E-02 0.  1.
</event>
<event>
 5   0  0.1644571E-03  0.1322517E+04  0.7818609E-02  0.9011897E-01
       -1   -1    0    0    0  501  0.00000000000E+00  0.00000000000E+00  0.88855515846E+03  0.88855515848E+03  0.50400001928E-02 0. -1.
        1   -1    0    0  501    0  0.00000000000E+00  0.00000000000E+00 -0.49210513583E+03  0.49210513586E+03  0.50400001928E-02 0.  1.
    10030    2    1    2    0    0  0.00000000000E+00  0.00000000000E+00  0.39645002263E+03  0.13806602943E+04  0.13225166267E+04 0.  0.
        4    1    3    3  502    0 -0.26052841060E+03  0.40029740173E+02  0.83133887268E+03  0.87212577474E+03  0.12699999809E+01 0. -1.
       -4    1    3    3    0  502  0.26052841060E+03 -0.40029740173E+02 -0.43488885005E+03  0.50853451960E+03  0.12699999809E+01 0.  1.
</event>
<event>
 5   0  0.2889469E-03  0.1306160E+04  0.7818609E-02  0.9024695E-01
       -2   -1    0    0    0  501  0.00000000000E+00  0.00000000000E+00  0.25391437762E+03  0.25391437763E+03  0.25500000920E-02 0.  1.
        2   -1    0    0  501    0  0.00000000000E+00  0.00000000000E+00 -0.16797529755E+04  0.16797529755E+04  0.25500000920E-02 0. -1.
    10030    2    1    2    0    0  0.00000000000E+00  0.00000000000E+00 -0.14258385979E+04  0.19336673531E+04  0.13061599157E+04 0.  0.
        5    1    3    3  502    0 -0.48237914759E+03 -0.43863988446E+03 -0.76824729248E+03  0.10076311739E+04  0.46999998093E+01 0. -1.
       -5    1    3    3    0  502  0.48237914759E+03  0.43863988446E+03 -0.65759130540E+03  0.92603617921E+03  0.46999998093E+01 0.  1.
</event>
<event>
 5   0  0.1586022E-03  0.1418646E+04  0.7818609E-02  0.8940431E-01
        1   -1    0    0  501    0  0.00000000000E+00  0.00000000000E+00  0.96716662985E+03  0.96716662986E+03  0.50400001928E-02 0. -1.
       -1   -1    0    0    0  501  0.00000000000E+00  0.00000000000E+00 -0.52021996430E+03  0.52021996432E+03  0.50400001928E-02 0.  1.
    10030    2    1    2    0    0  0.00000000000E+00  0.00000000000E+00  0.44694666555E+03  0.14873865942E+04  0.14186463825E+04 0.  0.
        1    1    3    3  502    0  0.35210875418E+03 -0.50225636387E+03 -0.15001410689E+03  0.63146358732E+03  0.50400001928E-02 0.  1.
       -1    1    3    3    0  502 -0.35210875418E+03  0.50225636387E+03  0.59696077244E+03  0.85592300686E+03  0.50400001928E-02 0. -1.
</event>
<event>
 5   0  0.1644571E-03  0.1378540E+04  0.7818609E-02  0.8969500E-01
        1   -1    0    0  501    0  0.00000000000E+00  0.00000000000E+00  0.81926290599E+03  0.81926290600E+03  0.50400001928E-02 0. -1.
       -1   -1    0    0    0  501  0.00000000000E+00  0.00000000000E+00 -0.57990335686E+03  0.57990335688E+03  0.50400001928E-02 0.  1.
    10030    2    1    2    0    0  0.00000000000E+00  0.00000000000E+00  0.23935954913E+03  0.13991662629E+04  0.13785402560E+04 0.  0.
        4    1    3    3  502    0 -0.53235385440E+03  0.23862321856E+03  0.49225528639E+03  0.76332073639E+03  0.12699999809E+01 0.  1.
       -4    1    3    3    0  502  0.53235385440E+03 -0.23862321856E+03 -0.25289573726E+03  0.63584552649E+03  0.12699999809E+01 0. -1.
</event>
<event>
 5   0  0.1560957E-03  0.1395028E+04  0.7818609E-02  0.8957425E-01
        1   -1    0    0  501    0  0.00000000000E+00  0.00000000000E+00  0.73288087001E+03  0.73288087002E+03  0.50400001928E-02 0.  1.
       -1   -1    0    0    0  501  0.00000000000E+00  0.00000000000E+00 -0.66385430543E+03  0.66385430545E+03  0.50400001928E-02 0. -1.
    10030    2    1    2    0    0  0.00000000000E+00  0.00000000000E+00  0.69026564573E+02  0.13967351755E+04  0.13950284885E+04 0.  0.
        5    1    3    3  502    0 -0.19216216390E+03 -0.35998877156E+03  0.60087821982E+03  0.72635730735E+03  0.46999998093E+01 0.  1.
       -5    1    3    3    0  502  0.19216216390E+03  0.35998877156E+03 -0.53185165525E+03  0.67037786813E+03  0.46999998093E+01 0. -1.
</event>
<event>
 5   0  0.2760807E-03  0.1403020E+04  0.7818609E-02  0.8951636E-01
       -2   -1    0    0    0  501  0.00000000000E+00  0.00000000000E+00  0.85262628538E+03  0.85262628538E+03  0.25500000920E-02 0. -1.
        2   -1    0    0  501    0  0.00000000000E+00  0.00000000000E+00 -0.57717669154E+03  0.57717669154E+03  0.25500000920E-02 0.  1.
    10030    2    1    2    0    0  0.00000000000E+00  0.00000000000E+00  0.27544959384E+03  0.14298029769E+04  0.14030196271E+04 0.  0.
        4    1    3    3  502    0 -0.47805693186E+02 -0.65382196440E+03 -0.11673329198E+03  0.66588048461E+03  0.12699999809E+01 0.  1.
       -4    1    3    3    0  502  0.47805693186E+02  0.65382196440E+03  0.39218288582E+03  0.76392249231E+03  0.12699999809E+01 0. -1.
</event>
<event>
 5   0  0.1586022E-03  0.1418796E+04  0.7818609E-02  0.8940324E-01
        1   -1    0    0  501    0  0.00000000000E+00  0.00000000000E+00  0.78867082297E+03  0.78867082299E+03  0.50400001928E-02 0.  1.
       -1   -1    0    0    0  501  0.00000000000E+00  0.00000000000E+00 -0.63809356521E+03  0.63809356523E+03  0.50400001928E-02 0. -1.
    10030    2    1    2    0    0  0.00000000000E+00  0.00000000000E+00  0.15057725776E+03  0.14267643882E+04  0.14187963592E+04 0.  0.
        1    1    3    3  502    0 -0.43434288321E+03  0.44385878385E+03 -0.26953859072E+03  0.67698996456E+03  0.50400001928E-02 0. -1.
       -1    1    3    3    0  502  0.43434288321E+03 -0.44385878385E+03  0.42011584849E+03  0.74977442366E+03  0.50400001928E-02 0.  1.
</event>
<event>
 5   0  0.2917809E-03  0.1323030E+04  0.7818609E-02  0.9011499E-01
        2   -1    0    0  501    0  0.00000000000E+00  0.00000000000E+00  0.17907311618E+03  0.17907311620E+03  0.25500000920E-02 0. -1.
       -2   -1    0    0    0  501  0.00000000000E+00  0.00000000000E+00 -0.24437057471E+04  0.24437057471E+04  0.25500000920E-02 0.  1.
    10030    2    1    2    0    0  0.00000000000E+00  0.00000000000E+00 -0.22646326310E+04  0.26227788633E+04  0.13230298609E+04 0.  0.
        2    1    3    3  502    0 -0.15206310866E+03 -0.40879353144E+03 -0.21182838474E+04  0.21627209248E+04  0.25500000920E-02 0.  1.
       -2    1    3    3    0  502  0.15206310866E+03  0.40879353144E+03 -0.14634878355E+03  0.46005793855E+03  0.25500000920E-02 0. -1.
</event>
<event>
 5   0  0.2889469E-03  0.1373637E+04  0.7818609E-02  0.8973126E-01
       -2   -1    0    0    0  501  0.00000000000E+00  0.00000000000E+00  0.15505340387E+04  0.15505340387E+04  0.25500000920E-02 0. -1.
        2   -1    0    0  501    0  0.00000000000E+00  0.00000000000E+00 -0.30423040744E+03  0.30423040746E+03  0.25500000920E-02 0.  1.
    10030    2    1    2    0    0  0.00000000000E+00  0.00000000000E+00  0.12463036312E+04  0.18547644461E+04  0.13736369278E+04 0.  0.
        5    1    3    3  502    0  0.30194117261E+03  0.82846531533E+02  0.14485401027E+04  0.14819995069E+04  0.46999998093E+01 0. -1.
       -5    1    3    3    0  502 -0.30194117261E+03 -0.82846531533E+02 -0.20223647145E+03  0.37276493919E+03  0.46999998093E+01 0.  1.
</event>
<event>
 5   0  0.1631380E-03  0.1391782E+04  0.7818609E-02  0.8959789E-01
        1   -1    0    0  501    0  0.00000000000E+00  0.00000000000E+00  0.10962319843E+04  0.10962319843E+04  0.50400001928E-02 0. -1.
       -1   -1    0    0    0  501  0.00000000000E+00  0.00000000000E+00 -0.44175339871E+03  0.44175339874E+03  0.50400001928E-02 0.  1.
    10030    2    1    2    0    0  0.00000000000E+00  0.00000000000E+00  0.65447858560E+03  0.15379853831E+04  0.13917818865E+04 0.  0.
        3    1    3    3  502    0  0.30218555839E+03 -0.58767471541E+03  0.86180507537E+02  0.66641186432E+03  0.10100000352E+00 0.  1.
       -3    1    3    3    0  502 -0.30218555839E+03  0.58767471541E+03  0.56829807806E+03  0.87157351873E+03  0.10100000352E+00 0. -1.
</event>
<event>
 5   0  0.1104538E-03  0.1399550E+04  0.7818609E-02  0.8954145E-01
        3   -1    0    0  501    0  0.00000000000E+00  0.00000000000E+00  0.38154745792E+03  0.38154747129E+03  0.10100000352E+00 0.  1.
       -3   -1    0    0    0  501  0.00000000000E+00  0.00000000000E+00 -0.12834177064E+04  0.12834177104E+04  0.10100000352E+00 0. -1.
    10030    2    1    2    0    0  0.00000000000E+00  0.00000000000E+00 -0.90187024851E+03  0.16649651817E+04  0.13995496101E+04 0.  0.
        5    1    3    3  502    0  0.20873514047E+03 -0.51822418337E+03  0.50321475516E+02  0.56096435180E+03  0.46999998093E+01 0.  1.
       -5    1    3    3    0  502 -0.20873514047E+03  0.51822418337E+03 -0.95219172403E+03  0.11040008299E+04  0.46999998093E+01 0. -1.
</event>
<event>
 5   0  0.1560957E-03  0.1408351E+04  0.7818609E-02  0.8947796E-01
       -1   -1    0    0    0  501  0.00000000000E+00  0.00000000000E+00  0.43030410864E+03  0.43030410866E+03  0.50400001928E-02 0.  1.
        1   -1    0    0  501    0  0.00000000000E+00  0.00000000000E+00 -0.11523544065E+04  0.11523544065E+04  0.50400001928E-02 0. -1.
    10030    2    1    2    0    0  0.00000000000E+00  0.00000000000E+00 -0.72205029784E+03  0.15826585152E+04  0.14083505753E+04 0.  0.
        5    1    3    3  502    0 -0.20913488839E+03  0.66273576946E+03 -0.48858460429E+03  0.84952522459E+03  0.46999998093E+01 0. -1.
       -5    1    3    3    0  502  0.20913488839E+03 -0.66273576946E+03 -0.23346569355E+03  0.73313329056E+03  0.46999998093E+01 0.  1.
</event>
<event>
 5   0  0.2917809E-03  0.1390414E+04  0.7818609E-02  0.8960787E-01
       -2   -1    0    0    0  501  0.00000000000E+00  0.00000000000E+00  0.63900558300E+03  0.63900558301E+03  0.25500000920E-02 0. -1.
        2   -1    0    0  501    0  0.00000000000E+00  0.00000000000E+00 -0.75635112553E+03  0.75635112554E+03  0.25500000920E-02 0.  1.
    10030    2    1    2    0    0  0.00000000000E+00  0.00000000000E+00 -0.11734554253E+03  0.13953567085E+04  0.13904137398E+04 0.  0.
        2    1    3    3  502    0 -0.63191542410E+03 -0.20490602006E+03 -0.26436241503E+03  0.71497627006E+03  0.25500000920E-02 0.  1.
       -2    1    3    3    0  502  0.63191542410E+03  0.20490602006E+03  0.14701687250E+03  0.68038043848E+03  0.25500000920E-02 0. -1.
</event>
<event>
 5   0  0.1644571E-03  0.1373905E+04  0.7818609E-02  0.8972927E-01
       -1   -1    0    0    0  501  0.00000000000E+00  0.00000000000E+00  0.22166954466E+03  0.22166954472E+03  0.50400001928E-02 0. -1.
        1   -1    0    0  501    0  0.00000000000E+00  0.00000000000E+00 -0.21288625172E+04  0.21288625172E+04  0.50400001928E-02 0.  1.
    10030    2    1    2    0    0  0.00000000000E+00  0.00000000000E+00 -0.19071929725E+04  0.23505320619E+04  0.13739053605E+04 0.  0.
        4    1    3    3  502    0  0.20332018100E+03  0.17245373465E+03  0.12954619778E+03  0.29641730188E+03  0.12699999809E+01 0. -1.
       -4    1    3    3    0  502 -0.20332018100E+03 -0.17245373465E+03 -0.20367391703E+04  0.20541147600E+04  0.12699999809E+01 0.  1.
</event>
<event>
 5   0  0.2993993E-03  0.1187935E+04  0.7818609E-02  0.9123483E-01
        2   -1    0    0  501    0  0.00000000000E+00  0.00000000000E+00  0.15450689995E+04  0.15450689995E+04  0.25500000920E-02 0.  1.
       -2   -1    0    0    0  501  0.00000000000E+00  0.00000000000E+00 -0.22833781224E+03  0.22833781225E+03  0.25500000920E-02 0. -1.
    10030    2    1    2    0    0  0.00000000000E+00  0.00000000000E+00  0.13167311872E+04  0.17734068117E+04  0.11879354782E+04 0.  0.
        3    1    3    3  502    0  0.36618252851E+02  0.66854097614E+02  0.15377369351E+04  0.15396250383E+04  0.10100000352E+00 0.  1.
       -3    1    3    3    0  502 -0.36618252851E+02 -0.66854097614E+02 -0.22100574785E+03  0.23378177344E+03  0.10100000352E+00 0. -1.
</event>
<event>
 5   0  0.2889469E-03  0.1385185E+04  0.7818609E-02  0.8964613E-01
        2   -1    0    0  501    0  0.00000000000E+00  0.00000000000E+00  0.24334335400E+04  0.24334335400E+04  0.25500000920E-02 0.  1.
       -2   -1    0    0    0  501  0.00000000000E+00  0.00000000000E+00 -0.19712251834E+03  0.19712251836E+03  0.25500000920E-02 0. -1.
    10030    2    1    2    0    0  0.00000000000E+00  0.00000000000E+00  0.22363110216E+04  0.26305560583E+04  0.13851852550E+04 0.  0.
        5    1    3    3  502    0 -0.28297837637E+03  0.46256581389E+03  0.19363384241E+04  0.20108387494E+04  0.46999998093E+01 0.  1.
       -5    1    3    3    0  502  0.28297837637E+03 -0.46256581389E+03  0.29997259756E+03  0.61971730890E+03  0.46999998093E+01 0. -1.
</event>
<event>
 5   0  0.2760807E-03  0.1358087E+04  0.7818609E-02  0.8984729E-01
        2   -1    0    0  501    0  0.00000000000E+00  0.00000000000E+00  0.12297480318E+04  0.12297480318E+04  0.25500000920E-02 0.  1.
       -2   -1    0    0    0  501  0.00000000000E+00  0.00000000000E+00 -0.37495465738E+03  0.37495465739E+03  0.25500000920E-02 0. -1.
    10030    2    1    2    0    0  0.00000000000E+00  0.00000000000E+00  0.85479337439E+03  0.16047026892E+04  0.13580865244E+04 0.  0.
        4    1    3    3  502    0  0.46173899054E+03 -0.16998514198E+03  0.98035130661E+03  0.10968993305E+04  0.12699999809E+01 0.  1.
       -4    1    3    3    0  502 -0.46173899054E+03  0.16998514198E+03 -0.12555793222E+03  0.50780335871E+03  0.12699999809E+01 0. -1.
</event>
<event>
 5   0  0.1644571E-03  0.1395556E+04  0.7818609E-02  0.8957041E-01
        1   -1    0    0  501    0  0.00000000000E+00  0.00000000000E+00  0.84474129614E+03  0.84474129615E+03  0.50400001928E-02 0.  1.
       -1   -1    0    0    0  501  0.00000000000E+00  0.00000000000E+00 -0.57638272472E+03  0.57638272474E+03  0.50400001928E-02 0. -1.
    10030    2    1    2    0    0  0.00000000000E+00  0.00000000000E+00  0.26835857142E+03  0.14211240209E+04  0.13955562188E+04 0.  0.
        4    1    3    3  502    0 -0.17268380853E+03  0.23462487620E+03 -0.51149087082E+03  0.58863660614E+03  0.12699999809E+01 0. -1.
       -4    1    3    3    0  502  0.17268380853E+03 -0.23462487620E+03  0.77984944224E+03  0.83248741475E+03  0.12699999809E+01 0.  1.
</event>
<event>
 5   0  0.3006737E-03  0.1367137E+04  0.7818609E-02  0.8977956E-01
       -2   -1    0    0    0  501  0.00000000000E+00  0.00000000000E+00  0.69539070748E+03  0.69539070748E+03  0.25500000920E-02 0.  1.
        2   -1    0    0  501    0  0.00000000000E+00  0.00000000000E+00 -0.67194749283E+03  0.67194749283E+03  0.25500000920E-02 0. -1.
    10030    2    1    2    0    0  0.00000000000E+00  0.00000000000E+00  0.23443214648E+02  0.13673382003E+04  0.13671372169E+04 0.  0.
        1    1    3    3  502    0 -0.40466188245E+03  0.18040642424E+03 -0.50890109829E+03  0.67474294726E+03  0.50400001928E-02 0. -1.
       -1    1    3    3    0  502  0.40466188245E+03 -0.18040642424E+03  0.53234431293E+03  0.69259525305E+03  0.50400001928E-02 0.  1.
</event>
<event>
 5   0  0.1644571E-03  0.1441644E+04  0.7818609E-02  0.8924214E-01
        1   -1    0    0  501    0  0.00000000000E+00  0.00000000000E+00  0.10059868392E+04  0.10059868392E+04  0.50400001928E-02 0. -1.
       -1   -1    0    0    0  501  0.00000000000E+00  0.00000000000E+00 -0.51649217466E+03  0.51649217469E+03  0.50400001928E-02 0.  1.
    10030    2    1    2    0    0  0.00000000000E+00  0.00000000000E+00  0.48949466450E+03  0.15224790139E+04  0.14416439647E+04 0.  0.
        4    1    3    3  502    0  0.18008204170E+03  0.39220890324E+03  0.85446316105E+03  0.95727021891E+03  0.12699999809E+01 0. -1.
       -4    1    3    3    0  502 -0.18008204170E+03 -0.39220890324E+03 -0.36496849655E+03  0.56520879496E+03  0.12699999809E+01 0.  1.
</event>
<event>
 5   0  0.2760807E-03  0.1471124E+04  0.7818609E-02  0.8903885E-01
        2   -1    0    0  501    0  0.00000000000E+00  0.00000000000E+00  0.21383703246E+04  0.21383703246E+04  0.25500000920E-02 0. -1.
       -2   -1    0    0    0  501  0.00000000000E+00  0.00000000000E+00 -0.25302049415E+03  0.25302049416E+03  0.25500000920E-02 0.  1.
    10030    2    1    2    0    0  0.00000000000E+00  0.00000000000E+00  0.18853498305E+04  0.23913908188E+04  0.14711240821E+04 0.  0.
        4    1    3    3  502    0  0.30288990565E+02 -0.67610800236E+03  0.14110217996E+04  0.15649356491E+04  0.12699999809E+01 0. -1.
       -4    1    3    3    0  502 -0.30288990565E+02  0.67610800236E+03  0.47432803083E+03  0.82645516971E+03  0.12699999809E+01 0.  1.
</event>
<event>
 5   0  0.1586022E-03  0.1361878E+04  0.7818609E-02  0.8981885E-01
        1   -1    0    0  501    0  0.00000000000E+00  0.00000000000E+00  0.11677930679E+04  0.11677930679E+04  0.50400001928E-02 0.  1.
       -1   -1    0    0    0  501  0.00000000000E+00  0.00000000000E+00 -0.39705513517E+03  0.39705513520E+03  0.50400001928E-02 0. -1.
    10030    2    1    2    0    0  0.00000000000E+00  0.00000000000E+00  0.77073793272E+03  0.15648482031E+04  0.13618784593E+04 0.  0.
        1    1    3    3  502    0  0.75964166356E+02 -0.21428969665E+03  0.11228925976E+04  0.11456781461E+04  0.50400001928E-02 0.  1.
       -1    1    3    3    0  502 -0.75964166356E+02  0.21428969665E+03 -0.35215466488E+03  0.41917005700E+03  0.50400001928E-02 0. -1.
</event>
<event>
 5   0  0.2889469E-03  0.1262177E+04  0.7818609E-02  0.9060109E-01
       -2   -1    0    0    0  501  0.00000000000E+00  0.00000000000E+00  0.31412131562E+03  0.31412131563E+03  0.25500000920E-02 0. -1.
        2   -1    0    0  501    0  0.00000000000E+00  0.00000000000E+00 -0.12678945256E+04  0.12678945256E+04  0.25500000920E-02 0.  1.
    10030    2    1    2    0    0  0.00000000000E+00  0.00000000000E+00 -0.95377321000E+03  0.15820158413E+04  0.12621770026E+04 0.  0.
        5    1    3    3  502    0  0.14905985153E+03 -0.14350567652E+03 -0.12241477910E+04  0.12415202869E+04  0.46999998093E+01 0.  1.
       -5    1    3    3    0  502 -0.14905985153E+03  0.14350567652E+03  0.27037458098E+03  0.34049555440E+03  0.46999998093E+01 0. -1.
</event>
<event>
 5   0  0.2889469E-03  0.1417474E+04  0.7818609E-02  0.8941266E-01
        2   -1    0    0  501    0  0.00000000000E+00  0.00000000000E+00  0.19087488441E+04  0.19087488441E+04  0.25500000920E-02 0.  1.
       -2   -1    0    0    0  501  0.00000000000E+00  0.00000000000E+00 -0.26316101797E+03  0.26316101798E+03  0.25500000920E-02 0. -1.
    10030    2    1    2    0    0  0.00000000000E+00  0.00000000000E+00  0.16455878261E+04  0.21719098620E+04  0.14174742169E+04 0.  0.
        5    1    3    3  502    0  0.12942283868E+03  0.46283549136E+03  0.16209115752E+04  0.16906635939E+04  0.46999998093E+01 0. -1.
       -5    1    3    3    0  502 -0.12942283868E+03 -0.46283549136E+03  0.24676250919E+02  0.48124626813E+03  0.46999998093E+01 0.  1.
</event>
<event>
 5   0  0.2917809E-03  0.1383617E+04  0.7818609E-02  0.8965763E-01
       -2   -1    0    0    0  501  0.00000000000E+00  0.00000000000E+00  0.41214337055E+03  0.41214337056E+03  0.25500000920E-02 0. -1.
        2   -1    0    0  501    0  0.00000000000E+00  0.00000000000E+00 -0.11612444118E+04  0.11612444118E+04  0.25500000920E-02 0.  1.
    10030    2    1    2    0    0  0.00000000000E+00  0.00000000000E+00 -0.74910104124E+03  0.15733877824E+04  0.13836172678E+04 0.  0.
        2    1    3    3  502    0 -0.37265302201E+03  0.52077972789E+02 -0.10347049973E+04  0.11009981024E+04  0.25500000920E-02 0.  1.
       -2    1    3    3    0  502  0.37265302201E+03 -0.52077972789E+02  0.28560395601E+03  0.47238967999E+03  0.25500000920E-02 0. -1.
</event>
<event>
 5   0  0.2917809E-03  0.1447348E+04  0.7818609E-02  0.8920241E-01
       -2   -1    0    0    0  501  0.00000000000E+00  0.00000000000E+00  0.59660416392E+03  0.59660416393E+03  0.25500000920E-02 0. -1.
        2   -1    0    0  501    0  0.00000000000E+00  0.00000000000E+00 -0.87780805325E+03  0.87780805326E+03  0.25500000920E-02 0.  1.
    10030    2    1    2    0    0  0.00000000000E+00  0.00000000000E+00 -0.28120388933E+03  0.14744122172E+04  0.14473478362E+04 0.  0.
        2    1    3    3  502    0  0.31708354084E+03  0.51490007961E+03  0.26437410952E+03  0.65996797926E+03  0.25500000920E-02 0. -1.
       -2    1    3    3    0  502 -0.31708354084E+03 -0.51490007961E+03 -0.54557799885E+03  0.81444423793E+03  0.25500000920E-02 0.  1.
</event>
<event>
 5   0  0.3006737E-03  0.1520740E+04  0.7818609E-02  0.8870777E-01
       -2   -1    0    0    0  501  0.00000000000E+00  0.00000000000E+00  0.42605972838E+03  0.42605972838E+03  0.25500000920E-02 0.  1.
        2   -1    0    0  501    0  0.00000000000E+00  0.00000000000E+00 -0.13569987686E+04  0.13569987686E+04  0.25500000920E-02 0. -1.
    10030    2    1    2    0    0  0.00000000000E+00  0.00000000000E+00 -0.93093904025E+03  0.17830584970E+04  0.15207399867E+04 0.  0.
        1    1    3    3  502    0 -0.43553985442E+03 -0.51780607612E+03 -0.87221583044E+03  0.11038924550E+04  0.50400001928E-02 0. -1.
       -1    1    3    3    0  502  0.43553985442E+03  0.51780607612E+03 -0.58723209803E+02  0.67916604203E+03  0.50400001928E-02 0.  1.
</event>
<event>
 5   0  0.1631380E-03  0.1378429E+04  0.7818609E-02  0.8969582E-01
        1   -1    0    0  501    0  0.00000000000E+00  0.00000000000E+00  0.86898023921E+03  0.86898023923E+03  0.50400001928E-02 0.  1.
       -1   -1    0    0    0  501  0.00000000000E+00  0.00000000000E+00 -0.54663694419E+03  0.54663694421E+03  0.50400001928E-02 0. -1.
    10030    2    1    2    0    0  0.00000000000E+00  0.00000000000E+00  0.32234329502E+03  0.14156171834E+04  0.13784291096E+04 0.  0.
        3    1    3    3  502    0  0.59704812627E+03 -0.23521167680E+03  0.41940253838E+03  0.76660909034E+03  0.10100000352E+00 0.  1.
       -3    1    3    3    0  502 -0.59704812627E+03  0.23521167680E+03 -0.97059243357E+02  0.64900809310E+03  0.10100000352E+00 0. -1.
</event>
<event>
 5   0  0.1631380E-03  0.1414445E+04  0.7818609E-02  0.8943428E-01
       -1   -1    0    0    0  501  0.00000000000E+00  0.00000000000E+00  0.32156279047E+03  0.32156279051E+03  0.50400001928E-02 0. -1.
        1   -1    0    0  501    0  0.00000000000E+00  0.00000000000E+00 -0.15554151145E+04  0.15554151145E+04  0.50400001928E-02 0.  1.
    10030    2    1    2    0    0  0.00000000000E+00  0.00000000000E+00 -0.12338523240E+04  0.18769779050E+04  0.14144449436E+04 0.  0.
        3    1    3    3  502    0 -0.55500941885E+02  0.51197784995E+03  0.26312105370E+02  0.51564911566E+03  0.10100000352E+00 0. -1.
       -3    1    3    3    0  502  0.55500941885E+02 -0.51197784995E+03 -0.12601644294E+04  0.13613287893E+04  0.10100000352E+00 0.  1.
</event>
<event>
 5   0  0.1104538E-03  0.1511222E+04  0.7818609E-02  0.8877024E-01
       -3   -1    0    0    0  501  0.00000000000E+00  0.00000000000E+00  0.14573318279E+04  0.14573318314E+04  0.10100000352E+00 0. -1.
        3   -1    0    0  501    0  0.00000000000E+00  0.00000000000E+00 -0.39177639202E+03  0.39177640504E+03  0.10100000352E+00 0.  1.
    10030    2    1    2    0    0  0.00000000000E+00  0.00000000000E+00  0.10655554358E+04  0.18491082364E+04  0.15112223142E+04 0.  0.
        3    1    3    3  502    0 -0.19183285967E+03 -0.33006420991E+02 -0.36057217852E+03  0.40975794806E+03  0.10100000352E+00 0.  1.
       -3    1    3    3    0  502  0.19183285967E+03  0.33006420991E+02  0.14261276144E+04  0.14393502883E+04  0.10100000352E+00 0. -1.
</event>
<event>
 5   0  0.2993993E-03  0.1439492E+04  0.7818609E-02  0.8925718E-01
        2   -1    0    0  501    0  0.00000000000E+00  0.00000000000E+00  0.79597598396E+03  0.79597598396E+03  0.25500000920E-02 0.  1.
       -2   -1    0    0    0  501  0.00000000000E+00  0.00000000000E+00 -0.65081648820E+03  0.65081648820E+03  0.25500000920E-02 0. -1.
    10030    2    1    2    0    0  0.00000000000E+00  0.00000000000E+00  0.14515949576E+03  0.14467924722E+04  0.14394919862E+04 0.  0.
        3    1    3    3  502    0  0.30106346093E+03  0.58163766430E+03  0.37257754096E+03  0.75349559671E+03  0.10100000352E+00 0.  1.
       -3    1    3    3    0  502 -0.30106346093E+03 -0.58163766430E+03 -0.22741804520E+03  0.69329687545E+03  0.10100000352E+00 0. -1.
</event>
<event>
 5   0  0.1586022E-03  0.1405157E+04  0.7818609E-02  0.8950094E-01
        1   -1    0    0  501    0  0.00000000000E+00  0.00000000000E+00  0.12285399867E+04  0.12285399867E+04  0.50400001928E-02 0.  1.
       -1   -1    0    0    0  501  0.00000000000E+00  0.00000000000E+00 -0.40179114305E+03  0.40179114308E+03  0.50400001928E-02 0. -1.
    10030    2    1    2    0    0  0.00000000000E+00  0.00000000000E+00  0.82674884360E+03  0.16303311297E+04  0.14051569102E+04 0.  0.
        1    1    3    3  502    0 -0.46402899000E+03  0.31561022904E+02  0.10243501561E+04  0.11249943307E+04  0.50400001928E-02 0.  1.
       -1    1    3    3    0  502  0.46402899000E+03 -0.31561022904E+02 -0.19760131252E+03  0.50533679904E+03  0.50400001928E-02 0. -1.
</event>
<event>
 5   0  0.2917809E-03  0.1388515E+04  0.7818609E-02  0.8962174E-01
        2   -1    0    0  501    0  0.00000000000E+00  0.00000000000E+00  0.20370040997E+04  0.20370040997E+04  0.25500000920E-02 0.  1.
       -2   -1    0    0    0  501  0.00000000000E+00  0.00000000000E+00 -0.23661891767E+03  0.23661891768E+03  0.25500000920E-02 0. -1.
    10030    2    1    2    0    0  0.00000000000E+00  0.00000000000E+00  0.18003851821E+04  0.22736230174E+04  0.13885153300E+04 0.  0.
        2    1    3    3  502    0 -0.39451397190E+03  0.23351976064E+03  0.46484802714E+02  0.46079669001E+03  0.25500000920E-02 0. -1.
       -2    1    3    3    0  502  0.39451397190E+03 -0.23351976064E+03  0.17539003794E+04  0.18128263274E+04  0.25500000920E-02 0.  1.
</event>
<event>
 5   0  0.1644571E-03  0.1463373E+04  0.7818609E-02  0.8909182E-01
       -1   -1    0    0    0  501  0.00000000000E+00  0.00000000000E+00  0.21883129044E+03  0.21883129050E+03  0.50400001928E-02 0.  1.
        1   -1    0    0  501    0  0.00000000000E+00  0.00000000000E+00 -0.24464728522E+04  0.24464728522E+04  0.50400001928E-02 0. -1.
    10030    2    1    2    0    0  0.00000000000E+00  0.00000000000E+00 -0.22276415617E+04  0.26653041427E+04  0.14633725587E+04 0.  0.
        4    1    3    3  502    0  0.53473747817E+03  0.18895161009E+03 -0.27182346298E+03  0.62891691776E+03  0.12699999809E+01 0.  1.
       -4    1    3    3    0  502 -0.53473747817E+03 -0.18895161009E+03 -0.19558180987E+04  0.20363872249E+04  0.12699999809E+01 0. -1.
</event>
<event>
 5   0  0.1586022E-03  0.1440550E+04  0.7818609E-02  0.8924978E-01
        1   -1    0    0  501    0  0.00000000000E+00  0.00000000000E+00  0.10753401096E+04  0.10753401096E+04  0.50400001928E-02 0. -1.
       -1   -1    0    0    0  501  0.00000000000E+00  0.00000000000E+00 -0.48244829581E+03  0.48244829584E+03  0.50400001928E-02 0.  1.
    10030    2    1    2    0    0  0.00000000000E+00  0.00000000000E+00  0.59289181380E+03  0.15577884055E+04  0.14405498996E+04 0.  0.
        1    1    3    3  502    0 -0.29041617109E+03 -0.26812207459E+02 -0.41573884896E+03  0.50783780625E+03  0.50400001928E-02 0.  1.
       -1    1    3    3    0  502  0.29041617109E+03  0.26812207459E+02  0.10086306628E+04  0.10499505992E+04  0.50400001928E-02 0. -1.
</event>
<event>
 5   0  0.1700207E-03  0.1406913E+04  0.7818609E-02  0.8948830E-01
       -1   -1    0    0    0  501  0.00000000000E+00  0.00000000000E+00  0.43627975164E+03  0.43627975167E+03  0.50400001928E-02 0. -1.
        1   -1    0    0  501    0  0.00000000000E+00  0.00000000000E+00 -0.11342509557E+04  0.11342509557E+04  0.50400001928E-02 0.  1.
    10030    2    1    2    0    0  0.00000000000E+00  0.00000000000E+00 -0.69797120401E+03  0.15705307073E+04  0.14069125421E+04 0.  0.
        2    1    3    3  502    0  0.61516650281E+03  0.10633116931E+03 -0.71090412745E+03  0.94610825077E+03  0.25500000920E-02 0.  1.
       -2    1    3    3    0  502 -0.61516650281E+03 -0.10633116931E+03  0.12932923434E+02  0.62442245657E+03  0.25500000920E-02 0. -1.
</event>
<event>
 5   0  0.1631380E-03  0.1188407E+04  0.7818609E-02  0.9123064E-01
       -1   -1    0    0    0  501  0.00000000000E+00  0.00000000000E+00  0.42796370762E+03  0.42796370765E+03  0.50400001928E-02 0.  1.
        1   -1    0    0  501    0  0.00000000000E+00  0.00000000000E+00 -0.82501865985E+03  0.82501865986E+03  0.50400001928E-02 0. -1.
    10030    2    1    2    0    0  0.00000000000E+00  0.00000000000E+00 -0.39705495223E+03  0.12529823675E+04  0.11884074125E+04 0.  0.
        3    1    3    3  502    0  0.29997759845E+03  0.43506038915E+03  0.87922492732E+02  0.53571865443E+03  0.10100000352E+00 0.  1.
       -3    1    3    3    0  502 -0.29997759845E+03 -0.43506038915E+03 -0.48497744496E+03  0.71726371308E+03  0.10100000352E+00 0. -1.
</event>
<event>
 5   0  0.2760807E-03  0.1415202E+04  0.7818609E-02  0.8942888E-01
        2   -1    0    0  501    0  0.00000000000E+00  0.00000000000E+00  0.91354461086E+03  0.91354461086E+03  0.25500000920E-02 0.  1.
       -2   -1    0    0    0  501  0.00000000000E+00  0.00000000000E+00 -0.54808381715E+03  0.54808381715E+03  0.25500000920E-02 0. -1.
    10030    2    1    2    0    0  0.00000000000E+00  0.00000000000E+00  0.36546079371E+03  0.14616284280E+04  0.14152017771E+04 0.  0.
        4    1    3    3  502    0 -0.95704426834E+02  0.35741336582E+03 -0.44020962634E+03  0.57505632716E+03  0.12699999809E+01 0. -1.
       -4    1    3    3    0  502  0.95704426834E+02 -0.35741336582E+03  0.80567042005E+03  0.88657210086E+03  0.12699999809E+01 0.  1.
</event>
<event>
 5   0  0.2760807E-03  0.1308815E+04  0.7818609E-02  0.9022604E-01
       -2   -1    0    0    0  501  0.00000000000E+00  0.00000000000E+00  0.91525846830E+03  0.91525846830E+03  0.25500000920E-02 0.  1.
        2   -1    0    0  501    0  0.00000000000E+00  0.00000000000E+00 -0.46790001033E+03  0.46790001034E+03  0.25500000920E-02 0. -1.
    10030    2    1    2    0    0  0.00000000000E+00  0.00000000000E+00  0.44735845796E+03  0.13831584786E+04  0.13088154137E+04 0.  0.
        4    1    3    3  502    0  0.31541180685E+03  0.14176689757E+03  0.81081359074E+03  0.88147759641E+03  0.12699999809E+01 0.  1.
       -4    1    3    3    0  502 -0.31541180685E+03 -0.14176689757E+03 -0.36345513278E+03  0.50168088223E+03  0.12699999809E+01 0. -1.
</event>
<event>
 5   0  0.1700207E-03  0.1481669E+04  0.7818609E-02  0.8896735E-01
        1   -1    0    0  501    0  0.00000000000E+00  0.00000000000E+00  0.75395479686E+03  0.75395479688E+03  0.50400001928E-02 0.  1.
       -1   -1    0    0    0  501  0.00000000000E+00  0.00000000000E+00 -0.72794259914E+03  0.72794259916E+03  0.50400001928E-02 0. -1.
    10030    2    1    2    0    0  0.00000000000E+00  0.00000000000E+00  0.26012197721E+02  0.14818973960E+04  0.14816690784E+04 0.  0.
        2    1    3    3  502    0 -0.48517916529E+03 -0.20419530215E+03  0.53437451463E+03  0.75010043710E+03  0.25500000920E-02 0.  1.
       -2    1    3    3    0  502  0.48517916529E+03  0.20419530215E+03 -0.50836231691E+03  0.73179695894E+03  0.25500000920E-02 0. -1.
</event>
<event>
 5   0  0.2760807E-03  0.1241238E+04  0.7818609E-02  0.9077508E-01
        2   -1    0    0  501    0  0.00000000000E+00  0.00000000000E+00  0.58278722359E+03  0.58278722359E+03  0.25500000920E-02 0.  1.
       -2   -1    0    0    0  501  0.00000000000E+00  0.00000000000E+00 -0.66090639919E+03  0.66090639919E+03  0.25500000920E-02 0. -1.
    10030    2    1    2    0    0  0.00000000000E+00  0.00000000000E+00 -0.78119175597E+02  0.12436936228E+04  0.12412377781E+04 0.  0.
        4    1    3    3  502    0  0.20472126650E+03 -0.57616759352E+02  0.54513403718E+03  0.58515230437E+03  0.12699999809E+01 0.  1.
       -4    1    3    3    0  502 -0.20472126650E+03  0.57616759352E+02 -0.62325321278E+03  0.65854131841E+03  0.12699999809E+01 0. -1.
</event>
<event>
 5   0  0.3006737E-03  0.1431562E+04  0.7818609E-02  0.8931284E-01
        2   -1    0    0  501    0  0.00000000000E+00  0.00000000000E+00  0.14501091816E+04  0.14501091816E+04  0.25500000920E-02 0. -1.
       -2   -1    0    0    0  501  0.00000000000E+00  0.00000000000E+00 -0.35331319282E+03  0.35331319283E+03  0.25500000920E-02 0.  1.
    10030    2    1    2    0    0  0.00000000000E+00  0.00000000000E+00  0.10967959888E+04  0.18034223744E+04  0.14315623701E+04 0.  0.
        1    1    3    3  502    0  0.40888191402E+03  0.58709914329E+03  0.52100350513E+03  0.88505055000E+03  0.50400001928E-02 0. -1.
       -1    1    3    3    0  502 -0.40888191402E+03 -0.58709914329E+03  0.57579248366E+03  0.91837182444E+03  0.50400001928E-02 0.  1.
</event>
<event>
 5   0  0.2760807E-03  0.1380254E+04  0.7818609E-02  0.8968237E-01
        2   -1    0    0  501    0  0.00000000000E+00  0.00000000000E+00  0.45058688780E+03  0.45058688781E+03  0.25500000920E-02 0. -1.
       -2   -1    0    0    0  501  0.00000000000E+00  0.00000000000E+00 -0.10570109436E+04  0.10570109436E+04  0.25500000920E-02 0.  1.
    10030    2    1    2    0    0  0.00000000000E+00  0.00000000000E+00 -0.60642405580E+03  0.15075978314E+04  0.13802539932E+04 0.  0.
        4    1    3    3  502    0 -0.14702603206E+03 -0.66875899203E+03 -0.39728872362E+03  0.79164081903E+03  0.12699999809E+01 0.  1.
       -4    1    3    3    0  502  0.14702603206E+03  0.66875899203E+03 -0.20913533217E+03  0.71595701239E+03  0.12699999809E+01 0. -1.
</event>
<event>
 5   0  0.1631380E-03  0.1389111E+04  0.7818609E-02  0.8961738E-01
       -1   -1    0    0    0  501  0.00000000000E+00  0.00000000000E+00  0.45869364972E+03  0.45869364975E+03  0.50400001928E-02 0.  1.
        1   -1    0    0  501    0  0.00000000000E+00  0.00000000000E+00 -0.10516990306E+04  0.10516990307E+04  0.50400001928E-02 0. -1.
    10030    2    1    2    0    0  0.00000000000E+00  0.00000000000E+00 -0.59300538093E+03  0.15103926804E+04  0.13891114668E+04 0.  0.
        3    1    3    3  502    0  0.10361682760E+03 -0.29380589857E+03 -0.97146584401E+03  0.10201981422E+04  0.10100000352E+00 0. -1.
       -3    1    3    3    0  502 -0.10361682760E+03  0.29380589857E+03  0.37846046309E+03  0.49019453824E+03  0.10100000352E+00 0.  1.
</event>
<event>
 5   0  0.2889469E-03  0.1414968E+04  0.7818609E-02  0.8943055E-01
       -2   -1    0    0    0  501  0.00000000000E+00  0.00000000000E+00  0.15450244440E+04  0.15450244440E+04  0.25500000920E-02 0. -1.
        2   -1    0    0  501    0  0.00000000000E+00  0.00000000000E+00 -0.32396462273E+03  0.32396462274E+03  0.25500000920E-02 0.  1.
    10030    2    1    2    0    0  0.00000000000E+00  0.00000000000E+00  0.12210598212E+04  0.18689890667E+04  0.14149675065E+04 0.  0.
        5    1    3    3  502    0  0.64346161079E+03  0.27137801772E+03  0.76009947465E+03  0.10322122720E+04  0.46999998093E+01 0.  1.
       -5    1    3    3    0  502 -0.64346161079E+03 -0.27137801772E+03  0.46096034657E+03  0.83677679472E+03  0.46999998093E+01 0. -1.
</event>
<event>
 5   0  0.1560957E-03  0.1415258E+04  0.7818609E-02  0.8942847E-01
       -1   -1    0    0    0  501  0.00000000000E+00  0.00000000000E+00  0.30823231966E+03  0.30823231971E+03  0.50400001928E-02 0. -1.
        1   -1    0    0  501    0  0.00000000000E+00  0.00000000000E+00 -0.16245506643E+04  0.16245506643E+04  0.50400001928E-02 0.  1.
    10030    2    1    2    0    0  0.00000000000E+00  0.00000000000E+00 -0.13163183447E+04  0.19327829840E+04  0.14152583082E+04 0.  0.
        5    1    3    3  502    0  0.23887179669E+03 -0.50389581320E+03 -0.12530454190E+04  0.13715376910E+04  0.46999998093E+01 0.  1.
       -5    1    3    3    0  502 -0.23887179669E+03  0.50389581320E+03 -0.63272925652E+02  0.56124529301E+03  0.46999998093E+01 0. -1.
</event>
<event>
 5   0  0.1631380E-03  0.1370880E+04  0.7818609E-02  0.8975171E-01
        1   -1    0    0  501    0  0.00000000000E+00  0.00000000000E+00  0.16199439906E+04  0.16199439906E+04  0.50400001928E-02 0.  1.
       -1   -1    0    0    0  501  0.00000000000E+00  0.00000000000E+00 -0.29002746173E+03  0.29002746178E+03  0.50400001928E-02 0. -1.
    10030    2    1    2    0    0  0.00000000000E+00  0.00000000000E+00  0.13299165288E+04  0.19099714523E+04  0.13708803650E+04 0.  0.
        3    1    3    3  502    0  0.25112148405E+03  0.70083337442E+02  0.15481637751E+04  0.15699632985E+04  0.10100000352E+00 0.  1.
       -3    1    3    3    0  502 -0.25112148405E+03 -0.70083337442E+02 -0.21824724630E+03  0.34000815381E+03  0.10100000352E+00 0. -1.
</event>
<event>
 5   0  0.2993993E-03  0.1430213E+04  0.7818609E-02  0.8932234E-01
        2   -1    0    0  501    0  0.00000000000E+00  0.00000000000E+00  0.11359845276E+04  0.11359845276E+04  0.25500000920E-02 0.  1.
       -2   -1    0    0    0  501  0.00000000000E+00  0.00000000000E+00 -0.45016250017E+03  0.45016250018E+03  0.25500000920E-02 0. -1.
    10030    2    1    2    0    0  0.00000000000E+00  0.00000000000E+00  0.68582202742E+03  0.15861470278E+04  0.14302134597E+04 0.  0.
        3    1    3    3  502    0  0.31063108384E+03  0.56942777268E+03  0.90254381086E+01  0.64870727395E+03  0.10100000352E+00 0. -1.
       -3    1    3    3    0  502 -0.31063108384E+03 -0.56942777268E+03  0.67679658931E+03  0.93743975383E+03  0.10100000352E+00 0.  1.
</event>
<event>
 5   0  0.1586022E-03  0.1411023E+04  0.7818609E-02  0.8945878E-01
        1   -1    0    0  501    0  0.00000000000E+00  0.00000000000E+00  0.77378555125E+03  0.77378555126E+03  0.50400001928E-02 0. -1.
       -1   -1    0    0    0  501  0.00000000000E+00  0.00000000000E+00 -0.64326137984E+03  0.64326137986E+03  0.50400001928E-02 0.  1.
    10030    2    1    2    0    0  0.00000000000E+00  0.00000000000E+00  0.13052417140E+03  0.14170469311E+04  0.14110228367E+04 0.  0.
        1    1    3    3  502    0 -0.17787736067E+03 -0.45026013269E+03  0.58065072685E+03  0.75599590551E+03  0.50400001928E-02 0. -1.
       -1    1    3    3    0  502  0.17787736067E+03  0.45026013269E+03 -0.45012655545E+03  0.66105102562E+03  0.50400001928E-02 0.  1.
</event>
<event>
 5   0  0.1644571E-03  0.1378538E+04  0.7818609E-02  0.8969502E-01
       -1   -1    0    0    0  501  0.00000000000E+00  0.00000000000E+00  0.60019245603E+03  0.60019245605E+03  0.50400001928E-02 0. -1.
        1   -1    0    0  501    0  0.00000000000E+00  0.00000000000E+00 -0.79156605463E+03  0.79156605464E+03  0.50400001928E-02 0.  1.
    10030    2    1    2    0    0  0.00000000000E+00  0.00000000000E+00 -0.19137359859E+03  0.13917585107E+04  0.13785383193E+04 0.  0.
        4    1    3    3  502    0  0.61632658032E+03 -0.19737322761E+03 -0.33518682338E+03  0.72881167941E+03  0.12699999809E+01 0.  1.
       -4    1    3    3    0  502 -0.61632658032E+03  0.19737322761E+03  0.14381322479E+03  0.66294683128E+03  0.12699999809E+01 0. -1.
</event>
<event>
 5   0  0.1560957E-03  0.1491000E+04  0.7818609E-02  0.8890460E-01
       -1   -1    0    0    0  501  0.00000000000E+00  0.00000000000E+00  0.10594034352E+04  0.10594034352E+04  0.50400001928E-02 0.  1.
        1   -1    0    0  501    0  0.00000000000E+00  0.00000000000E+00 -0.52460692348E+03  0.52460692351E+03  0.50400001928E-02 0. -1.
    10030    2    1    2    0    0  0.00000000000E+00  0.00000000000E+00  0.53479651170E+03  0.15840103587E+04  0.14910001702E+04 0.  0.
        5    1    3    3  502    0  0.60008464794E+03  0.43198141444E+03  0.36840136581E+03  0.82610603644E+03  0.46999998093E+01 0. -1.
       -5    1    3    3    0  502 -0.60008464794E+03 -0.43198141444E+03  0.16639514589E+03  0.75790432226E+03  0.46999998093E+01 0.  1.
</event>
<event>
 5   0  0.1644571E-03  0.1419147E+04  0.7818609E-02  0.8940075E-01
       -1   -1    0    0    0  501  0.00000000000E+00  0.00000000000E+00  0.25636600190E+03  0.25636600195E+03  0.50400001928E-02 0.  1.
        1   -1    0    0  501    0  0.00000000000E+00  0.00000000000E+00 -0.19639668066E+04  0.19639668066E+04  0.50400001928E-02 0. -1.
    10030    2    1    2    0    0  0.00000000000E+00  0.00000000000E+00 -0.17076008047E+04  0.22203328085E+04  0.14191466705E+04 0.  0.
        4    1    3    3  502    0  0.16466867356E+03 -0.47705610682E+03 -0.73411476926E+02  0.50998937140E+03  0.12699999809E+01 0.  1.
       -4    1    3    3    0  502 -0.16466867356E+03  0.47705610682E+03 -0.16341893277E+04  0.17103434371E+04  0.12699999809E+01 0. -1.
</event>
<event>
 5   0  0.1586022E-03  0.1295090E+04  0.7818609E-02  0.9033468E-01
       -1   -1    0    0    0  501  0.00000000000E+00  0.00000000000E+00  0.36351828459E+03  0.36351828463E+03  0.50400001928E-02 0.  1.
        1   -1    0    0  501    0  0.00000000000E+00  0.00000000000E+00 -0.11534894933E+04  0.11534894933E+04  0.50400001928E-02 0. -1.
    10030    2    1    2    0    0  0.00000000000E+00  0.00000000000E+00 -0.78997120871E+03  0.15170077779E+04  0.12950899921E+04 0.  0.
        1    1    3    3  502    0 -0.18262448552E+03 -0.25176350165E+03  0.27029552458E+03  0.41206338603E+03  0.50400001928E-02 0.  1.
       -1    1    3    3    0  502  0.18262448552E+03  0.25176350165E+03 -0.10602667333E+04  0.11049443919E+04  0.50400001928E-02 0. -1.
</event>
<event>
 5   0  0.2760807E-03  0.1385246E+04  0.7818609E-02  0.8964568E-01
       -2   -1    0    0    0  501  0.00000000000E+00  0.00000000000E+00  0.11160180050E+04  0.11160180050E+04  0.25500000920E-02 0. -1.
        2   -1    0    0  501    0  0.00000000000E+00  0.00000000000E+00 -0.42985580117E+03  0.42985580117E+03  0.25500000920E-02 0.  1.
    10030    2    1    2    0    0  0.00000000000E+00  0.00000000000E+00  0.68616220382E+03  0.15458738062E+04  0.13852462794E+04 0.  0.
        4    1    3    3  502    0 -0.44655541982E+02 -0.13599010043E+03  0.10993319044E+04  0.11086115974E+04  0.12699999809E+01 0. -1.
       -4    1    3    3    0  502  0.44655541982E+02  0.13599010043E+03 -0.41316970060E+03  0.43726220879E+03  0.12699999809E+01 0.  1.
</event>
<event>
 5   0  0.1644571E-03  0.1393781E+04  0.7818609E-02  0.8958332E-01
       -1   -1    0    0    0  501  0.00000000000E+00  0.00000000000E+00  0.28871834646E+03  0.28871834650E+03  0.50400001928E-02 0. -1.
        1   -1    0    0  501    0  0.00000000000E+00  0.00000000000E+00 -0.16821122324E+04  0.16821122324E+04  0.50400001928E-02 0.  1.
    10030    2    1    2    0    0  0.00000000000E+00  0.00000000000E+00 -0.13933938859E+04  0.19708305789E+04  0.13937814209E+04 0.  0.
        4    1    3    3  502    0  0.23330234308E+03 -0.10433054766E+03 -0.16134557394E+04  0.16335715112E+04  0.12699999809E+01 0.  1.
       -4    1    3    3    0  502 -0.23330234308E+03  0.10433054766E+03  0.22006185347E+03  0.33725906765E+03  0.12699999809E+01 0. -1.
</event>
<event>
 5   0  0.1586022E-03  0.1412714E+04  0.7818609E-02  0.8944666E-01
       -1   -1    0    0    0  501  0.00000000000E+00  0.00000000000E+00  0.34164007767E+03  0.34164007771E+03  0.50400001928E-02 0. -1.
        1   -1    0    0  501    0  0.00000000000E+00  0.00000000000E+00 -0.14604274905E+04  0.14604274905E+04  0.50400001928E-02 0.  1.
    10030    2    1    2    0    0  0.00000000000E+00  0.00000000000E+00 -0.11187874128E+04  0.18020675682E+04  0.14127144953E+04 0.  0.
        1    1    3    3  502    0 -0.11916279670E+03  0.43803881320E+03 -0.12497110188E+04  0.13296072370E+04  0.50400001928E-02 0.  1.
       -1    1    3    3    0  502  0.11916279670E+03 -0.43803881320E+03  0.13092360599E+03  0.47246033127E+03  0.50400001928E-02 0. -1.
</event>
<event>
 5   0  0.1631380E-03  0.1363760E+04  0.7818609E-02  0.8980477E-01
        1   -1    0    0  501    0  0.00000000000E+00  0.00000000000E+00  0.11787062305E+04  0.11787062305E+04  0.50400001928E-02 0.  1.
       -1   -1    0    0    0  501  0.00000000000E+00  0.00000000000E+00 -0.39446645186E+03  0.39446645189E+03  0.50400001928E-02 0. -1.
    10030    2    1    2    0    0  0.00000000000E+00  0.00000000000E+00  0.78423977866E+03  0.15731726824E+04  0.13637596043E+04 0.  0.
        3    1    3    3  502    0  0.27455613129E+03 -0.32953027021E+03  0.10036010319E+04  0.10914148202E+04  0.10100000352E+00 0.  1.
       -3    1    3    3    0  502 -0.27455613129E+03  0.32953027021E+03 -0.21936125326E+03  0.48175786226E+03  0.10100000352E+00 0. -1.
</event>
<event>
 5   0  0.1631380E-03  0.1401879E+04  0.7818609E-02  0.8952460E-01
       -1   -1    0    0    0  501  0.00000000000E+00  0.00000000000E+00  0.55333990579E+03  0.55333990582E+03  0.50400001928E-02 0. -1.
        1   -1    0    0  501    0  0.00000000000E+00  0.00000000000E+00 -0.88790998022E+03  0.88790998023E+03  0.50400001928E-02 0.  1.
    10030    2    1    2    0    0  0.00000000000E+00  0.00000000000E+00 -0.33457007442E+03  0.14412498860E+04  0.14018787748E+04 0.  0.
        3    1    3    3  502    0 -0.63315926284E+03 -0.61443605231E+02  0.13534583124E+03  0.65037256475E+03  0.10100000352E+00 0. -1.
       -3    1    3    3    0  502  0.63315926284E+03  0.61443605231E+02 -0.46991590566E+03  0.79087732130E+03  0.10100000352E+00 0.  1.
</event>
<event>
 5   0  0.2760807E-03  0.1407792E+04  0.7818609E-02  0.8948198E-01
        2   -1    0    0  501    0  0.00000000000E+00  0.00000000000E+00  0.17854775182E+04  0.17854775182E+04  0.25500000920E-02 0.  1.
       -2   -1    0    0    0  501  0.00000000000E+00  0.00000000000E+00 -0.27749972954E+03  0.27749972955E+03  0.25500000920E-02 0. -1.
    10030    2    1    2    0    0  0.00000000000E+00  0.00000000000E+00  0.15079777887E+04  0.20629772478E+04  0.14077919284E+04 0.  0.
        4    1    3    3  502    0  0.24362768021E+03  0.50311626893E+03  0.12713451235E+03  0.57327587055E+03  0.12699999809E+01 0. -1.
       -4    1    3    3    0  502 -0.24362768021E+03 -0.50311626893E+03  0.13808432763E+04  0.14897013772E+04  0.12699999809E+01 0.  1.
</event>
<event>
 5   0  0.1700207E-03  0.1499947E+04  0.7818609E-02  0.8884488E-01
        1   -1    0    0  501    0  0.00000000000E+00  0.00000000000E+00  0.10079093610E+04  0.10079093610E+04  0.50400001928E-02 0. -1.
       -1   -1    0    0    0  501  0.00000000000E+00  0.00000000000E+00 -0.55804667487E+03  0.55804667489E+03  0.50400001928E-02 0.  1.
    10030    2    1    2    0    0  0.00000000000E+00  0.00000000000E+00  0.44986268613E+03  0.15659560359E+04  0.14999472891E+04 0.  0.
        2    1    3    3  502    0  0.31966503630E+03 -0.17341546726E+03  0.90969339272E+03  0.97969420152E+03  0.25500000920E-02 0. -1.
       -2    1    3    3    0  502 -0.31966503630E+03  0.17341546726E+03 -0.45983070659E+03  0.58626183438E+03  0.25500000920E-02 0.  1.
</event>
<event>
 5   0  0.1644571E-03  0.1487732E+04  0.7818609E-02  0.8892652E-01
       -1   -1    0    0    0  501  0.00000000000E+00  0.00000000000E+00  0.86380707714E+03  0.86380707715E+03  0.50400001928E-02 0.  1.
        1   -1    0    0  501    0  0.00000000000E+00  0.00000000000E+00 -0.64057912747E+03  0.64057912749E+03  0.50400001928E-02 0. -1.
    10030    2    1    2    0    0  0.00000000000E+00  0.00000000000E+00  0.22322794967E+03  0.15043862046E+04  0.14877322122E+04 0.  0.
        4    1    3    3  502    0 -0.49819687970E+03 -0.47467674490E+02  0.66812171303E+03  0.83477035608E+03  0.12699999809E+01 0.  1.
       -4    1    3    3    0  502  0.49819687970E+03  0.47467674490E+02 -0.44489376336E+03  0.66961584856E+03  0.12699999809E+01 0. -1.
</event>
<event>
 5   0  0.2760807E-03  0.1452048E+04  0.7818609E-02  0.8916982E-01
       -2   -1    0    0    0  501  0.00000000000E+00  0.00000000000E+00  0.11866796270E+04  0.11866796270E+04  0.25500000920E-02 0. -1.
        2   -1    0    0  501    0  0.00000000000E+00  0.00000000000E+00 -0.44418975914E+03  0.44418975915E+03  0.25500000920E-02 0.  1.
    10030    2    1    2    0    0  0.00000000000E+00  0.00000000000E+00  0.74248986783E+03  0.16308693861E+04  0.14520481227E+04 0.  0.
        4    1    3    3  502    0  0.51304337812E+03  0.46996373218E+03  0.13826239349E+03  0.70936416582E+03  0.12699999809E+01 0.  1.
       -4    1    3    3    0  502 -0.51304337812E+03 -0.46996373218E+03  0.60422747433E+03  0.92150522030E+03  0.12699999809E+01 0. -1.
</event>
<event>
 5   0  0.2889469E-03  0.1409027E+04  0.7818609E-02  0.8947310E-01
        2   -1    0    0  501    0  0.00000000000E+00  0.00000000000E+00  0.13670830871E+04  0.13670830871E+04  0.25500000920E-02 0. -1.
       -2   -1    0    0    0  501  0.00000000000E+00  0.00000000000E+00 -0.36306460251E+03  0.36306460252E+03  0.25500000920E-02 0.  1.
    10030    2    1    2    0    0  0.00000000000E+00  0.00000000000E+00  0.10040184846E+04  0.17301476896E+04  0.14090272923E+04 0.  0.
        5    1    3    3  502    0  0.10282397033E+03  0.26741253117E+03  0.12923006308E+04  0.13236862321E+04  0.46999998093E+01 0. -1.
       -5    1    3    3    0  502 -0.10282397033E+03 -0.26741253117E+03 -0.28828214615E+03  0.40646145757E+03  0.46999998093E+01 0.  1.
</event>
<event>
 5   0  0.1644571E-03  0.1380689E+04  0.7818609E-02  0.8967917E-01
       -1   -1    0    0    0  501  0.00000000000E+00  0.00000000000E+00  0.39480081435E+03  0.39480081439E+03  0.50400001928E-02 0. -1.
        1   -1    0    0  501    0  0.00000000000E+00  0.00000000000E+00 -0.12071285246E+04  0.12071285247E+04  0.50400001928E-02 0.  1.
    10030    2    1    2    0    0  0.00000000000E+00  0.00000000000E+00 -0.81232771029E+03  0.16019293390E+04  0.13806887044E+04 0.  0.
        4    1    3    3  502    0 -0.33265966158E+03 -0.12927725605E+03 -0.10917844635E+04  0.11486383186E+04  0.12699999809E+01 0.  1.
       -4    1    3    3    0  502  0.33265966158E+03  0.12927725605E+03  0.27945675321E+03  0.45329102041E+03  0.12699999809E+01 0. -1.
</event>
<event>
 5   0  0.2760807E-03  0.1407381E+04  0.7818609E-02  0.8948493E-01
       -2   -1    0    0    0  501  0.00000000000E+00  0.00000000000E+00  0.46136360326E+03  0.46136360326E+03  0.25500000920E-02 0.  1.
        2   -1    0    0  501    0  0.00000000000E+00  0.00000000000E+00 -0.10732966552E+04  0.10732966552E+04  0.25500000920E-02 0. -1.
    10030    2    1    2    0    0  0.00000000000E+00  0.00000000000E+00 -0.61193305194E+03  0.15346602585E+04  0.14073805629E+04 0.  0.
        4    1    3    3  502    0 -0.46869523169E+03  0.66990711324E+02  0.26170577248E+03  0.54097550763E+03  0.12699999809E+01 0.  1.
       -4    1    3    3    0  502  0.46869523169E+03 -0.66990711324E+02 -0.87363882442E+03  0.99368475083E+03  0.12699999809E+01 0. -1.
</event>
<event>
 5   0  0.2993993E-03  0.1405878E+04  0.7818609E-02  0.8949575E-01
       -2   -1    0    0    0  501  0.00000000000E+00  0.00000000000E+00  0.38079241237E+03  0.38079241237E+03  0.25500000920E-02 0. -1.
        2   -1    0    0  501    0  0.00000000000E+00  0.00000000000E+00 -0.12976180650E+04  0.12976180650E+04  0.25500000920E-02 0.  1.
    10030    2    1    2    0    0  0.00000000000E+00  0.00000000000E+00 -0.91682565260E+03  0.16784104773E+04  0.14058778230E+04 0.  0.
        3    1    3    3  502    0  0.29364473859E+02 -0.44260786947E+03  0.19260251349E+03  0.48359046397E+03  0.10100000352E+00 0. -1.
       -3    1    3    3    0  502 -0.29364473859E+02  0.44260786947E+03 -0.11094281661E+04  0.11948200134E+04  0.10100000352E+00 0.  1.
</event>
<event>
 5   0  0.1560957E-03  0.1405786E+04  0.7818609E-02  0.8949641E-01
        1   -1    0    0  501    0  0.00000000000E+00  0.00000000000E+00  0.78753461638E+03  0.78753461640E+03  0.50400001928E-02 0.  1.
       -1   -1    0    0    0  501  0.00000000000E+00  0.00000000000E+00 -0.62734827176E+03  0.62734827178E+03  0.50400001928E-02 0. -1.
    10030    2    1    2    0    0  0.00000000000E+00  0.00000000000E+00  0.16018634462E+03  0.14148828882E+04  0.14057858735E+04 0.  0.
        5    1    3    3  502    0 -0.29367148268E+03  0.47783212404E+03  0.50647348557E+03  0.75571420530E+03  0.46999998093E+01 0.  1.
       -5    1    3    3    0  502  0.29367148268E+03 -0.47783212404E+03 -0.34628714095E+03  0.65916868288E+03  0.46999998093E+01 0. -1.
</event>
<event>
 5   0  0.2917809E-03  0.1417446E+04  0.7818609E-02  0.8941286E-01
        2   -1    0    0  501    0  0.00000000000E+00  0.00000000000E+00  0.25224961406E+04  0.25224961406E+04  0.25500000920E-02 0.  1.
       -2   -1    0    0    0  501  0.00000000000E+00  0.00000000000E+00 -0.19912345556E+03  0.19912345557E+03  0.25500000920E-02 0. -1.
    10030    2    1    2    0    0  0.00000000000E+00  0.00000000000E+00  0.23233726850E+04  0.27216195961E+04  0.14174457988E+04 0.  0.
        2    1    3    3  502    0 -0.45865229473E+03 -0.24703854827E+03  0.23904860583E+03  0.57317903638E+03  0.25500000920E-02 0. -1.
       -2    1    3    3    0  502  0.45865229473E+03  0.24703854827E+03  0.20843240792E+04  0.21484405598E+04  0.25500000920E-02 0.  1.
</event>
<event>
 5   0  0.1560957E-03  0.1434884E+04  0.7818609E-02  0.8928948E-01
        1   -1    0    0  501    0  0.00000000000E+00  0.00000000000E+00  0.12581943286E+04  0.12581943286E+04  0.50400001928E-02 0.  1.
       -1   -1    0    0    0  501  0.00000000000E+00  0.00000000000E+00 -0.40909650787E+03  0.40909650790E+03  0.50400001928E-02 0. -1.
    10030    2    1    2    0    0  0.00000000000E+00  0.00000000000E+00  0.84909782070E+03  0.16672908365E+04  0.14348838365E+04 0.  0.
        5    1    3    3  502    0 -0.49224924051E+03 -0.50766238438E+03  0.56528830163E+03  0.90531948242E+03  0.46999998093E+01 0. -1.
       -5    1    3    3    0  502  0.49224924051E+03  0.50766238438E+03  0.28380951907E+03  0.76197135406E+03  0.46999998093E+01 0.  1.
</event>
<event>
 5   0  0.2917809E-03  0.1336448E+04  0.7818609E-02  0.9001151E-01
       -2   -1    0    0    0  501  0.00000000000E+00  0.00000000000E+00  0.50453538550E+03  0.50453538551E+03  0.25500000920E-02 0. -1.
        2   -1    0    0  501    0  0.00000000000E+00  0.00000000000E+00 -0.88501833216E+03  0.88501833217E+03  0.25500000920E-02 0.  1.
    10030    2    1    2    0    0  0.00000000000E+00  0.00000000000E+00 -0.38048294666E+03  0.13895537177E+04  0.13364476277E+04 0.  0.
        2    1    3    3  502    0  0.63418477338E+03  0.14971760687E+03 -0.34416949335E+03  0.73692491392E+03  0.25500000920E-02 0.  1.
       -2    1    3    3    0  502 -0.63418477338E+03 -0.14971760687E+03 -0.36313453311E+02  0.65262880376E+03  0.25500000920E-02 0. -1.
</event>
<event>
 5   0  0.1631380E-03  0.1513161E+04  0.7818609E-02  0.8875748E-01
        1   -1    0    0  501    0  0.00000000000E+00  0.00000000000E+00  0.71193646666E+03  0.71193646668E+03  0.50400001928E-02 0.  1.
       -1   -1    0    0    0  501  0.00000000000E+00  0.00000000000E+00 -0.80402364639E+03  0.80402364641E+03  0.50400001928E-02 0. -1.
    10030    2    1    2    0    0  0.00000000000E+00  0.00000000000E+00 -0.92087179727E+02  0.15159601131E+04  0.15131606048E+04 0.  0.
        3    1    3    3  502    0  0.15930391490E+03 -0.18440076201E+03 -0.76363152910E+03  0.80157002237E+03  0.10100000352E+00 0. -1.
       -3    1    3    3    0  502 -0.15930391490E+03  0.18440076201E+03  0.67154434937E+03  0.71439009071E+03  0.10100000352E+00 0.  1.
</event>
<event>
 5   0  0.2993993E-03  0.1428041E+04  0.7818609E-02  0.8933767E-01
        2   -1    0    0  501    0  0.00000000000E+00  0.00000000000E+00  0.20638292865E+04  0.20638292865E+04  0.25500000920E-02 0.  1.
       -2   -1    0    0    0  501  0.00000000000E+00  0.00000000000E+00 -0.24702892922E+03  0.24702892924E+03  0.25500000920E-02 0. -1.
    10030    2    1    2    0    0  0.00000000000E+00  0.00000000000E+00  0.18168003573E+04  0.23108582157E+04  0.14280413702E+04 0.  0.
        3    1    3    3  502    0  0.34871891366E+03  0.26493735728E+00  0.19166584338E+04  0.19481233310E+04  0.10100000352E+00 0.  1.
       -3    1    3    3    0  502 -0.34871891366E+03 -0.26493735728E+00 -0.99858076505E+02  0.36273488470E+03  0.10100000352E+00 0. -1.
</event>
<event>
 5   0  0.1700207E-03  0.1534499E+04  0.7818609E-02  0.8861830E-01
        1   -1    0    0  501    0  0.00000000000E+00  0.00000000000E+00  0.11412772696E+04  0.11412772696E+04  0.50400001928E-02 0. -1.
       -1   -1    0    0    0  501  0.00000000000E+00  0.00000000000E+00 -0.51580090797E+03  0.51580090799E+03  0.50400001928E-02 0.  1.
    10030    2    1    2    0    0  0.00000000000E+00  0.00000000000E+00  0.62547636162E+03  0.16570781776E+04  0.15344990739E+04 0.  0.
        2    1    3    3  502    0 -0.36091358213E+03 -0.34119393450E+03 -0.31878512224E+03  0.59016596723E+03  0.25500000920E-02 0.  1.
       -2    1    3    3    0  502  0.36091358213E+03  0.34119393450E+03  0.94426148386E+03  0.10669122104E+04  0.25500000920E-02 0. -1.
</event>
<event>
 5   0  0.1586022E-03  0.1403877E+04  0.7818609E-02  0.8951017E-01
        1   -1    0    0  501    0  0.00000000000E+00  0.00000000000E+00  0.11705425648E+04  0.11705425648E+04  0.50400001928E-02 0.  1.
       -1   -1    0    0    0  501  0.00000000000E+00  0.00000000000E+00 -0.42093081513E+03  0.42093081516E+03  0.50400001928E-02 0. -1.
    10030    2    1    2    0    0  0.00000000000E+00  0.00000000000E+00  0.74961174965E+03  0.15914733800E+04  0.14038766840E+04 0.  0.
        1    1    3    3  502    0  0.31216804730E+03 -0.45044590638E+03 -0.12239941360E+03  0.56154431775E+03  0.50400001928E-02 0. -1.
       -1    1    3    3    0  502 -0.31216804730E+03  0.45044590638E+03  0.87201116325E+03  0.10299290622E+04  0.50400001928E-02 0.  1.
</event>
<event>
 5   0  0.2917809E-03  0.1403018E+04  0.7818609E-02  0.8951637E-01
       -2   -1    0    0    0  501  0.00000000000E+00  0.00000000000E+00  0.77253453401E+03  0.77253453401E+03  0.25500000920E-02 0.  1.
        2   -1    0    0  501    0  0.00000000000E+00  0.00000000000E+00 -0.63701367354E+03  0.63701367354E+03  0.25500000920E-02 0. -1.
    10030    2    1    2    0    0  0.00000000000E+00  0.00000000000E+00  0.13552086047E+03  0.14095482076E+04  0.14030182628E+04 0.  0.
        2    1    3    3  502    0  0.41554546700E+02 -0.70013940170E+03  0.81721122067E+02  0.70611635299E+03  0.25500000920E-02 0.  1.
       -2    1    3    3    0  502 -0.41554546700E+02  0.70013940170E+03  0.53799738402E+02  0.70343185457E+03  0.25500000920E-02 0. -1.
</event>
<event>
 5   0  0.1631380E-03  0.1287811E+04  0.7818609E-02  0.9039287E-01
       -1   -1    0    0    0  501  0.00000000000E+00  0.00000000000E+00  0.40623651958E+03  0.40623651961E+03  0.50400001928E-02 0.  1.
        1   -1    0    0  501    0  0.00000000000E+00  0.00000000000E+00 -0.10206233075E+04  0.10206233075E+04  0.50400001928E-02 0. -1.
    10030    2    1    2    0    0  0.00000000000E+00  0.00000000000E+00 -0.61438678791E+03  0.14268598271E+04  0.12878112599E+04 0.  0.
        3    1    3    3  502    0 -0.25007750732E+02 -0.61630062244E+03 -0.10240535650E+03  0.62525091928E+03  0.10100000352E+00 0.  1.
       -3    1    3    3    0  502  0.25007750732E+02  0.61630062244E+03 -0.51198143141E+03  0.80160890783E+03  0.10100000352E+00 0. -1.
</event>
<event>
 5   0  0.2760807E-03  0.1414113E+04  0.7818609E-02  0.8943666E-01
        2   -1    0    0  501    0  0.00000000000E+00  0.00000000000E+00  0.12231315498E+04  0.12231315498E+04  0.25500000920E-02 0. -1.
       -2   -1    0    0    0  501  0.00000000000E+00  0.00000000000E+00 -0.40872855985E+03  0.40872855985E+03  0.25500000920E-02 0.  1.
    10030    2    1    2    0    0  0.00000000000E+00  0.00000000000E+00  0.81440298996E+03  0.16318601097E+04  0.14141128623E+04 0.  0.
        4    1    3    3  502    0  0.19999997109E+03  0.36843845457E+03 -0.24983904123E+03  0.48802463326E+03  0.12699999809E+01 0.  1.
       -4    1    3    3    0  502 -0.19999997109E+03 -0.36843845457E+03  0.10642420312E+04  0.11438354764E+04  0.12699999809E+01 0. -1.
</event>
<event>
 5   0  0.2993993E-03  0.1474076E+04  0.7818609E-02  0.8901877E-01
       -2   -1    0    0    0  501  0.00000000000E+00  0.00000000000E+00  0.99359306013E+03  0.99359306013E+03  0.25500000920E-02 0.  1.
        2   -1    0    0  501    0  0.00000000000E+00  0.00000000000E+00 -0.54672780696E+03  0.54672780696E+03  0.25500000920E-02 0. -1.
    10030    2    1    2    0    0  0.00000000000E+00  0.00000000000E+00  0.44686525317E+03  0.15403208671E+04  0.14740759204E+04 0.  0.
        3    1    3    3  502    0  0.66939111215E+03  0.30104275145E+03  0.29363630597E+03  0.79052734906E+03  0.10100000352E+00 0.  1.
       -3    1    3    3    0  502 -0.66939111215E+03 -0.30104275145E+03  0.15322894721E+03  0.74979351804E+03  0.10100000352E+00 0. -1.
</event>
<event>
 5   0  0.2889469E-03  0.1197642E+04  0.7818609E-02  0.9114923E-01
       -2   -1    0    0    0  501  0.00000000000E+00  0.00000000000E+00  0.47466405617E+03  0.47466405618E+03  0.25500000920E-02 0. -1.
        2   -1    0    0  501    0  0.00000000000E+00  0.00000000000E+00 -0.75545326999E+03  0.75545326999E+03  0.25500000920E-02 0.  1.
    10030    2    1    2    0    0  0.00000000000E+00  0.00000000000E+00 -0.28078921382E+03  0.12301173262E+04  0.11976418720E+04 0.  0.
        5    1    3    3  502    0 -0.42169900336E+03 -0.32592518126E+01 -0.57703828880E+03  0.71472788451E+03  0.46999998093E+01 0.  1.
       -5    1    3    3    0  502  0.42169900336E+03  0.32592518126E+01  0.29624907498E+03  0.51538944167E+03  0.46999998093E+01 0. -1.
</event>
<event>
 5   0  0.1644571E-03  0.1418585E+04  0.7818609E-02  0.8940475E-01
        1   -1    0    0  501    0  0.00000000000E+00  0.00000000000E+00  0.13564937760E+04  0.13564937760E+04  0.50400001928E-02 0.  1.
       -1   -1    0    0    0  501  0.00000000000E+00  0.00000000000E+00 -0.37087964040E+03  0.37087964044E+03  0.50400001928E-02 0. -1.
    10030    2    1    2    0    0  0.00000000000E+00  0.00000000000E+00  0.98561413562E+03  0.17273734165E+04  0.14185851034E+04 0.  0.
        4    1    3    3  502    0 -0.56929840514E+03  0.22050999731E+03  0.53146043697E+02  0.61282252559E+03  0.12699999809E+01 0. -1.
       -4    1    3    3    0  502  0.56929840514E+03 -0.22050999731E+03  0.93246809193E+03  0.11145508909E+04  0.12699999809E+01 0.  1.
</event>
<event>
 5   0  0.1631380E-03  0.1075466E+04  0.7818609E-02  0.9229439E-01
       -1   -1    0    0    0  501  0.00000000000E+00  0.00000000000E+00  0.32521975326E+03  0.32521975330E+03  0.50400001928E-02 0. -1.
        1   -1    0    0  501    0  0.00000000000E+00  0.00000000000E+00 -0.88911262355E+03  0.88911262357E+03  0.50400001928E-02 0.  1.
    10030    2    1    2    0    0  0.00000000000E+00  0.00000000000E+00 -0.56389287029E+03  0.12143323769E+04  0.10754663883E+04 0.  0.
        3    1    3    3  502    0 -0.29075389497E+03 -0.45115231426E+03 -0.31906586541E+03  0.62440313482E+03  0.10100000352E+00 0.  1.
       -3    1    3    3    0  502  0.29075389497E+03  0.45115231426E+03 -0.24482700488E+03  0.58992924205E+03  0.10100000352E+00 0. -1.
</event>
<event>
 5   0  0.1560957E-03  0.1386494E+04  0.7818609E-02  0.8963653E-01
       -1   -1    0    0    0  501  0.00000000000E+00  0.00000000000E+00  0.16172187919E+04  0.16172187919E+04  0.50400001928E-02 0.  1.
        1   -1    0    0  501    0  0.00000000000E+00  0.00000000000E+00 -0.29717155069E+03  0.29717155073E+03  0.50400001928E-02 0. -1.
    10030    2    1    2    0    0  0.00000000000E+00  0.00000000000E+00  0.13200472412E+04  0.19143903426E+04  0.13864940191E+04 0.  0.
        5    1    3    3  502    0 -0.25172595683E+03 -0.11301932880E+03  0.15381038040E+04  0.15626659041E+04  0.46999998093E+01 0.  1.
       -5    1    3    3    0  502  0.25172595683E+03  0.11301932880E+03 -0.21805656284E+03  0.35172443847E+03  0.46999998093E+01 0. -1.
</event>
<event>
 5   0  0.2760807E-03  0.1419085E+04  0.7818609E-02  0.8940119E-01
       -2   -1    0    0    0  501  0.00000000000E+00  0.00000000000E+00  0.28683816436E+03  0.28683816437E+03  0.25500000920E-02 0.  1.
        2   -1    0    0  501    0  0.00000000000E+00  0.00000000000E+00 -0.17551726482E+04  0.17551726482E+04  0.25500000920E-02 0. -1.
    10030    2    1    2    0    0  0.00000000000E+00  0.00000000000E+00 -0.14683344839E+04  0.20420108126E+04  0.14190849172E+04 0.  0.
        4    1    3    3  502    0 -0.13992778724E+03 -0.12609874575E+03  0.25020153121E+03  0.31318221284E+03  0.12699999809E+01 0.  1.
       -4    1    3    3    0  502  0.13992778724E+03  0.12609874575E+03 -0.17185360151E+04  0.17288285998E+04  0.12699999809E+01 0. -1.
</event>
<event>
 5   0  0.2760807E-03  0.1395833E+04  0.7818609E-02  0.8956840E-01
       -2   -1    0    0    0  501  0.00000000000E+00  0.00000000000E+00  0.39418429089E+03  0.39418429090E+03  0.25500000920E-02 0.  1.
        2   -1    0    0  501    0  0.00000000000E+00  0.00000000000E+00 -0.12356848143E+04  0.12356848143E+04  0.25500000920E-02 0. -1.
    10030    2    1    2    0    0  0.00000000000E+00  0.00000000000E+00 -0.84150052337E+03  0.16298691052E+04  0.13958331452E+04 0.  0.
        4    1    3    3  502    0  0.12901694794E+03  0.60794091418E+02  0.37698518161E+03  0.40306418157E+03  0.12699999809E+01 0.  1.
       -4    1    3    3    0  502 -0.12901694794E+03 -0.60794091418E+02 -0.12184857050E+04  0.12268049236E+04  0.12699999809E+01 0. -1.
</event>
<event>
 5   0  0.2889469E-03  0.1392142E+04  0.7818609E-02  0.8959527E-01
       -2   -1    0    0    0  501  0.00000000000E+00  0.00000000000E+00  0.71912837455E+03  0.71912837455E+03  0.25500000920E-02 0. -1.
        2   -1    0    0  501    0  0.00000000000E+00  0.00000000000E+00 -0.67375243947E+03  0.67375243948E+03  0.25500000920E-02 0.  1.
    10030    2    1    2    0    0  0.00000000000E+00  0.00000000000E+00  0.45375935078E+02  0.13928808140E+04  0.13921415110E+04 0.  0.
        5    1    3    3  502    0 -0.65083507752E+03  0.22934860859E+03 -0.68493981138E+02  0.69346996896E+03  0.46999998093E+01 0. -1.
       -5    1    3    3    0  502  0.65083507752E+03 -0.22934860859E+03  0.11386991622E+03  0.69941084508E+03  0.46999998093E+01 0.  1.
</event>
<event>
 5   0  0.2760807E-03  0.1318997E+04  0.7818609E-02  0.9014635E-01
        2   -1    0    0  501    0  0.00000000000E+00  0.00000000000E+00  0.81081010841E+03  0.81081010842E+03  0.25500000920E-02 0. -1.
       -2   -1    0    0    0  501  0.00000000000E+00  0.00000000000E+00 -0.53642435368E+03  0.53642435369E+03  0.25500000920E-02 0.  1.
    10030    2    1    2    0    0  0.00000000000E+00  0.00000000000E+00  0.27438575473E+03  0.13472344621E+04  0.13189970256E+04 0.  0.
        4    1    3    3  502    0 -0.45908753339E+03  0.40376709553E+03 -0.11538105383E+03  0.62217652739E+03  0.12699999809E+01 0.  1.
       -4    1    3    3    0  502  0.45908753339E+03 -0.40376709553E+03  0.38976680856E+03  0.72505793472E+03  0.12699999809E+01 0. -1.
</event>
<event>
 5   0  0.2917809E-03  0.1450467E+04  0.7818609E-02  0.8918077E-01
        2   -1    0    0  501    0  0.00000000000E+00  0.00000000000E+00  0.51928656695E+03  0.51928656695E+03  0.25500000920E-02 0.  1.
       -2   -1    0    0    0  501  0.00000000000E+00  0.00000000000E+00 -0.10128585305E+04  0.10128585305E+04  0.25500000920E-02 0. -1.
    10030    2    1    2    0    0  0.00000000000E+00  0.00000000000E+00 -0.49357196352E+03  0.15321450974E+04  0.14504672752E+04 0.  0.
        2    1    3    3  502    0  0.40606167920E+03  0.47050562084E+03 -0.64160093028E+03  0.89325997352E+03  0.25500000920E-02 0. -1.
       -2    1    3    3    0  502 -0.40606167920E+03 -0.47050562084E+03  0.14802896675E+03  0.63888512391E+03  0.25500000920E-02 0.  1.
</event>
<event>
 5   0  0.2889469E-03  0.1401641E+04  0.7818609E-02  0.8952631E-01
       -2   -1    0    0    0  501  0.00000000000E+00  0.00000000000E+00  0.31334931196E+03  0.31334931197E+03  0.25500000920E-02 0. -1.
        2   -1    0    0  501    0  0.00000000000E+00  0.00000000000E+00 -0.15674184899E+04  0.15674184899E+04  0.25500000920E-02 0.  1.
    10030    2    1    2    0    0  0.00000000000E+00  0.00000000000E+00 -0.12540691780E+04  0.18807678019E+04  0.14016411886E+04 0.  0.
        5    1    3    3  502    0 -0.28619738715E+03  0.57776598399E+03 -0.25856790521E+03  0.69469556517E+03  0.46999998093E+01 0. -1.
       -5    1    3    3    0  502  0.28619738715E+03 -0.57776598399E+03 -0.99550127277E+03  0.11860722367E+04  0.46999998093E+01 0.  1.
</event>
<event>
 5   0  0.2889469E-03  0.1210478E+04  0.7818609E-02  0.9103734E-01
       -2   -1    0    0    0  501  0.00000000000E+00  0.00000000000E+00  0.22924578588E+03  0.22924578589E+03  0.25500000920E-02 0. -1.
        2   -1    0    0  501    0  0.00000000000E+00  0.00000000000E+00 -0.15979104851E+04  0.15979104851E+04  0.25500000920E-02 0.  1.
    10030    2    1    2    0    0  0.00000000000E+00  0.00000000000E+00 -0.13686646992E+04  0.18271562710E+04  0.12104779964E+04 0.  0.
        5    1    3    3  502    0  0.16201617413E+03 -0.43782010216E+03 -0.12657283536E+04  0.13490834064E+04  0.46999998093E+01 0. -1.
       -5    1    3    3    0  502 -0.16201617413E+03  0.43782010216E+03 -0.10293634563E+03  0.47807286451E+03  0.46999998093E+01 0.  1.
</event>
<event>
 5   0  0.1700207E-03  0.1412246E+04  0.7818609E-02  0.8945001E-01
        1   -1    0    0  501    0  0.00000000000E+00  0.00000000000E+00  0.21882706976E+04  0.21882706976E+04  0.50400001928E-02 0. -1.
       -1   -1    0    0    0  501  0.00000000000E+00  0.00000000000E+00 -0.22785566567E+03  0.22785566572E+03  0.50400001928E-02 0.  1.
    10030    2    1    2    0    0  0.00000000000E+00  0.00000000000E+00  0.19604150319E+04  0.24161263633E+04  0.14122462626E+04 0.  0.
        2    1    3    3  502    0 -0.46974783047E+03  0.22344938196E+03  0.17971529296E+04  0.18709225807E+04  0.25500000920E-02 0. -1.
       -2    1    3    3    0  502  0.46974783047E+03 -0.22344938196E+03  0.16326210231E+03  0.54520378262E+03  0.25500000920E-02 0.  1.
</event>
<event>
 5   0  0.1700207E-03  0.1400066E+04  0.7818609E-02  0.8953771E-01
       -1   -1    0    0    0  501  0.00000000000E+00  0.00000000000E+00  0.10532467335E+04  0.10532467335E+04  0.50400001928E-02 0.  1.
        1   -1    0    0  501    0  0.00000000000E+00  0.00000000000E+00 -0.46527204043E+03  0.46527204046E+03  0.50400001928E-02 0. -1.
    10030    2    1    2    0    0  0.00000000000E+00  0.00000000000E+00  0.58797469311E+03  0.15185187740E+04  0.14000660796E+04 0.  0.
        2    1    3    3  502    0  0.51308110631E+02 -0.26861257374E+03  0.99291498559E+03  0.10298861129E+04  0.25500000920E-02 0.  1.
       -2    1    3    3    0  502 -0.51308110631E+02  0.26861257374E+03 -0.40494029248E+03  0.48863266108E+03  0.25500000920E-02 0. -1.
</event>
<event>
 5   0  0.1104538E-03  0.1397156E+04  0.7818609E-02  0.8955880E-01
       -4   -1    0    0    0  501  0.00000000000E+00  0.00000000000E+00  0.56283833957E+03  0.56283977239E+03  0.12699999809E+01 0.  1.
        4   -1    0    0  501    0  0.00000000000E+00  0.00000000000E+00 -0.86705106993E+03  0.86705200004E+03  0.12699999809E+01 0. -1.
    10030    2    1    2    0    0  0.00000000000E+00  0.00000000000E+00 -0.30421273036E+03  0.14298917724E+04  0.13971560742E+04 0.  0.
        1    1    3    3  502    0 -0.41758038244E+03  0.53741402823E+03  0.91417522923E+01  0.68063998207E+03  0.50400001928E-02 0.  1.
       -1    1    3    3    0  502  0.41758038244E+03 -0.53741402823E+03 -0.31335448265E+03  0.74925179036E+03  0.50400001928E-02 0. -1.
</event>
<event>
 5   0  0.1560957E-03  0.1407742E+04  0.7818609E-02  0.8948234E-01
        1   -1    0    0  501    0  0.00000000000E+00  0.00000000000E+00  0.90042063264E+03  0.90042063265E+03  0.50400001928E-02 0.  1.
       -1   -1    0    0    0  501  0.00000000000E+00  0.00000000000E+00 -0.55022541589E+03  0.55022541592E+03  0.50400001928E-02 0. -1.
    10030    2    1    2    0    0  0.00000000000E+00  0.00000000000E+00  0.35019521675E+03  0.14506460486E+04  0.14077419040E+04 0.  0.
        5    1    3    3  502    0 -0.11090925689E+02  0.11877796277E+03 -0.53971575417E+03  0.55276251535E+03  0.46999998093E+01 0. -1.
       -5    1    3    3    0  502  0.11090925689E+02 -0.11877796277E+03  0.88991097092E+03  0.89788353322E+03  0.46999998093E+01 0.  1.
</event>
<event>
 5   0  0.2993993E-03  0.1405912E+04  0.7818609E-02  0.8949550E-01
       -2   -1    0    0    0  501  0.00000000000E+00  0.00000000000E+00  0.48250617976E+03  0.48250617976E+03  0.25500000920E-02 0.  1.
        2   -1    0    0  501    0  0.00000000000E+00  0.00000000000E+00 -0.10241255342E+04  0.10241255342E+04  0.25500000920E-02 0. -1.
    10030    2    1    2    0    0  0.00000000000E+00  0.00000000000E+00 -0.54161935448E+03  0.15066317140E+04  0.14059116603E+04 0.  0.
        3    1    3    3  502    0  0.52558853020E+03 -0.48273017068E+02  0.22675158251E+03  0.57444745419E+03  0.10100000352E+00 0.  1.
       -3    1    3    3    0  502 -0.52558853020E+03  0.48273017068E+02 -0.76837093699E+03  0.93218425982E+03  0.10100000352E+00 0. -1.
</event>
<event>
 5   0  0.1586022E-03  0.1277525E+04  0.7818609E-02  0.9047580E-01
       -1   -1    0    0    0  501  0.00000000000E+00  0.00000000000E+00  0.10789681835E+04  0.10789681835E+04  0.50400001928E-02 0. -1.
        1   -1    0    0  501    0  0.00000000000E+00  0.00000000000E+00 -0.37815538750E+03  0.37815538754E+03  0.50400001928E-02 0.  1.
    10030    2    1    2    0    0  0.00000000000E+00  0.00000000000E+00  0.70081279596E+03  0.14571235710E+04  0.12775251568E+04 0.  0.
        1    1    3    3  502    0 -0.37711121046E+03  0.46095913246E+03  0.61378341612E+03  0.85523462791E+03  0.50400001928E-02 0. -1.
       -1    1    3    3    0  502  0.37711121046E+03 -0.46095913246E+03  0.87029379841E+02  0.60188894310E+03  0.50400001928E-02 0.  1.
</event>
<event>
 5   0  0.1700207E-03  0.1366459E+04  0.7818609E-02  0.8978462E-01
       -1   -1    0    0    0  501  0.00000000000E+00  0.00000000000E+00  0.78932518737E+03  0.78932518738E+03  0.50400001928E-02 0. -1.
        1   -1    0    0  501    0  0.00000000000E+00  0.00000000000E+00 -0.59139448305E+03  0.59139448307E+03  0.50400001928E-02 0.  1.
    10030    2    1    2    0    0  0.00000000000E+00  0.00000000000E+00  0.19793070432E+03  0.13807196705E+04  0.13664590168E+04 0.  0.
        2    1    3    3  502    0 -0.39312412450E+03  0.38652464880E+02 -0.46431270695E+03  0.60961207349E+03  0.25500000920E-02 0.  1.
       -2    1    3    3    0  502  0.39312412450E+03 -0.38652464880E+02  0.66224341127E+03  0.77110759696E+03  0.25500000920E-02 0. -1.
</event>
<event>
 5   0  0.1560957E-03  0.1181200E+04  0.7818609E-02  0.9129473E-01
        1   -1    0    0  501    0  0.00000000000E+00  0.00000000000E+00  0.41180652134E+03  0.41180652137E+03  0.50400001928E-02 0. -1.
       -1   -1    0    0    0  501  0.00000000000E+00  0.00000000000E+00 -0.84701989150E+03  0.84701989151E+03  0.50400001928E-02 0.  1.
    10030    2    1    2    0    0  0.00000000000E+00  0.00000000000E+00 -0.43521337016E+03  0.12588264129E+04  0.11811999239E+04 0.  0.
        5    1    3    3  502    0 -0.22708870003E+03  0.66398025749E+02 -0.79428562391E+03  0.82878810190E+03  0.46999998093E+01 0.  1.
       -5    1    3    3    0  502  0.22708870003E+03 -0.66398025749E+02  0.35907225375E+03  0.43003831099E+03  0.46999998093E+01 0. -1.
</event>
<event>
 5   0  0.2917809E-03  0.1360267E+04  0.7818609E-02  0.8983092E-01
        2   -1    0    0  501    0  0.00000000000E+00  0.00000000000E+00  0.11512487078E+04  0.11512487078E+04  0.25500000920E-02 0. -1.
       -2   -1    0    0    0  501  0.00000000000E+00  0.00000000000E+00 -0.40180850754E+03  0.40180850755E+03  0.25500000920E-02 0.  1.
    10030    2    1    2    0    0  0.00000000000E+00  0.00000000000E+00  0.74944020022E+03  0.15530572153E+04  0.13602669225E+04 0.  0.
        2    1    3    3  502    0  0.16586861760E+03 -0.58411459035E+03  0.72454295117E+03  0.94533842674E+03  0.25500000920E-02 0. -1.
       -2    1    3    3    0  502 -0.16586861760E+03  0.58411459035E+03  0.24897249049E+02  0.60771878857E+03  0.25500000920E-02 0.  1.
</event>
<event>
 5   0  0.2760807E-03  0.1335273E+04  0.7818609E-02  0.9002052E-01
        2   -1    0    0  501    0  0.00000000000E+00  0.00000000000E+00  0.24223663348E+04  0.24223663348E+04  0.25500000920E-02 0.  1.
       -2   -1    0    0    0  501  0.00000000000E+00  0.00000000000E+00 -0.18400955198E+03  0.18400955199E+03  0.25500000920E-02 0. -1.
    10030    2    1    2    0    0  0.00000000000E+00  0.00000000000E+00  0.22383567828E+04  0.26063758868E+04  0.13352730717E+04 0.  0.
        4    1    3    3  502    0 -0.15133857861E+03 -0.44184853682E+03  0.20504071200E+04  0.21029275940E+04  0.12699999809E+01 0.  1.
       -4    1    3    3    0  502  0.15133857861E+03  0.44184853682E+03  0.18794966280E+03  0.50344829279E+03  0.12699999809E+01 0. -1.
</event>
<event>
 5   0  0.1631380E-03  0.1389979E+04  0.7818609E-02  0.8961104E-01
        1   -1    0    0  501    0  0.00000000000E+00  0.00000000000E+00  0.81394911149E+03  0.81394911151E+03  0.50400001928E-02 0.  1.
       -1   -1    0    0    0  501  0.00000000000E+00  0.00000000000E+00 -0.59341619996E+03  0.59341619998E+03  0.50400001928E-02 0. -1.
    10030    2    1    2    0    0  0.00000000000E+00  0.00000000000E+00  0.22053291153E+03  0.14073653115E+04  0.13899792642E+04 0.  0.
        3    1    3    3  502    0 -0.45896037949E+03 -0.50199621102E+03 -0.34227191622E+02  0.68104062777E+03  0.10100000352E+00 0. -1.
       -3    1    3    3    0  502  0.45896037949E+03  0.50199621102E+03  0.25476010315E+03  0.72632468372E+03  0.10100000352E+00 0.  1.
</event>
<event>
 5   0  0.2917809E-03  0.1404006E+04  0.7818609E-02  0.8950924E-01
        2   -1    0    0  501    0  0.00000000000E+00  0.00000000000E+00  0.86851088953E+03  0.86851088954E+03  0.25500000920E-02 0.  1.
       -2   -1    0    0    0  501  0.00000000000E+00  0.00000000000E+00 -0.56741769233E+03  0.56741769234E+03  0.25500000920E-02 0. -1.
    10030    2    1    2    0    0  0.00000000000E+00  0.00000000000E+00  0.30109319720E+03  0.14359285819E+04  0.14040063315E+04 0.  0.
        2    1    3    3  502    0 -0.47539324165E+03 -0.28392821010E+03  0.59186006205E+03  0.81050126203E+03  0.25500000920E-02 0.  1.
       -2    1    3    3    0  502  0.47539324165E+03  0.28392821010E+03 -0.29076686485E+03  0.62542731984E+03  0.25500000920E-02 0. -1.
</event>
<event>
 5   0  0.1560957E-03  0.1340057E+04  0.7818609E-02  0.8998389E-01
        1   -1    0    0  501    0  0.00000000000E+00  0.00000000000E+00  0.24623291207E+04  0.24623291207E+04  0.50400001928E-02 0.  1.
       -1   -1    0    0    0  501  0.00000000000E+00  0.00000000000E+00 -0.18232262671E+03  0.18232262678E+03  0.50400001928E-02 0. -1.
    10030    2    1    2    0    0  0.00000000000E+00  0.00000000000E+00  0.22800064940E+04  0.26446517475E+04  0.13400571827E+04 0.  0.
        5    1    3    3  502    0 -0.12131480616E+03  0.58427593789E+03  0.53873637704E+03  0.80396183227E+03  0.46999998093E+01 0.  1.
       -5    1    3    3    0  502  0.12131480616E+03 -0.58427593789E+03  0.17412701170E+04  0.18406899152E+04  0.46999998093E+01 0. -1.
</event>
<event>
 5   0  0.1104538E-03  0.1179550E+04  0.7818609E-02  0.9130947E-01
        3   -1    0    0  501    0  0.00000000000E+00  0.00000000000E+00  0.97870323003E+03  0.97870323524E+03  0.10100000352E+00 0.  1.
       -3   -1    0    0    0  501  0.00000000000E+00  0.00000000000E+00 -0.35540327452E+03  0.35540328887E+03  0.10100000352E+00 0. -1.
    10030    2    1    2    0    0  0.00000000000E+00  0.00000000000E+00  0.62329995551E+03  0.13341065241E+04  0.11795496527E+04 0.  0.
        3    1    3    3  502    0 -0.34875298981E+03  0.39532088457E+03  0.12563350045E+02  0.52731878180E+03  0.10100000352E+00 0. -1.
       -3    1    3    3    0  502  0.34875298981E+03 -0.39532088457E+03  0.61073660546E+03  0.80678774230E+03  0.10100000352E+00 0.  1.
</event>
<event>
 5   0  0.1644571E-03  0.1383267E+04  0.7818609E-02  0.8966021E-01
        1   -1    0    0  501    0  0.00000000000E+00  0.00000000000E+00  0.52270759189E+03  0.52270759191E+03  0.50400001928E-02 0.  1.
       -1   -1    0    0    0  501  0.00000000000E+00  0.00000000000E+00 -0.91515174288E+03  0.91515174289E+03  0.50400001928E-02 0. -1.
    10030    2    1    2    0    0  0.00000000000E+00  0.00000000000E+00 -0.39244415099E+03  0.14378593348E+04  0.13832668054E+04 0.  0.
        4    1    3    3  502    0  0.43495607703E+03 -0.13739119655E+03  0.34419250625E+03  0.57143085679E+03  0.12699999809E+01 0.  1.
       -4    1    3    3    0  502 -0.43495607703E+03  0.13739119655E+03 -0.73663665723E+03  0.86642847802E+03  0.12699999809E+01 0. -1.
</event>
<event>
 5   0  0.1700207E-03  0.1406809E+04  0.7818609E-02  0.8948905E-01
       -1   -1    0    0    0  501  0.00000000000E+00  0.00000000000E+00  0.22815301013E+03  0.22815301019E+03  0.50400001928E-02 0.  1.
        1   -1    0    0  501    0  0.00000000000E+00  0.00000000000E+00 -0.21686223451E+04  0.21686223451E+04  0.50400001928E-02 0. -1.
    10030    2    1    2    0    0  0.00000000000E+00  0.00000000000E+00 -0.19404693349E+04  0.23967753553E+04  0.14068087517E+04 0.  0.
        2    1    3    3  502    0  0.23898213097E+03 -0.35494894644E+03 -0.19094987953E+02  0.42832911653E+03  0.25500000920E-02 0.  1.
       -2    1    3    3    0  502 -0.23898213097E+03  0.35494894644E+03 -0.19213743470E+04  0.19684462387E+04  0.25500000920E-02 0. -1.
</event>
<event>
 5   0  0.1560957E-03  0.1393868E+04  0.7818609E-02  0.8958269E-01
       -1   -1    0    0    0  501  0.00000000000E+00  0.00000000000E+00  0.49188649706E+03  0.49188649709E+03  0.50400001928E-02 0. -1.
        1   -1    0    0  501    0  0.00000000000E+00  0.00000000000E+00 -0.98745702625E+03  0.98745702626E+03  0.50400001928E-02 0.  1.
    10030    2    1    2    0    0  0.00000000000E+00  0.00000000000E+00 -0.49557052919E+03  0.14793435233E+04  0.13938676805E+04 0.  0.
        5    1    3    3  502    0  0.43268020681E+03  0.24555956706E+03 -0.76575321707E+03  0.91318768158E+03  0.46999998093E+01 0.  1.
       -5    1    3    3    0  502 -0.43268020681E+03 -0.24555956706E+03  0.27018268788E+03  0.56615584177E+03  0.46999998093E+01 0. -1.
</event>
<event>
 5   0  0.1586022E-03  0.1404935E+04  0.7818609E-02  0.8950254E-01
       -1   -1    0    0    0  501  0.00000000000E+00  0.00000000000E+00  0.67915362727E+03  0.67915362729E+03  0.50400001928E-02 0. -1.
        1   -1    0    0  501    0  0.00000000000E+00  0.00000000000E+00 -0.72658117336E+03  0.72658117337E+03  0.50400001928E-02 0.  1.
    10030    2    1    2    0    0  0.00000000000E+00  0.00000000000E+00 -0.47427546086E+02  0.14057348007E+04  0.14049345030E+04 0.  0.
        1    1    3    3  502    0 -0.63055545364E+03  0.63772784781E+02  0.27943255765E+03  0.69263966281E+03  0.50400001928E-02 0. -1.
       -1    1    3    3    0  502  0.63055545364E+03 -0.63772784781E+02 -0.32686010373E+03  0.71309513786E+03  0.50400001928E-02 0.  1.
</event>
<event>
 5   0  0.2993993E-03  0.1379791E+04  0.7818609E-02  0.8968578E-01
        2   -1    0    0  501    0  0.00000000000E+00  0.00000000000E+00  0.68922976177E+03  0.68922976178E+03  0.25500000920E-02 0.  1.
       -2   -1    0    0    0  501  0.00000000000E+00  0.00000000000E+00 -0.69056201795E+03  0.69056201795E+03  0.25500000920E-02 0. -1.
    10030    2    1    2    0    0  0.00000000000E+00  0.00000000000E+00 -0.13322561758E+01  0.13797917797E+04  0.13797911366E+04 0.  0.
        3    1    3    3  502    0 -0.35900240982E+03 -0.35808161849E+03  0.46714891356E+03  0.68944419165E+03  0.10100000352E+00 0.  1.
       -3    1    3    3    0  502  0.35900240982E+03  0.35808161849E+03 -0.46848116974E+03  0.69034758808E+03  0.10100000352E+00 0. -1.
</event>
<event>
 5   0  0.2993993E-03  0.1386424E+04  0.7818609E-02  0.8963704E-01
       -2   -1    0    0    0  501  0.00000000000E+00  0.00000000000E+00  0.37748953692E+03  0.37748953693E+03  0.25500000920E-02 0.  1.
        2   -1    0    0  501    0  0.00000000000E+00  0.00000000000E+00 -0.12729969724E+04  0.12729969724E+04  0.25500000920E-02 0. -1.
    10030    2    1    2    0    0  0.00000000000E+00  0.00000000000E+00 -0.89550743551E+03  0.16504865094E+04  0.13864242318E+04 0.  0.
        3    1    3    3  502    0  0.62124078211E+03 -0.11788057976E+03 -0.78595221595E+03  0.10087402225E+04  0.10100000352E+00 0. -1.
       -3    1    3    3    0  502 -0.62124078211E+03  0.11788057976E+03 -0.10955521956E+03  0.64174628692E+03  0.10100000352E+00 0.  1.
</event>
<event>
 5   0  0.1560957E-03  0.1479449E+04  0.7818609E-02  0.8898235E-01
       -1   -1    0    0    0  501  0.00000000000E+00  0.00000000000E+00  0.58788150703E+03  0.58788150705E+03  0.50400001928E-02 0.  1.
        1   -1    0    0  501    0  0.00000000000E+00  0.00000000000E+00 -0.93078724311E+03  0.93078724312E+03  0.50400001928E-02 0. -1.
    10030    2    1    2    0    0  0.00000000000E+00  0.00000000000E+00 -0.34290573608E+03  0.15186687502E+04  0.14794493668E+04 0.  0.
        5    1    3    3  502    0 -0.63362033781E+03  0.16667042347E+03 -0.52394604031E+03  0.83892508944E+03  0.46999998093E+01 0. -1.
       -5    1    3    3    0  502  0.63362033781E+03 -0.16667042347E+03  0.18104030422E+03  0.67974366073E+03  0.46999998093E+01 0.  1.
</event>
<event>
 5   0  0.1631380E-03  0.1423421E+04  0.7818609E-02  0.8937037E-01
        1   -1    0    0  501    0  0.00000000000E+00  0.00000000000E+00  0.63094094354E+03  0.63094094356E+03  0.50400001928E-02 0.  1.
       -1   -1    0    0    0  501  0.00000000000E+00  0.00000000000E+00 -0.80281996913E+03  0.80281996914E+03  0.50400001928E-02 0. -1.
    10030    2    1    2    0    0  0.00000000000E+00  0.00000000000E+00 -0.17187902559E+03  0.14337609127E+04  0.14234212150E+04 0.  0.
        3    1    3    3  502    0 -0.25970617101E+03 -0.52602709556E+03 -0.49183087464E+03  0.76553864695E+03  0.10100000352E+00 0. -1.
       -3    1    3    3    0  502  0.25970617101E+03  0.52602709556E+03  0.31995184905E+03  0.66822226575E+03  0.10100000352E+00 0.  1.
</event>
<event>
 5   0  0.1631380E-03  0.1380623E+04  0.7818609E-02  0.8967965E-01
        1   -1    0    0  501    0  0.00000000000E+00  0.00000000000E+00  0.12472147950E+04  0.12472147950E+04  0.50400001928E-02 0. -1.
       -1   -1    0    0    0  501  0.00000000000E+00  0.00000000000E+00 -0.38207532351E+03  0.38207532354E+03  0.50400001928E-02 0.  1.
    10030    2    1    2    0    0  0.00000000000E+00  0.00000000000E+00  0.86513947151E+03  0.16292901186E+04  0.13806230424E+04 0.  0.
        3    1    3    3  502    0 -0.58638894276E+03  0.29938023983E+03  0.67742372844E+03  0.94466048834E+03  0.10100000352E+00 0. -1.
       -3    1    3    3    0  502  0.58638894276E+03 -0.29938023983E+03  0.18771574308E+03  0.68462963023E+03  0.10100000352E+00 0.  1.
</event>
<event>
 5   0  0.2917809E-03  0.1403258E+04  0.7818609E-02  0.8951463E-01
        2   -1    0    0  501    0  0.00000000000E+00  0.00000000000E+00  0.55676283856E+03  0.55676283856E+03  0.25500000920E-02 0.  1.
       -2   -1    0    0    0  501  0.00000000000E+00  0.00000000000E+00 -0.88418891900E+03  0.88418891900E+03  0.25500000920E-02 0. -1.
    10030    2    1    2    0    0  0.00000000000E+00  0.00000000000E+00 -0.32742608044E+03  0.14409517576E+04  0.14032583973E+04 0.  0.
        2    1    3    3  502    0 -0.75832592913E+02  0.45433576635E+02  0.55102133711E+03  0.55806747441E+03  0.25500000920E-02 0.  1.
       -2    1    3    3    0  502  0.75832592913E+02 -0.45433576635E+02 -0.87844741755E+03  0.88288428316E+03  0.25500000920E-02 0. -1.
</event>
<event>
 5   0  0.2917809E-03  0.1385358E+04  0.7818609E-02  0.8964486E-01
       -2   -1    0    0    0  501  0.00000000000E+00  0.00000000000E+00  0.63835313826E+03  0.63835313827E+03  0.25500000920E-02 0.  1.
        2   -1    0    0  501    0  0.00000000000E+00  0.00000000000E+00 -0.75162782344E+03  0.75162782345E+03  0.25500000920E-02 0. -1.
    10030    2    1    2    0    0  0.00000000000E+00  0.00000000000E+00 -0.11327468518E+03  0.13899809617E+04  0.13853576865E+04 0.  0.
        2    1    3    3  502    0  0.42782110907E+03 -0.52223529256E+03  0.98939399563E+02  0.68231195721E+03  0.25500000920E-02 0.  1.
       -2    1    3    3    0  502 -0.42782110907E+03  0.52223529256E+03 -0.21221408474E+03  0.70766900450E+03  0.25500000920E-02 0. -1.
</event>
<event>
 5   0  0.1644571E-03  0.1388651E+04  0.7818609E-02  0.8962075E-01
        1   -1    0    0  501    0  0.00000000000E+00  0.00000000000E+00  0.43468225940E+03  0.43468225943E+03  0.50400001928E-02 0.  1.
       -1   -1    0    0    0  501  0.00000000000E+00  0.00000000000E+00 -0.11090580951E+04  0.11090580951E+04  0.50400001928E-02 0. -1.
    10030    2    1    2    0    0  0.00000000000E+00  0.00000000000E+00 -0.67437583566E+03  0.15437403545E+04  0.13886509692E+04 0.  0.
        4    1    3    3  502    0 -0.83049928934E+02 -0.20956269420E+02 -0.11031610833E+04  0.11064820128E+04  0.12699999809E+01 0. -1.
       -4    1    3    3    0  502  0.83049928934E+02  0.20956269420E+02  0.42878524765E+03  0.43725834174E+03  0.12699999809E+01 0.  1.
</event>
<event>
 5   0  0.3006737E-03  0.1394988E+04  0.7818609E-02  0.8957454E-01
        2   -1    0    0  501    0  0.00000000000E+00  0.00000000000E+00  0.79356301126E+03  0.79356301126E+03  0.25500000920E-02 0.  1.
       -2   -1    0    0    0  501  0.00000000000E+00  0.00000000000E+00 -0.61305553520E+03  0.61305553521E+03  0.25500000920E-02 0. -1.
    10030    2    1    2    0    0  0.00000000000E+00  0.00000000000E+00  0.18050747605E+03  0.14066185465E+04  0.13949884538E+04 0.  0.
        1    1    3    3  502    0 -0.30108677068E+02  0.68666580945E+03  0.20990953309E+03  0.71866437119E+03  0.50400001928E-02 0. -1.
       -1    1    3    3    0  502  0.30108677068E+02 -0.68666580945E+03 -0.29402057034E+02  0.68795417528E+03  0.50400001928E-02 0.  1.
</event>
<event>
 5   0  0.1104538E-03  0.1394891E+04  0.7818609E-02  0.8957525E-01
        3   -1    0    0  501    0  0.00000000000E+00  0.00000000000E+00  0.63405406434E+03  0.63405407238E+03  0.10100000352E+00 0. -1.
       -3   -1    0    0    0  501  0.00000000000E+00  0.00000000000E+00 -0.76717434706E+03  0.76717435371E+03  0.10100000352E+00 0.  1.
    10030    2    1    2    0    0  0.00000000000E+00  0.00000000000E+00 -0.13312028273E+03  0.14012284261E+04  0.13948907098E+04 0.  0.
        1    1    3    3  502    0  0.61343628695E+03  0.43518267156E+01  0.26677126534E+03  0.66894687725E+03  0.50400001928E-02 0. -1.
       -1    1    3    3    0  502 -0.61343628695E+03 -0.43518267156E+01 -0.39989154807E+03  0.73228154885E+03  0.50400001928E-02 0.  1.
</event>
<event>
 5   0  0.2889469E-03  0.1018183E+04  0.7818609E-02  0.9288823E-01
       -2   -1    0    0    0  501  0.00000000000E+00  0.00000000000E+00  0.35612414187E+03  0.35612414188E+03  0.25500000920E-02 0. -1.
        2   -1    0    0  501    0  0.00000000000E+00  0.00000000000E+00 -0.72776403604E+03  0.72776403604E+03  0.25500000920E-02 0.  1.
    10030    2    1    2    0    0  0.00000000000E+00  0.00000000000E+00 -0.37163989416E+03  0.10838881779E+04  0.10181833682E+04 0.  0.
        5    1    3    3  502    0 -0.36089951338E+03  0.21396694180E+02  0.19570130221E+03  0.41112937984E+03  0.46999998093E+01 0. -1.
       -5    1    3    3    0  502  0.36089951338E+03 -0.21396694180E+02 -0.56734119638E+03  0.67275879808E+03  0.46999998093E+01 0.  1.
</event>
<event>
 5   0  0.2889469E-03  0.1386544E+04  0.7818609E-02  0.8963617E-01
        2   -1    0    0  501    0  0.00000000000E+00  0.00000000000E+00  0.26676908905E+04  0.26676908905E+04  0.25500000920E-02 0. -1.
       -2   -1    0    0    0  501  0.00000000000E+00  0.00000000000E+00 -0.18016554295E+03  0.18016554297E+03  0.25500000920E-02 0.  1.
    10030    2    1    2    0    0  0.00000000000E+00  0.00000000000E+00  0.24875253476E+04  0.28478564335E+04  0.13865438727E+04 0.  0.
        5    1    3    3  502    0  0.22519625642E+03  0.47058440772E+03  0.30603681437E+03  0.60485011403E+03  0.46999998093E+01 0.  1.
       -5    1    3    3    0  502 -0.22519625642E+03 -0.47058440772E+03  0.21814885332E+04  0.22430063195E+04  0.46999998093E+01 0. -1.
</event>
<event>
 5   0  0.2917809E-03  0.1463107E+04  0.7818609E-02  0.8909364E-01
        2   -1    0    0  501    0  0.00000000000E+00  0.00000000000E+00  0.66063492065E+03  0.66063492065E+03  0.25500000920E-02 0. -1.
       -2   -1    0    0    0  501  0.00000000000E+00  0.00000000000E+00 -0.81008499243E+03  0.81008499244E+03  0.25500000920E-02 0.  1.
    10030    2    1    2    0    0  0.00000000000E+00  0.00000000000E+00 -0.14945007179E+03  0.14707199131E+04  0.14631068788E+04 0.  0.
        2    1    3    3  502    0  0.66698497935E+03 -0.21348870999E+03 -0.28730603671E+03  0.75696178946E+03  0.25500000920E-02 0. -1.
       -2    1    3    3    0  502 -0.66698497935E+03  0.21348870999E+03  0.13785596492E+03  0.71375812363E+03  0.25500000920E-02 0.  1.
</event>
<event>
 5   0  0.1560957E-03  0.1371263E+04  0.7818609E-02  0.8974887E-01
        1   -1    0    0  501    0  0.00000000000E+00  0.00000000000E+00  0.91612679794E+03  0.91612679795E+03  0.50400001928E-02 0. -1.
       -1   -1    0    0    0  501  0.00000000000E+00  0.00000000000E+00 -0.51312813117E+03  0.51312813120E+03  0.50400001928E-02 0.  1.
    10030    2    1    2    0    0  0.00000000000E+00  0.00000000000E+00  0.40299866677E+03  0.14292549292E+04  0.13712628220E+04 0.  0.
        5    1    3    3  502    0 -0.91726221216E+01 -0.10201171109E+02 -0.51296827211E+03  0.51317320573E+03  0.46999998093E+01 0.  1.
       -5    1    3    3    0  502  0.91726221216E+01  0.10201171109E+02  0.91596693887E+03  0.91608172343E+03  0.46999998093E+01 0. -1.
</event>
<event>
 5   0  0.2993993E-03  0.1396496E+04  0.7818609E-02  0.8956359E-01
        2   -1    0    0  501    0  0.00000000000E+00  0.00000000000E+00  0.68231582083E+03  0.68231582083E+03  0.25500000920E-02 0. -1.
       -2   -1    0    0    0  501  0.00000000000E+00  0.00000000000E+00 -0.71455203207E+03  0.71455203208E+03  0.25500000920E-02 0.  1.
    10030    2    1    2    0    0  0.00000000000E+00  0.00000000000E+00 -0.32236211247E+02  0.13968678529E+04  0.13964958379E+04 0.  0.
        3    1    3    3  502    0 -0.58038426508E+03  0.96765327129E+02 -0.39217134182E+03  0.70711229323E+03  0.10100000352E+00 0.  1.
       -3    1    3    3    0  502  0.58038426508E+03 -0.96765327129E+02  0.35993513058E+03  0.68975555968E+03  0.10100000352E+00 0. -1.
</event>
<event>
 5   0  0.1631380E-03  0.1392517E+04  0.7818609E-02  0.8959253E-01
       -1   -1    0    0    0  501  0.00000000000E+00  0.00000000000E+00  0.63987915328E+03  0.63987915330E+03  0.50400001928E-02 0. -1.
        1   -1    0    0  501    0  0.00000000000E+00  0.00000000000E+00 -0.75760557284E+03  0.75760557286E+03  0.50400001928E-02 0.  1.
    10030    2    1    2    0    0  0.00000000000E+00  0.00000000000E+00 -0.11772641957E+03  0.13974847262E+04  0.13925171633E+04 0.  0.
        3    1    3    3  502    0 -0.24856759328E+03 -0.58745090488E+03 -0.33894946231E+03  0.72233729121E+03  0.10100000352E+00 0. -1.
       -3    1    3    3    0  502  0.24856759328E+03  0.58745090488E+03  0.22122304274E+03  0.67514743495E+03  0.10100000352E+00 0.  1.
</event>
<event>
 5   0  0.2760807E-03  0.1348830E+04  0.7818609E-02  0.8991714E-01
       -2   -1    0    0    0  501  0.00000000000E+00  0.00000000000E+00  0.21532760042E+03  0.21532760043E+03  0.25500000920E-02 0. -1.
        2   -1    0    0  501    0  0.00000000000E+00  0.00000000000E+00 -0.21122973019E+04  0.21122973019E+04  0.25500000920E-02 0.  1.
    10030    2    1    2    0    0  0.00000000000E+00  0.00000000000E+00 -0.18969697015E+04  0.23276249023E+04  0.13488304703E+04 0.  0.
        4    1    3    3  502    0 -0.45577406570E+03 -0.38849603471E+03 -0.14836490027E+04  0.15999609820E+04  0.12699999809E+01 0.  1.
       -4    1    3    3    0  502  0.45577406570E+03  0.38849603471E+03 -0.41332069878E+03  0.72766392029E+03  0.12699999809E+01 0. -1.
</event>
<event>
 5   0  0.1700207E-03  0.1393855E+04  0.7818609E-02  0.8958279E-01
       -1   -1    0    0    0  501  0.00000000000E+00  0.00000000000E+00  0.64389769144E+03  0.64389769146E+03  0.50400001928E-02 0.  1.
        1   -1    0    0  501    0  0.00000000000E+00  0.00000000000E+00 -0.75432440233E+03  0.75432440235E+03  0.50400001928E-02 0. -1.
    10030    2    1    2    0    0  0.00000000000E+00  0.00000000000E+00 -0.11042671089E+03  0.13982220938E+04  0.13938547145E+04 0.  0.
        2    1    3    3  502    0 -0.37905390985E+03  0.51812555868E+03 -0.32730442270E+03  0.72059985169E+03  0.25500000920E-02 0. -1.
       -2    1    3    3    0  502  0.37905390985E+03 -0.51812555868E+03  0.21687771180E+03  0.67762224212E+03  0.25500000920E-02 0.  1.
</event>
<event>
 5   0  0.1586022E-03  0.1402007E+04  0.7818609E-02  0.8952367E-01
       -1   -1    0    0    0  501  0.00000000000E+00  0.00000000000E+00  0.74872933110E+03  0.74872933112E+03  0.50400001928E-02 0.  1.
        1   -1    0    0  501    0  0.00000000000E+00  0.00000000000E+00 -0.65631966942E+03  0.65631966944E+03  0.50400001928E-02 0. -1.
    10030    2    1    2    0    0  0.00000000000E+00  0.00000000000E+00  0.92409661677E+02  0.14050490006E+04  0.14020068289E+04 0.  0.
        1    1    3    3  502    0  0.22877665106E+03  0.63508734040E+03  0.23564171466E+03  0.71498370870E+03  0.50400001928E-02 0.  1.
       -1    1    3    3    0  502 -0.22877665106E+03 -0.63508734040E+03 -0.14323205298E+03  0.69006529186E+03  0.50400001928E-02 0. -1.
</event>
<event>
 5   0  0.2889469E-03  0.1363532E+04  0.7818609E-02  0.8980647E-01
       -2   -1    0    0    0  501  0.00000000000E+00  0.00000000000E+00  0.34891174333E+03  0.34891174334E+03  0.25500000920E-02 0.  1.
        2   -1    0    0  501    0  0.00000000000E+00  0.00000000000E+00 -0.13321564355E+04  0.13321564355E+04  0.25500000920E-02 0. -1.
    10030    2    1    2    0    0  0.00000000000E+00  0.00000000000E+00 -0.98324469218E+03  0.16810681789E+04  0.13635322135E+04 0.  0.
        5    1    3    3  502    0  0.29742864933E+03 -0.54008106858E+02 -0.12449924713E+04  0.12811748595E+04  0.46999998093E+01 0. -1.
       -5    1    3    3    0  502 -0.29742864933E+03  0.54008106858E+02  0.26174777908E+03  0.39989331939E+03  0.46999998093E+01 0.  1.
</event>
<event>
 5   0  0.1560957E-03  0.1404930E+04  0.7818609E-02  0.8950258E-01
       -1   -1    0    0    0  501  0.00000000000E+00  0.00000000000E+00  0.77734065047E+03  0.77734065049E+03  0.50400001928E-02 0. -1.
        1   -1    0    0  501    0  0.00000000000E+00  0.00000000000E+00 -0.63480134062E+03  0.63480134064E+03  0.50400001928E-02 0.  1.
    10030    2    1    2    0    0  0.00000000000E+00  0.00000000000E+00  0.14253930985E+03  0.14121419911E+04  0.14049297307E+04 0.  0.
        5    1    3    3  502    0  0.68510595629E+03 -0.72936179482E+02 -0.66345348465E+02  0.69218036153E+03  0.46999998093E+01 0. -1.
       -5    1    3    3    0  502 -0.68510595629E+03  0.72936179482E+02  0.20888465832E+03  0.71996162960E+03  0.46999998093E+01 0.  1.
</event>
<event>
 5   0  0.2993993E-03  0.1391004E+04  0.7818609E-02  0.8960356E-01
        2   -1    0    0  501    0  0.00000000000E+00  0.00000000000E+00  0.70308095808E+03  0.70308095808E+03  0.25500000920E-02 0. -1.
       -2   -1    0    0    0  501  0.00000000000E+00  0.00000000000E+00 -0.68800510802E+03  0.68800510803E+03  0.25500000920E-02 0.  1.
    10030    2    1    2    0    0  0.00000000000E+00  0.00000000000E+00  0.15075850055E+02  0.13910860661E+04  0.13910043717E+04 0.  0.
        3    1    3    3  502    0  0.13154572668E+03 -0.54724829781E+03 -0.40106691094E+03  0.69111479142E+03  0.10100000352E+00 0.  1.
       -3    1    3    3    0  502 -0.13154572668E+03  0.54724829781E+03  0.41614276099E+03  0.69997127469E+03  0.10100000352E+00 0. -1.
</event>
<event>
 5   0  0.3006737E-03  0.1269584E+04  0.7818609E-02  0.9054039E-01
        2   -1    0    0  501    0  0.00000000000E+00  0.00000000000E+00  0.12192725662E+04  0.12192725662E+04  0.25500000920E-02 0. -1.
       -2   -1    0    0    0  501  0.00000000000E+00  0.00000000000E+00 -0.33049300248E+03  0.33049300249E+03  0.25500000920E-02 0.  1.
    10030    2    1    2    0    0  0.00000000000E+00  0.00000000000E+00  0.88877956376E+03  0.15497655687E+04  0.12695842647E+04 0.  0.
        1    1    3    3  502    0  0.25701520304E+02 -0.20201952254E+03  0.11783149434E+04  0.11957836600E+04  0.50400001928E-02 0. -1.
       -1    1    3    3    0  502 -0.25701520304E+02  0.20201952254E+03 -0.28953537963E+03  0.35398190874E+03  0.50400001928E-02 0.  1.
</event>
<event>
 5   0  0.1700207E-03  0.1400242E+04  0.7818609E-02  0.8953643E-01
        1   -1    0    0  501    0  0.00000000000E+00  0.00000000000E+00  0.50251595217E+03  0.50251595220E+03  0.50400001928E-02 0. -1.
       -1   -1    0    0    0  501  0.00000000000E+00  0.00000000000E+00 -0.97543099239E+03  0.97543099241E+03  0.50400001928E-02 0.  1.
    10030    2    1    2    0    0  0.00000000000E+00  0.00000000000E+00 -0.47291504022E+03  0.14779469446E+04  0.14002423132E+04 0.  0.
        2    1    3    3  502    0  0.56146412260E+03 -0.25623856840E+03  0.11244576868E+03  0.62733102570E+03  0.25500000920E-02 0. -1.
       -2    1    3    3    0  502 -0.56146412260E+03  0.25623856840E+03 -0.58536080890E+03  0.85061591891E+03  0.25500000920E-02 0.  1.
</event>
<event>
 5   0  0.1700207E-03  0.1392197E+04  0.7818609E-02  0.8959486E-01
       -1   -1    0    0    0  501  0.00000000000E+00  0.00000000000E+00  0.85463111732E+03  0.85463111734E+03  0.50400001928E-02 0. -1.
        1   -1    0    0  501    0  0.00000000000E+00  0.00000000000E+00 -0.56697308169E+03  0.56697308171E+03  0.50400001928E-02 0.  1.
    10030    2    1    2    0    0  0.00000000000E+00  0.00000000000E+00  0.28765803564E+03  0.14216041991E+04  0.13921965929E+04 0.  0.
        2    1    3    3  502    0 -0.42964509377E+02 -0.67081593244E+03 -0.40858473324E+02  0.67343105001E+03  0.25500000920E-02 0.  1.
       -2    1    3    3    0  502  0.42964509377E+02  0.67081593244E+03  0.32851650896E+03  0.74817314904E+03  0.25500000920E-02 0. -1.
</event>
<event>
 5   0  0.2993993E-03  0.1395694E+04  0.7818609E-02  0.8956941E-01
       -2   -1    0    0    0  501  0.00000000000E+00  0.00000000000E+00  0.62530351145E+03  0.62530351146E+03  0.25500000920E-02 0.  1.
        2   -1    0    0  501    0  0.00000000000E+00  0.00000000000E+00 -0.77880697001E+03  0.77880697002E+03  0.25500000920E-02 0. -1.
    10030    2    1    2    0    0  0.00000000000E+00  0.00000000000E+00 -0.15350345856E+03  0.14041104815E+04  0.13956944266E+04 0.  0.
        3    1    3    3  502    0  0.67364646462E+03  0.10045638253E+03  0.76150531820E+02  0.68533930121E+03  0.10100000352E+00 0.  1.
       -3    1    3    3    0  502 -0.67364646462E+03 -0.10045638253E+03 -0.22965399038E+03  0.71877118026E+03  0.10100000352E+00 0. -1.
</event>
<event>
 5   0  0.2993993E-03  0.1359418E+04  0.7818609E-02  0.8983729E-01
       -2   -1    0    0    0  501  0.00000000000E+00  0.00000000000E+00  0.67729889474E+03  0.67729889475E+03  0.25500000920E-02 0.  1.
        2   -1    0    0  501    0  0.00000000000E+00  0.00000000000E+00 -0.68212758229E+03  0.68212758229E+03  0.25500000920E-02 0. -1.
    10030    2    1    2    0    0  0.00000000000E+00  0.00000000000E+00 -0.48286875439E+01  0.13594264770E+04  0.13594179013E+04 0.  0.
        3    1    3    3  502    0 -0.94632637040E+02  0.52612243287E+03 -0.42223135231E+03  0.68120442999E+03  0.10100000352E+00 0. -1.
       -3    1    3    3    0  502  0.94632637040E+02 -0.52612243287E+03  0.41740266476E+03  0.67822204706E+03  0.10100000352E+00 0.  1.
</event>
<event>
 5   0  0.1644571E-03  0.1400294E+04  0.7818609E-02  0.8953606E-01
        1   -1    0    0  501    0  0.00000000000E+00  0.00000000000E+00  0.11999352195E+04  0.11999352196E+04  0.50400001928E-02 0.  1.
       -1   -1    0    0    0  501  0.00000000000E+00  0.00000000000E+00 -0.40852689322E+03  0.40852689325E+03  0.50400001928E-02 0. -1.
    10030    2    1    2    0    0  0.00000000000E+00  0.00000000000E+00  0.79140832632E+03  0.16084621128E+04  0.14002939796E+04 0.  0.
        4    1    3    3  502    0  0.44623295226E+03 -0.53913055825E+03  0.41920508821E+03  0.81579416853E+03  0.12699999809E+01 0.  1.
       -4    1    3    3    0  502 -0.44623295226E+03  0.53913055825E+03  0.37220323812E+03  0.79266794428E+03  0.12699999809E+01 0. -1.
</event>
<event>
 5   0  0.1644571E-03  0.1368067E+04  0.7818609E-02  0.8977263E-01
        1   -1    0    0  501    0  0.00000000000E+00  0.00000000000E+00  0.36836246157E+03  0.36836246161E+03  0.50400001928E-02 0.  1.
       -1   -1    0    0    0  501  0.00000000000E+00  0.00000000000E+00 -0.12702217514E+04  0.12702217514E+04  0.50400001928E-02 0. -1.
    10030    2    1    2    0    0  0.00000000000E+00  0.00000000000E+00 -0.90185928985E+03  0.16385842130E+04  0.13680672661E+04 0.  0.
        4    1    3    3  502    0  0.24158492156E+03 -0.84170073895E+02  0.30890421302E+03  0.40108764801E+03  0.12699999809E+01 0.  1.
       -4    1    3    3    0  502 -0.24158492156E+03  0.84170073895E+02 -0.12107635029E+04  0.12374965650E+04  0.12699999809E+01 0. -1.
</event>
<event>
 5   0  0.1586022E-03  0.1398880E+04  0.7818609E-02  0.8954630E-01
        1   -1    0    0  501    0  0.00000000000E+00  0.00000000000E+00  0.36956780780E+03  0.36956780784E+03  0.50400001928E-02 0.  1.
       -1   -1    0    0    0  501  0.00000000000E+00  0.00000000000E+00 -0.13237526240E+04  0.13237526240E+04  0.50400001928E-02 0. -1.
    10030    2    1    2    0    0  0.00000000000E+00  0.00000000000E+00 -0.95418481621E+03  0.16933204319E+04  0.13988800597E+04 0.  0.
        1    1    3    3  502    0  0.30414682661E+03  0.46788836607E+03  0.33311763264E+02  0.55904784128E+03  0.50400001928E-02 0.  1.
       -1    1    3    3    0  502 -0.30414682661E+03 -0.46788836607E+03 -0.98749657947E+03  0.11342725906E+04  0.50400001928E-02 0. -1.
</event>
<event>
 5   0  0.1586022E-03  0.1504795E+04  0.7818609E-02  0.8881271E-01
        1   -1    0    0  501    0  0.00000000000E+00  0.00000000000E+00  0.16396689730E+04  0.16396689730E+04  0.50400001928E-02 0. -1.
       -1   -1    0    0    0  501  0.00000000000E+00  0.00000000000E+00 -0.34525366961E+03  0.34525366964E+03  0.50400001928E-02 0.  1.
    10030    2    1    2    0    0  0.00000000000E+00  0.00000000000E+00  0.12944153034E+04  0.19849226427E+04  0.15047946437E+04 0.  0.
        1    1    3    3  502    0  0.29517038753E+03  0.68415720277E+03  0.50946099763E+03  0.90263344936E+03  0.50400001928E-02 0. -1.
       -1    1    3    3    0  502 -0.29517038753E+03 -0.68415720277E+03  0.78495430580E+03  0.10822891933E+04  0.50400001928E-02 0.  1.
</event>
<event>
 5   0  0.1700207E-03  0.1458175E+04  0.7818609E-02  0.8912752E-01
       -1   -1    0    0    0  501  0.00000000000E+00  0.00000000000E+00  0.93723792410E+03  0.93723792412E+03  0.50400001928E-02 0.  1.
        1   -1    0    0  501    0  0.00000000000E+00  0.00000000000E+00 -0.56716535601E+03  0.56716535604E+03  0.50400001928E-02 0. -1.
    10030    2    1    2    0    0  0.00000000000E+00  0.00000000000E+00  0.37007256809E+03  0.15044032802E+04  0.14581754091E+04 0.  0.
        2    1    3    3  502    0 -0.61217804840E+03 -0.18591298798E+03  0.54575360503E+03  0.84093555012E+03  0.25500000920E-02 0.  1.
       -2    1    3    3    0  502  0.61217804840E+03  0.18591298798E+03 -0.17568103695E+03  0.66346773003E+03  0.25500000920E-02 0. -1.
</event>
<event>
 5   0  0.1560957E-03  0.1423226E+04  0.7818609E-02  0.8937176E-01
       -1   -1    0    0    0  501  0.00000000000E+00  0.00000000000E+00  0.46422952460E+03  0.46422952462E+03  0.50400001928E-02 0. -1.
        1   -1    0    0  501    0  0.00000000000E+00  0.00000000000E+00 -0.10908245579E+04  0.10908245579E+04  0.50400001928E-02 0.  1.
    10030    2    1    2    0    0  0.00000000000E+00  0.00000000000E+00 -0.62659503329E+03  0.15550540825E+04  0.14232258654E+04 0.  0.
        5    1    3    3  502    0 -0.22161741140E+03 -0.18826143456E+03 -0.10229280339E+04  0.10634662652E+04  0.46999998093E+01 0.  1.
       -5    1    3    3    0  502  0.22161741140E+03  0.18826143456E+03  0.39633300058E+03  0.49158781730E+03  0.46999998093E+01 0. -1.
</event>
<event>
 5   0  0.1700207E-03  0.1406538E+04  0.7818609E-02  0.8949100E-01
       -1   -1    0    0    0  501  0.00000000000E+00  0.00000000000E+00  0.56270372457E+03  0.56270372459E+03  0.50400001928E-02 0.  1.
        1   -1    0    0  501    0  0.00000000000E+00  0.00000000000E+00 -0.87894783207E+03  0.87894783209E+03  0.50400001928E-02 0. -1.
    10030    2    1    2    0    0  0.00000000000E+00  0.00000000000E+00 -0.31624410751E+03  0.14416515567E+04  0.14065379040E+04 0.  0.
        2    1    3    3  502    0  0.23102430464E+03  0.56764820441E+03  0.19543948866E+03  0.64326767915E+03  0.25500000920E-02 0.  1.
       -2    1    3    3    0  502 -0.23102430464E+03 -0.56764820441E+03 -0.51168359616E+03  0.79838387753E+03  0.25500000920E-02 0. -1.
</event>
<event>
 5   0  0.3006737E-03  0.1374449E+04  0.7818609E-02  0.8972524E-01
       -2   -1    0    0    0  501  0.00000000000E+00  0.00000000000E+00  0.38925908146E+03  0.38925908147E+03  0.25500000920E-02 0.  1.
        2   -1    0    0  501    0  0.00000000000E+00  0.00000000000E+00 -0.12132725560E+04  0.12132725560E+04  0.25500000920E-02 0. -1.
    10030    2    1    2    0    0  0.00000000000E+00  0.00000000000E+00 -0.82401347453E+03  0.16025316375E+04  0.13744487778E+04 0.  0.
        1    1    3    3  502    0  0.15023078991E+03 -0.51280559087E+03  0.91835975469E+02  0.54219250334E+03  0.50400001928E-02 0.  1.
       -1    1    3    3    0  502 -0.15023078991E+03  0.51280559087E+03 -0.91584945000E+03  0.10603391341E+04  0.50400001928E-02 0. -1.
</event>
<event>
 5   0  0.3006737E-03  0.1406893E+04  0.7818609E-02  0.8948844E-01
        2   -1    0    0  501    0  0.00000000000E+00  0.00000000000E+00  0.87097509785E+03  0.87097509785E+03  0.25500000920E-02 0. -1.
       -2   -1    0    0    0  501  0.00000000000E+00  0.00000000000E+00 -0.56814128958E+03  0.56814128959E+03  0.25500000920E-02 0.  1.
    10030    2    1    2    0    0  0.00000000000E+00  0.00000000000E+00  0.30283380827E+03  0.14391163874E+04  0.14068929103E+04 0.  0.
        1    1    3    3  502    0 -0.30385216818E+03 -0.60196611588E+03  0.35637473310E+03  0.76268754755E+03  0.50400001928E-02 0. -1.
       -1    1    3    3    0  502  0.30385216818E+03  0.60196611588E+03 -0.53540924834E+02  0.67642883989E+03  0.50400001928E-02 0.  1.
</event>
<event>
 5   0  0.2917809E-03  0.1419941E+04  0.7818609E-02  0.8939510E-01
        2   -1    0    0  501    0  0.00000000000E+00  0.00000000000E+00  0.82786143304E+03  0.82786143304E+03  0.25500000920E-02 0. -1.
       -2   -1    0    0    0  501  0.00000000000E+00  0.00000000000E+00 -0.60886753930E+03  0.60886753930E+03  0.25500000920E-02 0.  1.
    10030    2    1    2    0    0  0.00000000000E+00  0.00000000000E+00  0.21899389374E+03  0.14367289723E+04  0.14199407785E+04 0.  0.
        2    1    3    3  502    0  0.41593605768E+03 -0.22949328908E+03 -0.42436609625E+03  0.63699023342E+03  0.25500000920E-02 0.  1.
       -2    1    3    3    0  502 -0.41593605768E+03  0.22949328908E+03  0.64335998999E+03  0.79973873893E+03  0.25500000920E-02 0. -1.
</event>
<event>
 5   0  0.1644571E-03  0.1380365E+04  0.7818609E-02  0.8968155E-01
        1   -1    0    0  501    0  0.00000000000E+00  0.00000000000E+00  0.47601727219E+03  0.47601727222E+03  0.50400001928E-02 0. -1.
       -1   -1    0    0    0  501  0.00000000000E+00  0.00000000000E+00 -0.10007035834E+04  0.10007035834E+04  0.50400001928E-02 0.  1.
    10030    2    1    2    0    0  0.00000000000E+00  0.00000000000E+00 -0.52468631119E+03  0.14767208556E+04  0.13803654445E+04 0.  0.
        4    1    3    3  502    0  0.41819528217E+03  0.54729269216E+03 -0.30939012950E+03  0.75507645311E+03  0.12699999809E+01 0. -1.
       -4    1    3    3    0  502 -0.41819528217E+03 -0.54729269216E+03 -0.21529618169E+03  0.72164440250E+03  0.12699999809E+01 0.  1.
</event>
<event>
 5   0  0.1644571E-03  0.1404914E+04  0.7818609E-02  0.8950270E-01
        1   -1    0    0  501    0  0.00000000000E+00  0.00000000000E+00  0.24063090524E+04  0.24063090524E+04  0.50400001928E-02 0.  1.
       -1   -1    0    0    0  501  0.00000000000E+00  0.00000000000E+00 -0.20506323359E+03  0.20506323365E+03  0.50400001928E-02 0. -1.
    10030    2    1    2    0    0  0.00000000000E+00  0.00000000000E+00  0.22012458188E+04  0.26113722860E+04  0.14049135424E+04 0.  0.
        4    1    3    3  502    0 -0.61719917018E+03  0.32704116810E+03  0.96211029353E+03  0.11889274877E+04  0.12699999809E+01 0.  1.
       -4    1    3    3    0  502  0.61719917018E+03 -0.32704116810E+03  0.12391355252E+04  0.14224447983E+04  0.12699999809E+01 0. -1.
</event>
<event>
 5   0  0.1586022E-03  0.1354515E+04  0.7818609E-02  0.8987417E-01
       -1   -1    0    0    0  501  0.00000000000E+00  0.00000000000E+00  0.31042697870E+03  0.31042697874E+03  0.50400001928E-02 0.  1.
        1   -1    0    0  501    0  0.00000000000E+00  0.00000000000E+00 -0.14775703865E+04  0.14775703866E+04  0.50400001928E-02 0. -1.
    10030    2    1    2    0    0  0.00000000000E+00  0.00000000000E+00 -0.11671434078E+04  0.17879973653E+04  0.13545149847E+04 0.  0.
        1    1    3    3  502    0 -0.28873843491E+03 -0.57088373331E+02 -0.13887331708E+04  0.14195804965E+04  0.50400001928E-02 0. -1.
       -1    1    3    3    0  502  0.28873843491E+03  0.57088373331E+02  0.22158976297E+03  0.36841686883E+03  0.50400001928E-02 0.  1.
</event>
<event>
 5   0  0.1700207E-03  0.1421126E+04  0.7818609E-02  0.8938667E-01
        1   -1    0    0  501    0  0.00000000000E+00  0.00000000000E+00  0.17752526388E+04  0.17752526388E+04  0.50400001928E-02 0.  1.
       -1   -1    0    0    0  501  0.00000000000E+00  0.00000000000E+00 -0.28441003678E+03  0.28441003682E+03  0.50400001928E-02 0. -1.
    10030    2    1    2    0    0  0.00000000000E+00  0.00000000000E+00  0.14908426020E+04  0.20596626756E+04  0.14211258471E+04 0.  0.
        2    1    3    3  502    0  0.24080119284E+03  0.71036995795E+02  0.17088286037E+04  0.17271730273E+04  0.25500000920E-02 0.  1.
       -2    1    3    3    0  502 -0.24080119284E+03 -0.71036995795E+02 -0.21798600177E+03  0.33248964828E+03  0.25500000920E-02 0. -1.
</event>
<event>
 5   0  0.1700207E-03  0.1440191E+04  0.7818609E-02  0.8925229E-01
        1   -1    0    0  501    0  0.00000000000E+00  0.00000000000E+00  0.90059520169E+03  0.90059520171E+03  0.50400001928E-02 0. -1.
       -1   -1    0    0    0  501  0.00000000000E+00  0.00000000000E+00 -0.57577192768E+03  0.57577192770E+03  0.50400001928E-02 0.  1.
    10030    2    1    2    0    0  0.00000000000E+00  0.00000000000E+00  0.32482327401E+03  0.14763671294E+04  0.14401908698E+04 0.  0.
        2    1    3    3  502    0 -0.61573590748E+03  0.15858540958E+03  0.50892219661E+03  0.81442116998E+03  0.25500000920E-02 0. -1.
       -2    1    3    3    0  502  0.61573590748E+03 -0.15858540958E+03 -0.18409892260E+03  0.66194595943E+03  0.25500000920E-02 0.  1.
</event>
<event>
 5   0  0.2993993E-03  0.1367713E+04  0.7818609E-02  0.8977527E-01
       -2   -1    0    0    0  501  0.00000000000E+00  0.00000000000E+00  0.58770777334E+03  0.58770777335E+03  0.25500000920E-02 0.  1.
        2   -1    0    0  501    0  0.00000000000E+00  0.00000000000E+00 -0.79573478072E+03  0.79573478072E+03  0.25500000920E-02 0. -1.
    10030    2    1    2    0    0  0.00000000000E+00  0.00000000000E+00 -0.20802700738E+03  0.13834425541E+04  0.13677127127E+04 0.  0.
        3    1    3    3  502    0  0.14290716705E+03  0.26145589148E+03 -0.72662317561E+03  0.78534253108E+03  0.10100000352E+00 0. -1.
       -3    1    3    3    0  502 -0.14290716705E+03 -0.26145589148E+03  0.51859616824E+03  0.59810002299E+03  0.10100000352E+00 0.  1.
</event>
<event>
 5   0  0.3006737E-03  0.1397938E+04  0.7818609E-02  0.8955312E-01
        2   -1    0    0  501    0  0.00000000000E+00  0.00000000000E+00  0.42920315816E+03  0.42920315817E+03  0.25500000920E-02 0. -1.
       -2   -1    0    0    0  501  0.00000000000E+00  0.00000000000E+00 -0.11382905364E+04  0.11382905364E+04  0.25500000920E-02 0.  1.
    10030    2    1    2    0    0  0.00000000000E+00  0.00000000000E+00 -0.70908737825E+03  0.15674936946E+04  0.13979383293E+04 0.  0.
        1    1    3    3  502    0 -0.17901744595E+03  0.12184277292E+03  0.39064160406E+03  0.44664725468E+03  0.50400001928E-02 0. -1.
       -1    1    3    3    0  502  0.17901744595E+03 -0.12184277292E+03 -0.10997289823E+04  0.11208464399E+04  0.50400001928E-02 0.  1.
</event>
<event>
 5   0  0.2993993E-03  0.1417039E+04  0.7818609E-02  0.8941576E-01
       -2   -1    0    0    0  501  0.00000000000E+00  0.00000000000E+00  0.47071339883E+03  0.47071339884E+03  0.25500000920E-02 0. -1.
        2   -1    0    0  501    0  0.00000000000E+00  0.00000000000E+00 -0.10664662282E+04  0.10664662282E+04  0.25500000920E-02 0.  1.
    10030    2    1    2    0    0  0.00000000000E+00  0.00000000000E+00 -0.59575282933E+03  0.15371796270E+04  0.14170390863E+04 0.  0.
        3    1    3    3  502    0 -0.43745778821E+03  0.42342356447E+03 -0.69101568188E+03  0.92095576127E+03  0.10100000352E+00 0.  1.
       -3    1    3    3    0  502  0.43745778821E+03 -0.42342356447E+03  0.95262852550E+02  0.61622386573E+03  0.10100000352E+00 0. -1.
</event>
<event>
 5   0  0.1586022E-03  0.1406016E+04  0.7818609E-02  0.8949475E-01
       -1   -1    0    0    0  501  0.00000000000E+00  0.00000000000E+00  0.93263707151E+03  0.93263707152E+03  0.50400001928E-02 0. -1.
        1   -1    0    0  501    0  0.00000000000E+00  0.00000000000E+00 -0.52991689691E+03  0.52991689693E+03  0.50400001928E-02 0.  1.
    10030    2    1    2    0    0  0.00000000000E+00  0.00000000000E+00  0.40272017460E+03  0.14625539685E+04  0.14060158504E+04 0.  0.
        1    1    3    3  502    0  0.21517389163E+03  0.33242140672E+03  0.80559350958E+03  0.89765511083E+03  0.50400001928E-02 0. -1.
       -1    1    3    3    0  502 -0.21517389163E+03 -0.33242140672E+03 -0.40287333498E+03  0.56489885763E+03  0.50400001928E-02 0.  1.
</event>
<event>
 5   0  0.2917809E-03  0.1333544E+04  0.7818609E-02  0.9003380E-01
       -2   -1    0    0    0  501  0.00000000000E+00  0.00000000000E+00  0.12976102027E+04  0.12976102027E+04  0.25500000920E-02 0. -1.
        2   -1    0    0  501    0  0.00000000000E+00  0.00000000000E+00 -0.34261802384E+03  0.34261802385E+03  0.25500000920E-02 0.  1.
    10030    2    1    2    0    0  0.00000000000E+00  0.00000000000E+00  0.95499217885E+03  0.16402282265E+04  0.13335436151E+04 0.  0.
        2    1    3    3  502    0  0.34746101831E+03  0.49791422337E+03  0.81643663041E+03  0.10174558981E+04  0.25500000920E-02 0. -1.
       -2    1    3    3    0  502 -0.34746101831E+03 -0.49791422337E+03  0.13855554843E+03  0.62277232845E+03  0.25500000920E-02 0.  1.
</event>
<event>
 5   0  0.2917809E-03  0.1414010E+04  0.7818609E-02  0.8943739E-01
        2   -1    0    0  501    0  0.00000000000E+00  0.00000000000E+00  0.12228382128E+04  0.12228382128E+04  0.25500000920E-02 0. -1.
       -2   -1    0    0    0  501  0.00000000000E+00  0.00000000000E+00 -0.40876736438E+03  0.40876736439E+03  0.25500000920E-02 0.  1.
    10030    2    1    2    0    0  0.00000000000E+00  0.00000000000E+00  0.81407084846E+03  0.16316055772E+04  0.14140104007E+04 0.  0.
        2    1    3    3  502    0 -0.35757759110E+03 -0.32927714072E+03 -0.18535978985E+03  0.52023400577E+03  0.25500000920E-02 0.  1.
       -2    1    3    3    0  502  0.35757759110E+03  0.32927714072E+03  0.99943063830E+03  0.11113715715E+04  0.25500000920E-02 0. -1.
</event>
<event>
 5   0  0.1586022E-03  0.1631581E+04  0.7818609E-02  0.8801378E-01
        1   -1    0    0  501    0  0.00000000000E+00  0.00000000000E+00  0.13957236211E+04  0.13957236211E+04  0.50400001928E-02 0. -1.
       -1   -1    0    0    0  501  0.00000000000E+00  0.00000000000E+00 -0.47682395790E+03  0.47682395793E+03  0.50400001928E-02 0.  1.
    10030    2    1    2    0    0  0.00000000000E+00  0.00000000000E+00  0.91889966319E+03  0.18725475790E+04  0.16315813938E+04 0.  0.
        1    1    3    3  502    0  0.11950941169E+03  0.50407274056E+03  0.11827147047E+04  0.12911955313E+04  0.50400001928E-02 0. -1.
       -1    1    3    3    0  502 -0.11950941169E+03 -0.50407274056E+03 -0.26381504151E+03  0.58135204774E+03  0.50400001928E-02 0.  1.
</event>
<event>
 5   0  0.1644571E-03  0.1425329E+04  0.7818609E-02  0.8935685E-01
       -1   -1    0    0    0  501  0.00000000000E+00  0.00000000000E+00  0.52891637509E+03  0.52891637511E+03  0.50400001928E-02 0. -1.
        1   -1    0    0  501    0  0.00000000000E+00  0.00000000000E+00 -0.96024773295E+03  0.96024773296E+03  0.50400001928E-02 0.  1.
    10030    2    1    2    0    0  0.00000000000E+00  0.00000000000E+00 -0.43133135786E+03  0.14891641081E+04  0.14253290850E+04 0.  0.
        4    1    3    3  502    0 -0.64970311128E+03  0.18594066109E+03 -0.45207628290E+03  0.81305758758E+03  0.12699999809E+01 0. -1.
       -4    1    3    3    0  502  0.64970311128E+03 -0.18594066109E+03  0.20744925041E+02  0.67610652050E+03  0.12699999809E+01 0.  1.
</event>
<event>
 5   0  0.1560957E-03  0.1294055E+04  0.7818609E-02  0.9034293E-01
        1   -1    0    0  501    0  0.00000000000E+00  0.00000000000E+00  0.14111341744E+04  0.14111341745E+04  0.50400001928E-02 0.  1.
       -1   -1    0    0    0  501  0.00000000000E+00  0.00000000000E+00 -0.29667263917E+03  0.29667263921E+03  0.50400001928E-02 0. -1.
    10030    2    1    2    0    0  0.00000000000E+00  0.00000000000E+00  0.11144615353E+04  0.17078068137E+04  0.12940554854E+04 0.  0.
        5    1    3    3  502    0  0.39229729331E+03 -0.40317735956E+03  0.13538342304E+03  0.57861896860E+03  0.46999998093E+01 0. -1.
       -5    1    3    3    0  502 -0.39229729331E+03  0.40317735956E+03  0.97907811223E+03  0.11291878451E+04  0.46999998093E+01 0.  1.
</event>
<event>
 5   0  0.2760807E-03  0.1402056E+04  0.7818609E-02  0.8952332E-01
       -2   -1    0    0    0  501  0.00000000000E+00  0.00000000000E+00  0.19534092737E+03  0.19534092738E+03  0.25500000920E-02 0.  1.
        2   -1    0    0  501    0  0.00000000000E+00  0.00000000000E+00 -0.25158066971E+04  0.25158066971E+04  0.25500000920E-02 0. -1.
    10030    2    1    2    0    0  0.00000000000E+00  0.00000000000E+00 -0.23204657697E+04  0.27111476245E+04  0.14020556527E+04 0.  0.
        4    1    3    3  502    0 -0.27137840990E+03  0.43229109757E+03 -0.20894462729E+04  0.21508856722E+04  0.12699999809E+01 0. -1.
       -4    1    3    3    0  502  0.27137840990E+03 -0.43229109757E+03 -0.23101949680E+03  0.56026195230E+03  0.12699999809E+01 0.  1.
</event>
<event>
 5   0  0.1560957E-03  0.1306020E+04  0.7818609E-02  0.9024805E-01
        1   -1    0    0  501    0  0.00000000000E+00  0.00000000000E+00  0.63116746277E+03  0.63116746279E+03  0.50400001928E-02 0.  1.
       -1   -1    0    0    0  501  0.00000000000E+00  0.00000000000E+00 -0.67560808942E+03  0.67560808944E+03  0.50400001928E-02 0. -1.
    10030    2    1    2    0    0  0.00000000000E+00  0.00000000000E+00 -0.44440626652E+02  0.13067755522E+04  0.13060196685E+04 0.  0.
        5    1    3    3  502    0  0.18854757488E+03 -0.42885303877E+03  0.43294365802E+03  0.63790862816E+03  0.46999998093E+01 0.  1.
       -5    1    3    3    0  502 -0.18854757488E+03  0.42885303877E+03 -0.47738428467E+03  0.66886692407E+03  0.46999998093E+01 0. -1.
</event>
<event>
 5   0  0.3006737E-03  0.1394787E+04  0.7818609E-02  0.8957601E-01
        2   -1    0    0  501    0  0.00000000000E+00  0.00000000000E+00  0.81575018465E+03  0.81575018465E+03  0.25500000920E-02 0.  1.
       -2   -1    0    0    0  501  0.00000000000E+00  0.00000000000E+00 -0.59620897402E+03  0.59620897403E+03  0.25500000920E-02 0. -1.
    10030    2    1    2    0    0  0.00000000000E+00  0.00000000000E+00  0.21954121062E+03  0.14119591587E+04  0.13947868377E+04 0.  0.
        1    1    3    3  502    0 -0.46360801876E+03 -0.13677802828E+03 -0.39912826383E+03  0.62685245082E+03  0.50400001928E-02 0. -1.
       -1    1    3    3    0  502  0.46360801876E+03  0.13677802828E+03  0.61866947446E+03  0.78510670786E+03  0.50400001928E-02 0.  1.
</event>
<event>
 5   0  0.1560957E-03  0.1418005E+04  0.7818609E-02  0.8940888E-01
        1   -1    0    0  501    0  0.00000000000E+00  0.00000000000E+00  0.82462446290E+03  0.82462446292E+03  0.50400001928E-02 0.  1.
       -1   -1    0    0    0  501  0.00000000000E+00  0.00000000000E+00 -0.60959239004E+03  0.60959239006E+03  0.50400001928E-02 0. -1.
    10030    2    1    2    0    0  0.00000000000E+00  0.00000000000E+00  0.21503207286E+03  0.14342168530E+04  0.14180053558E+04 0.  0.
        5    1    3    3  502    0 -0.27605699420E+03  0.11021347629E+03 -0.54351056115E+03  0.61950003591E+03  0.46999998093E+01 0. -1.
       -5    1    3    3    0  502  0.27605699420E+03 -0.11021347629E+03  0.75854263402E+03  0.81471681708E+03  0.46999998093E+01 0.  1.
</event>
<event>
 5   0  0.1631380E-03  0.1390169E+04  0.7818609E-02  0.8960966E-01
       -1   -1    0    0    0  501  0.00000000000E+00  0.00000000000E+00  0.16414331220E+04  0.16414331220E+04  0.50400001928E-02 0.  1.
        1   -1    0    0  501    0  0.00000000000E+00  0.00000000000E+00 -0.29434166141E+03  0.29434166145E+03  0.50400001928E-02 0. -1.
    10030    2    1    2    0    0  0.00000000000E+00  0.00000000000E+00  0.13470914606E+04  0.19357747835E+04  0.13901685542E+04 0.  0.
        3    1    3    3  502    0  0.13266805549E+03 -0.62379911739E+03  0.10584737190E+04  0.12357559532E+04  0.10100000352E+00 0. -1.
       -3    1    3    3    0  502 -0.13266805549E+03  0.62379911739E+03  0.28861774162E+03  0.70001883030E+03  0.10100000352E+00 0.  1.
</event>
<event>
 5   0  0.1631380E-03  0.1390605E+04  0.7818609E-02  0.8960648E-01
       -1   -1    0    0    0  501  0.00000000000E+00  0.00000000000E+00  0.49347340274E+03  0.49347340276E+03  0.50400001928E-02 0. -1.
        1   -1    0    0  501    0  0.00000000000E+00  0.00000000000E+00 -0.97967850054E+03  0.97967850055E+03  0.50400001928E-02 0.  1.
    10030    2    1    2    0    0  0.00000000000E+00  0.00000000000E+00 -0.48620509780E+03  0.14731519033E+04  0.13906045927E+04 0.  0.
        3    1    3    3  502    0 -0.86571282756E+02  0.61941749324E+03 -0.56489835567E+03  0.84278275990E+03  0.10100000352E+00 0.  1.
       -3    1    3    3    0  502  0.86571282756E+02 -0.61941749324E+03  0.78693257873E+02  0.63036914341E+03  0.10100000352E+00 0. -1.
</event>
<event>
 5   0  0.1560957E-03  0.1441963E+04  0.7818609E-02  0.8923992E-01
       -1   -1    0    0    0  501  0.00000000000E+00  0.00000000000E+00  0.75055755673E+03  0.75055755675E+03  0.50400001928E-02 0.  1.
        1   -1    0    0  501    0  0.00000000000E+00  0.00000000000E+00 -0.69257046947E+03  0.69257046949E+03  0.50400001928E-02 0. -1.
    10030    2    1    2    0    0  0.00000000000E+00  0.00000000000E+00  0.57987087266E+02  0.14431280262E+04  0.14419625508E+04 0.  0.
        5    1    3    3  502    0  0.67037531480E+03 -0.26293651070E+03  0.64423259944E+02  0.72298763321E+03  0.46999998093E+01 0. -1.
       -5    1    3    3    0  502 -0.67037531480E+03  0.26293651070E+03 -0.64361726782E+01  0.72014039303E+03  0.46999998093E+01 0.  1.
</event>
<event>
 5   0  0.2760807E-03  0.1409305E+04  0.7818609E-02  0.8947111E-01
       -2   -1    0    0    0  501  0.00000000000E+00  0.00000000000E+00  0.13448589931E+04  0.13448589931E+04  0.25500000920E-02 0.  1.
        2   -1    0    0  501    0  0.00000000000E+00  0.00000000000E+00 -0.36920955945E+03  0.36920955946E+03  0.25500000920E-02 0. -1.
    10030    2    1    2    0    0  0.00000000000E+00  0.00000000000E+00  0.97564943361E+03  0.17140685525E+04  0.14093045042E+04 0.  0.
        4    1    3    3  502    0  0.63204238569E+03 -0.29848600345E+03  0.37930052094E+03  0.79526220182E+03  0.12699999809E+01 0.  1.
       -4    1    3    3    0  502 -0.63204238569E+03  0.29848600345E+03  0.59634891267E+03  0.91880635071E+03  0.12699999809E+01 0. -1.
</event>
<event>
 5   0  0.2993993E-03  0.1412572E+04  0.7818609E-02  0.8944768E-01
       -2   -1    0    0    0  501  0.00000000000E+00  0.00000000000E+00  0.40403082793E+03  0.40403082793E+03  0.25500000920E-02 0.  1.
        2   -1    0    0  501    0  0.00000000000E+00  0.00000000000E+00 -0.12346587571E+04  0.12346587571E+04  0.25500000920E-02 0. -1.
    10030    2    1    2    0    0  0.00000000000E+00  0.00000000000E+00 -0.83062792921E+03  0.16386895851E+04  0.14125724050E+04 0.  0.
        3    1    3    3  502    0 -0.64783658868E+03 -0.52679607434E+02 -0.94720001192E+02  0.65684037292E+03  0.10100000352E+00 0. -1.
       -3    1    3    3    0  502  0.64783658868E+03  0.52679607434E+02 -0.73590792802E+03  0.98184921215E+03  0.10100000352E+00 0.  1.
</event>
<event>
 5   0  0.2917809E-03  0.1361309E+04  0.7818609E-02  0.8982311E-01
       -2   -1    0    0    0  501  0.00000000000E+00  0.00000000000E+00  0.38704392356E+03  0.38704392357E+03  0.25500000920E-02 0. -1.
        2   -1    0    0  501    0  0.00000000000E+00  0.00000000000E+00 -0.11969973097E+04  0.11969973097E+04  0.25500000920E-02 0.  1.
    10030    2    1    2    0    0  0.00000000000E+00  0.00000000000E+00 -0.80995338613E+03  0.15840412333E+04  0.13613089807E+04 0.  0.
        2    1    3    3  502    0 -0.26594412255E+03 -0.51530360231E+03  0.97451062230E+01  0.57996469373E+03  0.25500000920E-02 0. -1.
       -2    1    3    3    0  502  0.26594412255E+03  0.51530360231E+03 -0.81969849235E+03  0.10040765395E+04  0.25500000920E-02 0.  1.
</event>
<event>
 5   0  0.3006737E-03  0.1405063E+04  0.7818609E-02  0.8950162E-01
       -2   -1    0    0    0  501  0.00000000000E+00  0.00000000000E+00  0.46433690494E+03  0.46433690495E+03  0.25500000920E-02 0. -1.
        2   -1    0    0  501    0  0.00000000000E+00  0.00000000000E+00 -0.10629139554E+04  0.10629139554E+04  0.25500000920E-02 0.  1.
    10030    2    1    2    0    0  0.00000000000E+00  0.00000000000E+00 -0.59857705042E+03  0.15272508603E+04  0.14050625271E+04 0.  0.
        1    1    3    3  502    0 -0.34777877274E+03 -0.59063281130E+03 -0.13176576801E+03  0.69796805815E+03  0.50400001928E-02 0.  1.
       -1    1    3    3    0  502  0.34777877274E+03  0.59063281130E+03 -0.46681128241E+03  0.82928280216E+03  0.50400001928E-02 0. -1.
</event>
<event>
 5   0  0.2889469E-03  0.1381931E+04  0.7818609E-02  0.8967003E-01
       -2   -1    0    0    0  501  0.00000000000E+00  0.00000000000E+00  0.64490591614E+03  0.64490591615E+03  0.25500000920E-02 0.  1.
        2   -1    0    0  501    0  0.00000000000E+00  0.00000000000E+00 -0.74031446353E+03  0.74031446354E+03  0.25500000920E-02 0. -1.
    10030    2    1    2    0    0  0.00000000000E+00  0.00000000000E+00 -0.95408547387E+02  0.13852203797E+04  0.13819307904E+04 0.  0.
        5    1    3    3  502    0  0.89271468468E+02  0.64355224781E+03 -0.28338562773E+03  0.70884299725E+03  0.46999998093E+01 0. -1.
       -5    1    3    3    0  502 -0.89271468468E+02 -0.64355224781E+03  0.18797708035E+03  0.67637738244E+03  0.46999998093E+01 0.  1.
</event>
<event>
 5   0  0.2993993E-03  0.1495485E+04  0.7818609E-02  0.8887461E-01
       -2   -1    0    0    0  501  0.00000000000E+00  0.00000000000E+00  0.46781973728E+03  0.46781973729E+03  0.25500000920E-02 0.  1.
        2   -1    0    0  501    0  0.00000000000E+00  0.00000000000E+00 -0.11951589447E+04  0.11951589447E+04  0.25500000920E-02 0. -1.
    10030    2    1    2    0    0  0.00000000000E+00  0.00000000000E+00 -0.72733920739E+03  0.16629786820E+04  0.14954851300E+04 0.  0.
        3    1    3    3  502    0 -0.18859477304E+03  0.47692788741E+03  0.24141623926E+03  0.56684213763E+03  0.10100000352E+00 0.  1.
       -3    1    3    3    0  502  0.18859477304E+03 -0.47692788741E+03 -0.96875544665E+03  0.10961365443E+04  0.10100000352E+00 0. -1.
</event>
<event>
 5   0  0.1586022E-03  0.1359747E+04  0.7818609E-02  0.8983482E-01
       -1   -1    0    0    0  501  0.00000000000E+00  0.00000000000E+00  0.59356615357E+03  0.59356615359E+03  0.50400001928E-02 0.  1.
        1   -1    0    0  501    0  0.00000000000E+00  0.00000000000E+00 -0.77873080432E+03  0.77873080434E+03  0.50400001928E-02 0. -1.
    10030    2    1    2    0    0  0.00000000000E+00  0.00000000000E+00 -0.18516465075E+03  0.13722969579E+04  0.13597474004E+04 0.  0.
        1    1    3    3  502    0 -0.22404633295E+03  0.30658061893E+03 -0.66173739439E+03  0.76294483049E+03  0.50400001928E-02 0. -1.
       -1    1    3    3    0  502  0.22404633295E+03 -0.30658061893E+03  0.47657274364E+03  0.60935212744E+03  0.50400001928E-02 0.  1.
</event>
<event>
 5   0  0.1631380E-03  0.1176339E+04  0.7818609E-02  0.9133822E-01
       -1   -1    0    0    0  501  0.00000000000E+00  0.00000000000E+00  0.28676464549E+03  0.28676464554E+03  0.50400001928E-02 0.  1.
        1   -1    0    0  501    0  0.00000000000E+00  0.00000000000E+00 -0.12063677102E+04  0.12063677103E+04  0.50400001928E-02 0. -1.
    10030    2    1    2    0    0  0.00000000000E+00  0.00000000000E+00 -0.91960306475E+03  0.14931323558E+04  0.11763394218E+04 0.  0.
        3    1    3    3  502    0 -0.58305576804E+03  0.43117513072E+02 -0.54137789581E+03  0.79680812298E+03  0.10100000352E+00 0. -1.
       -3    1    3    3    0  502  0.58305576804E+03 -0.43117513072E+02 -0.37822516894E+03  0.69632423281E+03  0.10100000352E+00 0.  1.
</event>
<event>
 5   0  0.1560957E-03  0.1440938E+04  0.7818609E-02  0.8924707E-01
        1   -1    0    0  501    0  0.00000000000E+00  0.00000000000E+00  0.87906002266E+03  0.87906002267E+03  0.50400001928E-02 0.  1.
       -1   -1    0    0    0  501  0.00000000000E+00  0.00000000000E+00 -0.59048951707E+03  0.59048951709E+03  0.50400001928E-02 0. -1.
    10030    2    1    2    0    0  0.00000000000E+00  0.00000000000E+00  0.28857050559E+03  0.14695495398E+04  0.14409382059E+04 0.  0.
        5    1    3    3  502    0  0.22000611983E+03  0.12406492071E+03 -0.54384090756E+03  0.59964974780E+03  0.46999998093E+01 0. -1.
       -5    1    3    3    0  502 -0.22000611983E+03 -0.12406492071E+03  0.83241141315E+03  0.86989979196E+03  0.46999998093E+01 0.  1.
</event>
<event>
 5   0  0.1631380E-03  0.1350833E+04  0.7818609E-02  0.8990197E-01
       -1   -1    0    0    0  501  0.00000000000E+00  0.00000000000E+00  0.21086307433E+03  0.21086307439E+03  0.50400001928E-02 0. -1.
        1   -1    0    0  501    0  0.00000000000E+00  0.00000000000E+00 -0.21634312674E+04  0.21634312674E+04  0.50400001928E-02 0.  1.
    10030    2    1    2    0    0  0.00000000000E+00  0.00000000000E+00 -0.19525681931E+04  0.23742943418E+04  0.13508334734E+04 0.  0.
        3    1    3    3  502    0 -0.20754994079E+03  0.19342013813E+02  0.15291174438E+03  0.25852099178E+03  0.10100000352E+00 0. -1.
       -3    1    3    3    0  502  0.20754994079E+03 -0.19342013813E+02 -0.21054799375E+04  0.21157733500E+04  0.10100000352E+00 0.  1.
</event>
<event>
 5   0  0.2917809E-03  0.1406136E+04  0.7818609E-02  0.8949389E-01
        2   -1    0    0  501    0  0.00000000000E+00  0.00000000000E+00  0.66158741920E+03  0.66158741920E+03  0.25500000920E-02 0.  1.
       -2   -1    0    0    0  501  0.00000000000E+00  0.00000000000E+00 -0.74714945542E+03  0.74714945542E+03  0.25500000920E-02 0. -1.
    10030    2    1    2    0    0  0.00000000000E+00  0.00000000000E+00 -0.85562036222E+02  0.14087368746E+04  0.14061360958E+04 0.  0.
        2    1    3    3  502    0 -0.36830377476E+03  0.59875162588E+03 -0.30368592200E+02  0.70361454746E+03  0.25500000920E-02 0.  1.
       -2    1    3    3    0  502  0.36830377476E+03 -0.59875162588E+03 -0.55193444022E+02  0.70512232717E+03  0.25500000920E-02 0. -1.
</event>
<event>
 5   0  0.2993993E-03  0.1378731E+04  0.7818609E-02  0.8969360E-01
        2   -1    0    0  501    0  0.00000000000E+00  0.00000000000E+00  0.49512593391E+03  0.49512593392E+03  0.25500000920E-02 0.  1.
       -2   -1    0    0    0  501  0.00000000000E+00  0.00000000000E+00 -0.95980605220E+03  0.95980605221E+03  0.25500000920E-02 0. -1.
    10030    2    1    2    0    0  0.00000000000E+00  0.00000000000E+00 -0.46468011829E+03  0.14549319861E+04  0.13787311094E+04 0.  0.
        3    1    3    3  502    0 -0.64528100969E+03  0.28643350392E+02  0.21839213422E+02  0.64628552857E+03  0.10100000352E+00 0.  1.
       -3    1    3    3    0  502  0.64528100969E+03 -0.28643350392E+02 -0.48651933171E+03  0.80864645756E+03  0.10100000352E+00 0. -1.
</event>
<event>
 5   0  0.1631380E-03  0.1409539E+04  0.7818609E-02  0.8946942E-01
       -1   -1    0    0    0  501  0.00000000000E+00  0.00000000000E+00  0.80583272635E+03  0.80583272637E+03  0.50400001928E-02 0.  1.
        1   -1    0    0  501    0  0.00000000000E+00  0.00000000000E+00 -0.61638146679E+03  0.61638146682E+03  0.50400001928E-02 0. -1.
    10030    2    1    2    0    0  0.00000000000E+00  0.00000000000E+00  0.18945125956E+03  0.14222141932E+04  0.14095394395E+04 0.  0.
        3    1    3    3  502    0 -0.24342427555E+03  0.42477877462E+03 -0.41679254061E+03  0.64296844200E+03  0.10100000352E+00 0. -1.
       -3    1    3    3    0  502  0.24342427555E+03 -0.42477877462E+03  0.60624380017E+03  0.77924575118E+03  0.10100000352E+00 0.  1.
</event>
<event>
 5   0  0.1700207E-03  0.1392306E+04  0.7818609E-02  0.8959406E-01
        1   -1    0    0  501    0  0.00000000000E+00  0.00000000000E+00  0.19418986329E+04  0.19418986330E+04  0.50400001928E-02 0. -1.
       -1   -1    0    0    0  501  0.00000000000E+00  0.00000000000E+00 -0.24956464654E+03  0.24956464660E+03  0.50400001928E-02 0.  1.
    10030    2    1    2    0    0  0.00000000000E+00  0.00000000000E+00  0.16923339864E+04  0.21914632795E+04  0.13923063542E+04 0.  0.
        2    1    3    3  502    0 -0.55523388525E+03 -0.41926172455E+03  0.88355309342E+03  0.11246026542E+04  0.25500000920E-02 0. -1.
       -2    1    3    3    0  502  0.55523388525E+03  0.41926172455E+03  0.80878089298E+03  0.10668606253E+04  0.25500000920E-02 0.  1.
</event>
<event>
 5   0  0.2917809E-03  0.1397104E+04  0.7818609E-02  0.8955918E-01
       -2   -1    0    0    0  501  0.00000000000E+00  0.00000000000E+00  0.76693577533E+03  0.76693577534E+03  0.25500000920E-02 0. -1.
        2   -1    0    0  501    0  0.00000000000E+00  0.00000000000E+00 -0.63626525218E+03  0.63626525219E+03  0.25500000920E-02 0.  1.
    10030    2    1    2    0    0  0.00000000000E+00  0.00000000000E+00  0.13067052315E+03  0.14032010275E+04  0.13971035531E+04 0.  0.
        2    1    3    3  502    0  0.27306528258E+03  0.38213222574E+03 -0.45401425793E+03  0.65323704190E+03  0.25500000920E-02 0.  1.
       -2    1    3    3    0  502 -0.27306528258E+03 -0.38213222574E+03  0.58468478108E+03  0.74996398562E+03  0.25500000920E-02 0. -1.
</event>
<event>
 5   0  0.1644571E-03  0.1394155E+04  0.7818609E-02  0.8958060E-01
        1   -1    0    0  501    0  0.00000000000E+00  0.00000000000E+00  0.57232932439E+03  0.57232932441E+03  0.50400001928E-02 0.  1.
       -1   -1    0    0    0  501  0.00000000000E+00  0.00000000000E+00 -0.84901690418E+03  0.84901690420E+03  0.50400001928E-02 0. -1.
    10030    2    1    2    0    0  0.00000000000E+00  0.00000000000E+00 -0.27668757979E+03  0.14213462286E+04  0.13941553302E+04 0.  0.
        4    1    3    3  502    0 -0.16825368387E+03 -0.22194282744E+03 -0.78982785083E+03  0.83749481648E+03  0.12699999809E+01 0. -1.
       -4    1    3    3    0  502  0.16825368387E+03  0.22194282744E+03  0.51314027104E+03  0.58385141213E+03  0.12699999809E+01 0.  1.
</event>
<event>
 5   0  0.1104538E-03  0.1395871E+04  0.7818609E-02  0.8956813E-01
        3   -1    0    0  501    0  0.00000000000E+00  0.00000000000E+00  0.10252740106E+04  0.10252740155E+04  0.10100000352E+00 0.  1.
       -3   -1    0    0    0  501  0.00000000000E+00  0.00000000000E+00 -0.47510600745E+03  0.47510601819E+03  0.10100000352E+00 0. -1.
    10030    2    1    2    0    0  0.00000000000E+00  0.00000000000E+00  0.55016800310E+03  0.15003800337E+04  0.13958708443E+04 0.  0.
        3    1    3    3  502    0 -0.18444143499E+03 -0.50526425725E+03 -0.20296534650E+03  0.57489612512E+03  0.10100000352E+00 0. -1.
       -3    1    3    3    0  502  0.18444143499E+03  0.50526425725E+03  0.75313334960E+03  0.92548390860E+03  0.10100000352E+00 0.  1.
</event>
<event>
 5   0  0.3006737E-03  0.1391849E+04  0.7818609E-02  0.8959740E-01
        2   -1    0    0  501    0  0.00000000000E+00  0.00000000000E+00  0.17204671592E+04  0.17204671592E+04  0.25500000920E-02 0. -1.
       -2   -1    0    0    0  501  0.00000000000E+00  0.00000000000E+00 -0.28149973131E+03  0.28149973132E+03  0.25500000920E-02 0.  1.
    10030    2    1    2    0    0  0.00000000000E+00  0.00000000000E+00  0.14389674279E+04  0.20019668905E+04  0.13918491916E+04 0.  0.
        1    1    3    3  502    0  0.54901025599E+03 -0.34789493256E+03  0.36171909526E+03  0.74383052451E+03  0.50400001928E-02 0.  1.
       -1    1    3    3    0  502 -0.54901025599E+03  0.34789493256E+03  0.10772483326E+04  0.12581363660E+04  0.50400001928E-02 0. -1.
</event>
<event>
 5   0  0.1644571E-03  0.1185565E+04  0.7818609E-02  0.9125586E-01
        1   -1    0    0  501    0  0.00000000000E+00  0.00000000000E+00  0.88946575810E+03  0.88946575812E+03  0.50400001928E-02 0.  1.
       -1   -1    0    0    0  501  0.00000000000E+00  0.00000000000E+00 -0.39505892364E+03  0.39505892367E+03  0.50400001928E-02 0. -1.
    10030    2    1    2    0    0  0.00000000000E+00  0.00000000000E+00  0.49440683446E+03  0.12845246818E+04  0.11855654938E+04 0.  0.
        4    1    3    3  502    0  0.25617801679E+03 -0.22489328596E+03 -0.27823554321E+03  0.44002363204E+03  0.12699999809E+01 0. -1.
       -4    1    3    3    0  502 -0.25617801679E+03  0.22489328596E+03  0.77264237767E+03  0.84450104974E+03  0.12699999809E+01 0.  1.
</event>
<event>
 5   0  0.1631380E-03  0.1429810E+04  0.7818609E-02  0.8932519E-01
        1   -1    0    0  501    0  0.00000000000E+00  0.00000000000E+00  0.17671703244E+04  0.17671703244E+04  0.50400001928E-02 0. -1.
       -1   -1    0    0    0  501  0.00000000000E+00  0.00000000000E+00 -0.28921326287E+03  0.28921326291E+03  0.50400001928E-02 0.  1.
    10030    2    1    2    0    0  0.00000000000E+00  0.00000000000E+00  0.14779570615E+04  0.20563835873E+04  0.14298099113E+04 0.  0.
        3    1    3    3  502    0 -0.99451193984E+01 -0.31838006437E+03  0.16594677144E+04  0.16897626686E+04  0.10100000352E+00 0. -1.
       -3    1    3    3    0  502  0.99451193984E+01  0.31838006437E+03 -0.18151065284E+03  0.36662091878E+03  0.10100000352E+00 0.  1.
</event>
<event>
 5   0  0.1700207E-03  0.1392232E+04  0.7818609E-02  0.8959461E-01
       -1   -1    0    0    0  501  0.00000000000E+00  0.00000000000E+00  0.31038837796E+03  0.31038837800E+03  0.50400001928E-02 0.  1.
        1   -1    0    0  501    0  0.00000000000E+00  0.00000000000E+00 -0.15611977621E+04  0.15611977621E+04  0.50400001928E-02 0. -1.
    10030    2    1    2    0    0  0.00000000000E+00  0.00000000000E+00 -0.12508093841E+04  0.18715861401E+04  0.13922322236E+04 0.  0.
        2    1    3    3  502    0  0.60730281782E+03 -0.22758784580E+03 -0.28541298344E+03  0.70857145809E+03  0.25500000920E-02 0.  1.
       -2    1    3    3    0  502 -0.60730281782E+03  0.22758784580E+03 -0.96539640070E+03  0.11630146820E+04  0.25500000920E-02 0. -1.
</event>
<event>
 5   0  0.3006737E-03  0.1307873E+04  0.7818609E-02  0.9023345E-01
        2   -1    0    0  501    0  0.00000000000E+00  0.00000000000E+00  0.18435724781E+04  0.18435724781E+04  0.25500000920E-02 0.  1.
       -2   -1    0    0    0  501  0.00000000000E+00  0.00000000000E+00 -0.23195867640E+03  0.23195867641E+03  0.25500000920E-02 0. -1.
    10030    2    1    2    0    0  0.00000000000E+00  0.00000000000E+00  0.16116138017E+04  0.20755311545E+04  0.13078725196E+04 0.  0.
        1    1    3    3  502    0 -0.17095984080E+03  0.46028278099E+03  0.14912253587E+04  0.15699810750E+04  0.50400001928E-02 0.  1.
       -1    1    3    3    0  502  0.17095984080E+03 -0.46028278099E+03  0.12038844308E+03  0.50555007951E+03  0.50400001928E-02 0. -1.
</event>
<event>
 5   0  0.2889469E-03  0.1416726E+04  0.7818609E-02  0.8941800E-01
        2   -1    0    0  501    0  0.00000000000E+00  0.00000000000E+00  0.16549782200E+04  0.16549782200E+04  0.25500000920E-02 0.  1.
       -2   -1    0    0    0  501  0.00000000000E+00  0.00000000000E+00 -0.30319305705E+03  0.30319305706E+03  0.25500000920E-02 0. -1.
    10030    2    1    2    0    0  0.00000000000E+00  0.00000000000E+00  0.13517851629E+04  0.19581712770E+04  0.14167256698E+04 0.  0.
        5    1    3    3  502    0 -0.66722948906E+03  0.21339209641E+03  0.53076727746E+03  0.87890122921E+03  0.46999998093E+01 0. -1.
       -5    1    3    3    0  502  0.66722948906E+03 -0.21339209641E+03  0.82101788544E+03  0.10792700478E+04  0.46999998093E+01 0.  1.
</event>
<event>
 5   0  0.1560957E-03  0.1374231E+04  0.7818609E-02  0.8972686E-01
        1   -1    0    0  501    0  0.00000000000E+00  0.00000000000E+00  0.15161556710E+04  0.15161556710E+04  0.50400001928E-02 0. -1.
       -1   -1    0    0    0  501  0.00000000000E+00  0.00000000000E+00 -0.31139773844E+03  0.31139773848E+03  0.50400001928E-02 0.  1.
    10030    2    1    2    0    0  0.00000000000E+00  0.00000000000E+00  0.12047579326E+04  0.18275534095E+04  0.13742306169E+04 0.  0.
        5    1    3    3  502    0 -0.59572910474E+03  0.85123175791E+02  0.16137739439E+03  0.62306008916E+03  0.46999998093E+01 0.  1.
       -5    1    3    3    0  502  0.59572910474E+03 -0.85123175791E+02  0.10433805382E+04  0.12044933204E+04  0.46999998093E+01 0. -1.
</event>
<event>
 5   0  0.2760807E-03  0.1439947E+04  0.7818609E-02  0.8925400E-01
       -2   -1    0    0    0  501  0.00000000000E+00  0.00000000000E+00  0.10760290556E+04  0.10760290556E+04  0.25500000920E-02 0.  1.
        2   -1    0    0  501    0  0.00000000000E+00  0.00000000000E+00 -0.48173591442E+03  0.48173591443E+03  0.25500000920E-02 0. -1.
    10030    2    1    2    0    0  0.00000000000E+00  0.00000000000E+00  0.59429314122E+03  0.15577649701E+04  0.14399470005E+04 0.  0.
        4    1    3    3  502    0  0.55013624166E+03 -0.37437547951E+03  0.59450638149E+03  0.89232636103E+03  0.12699999809E+01 0. -1.
       -4    1    3    3    0  502 -0.55013624166E+03  0.37437547951E+03 -0.21324026640E+00  0.66543860905E+03  0.12699999809E+01 0.  1.
</event>
<event>
 5   0  0.1586022E-03  0.1383596E+04  0.7818609E-02  0.8965779E-01
       -1   -1    0    0    0  501  0.00000000000E+00  0.00000000000E+00  0.46473784700E+03  0.46473784702E+03  0.50400001928E-02 0. -1.
        1   -1    0    0  501    0  0.00000000000E+00  0.00000000000E+00 -0.10297945588E+04  0.10297945588E+04  0.50400001928E-02 0.  1.
    10030    2    1    2    0    0  0.00000000000E+00  0.00000000000E+00 -0.56505671177E+03  0.14945324058E+04  0.13835960482E+04 0.  0.
        1    1    3    3  502    0 -0.19079152575E+03 -0.29306068728E+02  0.43505923725E+03  0.47595881324E+03  0.50400001928E-02 0. -1.
       -1    1    3    3    0  502  0.19079152575E+03  0.29306068728E+02 -0.10001159490E+04  0.10185735926E+04  0.50400001928E-02 0.  1.
</event>
<event>
 5   0  0.1560957E-03  0.1439280E+04  0.7818609E-02  0.8925866E-01
        1   -1    0    0  501    0  0.00000000000E+00  0.00000000000E+00  0.20132204117E+04  0.20132204117E+04  0.50400001928E-02 0.  1.
       -1   -1    0    0    0  501  0.00000000000E+00  0.00000000000E+00 -0.25724058784E+03  0.25724058789E+03  0.50400001928E-02 0. -1.
    10030    2    1    2    0    0  0.00000000000E+00  0.00000000000E+00  0.17559798239E+04  0.22704609996E+04  0.14392803788E+04 0.  0.
        5    1    3    3  502    0 -0.78385104726E+02  0.20336092351E+03  0.19598817455E+04  0.19719681631E+04  0.46999998093E+01 0.  1.
       -5    1    3    3    0  502  0.78385104726E+02 -0.20336092351E+03 -0.20390192160E+03  0.29849283657E+03  0.46999998093E+01 0. -1.
</event>
<event>
 5   0  0.1700207E-03  0.1406042E+04  0.7818609E-02  0.8949457E-01
        1   -1    0    0  501    0  0.00000000000E+00  0.00000000000E+00  0.13977280644E+04  0.13977280644E+04  0.50400001928E-02 0. -1.
       -1   -1    0    0    0  501  0.00000000000E+00  0.00000000000E+00 -0.35360134503E+03  0.35360134507E+03  0.50400001928E-02 0.  1.
    10030    2    1    2    0    0  0.00000000000E+00  0.00000000000E+00  0.10441267194E+04  0.17513294095E+04  0.14060419960E+04 0.  0.
        2    1    3    3  502    0  0.42847239672E+02 -0.55448106401E+03  0.10577375145E+04  0.11950287803E+04  0.25500000920E-02 0. -1.
       -2    1    3    3    0  502 -0.42847239672E+02  0.55448106401E+03 -0.13610795062E+02  0.55630062919E+03  0.25500000920E-02 0.  1.
</event>
<event>
 5   0  0.1700207E-03  0.1383083E+04  0.7818609E-02  0.8966156E-01
        1   -1    0    0  501    0  0.00000000000E+00  0.00000000000E+00  0.13624774328E+04  0.13624774329E+04  0.50400001928E-02 0.  1.
       -1   -1    0    0    0  501  0.00000000000E+00  0.00000000000E+00 -0.35100019932E+03  0.35100019935E+03  0.50400001928E-02 0. -1.
    10030    2    1    2    0    0  0.00000000000E+00  0.00000000000E+00  0.10114772335E+04  0.17134776322E+04  0.13830832954E+04 0.  0.
        2    1    3    3  502    0  0.52883033591E+03  0.13609544225E+03  0.10314196074E+04  0.11670517984E+04  0.25500000920E-02 0.  1.
       -2    1    3    3    0  502 -0.52883033591E+03 -0.13609544225E+03 -0.19942373875E+02  0.54642583382E+03  0.25500000920E-02 0. -1.
</event>
<event>
 5   0  0.1560957E-03  0.1432205E+04  0.7818609E-02  0.8930831E-01
       -1   -1    0    0    0  501  0.00000000000E+00  0.00000000000E+00  0.58291827421E+03  0.58291827423E+03  0.50400001928E-02 0.  1.
        1   -1    0    0  501    0  0.00000000000E+00  0.00000000000E+00 -0.87971695700E+03  0.87971695702E+03  0.50400001928E-02 0. -1.
    10030    2    1    2    0    0  0.00000000000E+00  0.00000000000E+00 -0.29679868279E+03  0.14626352312E+04  0.14322054188E+04 0.  0.
        5    1    3    3  502    0  0.43312233389E+03 -0.56771048016E+02  0.43107440251E+03  0.61373050967E+03  0.46999998093E+01 0.  1.
       -5    1    3    3    0  502 -0.43312233389E+03  0.56771048016E+02 -0.72787308530E+03  0.84890472157E+03  0.46999998093E+01 0. -1.
</event>
<event>
 5   0  0.1560957E-03  0.1552007E+04  0.7818609E-02  0.8850587E-01
       -1   -1    0    0    0  501  0.00000000000E+00  0.00000000000E+00  0.97335866573E+03  0.97335866575E+03  0.50400001928E-02 0.  1.
        1   -1    0    0  501    0  0.00000000000E+00  0.00000000000E+00 -0.61866347379E+03  0.61866347381E+03  0.50400001928E-02 0. -1.
    10030    2    1    2    0    0  0.00000000000E+00  0.00000000000E+00  0.35469519195E+03  0.15920221396E+04  0.15520070276E+04 0.  0.
        5    1    3    3  502    0  0.18360638155E+03 -0.30301734661E+03 -0.53083531880E+03  0.63823118177E+03  0.46999998093E+01 0. -1.
       -5    1    3    3    0  502 -0.18360638155E+03  0.30301734661E+03  0.88553051075E+03  0.95379095779E+03  0.46999998093E+01 0.  1.
</event>
<event>
 5   0  0.1700207E-03  0.1363276E+04  0.7818609E-02  0.8980838E-01
        1   -1    0    0  501    0  0.00000000000E+00  0.00000000000E+00  0.15699282476E+04  0.15699282477E+04  0.50400001928E-02 0.  1.
       -1   -1    0    0    0  501  0.00000000000E+00  0.00000000000E+00 -0.29595664701E+03  0.29595664705E+03  0.50400001928E-02 0. -1.
    10030    2    1    2    0    0  0.00000000000E+00  0.00000000000E+00  0.12739716006E+04  0.18658848947E+04  0.13632764947E+04 0.  0.
        2    1    3    3  502    0 -0.12401968335E+03 -0.69948272404E+02  0.15493472850E+04  0.15558761687E+04  0.25500000920E-02 0.  1.
       -2    1    3    3    0  502  0.12401968335E+03  0.69948272404E+02 -0.27537568437E+03  0.31000872604E+03  0.25500000920E-02 0. -1.
</event>
<event>
 5   0  0.1700207E-03  0.1539342E+04  0.7818609E-02  0.8858704E-01
       -1   -1    0    0    0  501  0.00000000000E+00  0.00000000000E+00  0.88948300168E+03  0.88948300169E+03  0.50400001928E-02 0.  1.
        1   -1    0    0  501    0  0.00000000000E+00  0.00000000000E+00 -0.66599784885E+03  0.66599784887E+03  0.50400001928E-02 0. -1.
    10030    2    1    2    0    0  0.00000000000E+00  0.00000000000E+00  0.22348515283E+03  0.15554808506E+04  0.15393424125E+04 0.  0.
        2    1    3    3  502    0 -0.38861022772E+03 -0.66435298529E+03  0.11508902956E+03  0.77822123004E+03  0.25500000920E-02 0. -1.
       -2    1    3    3    0  502  0.38861022772E+03  0.66435298529E+03  0.10839612326E+03  0.77725962052E+03  0.25500000920E-02 0.  1.
</event>
<event>
 5   0  0.1104538E-03  0.1531664E+04  0.7818609E-02  0.8863666E-01
        4   -1    0    0  501    0  0.00000000000E+00  0.00000000000E+00  0.11579058159E+04  0.11579065123E+04  0.12699999809E+01 0.  1.
       -4   -1    0    0    0  501  0.00000000000E+00  0.00000000000E+00 -0.50651490420E+03  0.50651649635E+03  0.12699999809E+01 0. -1.
    10030    2    1    2    0    0  0.00000000000E+00  0.00000000000E+00  0.65139091167E+03  0.16644230087E+04  0.15316637464E+04 0.  0.
        4    1    3    3  502    0 -0.60368988030E+03  0.46133016622E+03  0.43009476606E+03  0.87306936410E+03  0.12699999809E+01 0. -1.
       -4    1    3    3    0  502  0.60368988030E+03 -0.46133016622E+03  0.22129614561E+03  0.79135364459E+03  0.12699999809E+01 0.  1.
</event>
<event>
 5   0  0.3006737E-03  0.1334980E+04  0.7818609E-02  0.9002276E-01
       -2   -1    0    0    0  501  0.00000000000E+00  0.00000000000E+00  0.52711054737E+03  0.52711054738E+03  0.25500000920E-02 0.  1.
        2   -1    0    0  501    0  0.00000000000E+00  0.00000000000E+00 -0.84525552119E+03  0.84525552119E+03  0.25500000920E-02 0. -1.
    10030    2    1    2    0    0  0.00000000000E+00  0.00000000000E+00 -0.31814497382E+03  0.13723660686E+04  0.13349803002E+04 0.  0.
        1    1    3    3  502    0 -0.44514295286E+03  0.24548925080E+03  0.28562230396E+03  0.58309289250E+03  0.50400001928E-02 0.  1.
       -1    1    3    3    0  502  0.44514295286E+03 -0.24548925080E+03 -0.60376727778E+03  0.78927317608E+03  0.50400001928E-02 0. -1.
</event>
<event>
 5   0  0.1560957E-03  0.1390068E+04  0.7818609E-02  0.8961040E-01
       -1   -1    0    0    0  501  0.00000000000E+00  0.00000000000E+00  0.71283523491E+03  0.71283523493E+03  0.50400001928E-02 0. -1.
        1   -1    0    0  501    0  0.00000000000E+00  0.00000000000E+00 -0.67767681832E+03  0.67767681834E+03  0.50400001928E-02 0.  1.
    10030    2    1    2    0    0  0.00000000000E+00  0.00000000000E+00  0.35158416590E+02  0.13905120533E+04  0.13900675005E+04 0.  0.
        5    1    3    3  502    0  0.33853718620E+03  0.38668586986E+03  0.48561390770E+03  0.70709005490E+03  0.46999998093E+01 0. -1.
       -5    1    3    3    0  502 -0.33853718620E+03 -0.38668586986E+03 -0.45045549111E+03  0.68342199837E+03  0.46999998093E+01 0.  1.
</event>
<event>
 5   0  0.1700207E-03  0.1408939E+04  0.7818609E-02  0.8947373E-01
        1   -1    0    0  501    0  0.00000000000E+00  0.00000000000E+00  0.42091083160E+03  0.42091083163E+03  0.50400001928E-02 0.  1.
       -1   -1    0    0    0  501  0.00000000000E+00  0.00000000000E+00 -0.11790560800E+04  0.11790560800E+04  0.50400001928E-02 0. -1.
    10030    2    1    2    0    0  0.00000000000E+00  0.00000000000E+00 -0.75814524837E+03  0.15999669116E+04  0.14089392821E+04 0.  0.
        2    1    3    3  502    0  0.53757584188E+02 -0.99038672378E+02  0.41060969149E+03  0.42579203284E+03  0.25500000920E-02 0.  1.
       -2    1    3    3    0  502 -0.53757584188E+02  0.99038672378E+02 -0.11687549399E+04  0.11741748788E+04  0.25500000920E-02 0. -1.
</event>
<event>
 5   0  0.1586022E-03  0.1394017E+04  0.7818609E-02  0.8958160E-01
        1   -1    0    0  501    0  0.00000000000E+00  0.00000000000E+00  0.15234746530E+04  0.15234746530E+04  0.50400001928E-02 0.  1.
       -1   -1    0    0    0  501  0.00000000000E+00  0.00000000000E+00 -0.31889021322E+03  0.31889021326E+03  0.50400001928E-02 0. -1.
    10030    2    1    2    0    0  0.00000000000E+00  0.00000000000E+00  0.12045844398E+04  0.18423648662E+04  0.13940174417E+04 0.  0.
        1    1    3    3  502    0 -0.53465458290E+02  0.29581426144E+03 -0.22881452722E+03  0.37778395995E+03  0.50400001928E-02 0. -1.
       -1    1    3    3    0  502  0.53465458290E+02 -0.29581426144E+03  0.14333989670E+04  0.14645809063E+04  0.50400001928E-02 0.  1.
</event>
<event>
 5   0  0.2889469E-03  0.1418989E+04  0.7818609E-02  0.8940187E-01
       -2   -1    0    0    0  501  0.00000000000E+00  0.00000000000E+00  0.52908931924E+03  0.52908931925E+03  0.25500000920E-02 0.  1.
        2   -1    0    0  501    0  0.00000000000E+00  0.00000000000E+00 -0.95141340922E+03  0.95141340922E+03  0.25500000920E-02 0. -1.
    10030    2    1    2    0    0  0.00000000000E+00  0.00000000000E+00 -0.42232408998E+03  0.14805027285E+04  0.14189893206E+04 0.  0.
        5    1    3    3  502    0 -0.37280766620E+03 -0.19332391125E+03 -0.80779131292E+03  0.91044416955E+03  0.46999998093E+01 0. -1.
       -5    1    3    3    0  502  0.37280766620E+03  0.19332391125E+03  0.38546722294E+03  0.57005855892E+03  0.46999998093E+01 0.  1.
</event>
<event>
 5   0  0.2889469E-03  0.1399068E+04  0.7818609E-02  0.8954493E-01
        2   -1    0    0  501    0  0.00000000000E+00  0.00000000000E+00  0.89506482130E+03  0.89506482130E+03  0.25500000920E-02 0. -1.
       -2   -1    0    0    0  501  0.00000000000E+00  0.00000000000E+00 -0.54671791544E+03  0.54671791544E+03  0.25500000920E-02 0.  1.
    10030    2    1    2    0    0  0.00000000000E+00  0.00000000000E+00  0.34834690586E+03  0.14417827367E+04  0.13990682232E+04 0.  0.
        5    1    3    3  502    0 -0.16108406935E+03  0.17041605576E+03  0.85333631393E+03  0.88498286092E+03  0.46999998093E+01 0. -1.
       -5    1    3    3    0  502  0.16108406935E+03 -0.17041605576E+03 -0.50498940807E+03  0.55679987582E+03  0.46999998093E+01 0.  1.
</event>
<event>
 5   0  0.2760807E-03  0.1301991E+04  0.7818609E-02  0.9027988E-01
        2   -1    0    0  501    0  0.00000000000E+00  0.00000000000E+00  0.15246910061E+04  0.15246910061E+04  0.25500000920E-02 0.  1.
       -2   -1    0    0    0  501  0.00000000000E+00  0.00000000000E+00 -0.27795477832E+03  0.27795477834E+03  0.25500000920E-02 0. -1.
    10030    2    1    2    0    0  0.00000000000E+00  0.00000000000E+00  0.12467362277E+04  0.18026457844E+04  0.13019910147E+04 0.  0.
        4    1    3    3  502    0 -0.19309834656E+03 -0.39816819477E+03 -0.37690515132E+02  0.44412506190E+03  0.12699999809E+01 0. -1.
       -4    1    3    3    0  502  0.19309834656E+03  0.39816819477E+03  0.12844267429E+04  0.13585207225E+04  0.12699999809E+01 0.  1.
</event>
<event>
 5   0  0.1560957E-03  0.1652453E+04  0.7818609E-02  0.8788957E-01
       -1   -1    0    0    0  501  0.00000000000E+00  0.00000000000E+00  0.46384199689E+03  0.46384199692E+03  0.50400001928E-02 0.  1.
        1   -1    0    0  501    0  0.00000000000E+00  0.00000000000E+00 -0.14717302376E+04  0.14717302376E+04  0.50400001928E-02 0. -1.
    10030    2    1    2    0    0  0.00000000000E+00  0.00000000000E+00 -0.10078882407E+04  0.19355722345E+04  0.16524530763E+04 0.  0.
        5    1    3    3  502    0  0.12137991935E+03  0.79775731113E+03 -0.71176372001E+03  0.10760016243E+04  0.46999998093E+01 0.  1.
       -5    1    3    3    0  502 -0.12137991935E+03 -0.79775731113E+03 -0.29612452072E+03  0.85957061028E+03  0.46999998093E+01 0. -1.
</event>
<event>
 5   0  0.2917809E-03  0.1405596E+04  0.7818609E-02  0.8949778E-01
        2   -1    0    0  501    0  0.00000000000E+00  0.00000000000E+00  0.21886935255E+04  0.21886935255E+04  0.25500000920E-02 0.  1.
       -2   -1    0    0    0  501  0.00000000000E+00  0.00000000000E+00 -0.22567131003E+03  0.22567131004E+03  0.25500000920E-02 0. -1.
    10030    2    1    2    0    0  0.00000000000E+00  0.00000000000E+00  0.19630222154E+04  0.24143648355E+04  0.14055964359E+04 0.  0.
        2    1    3    3  502    0 -0.53093358371E+03 -0.23315635248E+03  0.29945376620E+03  0.65262923096E+03  0.25500000920E-02 0. -1.
       -2    1    3    3    0  502  0.53093358371E+03  0.23315635248E+03  0.16635684492E+04  0.17617356045E+04  0.25500000920E-02 0.  1.
</event>
<event>
 5   0  0.1700207E-03  0.1363993E+04  0.7818609E-02  0.8980303E-01
       -1   -1    0    0    0  501  0.00000000000E+00  0.00000000000E+00  0.56027293063E+03  0.56027293065E+03  0.50400001928E-02 0. -1.
        1   -1    0    0  501    0  0.00000000000E+00  0.00000000000E+00 -0.83016552659E+03  0.83016552660E+03  0.50400001928E-02 0.  1.
    10030    2    1    2    0    0  0.00000000000E+00  0.00000000000E+00 -0.26989259596E+03  0.13904384573E+04  0.13639930682E+04 0.  0.
        2    1    3    3  502    0 -0.23561055991E+03  0.59353667096E+03 -0.37900656440E+03  0.74259281681E+03  0.25500000920E-02 0.  1.
       -2    1    3    3    0  502  0.23561055991E+03 -0.59353667096E+03  0.10911396844E+03  0.64784564044E+03  0.25500000920E-02 0. -1.
</event>
<event>
 5   0  0.2917809E-03  0.1426815E+04  0.7818609E-02  0.8934634E-01
        2   -1    0    0  501    0  0.00000000000E+00  0.00000000000E+00  0.89435444259E+03  0.89435444259E+03  0.25500000920E-02 0.  1.
       -2   -1    0    0    0  501  0.00000000000E+00  0.00000000000E+00 -0.56906960117E+03  0.56906960118E+03  0.25500000920E-02 0. -1.
    10030    2    1    2    0    0  0.00000000000E+00  0.00000000000E+00  0.32528484141E+03  0.14634240438E+04  0.14268145303E+04 0.  0.
        2    1    3    3  502    0 -0.30903606569E+02  0.12015801723E+03  0.88320432242E+03  0.89187603239E+03  0.25500000920E-02 0.  1.
       -2    1    3    3    0  502  0.30903606569E+02 -0.12015801723E+03 -0.55791948101E+03  0.57154801137E+03  0.25500000920E-02 0. -1.
</event>
<event>
 5   0  0.1560957E-03  0.7003348E+03  0.7818609E-02  0.9716660E-01
        1   -1    0    0  501    0  0.00000000000E+00  0.00000000000E+00  0.82041313300E+03  0.82041313302E+03  0.50400001928E-02 0.  1.
       -1   -1    0    0    0  501  0.00000000000E+00  0.00000000000E+00 -0.14945787922E+03  0.14945787930E+03  0.50400001928E-02 0. -1.
    10030    2    1    2    0    0  0.00000000000E+00  0.00000000000E+00  0.67095525379E+03  0.96987101232E+03  0.70033479705E+03 0.  0.
        5    1    3    3  502    0  0.29150713671E+03 -0.10025481198E+03  0.56541436956E+03  0.64400538614E+03  0.46999998093E+01 0.  1.
       -5    1    3    3    0  502 -0.29150713671E+03  0.10025481198E+03  0.10554088423E+03  0.32586562618E+03  0.46999998093E+01 0. -1.
</event>
<event>
 5   0  0.2760807E-03  0.1228362E+04  0.7818609E-02  0.9088388E-01
       -2   -1    0    0    0  501  0.00000000000E+00  0.00000000000E+00  0.93452334052E+03  0.93452334052E+03  0.25500000920E-02 0.  1.
        2   -1    0    0  501    0  0.00000000000E+00  0.00000000000E+00 -0.40364756524E+03  0.40364756525E+03  0.25500000920E-02 0. -1.
    10030    2    1    2    0    0  0.00000000000E+00  0.00000000000E+00  0.53087577528E+03  0.13381709058E+04  0.12283616260E+04 0.  0.
        4    1    3    3  502    0 -0.83877619248E+02  0.37239761325E+02  0.92701029847E+03  0.93154278549E+03  0.12699999809E+01 0.  1.
       -4    1    3    3    0  502  0.83877619248E+02 -0.37239761325E+02 -0.39613452319E+03  0.40662812028E+03  0.12699999809E+01 0. -1.
</event>
<event>
 5   0  0.1586022E-03  0.1390895E+04  0.7818609E-02  0.8960436E-01
       -1   -1    0    0    0  501  0.00000000000E+00  0.00000000000E+00  0.79619032549E+03  0.79619032550E+03  0.50400001928E-02 0. -1.
        1   -1    0    0  501    0  0.00000000000E+00  0.00000000000E+00 -0.60745168244E+03  0.60745168246E+03  0.50400001928E-02 0.  1.
    10030    2    1    2    0    0  0.00000000000E+00  0.00000000000E+00  0.18873864304E+03  0.14036420080E+04  0.13908948958E+04 0.  0.
        1    1    3    3  502    0 -0.24517597789E+03 -0.34615177872E+03 -0.46178465823E+03  0.62703858306E+03  0.50400001928E-02 0.  1.
       -1    1    3    3    0  502  0.24517597789E+03  0.34615177872E+03  0.65052330127E+03  0.77660342490E+03  0.50400001928E-02 0. -1.
</event>
<event>
 5   0  0.1560957E-03  0.2056121E+04  0.7818609E-02  0.8580823E-01
       -1   -1    0    0    0  501  0.00000000000E+00  0.00000000000E+00  0.64124946357E+03  0.64124946359E+03  0.50400001928E-02 0.  1.
        1   -1    0    0  501    0  0.00000000000E+00  0.00000000000E+00 -0.16482009655E+04  0.16482009655E+04  0.50400001928E-02 0. -1.
    10030    2    1    2    0    0  0.00000000000E+00  0.00000000000E+00 -0.10069515019E+04  0.22894504290E+04  0.20561206044E+04 0.  0.
        5    1    3    3  502    0  0.56104426748E+03  0.74232242092E+03 -0.16752692903E+02  0.93065352811E+03  0.46999998093E+01 0.  1.
       -5    1    3    3    0  502 -0.56104426748E+03 -0.74232242092E+03 -0.99019880899E+03  0.13587969009E+04  0.46999998093E+01 0. -1.
</event>
<event>
 5   0  0.1586022E-03  0.1421479E+04  0.7818609E-02  0.8938416E-01
        1   -1    0    0  501    0  0.00000000000E+00  0.00000000000E+00  0.70843173287E+03  0.70843173289E+03  0.50400001928E-02 0. -1.
       -1   -1    0    0    0  501  0.00000000000E+00  0.00000000000E+00 -0.71305440229E+03  0.71305440231E+03  0.50400001928E-02 0.  1.
    10030    2    1    2    0    0  0.00000000000E+00  0.00000000000E+00 -0.46226694259E+01  0.14214861352E+04  0.14214786187E+04 0.  0.
        1    1    3    3  502    0  0.13269450520E+02 -0.27056533540E+03  0.65478321938E+03  0.70860619772E+03  0.50400001928E-02 0. -1.
       -1    1    3    3    0  502 -0.13269450520E+02  0.27056533540E+03 -0.65940588881E+03  0.71287993748E+03  0.50400001928E-02 0.  1.
</event>
<event>
 5   0  0.2917809E-03  0.1382455E+04  0.7818609E-02  0.8966618E-01
        2   -1    0    0  501    0  0.00000000000E+00  0.00000000000E+00  0.17292617960E+04  0.17292617960E+04  0.25500000920E-02 0.  1.
       -2   -1    0    0    0  501  0.00000000000E+00  0.00000000000E+00 -0.27630007405E+03  0.27630007406E+03  0.25500000920E-02 0. -1.
    10030    2    1    2    0    0  0.00000000000E+00  0.00000000000E+00  0.14529617220E+04  0.20055618701E+04  0.13824545740E+04 0.  0.
        2    1    3    3  502    0 -0.13597552478E+03  0.35659695352E+03  0.15625624929E+04  0.16084937908E+04  0.25500000920E-02 0.  1.
       -2    1    3    3    0  502  0.13597552478E+03 -0.35659695352E+03 -0.10960077097E+03  0.39706807931E+03  0.25500000920E-02 0. -1.
</event>
<event>
 5   0  0.2993993E-03  0.1125590E+04  0.7818609E-02  0.9180603E-01
       -2   -1    0    0    0  501  0.00000000000E+00  0.00000000000E+00  0.28843941602E+03  0.28843941603E+03  0.25500000920E-02 0.  1.
        2   -1    0    0  501    0  0.00000000000E+00  0.00000000000E+00 -0.10981097110E+04  0.10981097110E+04  0.25500000920E-02 0. -1.
    10030    2    1    2    0    0  0.00000000000E+00  0.00000000000E+00 -0.80967029497E+03  0.13865491270E+04  0.11255898432E+04 0.  0.
        3    1    3    3  502    0  0.11776959080E+03 -0.14215006919E+03 -0.10597557495E+04  0.10757130554E+04  0.10100000352E+00 0. -1.
       -3    1    3    3    0  502 -0.11776959080E+03  0.14215006919E+03  0.25008545452E+03  0.31083607167E+03  0.10100000352E+00 0.  1.
</event>
<event>
 5   0  0.1560957E-03  0.1413888E+04  0.7818609E-02  0.8943827E-01
       -1   -1    0    0    0  501  0.00000000000E+00  0.00000000000E+00  0.84101005507E+03  0.84101005508E+03  0.50400001928E-02 0. -1.
        1   -1    0    0  501    0  0.00000000000E+00  0.00000000000E+00 -0.59424930128E+03  0.59424930130E+03  0.50400001928E-02 0.  1.
    10030    2    1    2    0    0  0.00000000000E+00  0.00000000000E+00  0.24676075379E+03  0.14352593564E+04  0.14138877432E+04 0.  0.
        5    1    3    3  502    0 -0.36717745108E+03 -0.19009642431E+03 -0.45869043865E+03  0.61755561662E+03  0.46999998093E+01 0.  1.
       -5    1    3    3    0  502  0.36717745108E+03  0.19009642431E+03  0.70545119244E+03  0.81770373976E+03  0.46999998093E+01 0. -1.
</event>
<event>
 5   0  0.2889469E-03  0.1429684E+04  0.7818609E-02  0.8932608E-01
        2   -1    0    0  501    0  0.00000000000E+00  0.00000000000E+00  0.80754062753E+03  0.80754062754E+03  0.25500000920E-02 0.  1.
       -2   -1    0    0    0  501  0.00000000000E+00  0.00000000000E+00 -0.63278430605E+03  0.63278430605E+03  0.25500000920E-02 0. -1.
    10030    2    1    2    0    0  0.00000000000E+00  0.00000000000E+00  0.17475632149E+03  0.14403249336E+04  0.14296839310E+04 0.  0.
        5    1    3    3  502    0  0.41044035728E+03 -0.36205321068E+03  0.55061913237E+03  0.77636803977E+03  0.46999998093E+01 0.  1.
       -5    1    3    3    0  502 -0.41044035728E+03  0.36205321068E+03 -0.37586281088E+03  0.66395689382E+03  0.46999998093E+01 0. -1.
</event>
<event>
 5   0  0.2889469E-03  0.1274273E+04  0.7818609E-02  0.9050220E-01
       -2   -1    0    0    0  501  0.00000000000E+00  0.00000000000E+00  0.97500386015E+03  0.97500386015E+03  0.25500000920E-02 0. -1.
        2   -1    0    0  501    0  0.00000000000E+00  0.00000000000E+00 -0.41634991107E+03  0.41634991108E+03  0.25500000920E-02 0.  1.
    10030    2    1    2    0    0  0.00000000000E+00  0.00000000000E+00  0.55865394908E+03  0.13913537712E+04  0.12742727659E+04 0.  0.
        5    1    3    3  502    0 -0.51409711876E+03 -0.24027826680E+03 -0.36925067949E+02  0.56869591493E+03  0.46999998093E+01 0.  1.
       -5    1    3    3    0  502  0.51409711876E+03  0.24027826680E+03  0.59557901702E+03  0.82265785630E+03  0.46999998093E+01 0. -1.
</event>
<event>
 5   0  0.2889469E-03  0.1419713E+04  0.7818609E-02  0.8939671E-01
       -2   -1    0    0    0  501  0.00000000000E+00  0.00000000000E+00  0.61823398673E+03  0.61823398674E+03  0.25500000920E-02 0. -1.
        2   -1    0    0  501    0  0.00000000000E+00  0.00000000000E+00 -0.81505788019E+03  0.81505788020E+03  0.25500000920E-02 0.  1.
    10030    2    1    2    0    0  0.00000000000E+00  0.00000000000E+00 -0.19682389346E+03  0.14332918669E+04  0.14197133270E+04 0.  0.
        5    1    3    3  502    0 -0.21616099465E+03  0.35009578380E+03  0.48555075287E+03  0.63645444224E+03  0.46999998093E+01 0. -1.
       -5    1    3    3    0  502  0.21616099465E+03 -0.35009578380E+03 -0.68237464633E+03  0.79683742469E+03  0.46999998093E+01 0.  1.
</event>
<event>
 5   0  0.1586022E-03  0.1389979E+04  0.7818609E-02  0.8961105E-01
       -1   -1    0    0    0  501  0.00000000000E+00  0.00000000000E+00  0.71702814813E+03  0.71702814815E+03  0.50400001928E-02 0.  1.
        1   -1    0    0  501    0  0.00000000000E+00  0.00000000000E+00 -0.67362791025E+03  0.67362791027E+03  0.50400001928E-02 0. -1.
    10030    2    1    2    0    0  0.00000000000E+00  0.00000000000E+00  0.43400237884E+02  0.13906560584E+04  0.13899786661E+04 0.  0.
        1    1    3    3  502    0  0.61330855363E+03  0.31165528470E+03 -0.77007855470E+02  0.69224750506E+03  0.50400001928E-02 0. -1.
       -1    1    3    3    0  502 -0.61330855363E+03 -0.31165528470E+03  0.12040809335E+03  0.69840855336E+03  0.50400001928E-02 0.  1.
</event>
<event>
 5   0  0.2760807E-03  0.1380552E+04  0.7818609E-02  0.8968018E-01
       -2   -1    0    0    0  501  0.00000000000E+00  0.00000000000E+00  0.78393700145E+03  0.78393700146E+03  0.25500000920E-02 0. -1.
        2   -1    0    0  501    0  0.00000000000E+00  0.00000000000E+00 -0.60780498869E+03  0.60780498869E+03  0.25500000920E-02 0.  1.
    10030    2    1    2    0    0  0.00000000000E+00  0.00000000000E+00  0.17613201277E+03  0.13917419901E+04  0.13805518032E+04 0.  0.
        4    1    3    3  502    0  0.41441568674E+03  0.76172435948E+02  0.63924869975E+03  0.76562596250E+03  0.12699999809E+01 0. -1.
       -4    1    3    3    0  502 -0.41441568674E+03 -0.76172435948E+02 -0.46311668698E+03  0.62611602765E+03  0.12699999809E+01 0.  1.
</event>
<event>
 5   0  0.1586022E-03  0.1303734E+04  0.7818609E-02  0.9026610E-01
        1   -1    0    0  501    0  0.00000000000E+00  0.00000000000E+00  0.68429326579E+03  0.68429326581E+03  0.50400001928E-02 0.  1.
       -1   -1    0    0    0  501  0.00000000000E+00  0.00000000000E+00 -0.62097688166E+03  0.62097688168E+03  0.50400001928E-02 0. -1.
    10030    2    1    2    0    0  0.00000000000E+00  0.00000000000E+00  0.63316384130E+02  0.13052701475E+04  0.13037335592E+04 0.  0.
        1    1    3    3  502    0 -0.23902811441E+03 -0.58827198599E+03 -0.11593308922E+03  0.64547567745E+03  0.50400001928E-02 0.  1.
       -1    1    3    3    0  502  0.23902811441E+03  0.58827198599E+03  0.17924947335E+03  0.65979447004E+03  0.50400001928E-02 0. -1.
</event>
<event>
 5   0  0.1586022E-03  0.1384213E+04  0.7818609E-02  0.8965326E-01
       -1   -1    0    0    0  501  0.00000000000E+00  0.00000000000E+00  0.64301108200E+03  0.64301108202E+03  0.50400001928E-02 0. -1.
        1   -1    0    0  501    0  0.00000000000E+00  0.00000000000E+00 -0.74495052628E+03  0.74495052629E+03  0.50400001928E-02 0.  1.
    10030    2    1    2    0    0  0.00000000000E+00  0.00000000000E+00 -0.10193944428E+03  0.13879616083E+04  0.13842130529E+04 0.  0.
        1    1    3    3  502    0  0.52099694845E+03  0.44176508299E+03 -0.16270413851E+03  0.70218718699E+03  0.50400001928E-02 0.  1.
       -1    1    3    3    0  502 -0.52099694845E+03 -0.44176508299E+03  0.60764694236E+02  0.68577442132E+03  0.50400001928E-02 0. -1.
</event>
<event>
 5   0  0.1700207E-03  0.1350427E+04  0.7818609E-02  0.8990505E-01
       -1   -1    0    0    0  501  0.00000000000E+00  0.00000000000E+00  0.64329126899E+03  0.64329126901E+03  0.50400001928E-02 0. -1.
        1   -1    0    0  501    0  0.00000000000E+00  0.00000000000E+00 -0.70872010539E+03  0.70872010541E+03  0.50400001928E-02 0.  1.
    10030    2    1    2    0    0  0.00000000000E+00  0.00000000000E+00 -0.65428836400E+02  0.13520113744E+04  0.13504272746E+04 0.  0.
        2    1    3    3  502    0 -0.62559176910E+03  0.25043885630E+03 -0.75528745495E+02  0.67807763104E+03  0.25500000920E-02 0. -1.
       -2    1    3    3    0  502  0.62559176910E+03 -0.25043885630E+03  0.10099909095E+02  0.67393374339E+03  0.25500000920E-02 0.  1.
</event>
<event>
 5   0  0.2760807E-03  0.1418159E+04  0.7818609E-02  0.8940778E-01
       -2   -1    0    0    0  501  0.00000000000E+00  0.00000000000E+00  0.29076503823E+03  0.29076503824E+03  0.25500000920E-02 0. -1.
        2   -1    0    0  501    0  0.00000000000E+00  0.00000000000E+00 -0.17292089531E+04  0.17292089531E+04  0.25500000920E-02 0.  1.
    10030    2    1    2    0    0  0.00000000000E+00  0.00000000000E+00 -0.14384439149E+04  0.20199739914E+04  0.14181586757E+04 0.  0.
        4    1    3    3  502    0  0.11809035765E+03  0.34926322826E+03 -0.15819465413E+04  0.16243418998E+04  0.12699999809E+01 0.  1.
       -4    1    3    3    0  502 -0.11809035765E+03 -0.34926322826E+03  0.14350262637E+03  0.39563209155E+03  0.12699999809E+01 0. -1.
</event>
<event>
 5   0  0.1644571E-03  0.1433775E+04  0.7818609E-02  0.8929727E-01
        1   -1    0    0  501    0  0.00000000000E+00  0.00000000000E+00  0.32964719325E+03  0.32964719329E+03  0.50400001928E-02 0. -1.
       -1   -1    0    0    0  501  0.00000000000E+00  0.00000000000E+00 -0.15590242803E+04  0.15590242803E+04  0.50400001928E-02 0.  1.
    10030    2    1    2    0    0  0.00000000000E+00  0.00000000000E+00 -0.12293770871E+04  0.18886714736E+04  0.14337754054E+04 0.  0.
        4    1    3    3  502    0 -0.38872553737E+03 -0.51070523310E+03 -0.10353892327E+04  0.12181789091E+04  0.12699999809E+01 0.  1.
       -4    1    3    3    0  502  0.38872553737E+03  0.51070523310E+03 -0.19398785438E+03  0.67049256451E+03  0.12699999809E+01 0. -1.
</event>
<event>
 5   0  0.1631380E-03  0.1343289E+04  0.7818609E-02  0.8995924E-01
        1   -1    0    0  501    0  0.00000000000E+00  0.00000000000E+00  0.39710109066E+03  0.39710109069E+03  0.50400001928E-02 0. -1.
       -1   -1    0    0    0  501  0.00000000000E+00  0.00000000000E+00 -0.11359987042E+04  0.11359987043E+04  0.50400001928E-02 0.  1.
    10030    2    1    2    0    0  0.00000000000E+00  0.00000000000E+00 -0.73889761359E+03  0.15330997949E+04  0.13432889852E+04 0.  0.
        3    1    3    3  502    0  0.44948835905E+03  0.19878079686E+03 -0.89190228812E+03  0.10183532255E+04  0.10100000352E+00 0.  1.
       -3    1    3    3    0  502 -0.44948835905E+03 -0.19878079686E+03  0.15300467453E+03  0.51474656945E+03  0.10100000352E+00 0. -1.
</event>
<event>
 5   0  0.3006737E-03  0.1387803E+04  0.7818609E-02  0.8962695E-01
        2   -1    0    0  501    0  0.00000000000E+00  0.00000000000E+00  0.13944683620E+04  0.13944683620E+04  0.25500000920E-02 0.  1.
       -2   -1    0    0    0  501  0.00000000000E+00  0.00000000000E+00 -0.34529235698E+03  0.34529235699E+03  0.25500000920E-02 0. -1.
    10030    2    1    2    0    0  0.00000000000E+00  0.00000000000E+00  0.10491760050E+04  0.17397607190E+04  0.13878029651E+04 0.  0.
        1    1    3    3  502    0  0.21194542421E+03 -0.65258046275E+03  0.65436605353E+03  0.94814400554E+03  0.50400001928E-02 0. -1.
       -1    1    3    3    0  502 -0.21194542421E+03  0.65258046275E+03  0.39480995151E+03  0.79161671347E+03  0.50400001928E-02 0.  1.
</event>
<event>
 5   0  0.2889469E-03  0.1412614E+04  0.7818609E-02  0.8944738E-01
        2   -1    0    0  501    0  0.00000000000E+00  0.00000000000E+00  0.10007979700E+04  0.10007979700E+04  0.25500000920E-02 0. -1.
       -2   -1    0    0    0  501  0.00000000000E+00  0.00000000000E+00 -0.49847190526E+03  0.49847190527E+03  0.25500000920E-02 0.  1.
    10030    2    1    2    0    0  0.00000000000E+00  0.00000000000E+00  0.50232606478E+03  0.14992698753E+04  0.14126141312E+04 0.  0.
        5    1    3    3  502    0  0.59873374082E+02 -0.68838534063E+03  0.40638216153E+03  0.80164066098E+03  0.46999998093E+01 0.  1.
       -5    1    3    3    0  502 -0.59873374082E+02  0.68838534063E+03  0.95943903244E+02  0.69762921433E+03  0.46999998093E+01 0. -1.
</event>
<event>
 5   0  0.1644571E-03  0.1392663E+04  0.7818609E-02  0.8959147E-01
        1   -1    0    0  501    0  0.00000000000E+00  0.00000000000E+00  0.72667310574E+03  0.72667310575E+03  0.50400001928E-02 0.  1.
       -1   -1    0    0    0  501  0.00000000000E+00  0.00000000000E+00 -0.66725646532E+03  0.66725646534E+03  0.50400001928E-02 0. -1.
    10030    2    1    2    0    0  0.00000000000E+00  0.00000000000E+00  0.59416640421E+02  0.13939295711E+04  0.13926626699E+04 0.  0.
        4    1    3    3  502    0 -0.12385811041E+03  0.48898369096E+03 -0.45075943830E+03  0.67648471207E+03  0.12699999809E+01 0. -1.
       -4    1    3    3    0  502  0.12385811041E+03 -0.48898369096E+03  0.51017607872E+03  0.71744485902E+03  0.12699999809E+01 0.  1.
</event>
<event>
 5   0  0.2760807E-03  0.1066056E+04  0.7818609E-02  0.9238923E-01
        2   -1    0    0  501    0  0.00000000000E+00  0.00000000000E+00  0.56865248288E+03  0.56865248289E+03  0.25500000920E-02 0.  1.
       -2   -1    0    0    0  501  0.00000000000E+00  0.00000000000E+00 -0.49963494531E+03  0.49963494532E+03  0.25500000920E-02 0. -1.
    10030    2    1    2    0    0  0.00000000000E+00  0.00000000000E+00  0.69017537567E+02  0.10682874282E+04  0.10660556312E+04 0.  0.
        4    1    3    3  502    0  0.49717169765E+03  0.69883780754E+02 -0.14490123376E+03  0.52255279179E+03  0.12699999809E+01 0. -1.
       -4    1    3    3    0  502 -0.49717169765E+03 -0.69883780754E+02  0.21391877133E+03  0.54573463642E+03  0.12699999809E+01 0.  1.
</event>
<event>
 5   0  0.2917809E-03  0.1614167E+04  0.7818609E-02  0.8811892E-01
        2   -1    0    0  501    0  0.00000000000E+00  0.00000000000E+00  0.13662762952E+04  0.13662762952E+04  0.25500000920E-02 0.  1.
       -2   -1    0    0    0  501  0.00000000000E+00  0.00000000000E+00 -0.47675838698E+03  0.47675838699E+03  0.25500000920E-02 0. -1.
    10030    2    1    2    0    0  0.00000000000E+00  0.00000000000E+00  0.88951790820E+03  0.18430346822E+04  0.16141668844E+04 0.  0.
        2    1    3    3  502    0  0.46242428540E+03 -0.42860371122E+03  0.10200273454E+04  0.11991635194E+04  0.25500000920E-02 0.  1.
       -2    1    3    3    0  502 -0.46242428540E+03  0.42860371122E+03 -0.13050943719E+03  0.64387116273E+03  0.25500000920E-02 0. -1.
</event>
<event>
 5   0  0.1586022E-03  0.1426402E+04  0.7818609E-02  0.8934926E-01
        1   -1    0    0  501    0  0.00000000000E+00  0.00000000000E+00  0.12958437992E+04  0.12958437992E+04  0.50400001928E-02 0.  1.
       -1   -1    0    0    0  501  0.00000000000E+00  0.00000000000E+00 -0.39252839143E+03  0.39252839146E+03  0.50400001928E-02 0. -1.
    10030    2    1    2    0    0  0.00000000000E+00  0.00000000000E+00  0.90331540781E+03  0.16883721907E+04  0.14264017416E+04 0.  0.
        1    1    3    3  502    0 -0.60242996446E+03  0.28656550613E+03  0.75019741221E+03  0.10039112554E+04  0.50400001928E-02 0.  1.
       -1    1    3    3    0  502  0.60242996446E+03 -0.28656550613E+03  0.15311799560E+03  0.68446093532E+03  0.50400001928E-02 0. -1.
</event>
<event>
 5   0  0.2917809E-03  0.1424390E+04  0.7818609E-02  0.8936351E-01
       -2   -1    0    0    0  501  0.00000000000E+00  0.00000000000E+00  0.42843161838E+03  0.42843161838E+03  0.25500000920E-02 0.  1.
        2   -1    0    0  501    0  0.00000000000E+00  0.00000000000E+00 -0.11839029537E+04  0.11839029537E+04  0.25500000920E-02 0. -1.
    10030    2    1    2    0    0  0.00000000000E+00  0.00000000000E+00 -0.75547133535E+03  0.16123345721E+04  0.14243896356E+04 0.  0.
        2    1    3    3  502    0  0.44882322941E+03 -0.18944651957E+03  0.21032089509E+03  0.53062901725E+03  0.25500000920E-02 0.  1.
       -2    1    3    3    0  502 -0.44882322941E+03  0.18944651957E+03 -0.96579223044E+03  0.10817055549E+04  0.25500000920E-02 0. -1.
</event>
<event>
 5   0  0.1700207E-03  0.1414959E+04  0.7818609E-02  0.8943061E-01
       -1   -1    0    0    0  501  0.00000000000E+00  0.00000000000E+00  0.32601615251E+03  0.32601615255E+03  0.50400001928E-02 0. -1.
        1   -1    0    0  501    0  0.00000000000E+00  0.00000000000E+00 -0.15352835440E+04  0.15352835440E+04  0.50400001928E-02 0.  1.
    10030    2    1    2    0    0  0.00000000000E+00  0.00000000000E+00 -0.12092673915E+04  0.18612996966E+04  0.14149589875E+04 0.  0.
        2    1    3    3  502    0 -0.28412966920E+03 -0.61217649631E+03 -0.32546957251E+03  0.74927977031E+03  0.25500000920E-02 0. -1.
       -2    1    3    3    0  502  0.28412966920E+03  0.61217649631E+03 -0.88379781897E+03  0.11120199262E+04  0.25500000920E-02 0.  1.
</event>
<event>
 5   0  0.1644571E-03  0.1408781E+04  0.7818609E-02  0.8947487E-01
        1   -1    0    0  501    0  0.00000000000E+00  0.00000000000E+00  0.51203592247E+03  0.51203592249E+03  0.50400001928E-02 0.  1.
       -1   -1    0    0    0  501  0.00000000000E+00  0.00000000000E+00 -0.96900654869E+03  0.96900654870E+03  0.50400001928E-02 0. -1.
    10030    2    1    2    0    0  0.00000000000E+00  0.00000000000E+00 -0.45697062622E+03  0.14810424712E+04  0.14087812635E+04 0.  0.
        4    1    3    3  502    0 -0.66747681774E+02  0.55802122736E+03 -0.67490961598E+03  0.87826393860E+03  0.12699999809E+01 0. -1.
       -4    1    3    3    0  502  0.66747681774E+02 -0.55802122736E+03  0.21793898975E+03  0.60277853260E+03  0.12699999809E+01 0.  1.
</event>
<event>
 5   0  0.3006737E-03  0.1379192E+04  0.7818609E-02  0.8969020E-01
        2   -1    0    0  501    0  0.00000000000E+00  0.00000000000E+00  0.79716702915E+03  0.79716702915E+03  0.25500000920E-02 0. -1.
       -2   -1    0    0    0  501  0.00000000000E+00  0.00000000000E+00 -0.59654050507E+03  0.59654050508E+03  0.25500000920E-02 0.  1.
    10030    2    1    2    0    0  0.00000000000E+00  0.00000000000E+00  0.20062652408E+03  0.13937075342E+04  0.13791916795E+04 0.  0.
        1    1    3    3  502    0  0.21971261771E+02 -0.63316740383E+03 -0.17487388470E+03  0.65724011836E+03  0.50400001928E-02 0.  1.
       -1    1    3    3    0  502 -0.21971261771E+02  0.63316740383E+03  0.37550040878E+03  0.73646741587E+03  0.50400001928E-02 0. -1.
</event>
<event>
 5   0  0.2917809E-03  0.1295410E+04  0.7818609E-02  0.9033213E-01
       -2   -1    0    0    0  501  0.00000000000E+00  0.00000000000E+00  0.42331871866E+03  0.42331871867E+03  0.25500000920E-02 0.  1.
        2   -1    0    0  501    0  0.00000000000E+00  0.00000000000E+00 -0.99103012168E+03  0.99103012169E+03  0.25500000920E-02 0. -1.
    10030    2    1    2    0    0  0.00000000000E+00  0.00000000000E+00 -0.56771140302E+03  0.14143488404E+04  0.12954097441E+04 0.  0.
        2    1    3    3  502    0  0.71496539505E+02 -0.40396948153E+03  0.26338096890E+03  0.48751680172E+03  0.25500000920E-02 0.  1.
       -2    1    3    3    0  502 -0.71496539505E+02  0.40396948153E+03 -0.83109237193E+03  0.92683203864E+03  0.25500000920E-02 0. -1.
</event>
<event>
 5   0  0.1586022E-03  0.1226273E+04  0.7818609E-02  0.9090166E-01
        1   -1    0    0  501    0  0.00000000000E+00  0.00000000000E+00  0.10365107230E+04  0.10365107230E+04  0.50400001928E-02 0.  1.
       -1   -1    0    0    0  501  0.00000000000E+00  0.00000000000E+00 -0.36269422907E+03  0.36269422911E+03  0.50400001928E-02 0. -1.
    10030    2    1    2    0    0  0.00000000000E+00  0.00000000000E+00  0.67381649392E+03  0.13992049521E+04  0.12262731468E+04 0.  0.
        1    1    3    3  502    0  0.46168806775E+03 -0.28019174709E+03  0.56712930187E+01  0.54008837298E+03  0.50400001928E-02 0.  1.
       -1    1    3    3    0  502 -0.46168806775E+03  0.28019174709E+03  0.66814520090E+03  0.85911657914E+03  0.50400001928E-02 0. -1.
</event>
<event>
 5   0  0.1700207E-03  0.1363541E+04  0.7818609E-02  0.8980641E-01
       -1   -1    0    0    0  501  0.00000000000E+00  0.00000000000E+00  0.59953557076E+03  0.59953557078E+03  0.50400001928E-02 0.  1.
        1   -1    0    0  501    0  0.00000000000E+00  0.00000000000E+00 -0.77528521593E+03  0.77528521594E+03  0.50400001928E-02 0. -1.
    10030    2    1    2    0    0  0.00000000000E+00  0.00000000000E+00 -0.17574964517E+03  0.13748207867E+04  0.13635410730E+04 0.  0.
        2    1    3    3  502    0  0.22900676269E+03  0.16188331658E+02 -0.73513927639E+03  0.77015317641E+03  0.25500000920E-02 0. -1.
       -2    1    3    3    0  502 -0.22900676269E+03 -0.16188331658E+02  0.55938963122E+03  0.60466761031E+03  0.25500000920E-02 0.  1.
</event>
<event>
 5   0  0.3006737E-03  0.1423571E+04  0.7818609E-02  0.8936931E-01
       -2   -1    0    0    0  501  0.00000000000E+00  0.00000000000E+00  0.38900124998E+03  0.38900124999E+03  0.25500000920E-02 0. -1.
        2   -1    0    0  501    0  0.00000000000E+00  0.00000000000E+00 -0.13024094490E+04  0.13024094490E+04  0.25500000920E-02 0.  1.
    10030    2    1    2    0    0  0.00000000000E+00  0.00000000000E+00 -0.91340819899E+03  0.16914106990E+04  0.14235714294E+04 0.  0.
        1    1    3    3  502    0 -0.58196509859E+03  0.40075322169E+03 -0.55858291091E+03  0.90072270376E+03  0.50400001928E-02 0.  1.
       -1    1    3    3    0  502  0.58196509859E+03 -0.40075322169E+03 -0.35482528808E+03  0.79068799521E+03  0.50400001928E-02 0. -1.
</event>
<event>
 5   0  0.1700207E-03  0.1439722E+04  0.7818609E-02  0.8925557E-01
        1   -1    0    0  501    0  0.00000000000E+00  0.00000000000E+00  0.10736213734E+04  0.10736213734E+04  0.50400001928E-02 0.  1.
       -1   -1    0    0    0  501  0.00000000000E+00  0.00000000000E+00 -0.48266526852E+03  0.48266526855E+03  0.50400001928E-02 0. -1.
    10030    2    1    2    0    0  0.00000000000E+00  0.00000000000E+00  0.59095610490E+03  0.15562866420E+04  0.14397218461E+04 0.  0.
        2    1    3    3  502    0  0.32875270936E+03  0.47886815546E+03  0.75511850989E+03  0.95267886416E+03  0.25500000920E-02 0.  1.
       -2    1    3    3    0  502 -0.32875270936E+03 -0.47886815546E+03 -0.16416240499E+03  0.60360777782E+03  0.25500000920E-02 0. -1.
</event>
<event>
 5   0  0.1631380E-03  0.1406367E+04  0.7818609E-02  0.8949223E-01
        1   -1    0    0  501    0  0.00000000000E+00  0.00000000000E+00  0.28918487960E+03  0.28918487965E+03  0.50400001928E-02 0. -1.
       -1   -1    0    0    0  501  0.00000000000E+00  0.00000000000E+00 -0.17098652491E+04  0.17098652491E+04  0.50400001928E-02 0.  1.
    10030    2    1    2    0    0  0.00000000000E+00  0.00000000000E+00 -0.14206803695E+04  0.19990501287E+04  0.14063672013E+04 0.  0.
        3    1    3    3  502    0 -0.93855286819E+02  0.68376641647E+03 -0.90168913667E+03  0.11355124995E+04  0.10100000352E+00 0. -1.
       -3    1    3    3    0  502  0.93855286819E+02 -0.68376641647E+03 -0.51899123282E+03  0.86353762923E+03  0.10100000352E+00 0.  1.
</event>
<event>
 5   0  0.2760807E-03  0.1478586E+04  0.7818609E-02  0.8898819E-01
       -2   -1    0    0    0  501  0.00000000000E+00  0.00000000000E+00  0.36600790720E+03  0.36600790721E+03  0.25500000920E-02 0.  1.
        2   -1    0    0  501    0  0.00000000000E+00  0.00000000000E+00 -0.14932852776E+04  0.14932852776E+04  0.25500000920E-02 0. -1.
    10030    2    1    2    0    0  0.00000000000E+00  0.00000000000E+00 -0.11272773704E+04  0.18592931848E+04  0.14785861075E+04 0.  0.
        4    1    3    3  502    0  0.40967705884E+03  0.20618120982E+03  0.16549034174E+03  0.48758040356E+03  0.12699999809E+01 0.  1.
       -4    1    3    3    0  502 -0.40967705884E+03 -0.20618120982E+03 -0.12927677122E+04  0.13717127813E+04  0.12699999809E+01 0. -1.
</event>
<event>
 5   0  0.2760807E-03  0.1391730E+04  0.7818609E-02  0.8959827E-01
        2   -1    0    0  501    0  0.00000000000E+00  0.00000000000E+00  0.55603528838E+03  0.55603528838E+03  0.25500000920E-02 0. -1.
       -2   -1    0    0    0  501  0.00000000000E+00  0.00000000000E+00 -0.87085851956E+03  0.87085851957E+03  0.25500000920E-02 0.  1.
    10030    2    1    2    0    0  0.00000000000E+00  0.00000000000E+00 -0.31482323119E+03  0.14268938080E+04  0.13917299567E+04 0.  0.
        4    1    3    3  502    0 -0.57003132406E+03  0.36642169557E+03 -0.31960435422E+03  0.74923235750E+03  0.12699999809E+01 0. -1.
       -4    1    3    3    0  502  0.57003132406E+03 -0.36642169557E+03  0.47811230288E+01  0.67766145045E+03  0.12699999809E+01 0.  1.
</event>
<event>
 5   0  0.2760807E-03  0.1378854E+04  0.7818609E-02  0.8969269E-01
        2   -1    0    0  501    0  0.00000000000E+00  0.00000000000E+00  0.10732995454E+04  0.10732995454E+04  0.25500000920E-02 0. -1.
       -2   -1    0    0    0  501  0.00000000000E+00  0.00000000000E+00 -0.44284877700E+03  0.44284877701E+03  0.25500000920E-02 0.  1.
    10030    2    1    2    0    0  0.00000000000E+00  0.00000000000E+00  0.63045076843E+03  0.15161483224E+04  0.13788537139E+04 0.  0.
        4    1    3    3  502    0 -0.57392945062E+03 -0.52824258797E+02  0.73120997487E+03  0.93105051251E+03  0.12699999809E+01 0.  1.
       -4    1    3    3    0  502  0.57392945062E+03  0.52824258797E+02 -0.10075920643E+03  0.58509780993E+03  0.12699999809E+01 0. -1.
</event>
<event>
 5   0  0.2993993E-03  0.1437181E+04  0.7818609E-02  0.8927336E-01
        2   -1    0    0  501    0  0.00000000000E+00  0.00000000000E+00  0.26068741670E+04  0.26068741670E+04  0.25500000920E-02 0.  1.
       -2   -1    0    0    0  501  0.00000000000E+00  0.00000000000E+00 -0.19808091978E+03  0.19808091979E+03  0.25500000920E-02 0. -1.
    10030    2    1    2    0    0  0.00000000000E+00  0.00000000000E+00  0.24087932472E+04  0.28049550868E+04  0.14371806188E+04 0.  0.
        3    1    3    3  502    0  0.22112714476E+03  0.39514932444E+03  0.22933926998E+04  0.23376677027E+04  0.10100000352E+00 0.  1.
       -3    1    3    3    0  502 -0.22112714476E+03 -0.39514932444E+03  0.11540054743E+03  0.46728738406E+03  0.10100000352E+00 0. -1.
</event>
<event>
 5   0  0.1586022E-03  0.1365016E+04  0.7818609E-02  0.8979538E-01
       -1   -1    0    0    0  501  0.00000000000E+00  0.00000000000E+00  0.59021860647E+03  0.59021860649E+03  0.50400001928E-02 0.  1.
        1   -1    0    0  501    0  0.00000000000E+00  0.00000000000E+00 -0.78922861057E+03  0.78922861059E+03  0.50400001928E-02 0. -1.
    10030    2    1    2    0    0  0.00000000000E+00  0.00000000000E+00 -0.19901000411E+03  0.13794472171E+04  0.13650163526E+04 0.  0.
        1    1    3    3  502    0 -0.20055820457E+03 -0.64428844451E+03  0.39798219389E+01  0.67479406648E+03  0.50400001928E-02 0. -1.
       -1    1    3    3    0  502  0.20055820457E+03  0.64428844451E+03 -0.20298982605E+03  0.70465315060E+03  0.50400001928E-02 0.  1.
</event>
<event>
 5   0  0.2917809E-03  0.1011934E+04  0.7818609E-02  0.9295552E-01
       -2   -1    0    0    0  501  0.00000000000E+00  0.00000000000E+00  0.28088710128E+03  0.28088710129E+03  0.25500000920E-02 0.  1.
        2   -1    0    0  501    0  0.00000000000E+00  0.00000000000E+00 -0.91140702881E+03  0.91140702881E+03  0.25500000920E-02 0. -1.
    10030    2    1    2    0    0  0.00000000000E+00  0.00000000000E+00 -0.63051992753E+03  0.11922941301E+04  0.10119337496E+04 0.  0.
        2    1    3    3  502    0  0.17134376176E+03 -0.80643700208E+01 -0.87610247182E+03  0.89273694888E+03  0.25500000920E-02 0. -1.
       -2    1    3    3    0  502 -0.17134376176E+03  0.80643700208E+01  0.24558254429E+03  0.29955718123E+03  0.25500000920E-02 0.  1.
</event>
<event>
 5   0  0.3006737E-03  0.8257845E+03  0.7818609E-02  0.9523427E-01
       -2   -1    0    0    0  501  0.00000000000E+00  0.00000000000E+00  0.33760769465E+03  0.33760769466E+03  0.25500000920E-02 0.  1.
        2   -1    0    0  501    0  0.00000000000E+00  0.00000000000E+00 -0.50496480551E+03  0.50496480552E+03  0.25500000920E-02 0. -1.
    10030    2    1    2    0    0  0.00000000000E+00  0.00000000000E+00 -0.16735711086E+03  0.84257250018E+03  0.82578448490E+03 0.  0.
        1    1    3    3  502    0  0.89574594720E+02 -0.34411131008E+03 -0.29781124056E+03  0.46381864643E+03  0.50400001928E-02 0. -1.
       -1    1    3    3    0  502 -0.89574594720E+02  0.34411131008E+03  0.13045412970E+03  0.37875385375E+03  0.50400001928E-02 0.  1.
</event>
<event>
 5   0  0.1700207E-03  0.1410869E+04  0.7818609E-02  0.8945988E-01
       -1   -1    0    0    0  501  0.00000000000E+00  0.00000000000E+00  0.71798316837E+03  0.71798316839E+03  0.50400001928E-02 0.  1.
        1   -1    0    0  501    0  0.00000000000E+00  0.00000000000E+00 -0.69310558304E+03  0.69310558306E+03  0.50400001928E-02 0. -1.
    10030    2    1    2    0    0  0.00000000000E+00  0.00000000000E+00  0.24877585335E+02  0.14110887514E+04  0.14108694377E+04 0.  0.
        2    1    3    3  502    0 -0.27147374643E+03  0.45370957984E+03  0.47951006307E+03  0.71377887222E+03  0.25500000920E-02 0.  1.
       -2    1    3    3    0  502  0.27147374643E+03 -0.45370957984E+03 -0.45463247773E+03  0.69730987922E+03  0.25500000920E-02 0. -1.
</event>
<event>
 5   0  0.1700207E-03  0.1395320E+04  0.7818609E-02  0.8957213E-01
        1   -1    0    0  501    0  0.00000000000E+00  0.00000000000E+00  0.11535738318E+04  0.11535738318E+04  0.50400001928E-02 0.  1.
       -1   -1    0    0    0  501  0.00000000000E+00  0.00000000000E+00 -0.42193156331E+03  0.42193156334E+03  0.50400001928E-02 0. -1.
    10030    2    1    2    0    0  0.00000000000E+00  0.00000000000E+00  0.73164226849E+03  0.15755053952E+04  0.13953196197E+04 0.  0.
        2    1    3    3  502    0 -0.56311757267E+03  0.31909552203E+03  0.65984311562E+03  0.92429231852E+03  0.25500000920E-02 0.  1.
       -2    1    3    3    0  502  0.56311757267E+03 -0.31909552203E+03  0.71799152876E+02  0.65121307665E+03  0.25500000920E-02 0. -1.
</event>
<event>
 5   0  0.2760807E-03  0.1154547E+04  0.7818609E-02  0.9153599E-01
        2   -1    0    0  501    0  0.00000000000E+00  0.00000000000E+00  0.69725762759E+03  0.69725762760E+03  0.25500000920E-02 0.  1.
       -2   -1    0    0    0  501  0.00000000000E+00  0.00000000000E+00 -0.47793593066E+03  0.47793593066E+03  0.25500000920E-02 0. -1.
    10030    2    1    2    0    0  0.00000000000E+00  0.00000000000E+00  0.21932169694E+03  0.11751935583E+04  0.11545466178E+04 0.  0.
        4    1    3    3  502    0 -0.53895866378E+02 -0.51180086148E+03  0.37586789545E+03  0.63727794090E+03  0.12699999809E+01 0.  1.
       -4    1    3    3    0  502  0.53895866378E+02  0.51180086148E+03 -0.15654619851E+03  0.53791561736E+03  0.12699999809E+01 0. -1.
</event>
<event>
 5   0  0.2760807E-03  0.1425332E+04  0.7818609E-02  0.8935683E-01
        2   -1    0    0  501    0  0.00000000000E+00  0.00000000000E+00  0.54953348678E+03  0.54953348678E+03  0.25500000920E-02 0.  1.
       -2   -1    0    0    0  501  0.00000000000E+00  0.00000000000E+00 -0.92422568611E+03  0.92422568612E+03  0.25500000920E-02 0. -1.
    10030    2    1    2    0    0  0.00000000000E+00  0.00000000000E+00 -0.37469219933E+03  0.14737591729E+04  0.14253321913E+04 0.  0.
        4    1    3    3  502    0  0.57632137210E+03  0.18082900604E+02  0.24571337947E+03  0.62677746687E+03  0.12699999809E+01 0.  1.
       -4    1    3    3    0  502 -0.57632137210E+03 -0.18082900604E+02 -0.62040557880E+03  0.84698170603E+03  0.12699999809E+01 0. -1.
</event>
<event>
 5   0  0.2760807E-03  0.1375706E+04  0.7818609E-02  0.8971594E-01
       -2   -1    0    0    0  501  0.00000000000E+00  0.00000000000E+00  0.21833015211E+03  0.21833015213E+03  0.25500000920E-02 0.  1.
        2   -1    0    0  501    0  0.00000000000E+00  0.00000000000E+00 -0.21670915150E+04  0.21670915150E+04  0.25500000920E-02 0. -1.
    10030    2    1    2    0    0  0.00000000000E+00  0.00000000000E+00 -0.19487613629E+04  0.23854216671E+04  0.13757055210E+04 0.  0.
        4    1    3    3  502    0 -0.57044982986E+03  0.36242679705E+03 -0.11962575229E+04  0.13739722943E+04  0.12699999809E+01 0. -1.
       -4    1    3    3    0  502  0.57044982986E+03 -0.36242679705E+03 -0.75250383998E+03  0.10114493728E+04  0.12699999809E+01 0.  1.
</event>
<event>
 5   0  0.1631380E-03  0.1387635E+04  0.7818609E-02  0.8962818E-01
       -1   -1    0    0    0  501  0.00000000000E+00  0.00000000000E+00  0.58590160734E+03  0.58590160737E+03  0.50400001928E-02 0.  1.
        1   -1    0    0  501    0  0.00000000000E+00  0.00000000000E+00 -0.82160991374E+03  0.82160991376E+03  0.50400001928E-02 0. -1.
    10030    2    1    2    0    0  0.00000000000E+00  0.00000000000E+00 -0.23570830640E+03  0.14075115211E+04  0.13876347777E+04 0.  0.
        3    1    3    3  502    0 -0.37789115451E+03  0.34529175714E+03  0.35720752002E+03  0.62419976351E+03  0.10100000352E+00 0.  1.
       -3    1    3    3    0  502  0.37789115451E+03 -0.34529175714E+03 -0.59291582641E+03  0.78331175762E+03  0.10100000352E+00 0. -1.
</event>
<event>
 5   0  0.1560957E-03  0.1381386E+04  0.7818609E-02  0.8967403E-01
       -1   -1    0    0    0  501  0.00000000000E+00  0.00000000000E+00  0.85480752594E+03  0.85480752595E+03  0.50400001928E-02 0. -1.
        1   -1    0    0  501    0  0.00000000000E+00  0.00000000000E+00 -0.55808722175E+03  0.55808722178E+03  0.50400001928E-02 0.  1.
    10030    2    1    2    0    0  0.00000000000E+00  0.00000000000E+00  0.29672030419E+03  0.14128947477E+04  0.13813864880E+04 0.  0.
        5    1    3    3  502    0 -0.15822665379E+03  0.30034721786E+02 -0.53859711971E+03  0.56218031435E+03  0.46999998093E+01 0.  1.
       -5    1    3    3    0  502  0.15822665379E+03 -0.30034721786E+02  0.83531742390E+03  0.85071443338E+03  0.46999998093E+01 0. -1.
</event>
<event>
 5   0  0.2917809E-03  0.1291014E+04  0.7818609E-02  0.9036721E-01
        2   -1    0    0  501    0  0.00000000000E+00  0.00000000000E+00  0.13971359291E+04  0.13971359291E+04  0.25500000920E-02 0. -1.
       -2   -1    0    0    0  501  0.00000000000E+00  0.00000000000E+00 -0.29823830645E+03  0.29823830646E+03  0.25500000920E-02 0.  1.
    10030    2    1    2    0    0  0.00000000000E+00  0.00000000000E+00  0.10988976227E+04  0.16953742356E+04  0.12910142577E+04 0.  0.
        2    1    3    3  502    0 -0.47704022151E+03  0.10350189100E+03  0.11041144759E+04  0.12072070204E+04  0.25500000920E-02 0. -1.
       -2    1    3    3    0  502  0.47704022151E+03 -0.10350189100E+03 -0.52168531855E+01  0.48816721515E+03  0.25500000920E-02 0.  1.
</event>
<event>
 5   0  0.1700207E-03  0.1397210E+04  0.7818609E-02  0.8955840E-01
        1   -1    0    0  501    0  0.00000000000E+00  0.00000000000E+00  0.10240025066E+04  0.10240025066E+04  0.50400001928E-02 0.  1.
       -1   -1    0    0    0  501  0.00000000000E+00  0.00000000000E+00 -0.47660940285E+03  0.47660940288E+03  0.50400001928E-02 0. -1.
    10030    2    1    2    0    0  0.00000000000E+00  0.00000000000E+00  0.54739310377E+03  0.15006119095E+04  0.13972103968E+04 0.  0.
        2    1    3    3  502    0  0.35565612820E+03 -0.27607039377E+02 -0.37141870460E+03  0.51498085818E+03  0.25500000920E-02 0. -1.
       -2    1    3    3    0  502 -0.35565612820E+03  0.27607039377E+02  0.91881180837E+03  0.98563105134E+03  0.25500000920E-02 0.  1.
</event>
<event>
 5   0  0.1700207E-03  0.1402308E+04  0.7818609E-02  0.8952149E-01
       -1   -1    0    0    0  501  0.00000000000E+00  0.00000000000E+00  0.74511661200E+03  0.74511661201E+03  0.50400001928E-02 0. -1.
        1   -1    0    0  501    0  0.00000000000E+00  0.00000000000E+00 -0.65978552126E+03  0.65978552128E+03  0.50400001928E-02 0.  1.
    10030    2    1    2    0    0  0.00000000000E+00  0.00000000000E+00  0.85331090735E+02  0.14049021333E+04  0.14023083146E+04 0.  0.
        2    1    3    3  502    0 -0.10639718512E+03 -0.20798575012E+03  0.70497738733E+03  0.74267863164E+03  0.25500000920E-02 0. -1.
       -2    1    3    3    0  502  0.10639718512E+03  0.20798575012E+03 -0.61964629659E+03  0.66222350165E+03  0.25500000920E-02 0.  1.
</event>
<event>
 5   0  0.1586022E-03  0.1375902E+04  0.7818609E-02  0.8971449E-01
        1   -1    0    0  501    0  0.00000000000E+00  0.00000000000E+00  0.63504524190E+03  0.63504524192E+03  0.50400001928E-02 0.  1.
       -1   -1    0    0    0  501  0.00000000000E+00  0.00000000000E+00 -0.74526456384E+03  0.74526456386E+03  0.50400001928E-02 0. -1.
    10030    2    1    2    0    0  0.00000000000E+00  0.00000000000E+00 -0.11021932193E+03  0.13803098058E+04  0.13759021989E+04 0.  0.
        1    1    3    3  502    0  0.11692330461E+03 -0.58499197539E+03 -0.39882953398E+03  0.71760132918E+03  0.50400001928E-02 0. -1.
       -1    1    3    3    0  502 -0.11692330461E+03  0.58499197539E+03  0.28861021205E+03  0.66270847660E+03  0.50400001928E-02 0.  1.
</event>
<event>
 5   0  0.2917809E-03  0.1393780E+04  0.7818609E-02  0.8958333E-01
        2   -1    0    0  501    0  0.00000000000E+00  0.00000000000E+00  0.13352332340E+04  0.13352332340E+04  0.25500000920E-02 0. -1.
       -2   -1    0    0    0  501  0.00000000000E+00  0.00000000000E+00 -0.36372363790E+03  0.36372363791E+03  0.25500000920E-02 0.  1.
    10030    2    1    2    0    0  0.00000000000E+00  0.00000000000E+00  0.97150959609E+03  0.16989568719E+04  0.13937803117E+04 0.  0.
        2    1    3    3  502    0  0.14964979330E+03  0.26815151310E+03  0.12483144147E+04  0.12855306968E+04  0.25500000920E-02 0. -1.
       -2    1    3    3    0  502 -0.14964979330E+03 -0.26815151310E+03 -0.27680481860E+03  0.41342617505E+03  0.25500000920E-02 0.  1.
</event>
<event>
 5   0  0.2760807E-03  0.1387770E+04  0.7818609E-02  0.8962719E-01
       -2   -1    0    0    0  501  0.00000000000E+00  0.00000000000E+00  0.45173460281E+03  0.45173460282E+03  0.25500000920E-02 0. -1.
        2   -1    0    0  501    0  0.00000000000E+00  0.00000000000E+00 -0.10658398046E+04  0.10658398046E+04  0.25500000920E-02 0.  1.
    10030    2    1    2    0    0  0.00000000000E+00  0.00000000000E+00 -0.61410520181E+03  0.15175744075E+04  0.13877704721E+04 0.  0.
        4    1    3    3  502    0  0.24485125330E+02  0.59223584829E+03  0.87427301144E+02  0.59915604583E+03  0.12699999809E+01 0. -1.
       -4    1    3    3    0  502 -0.24485125330E+02 -0.59223584829E+03 -0.70153250296E+03  0.91841836163E+03  0.12699999809E+01 0.  1.
</event>
<event>
 5   0  0.1586022E-03  0.1384158E+04  0.7818609E-02  0.8965366E-01
       -1   -1    0    0    0  501  0.00000000000E+00  0.00000000000E+00  0.89109311400E+03  0.89109311402E+03  0.50400001928E-02 0.  1.
        1   -1    0    0  501    0  0.00000000000E+00  0.00000000000E+00 -0.53751224137E+03  0.53751224140E+03  0.50400001928E-02 0. -1.
    10030    2    1    2    0    0  0.00000000000E+00  0.00000000000E+00  0.35358087263E+03  0.14286053554E+04  0.13841581658E+04 0.  0.
        1    1    3    3  502    0 -0.47017778505E+03 -0.93436364216E+02 -0.33841402950E+03  0.58678919477E+03  0.50400001928E-02 0. -1.
       -1    1    3    3    0  502  0.47017778505E+03  0.93436364216E+02  0.69199490214E+03  0.84181616064E+03  0.50400001928E-02 0.  1.
</event>
<event>
 5   0  0.3006737E-03  0.1413920E+04  0.7818609E-02  0.8943804E-01
        2   -1    0    0  501    0  0.00000000000E+00  0.00000000000E+00  0.76471407738E+03  0.76471407738E+03  0.25500000920E-02 0.  1.
       -2   -1    0    0    0  501  0.00000000000E+00  0.00000000000E+00 -0.65356758789E+03  0.65356758789E+03  0.25500000920E-02 0. -1.
    10030    2    1    2    0    0  0.00000000000E+00  0.00000000000E+00  0.11114648949E+03  0.14182816653E+04  0.14139198492E+04 0.  0.
        1    1    3    3  502    0  0.50001562406E+03  0.49865603947E+03  0.89125872067E+02  0.71177025162E+03  0.50400001928E-02 0.  1.
       -1    1    3    3    0  502 -0.50001562406E+03 -0.49865603947E+03  0.22020617418E+02  0.70651141365E+03  0.50400001928E-02 0. -1.
</event>
<event>
 5   0  0.1700207E-03  0.1422726E+04  0.7818609E-02  0.8937530E-01
        1   -1    0    0  501    0  0.00000000000E+00  0.00000000000E+00  0.45035288980E+03  0.45035288983E+03  0.50400001928E-02 0.  1.
       -1   -1    0    0    0  501  0.00000000000E+00  0.00000000000E+00 -0.11236465875E+04  0.11236465875E+04  0.50400001928E-02 0. -1.
    10030    2    1    2    0    0  0.00000000000E+00  0.00000000000E+00 -0.67329369771E+03  0.15739994773E+04  0.14227262391E+04 0.  0.
        2    1    3    3  502    0 -0.33164000933E+03  0.53867184160E+03  0.23351528534E+02  0.63300690566E+03  0.25500000920E-02 0.  1.
       -2    1    3    3    0  502  0.33164000933E+03 -0.53867184160E+03 -0.69664522624E+03  0.94099257168E+03  0.25500000920E-02 0. -1.
</event>
<event>
 5   0  0.1586022E-03  0.1376367E+04  0.7818609E-02  0.8971105E-01
        1   -1    0    0  501    0  0.00000000000E+00  0.00000000000E+00  0.35559370455E+03  0.35559370459E+03  0.50400001928E-02 0.  1.
       -1   -1    0    0    0  501  0.00000000000E+00  0.00000000000E+00 -0.13318474003E+04  0.13318474003E+04  0.50400001928E-02 0. -1.
    10030    2    1    2    0    0  0.00000000000E+00  0.00000000000E+00 -0.97625369572E+03  0.16874411049E+04  0.13763670310E+04 0.  0.
        1    1    3    3  502    0 -0.48370742432E+03 -0.41927602328E+03 -0.17837693680E+03  0.66451756007E+03  0.50400001928E-02 0.  1.
       -1    1    3    3    0  502  0.48370742432E+03  0.41927602328E+03 -0.79787675892E+03  0.10229235448E+04  0.50400001928E-02 0. -1.
</event>
<event>
 5   0  0.1586022E-03  0.1379555E+04  0.7818609E-02  0.8968752E-01
        1   -1    0    0  501    0  0.00000000000E+00  0.00000000000E+00  0.69099372481E+03  0.69099372483E+03  0.50400001928E-02 0.  1.
       -1   -1    0    0    0  501  0.00000000000E+00  0.00000000000E+00 -0.68856349262E+03  0.68856349264E+03  0.50400001928E-02 0. -1.
    10030    2    1    2    0    0  0.00000000000E+00  0.00000000000E+00  0.24302321903E+01  0.13795572175E+04  0.13795550769E+04 0.  0.
        1    1    3    3  502    0 -0.67418290881E+03 -0.11750539715E+03  0.87603557442E+02  0.68993079087E+03  0.50400001928E-02 0.  1.
       -1    1    3    3    0  502  0.67418290881E+03  0.11750539715E+03 -0.85173325252E+02  0.68962642659E+03  0.50400001928E-02 0. -1.
</event>
<event>
 5   0  0.1586022E-03  0.1268726E+04  0.7818609E-02  0.9054740E-01
       -1   -1    0    0    0  501  0.00000000000E+00  0.00000000000E+00  0.27865263744E+03  0.27865263748E+03  0.50400001928E-02 0.  1.
        1   -1    0    0  501    0  0.00000000000E+00  0.00000000000E+00 -0.14441498746E+04  0.14441498746E+04  0.50400001928E-02 0. -1.
    10030    2    1    2    0    0  0.00000000000E+00  0.00000000000E+00 -0.11654972371E+04  0.17228025120E+04  0.12687256149E+04 0.  0.
        1    1    3    3  502    0 -0.21865813207E+02 -0.18422691506E+03  0.24099262925E+03  0.30413009946E+03  0.50400001928E-02 0.  1.
       -1    1    3    3    0  502  0.21865813207E+02  0.18422691506E+03 -0.14064898664E+04  0.14186724126E+04  0.50400001928E-02 0. -1.
</event>
<event>
 5   0  0.1586022E-03  0.1404586E+04  0.7818609E-02  0.8950506E-01
       -1   -1    0    0    0  501  0.00000000000E+00  0.00000000000E+00  0.99228845098E+03  0.99228845100E+03  0.50400001928E-02 0. -1.
        1   -1    0    0  501    0  0.00000000000E+00  0.00000000000E+00 -0.49704815750E+03  0.49704815752E+03  0.50400001928E-02 0.  1.
    10030    2    1    2    0    0  0.00000000000E+00  0.00000000000E+00  0.49524029349E+03  0.14893366085E+04  0.14045855564E+04 0.  0.
        1    1    3    3  502    0  0.15439407148E+03  0.37389201501E+03 -0.36111259004E+03  0.54225000775E+03  0.50400001928E-02 0.  1.
       -1    1    3    3    0  502 -0.15439407148E+03 -0.37389201501E+03  0.85635288352E+03  0.94708660076E+03  0.50400001928E-02 0. -1.
</event>
<event>
 5   0  0.1700207E-03  0.1487242E+04  0.7818609E-02  0.8892982E-01
       -1   -1    0    0    0  501  0.00000000000E+00  0.00000000000E+00  0.52761702265E+03  0.52761702268E+03  0.50400001928E-02 0.  1.
        1   -1    0    0  501    0  0.00000000000E+00  0.00000000000E+00 -0.10480554949E+04  0.10480554949E+04  0.50400001928E-02 0. -1.
    10030    2    1    2    0    0  0.00000000000E+00  0.00000000000E+00 -0.52043847221E+03  0.15756725176E+04  0.14872416344E+04 0.  0.
        2    1    3    3  502    0  0.22624346451E+03  0.54428315818E+03  0.22010483717E+03  0.62918709527E+03  0.25500000920E-02 0.  1.
       -2    1    3    3    0  502 -0.22624346451E+03 -0.54428315818E+03 -0.74054330938E+03  0.94648542228E+03  0.25500000920E-02 0. -1.
</event>
<event>
 5   0  0.1586022E-03  0.1388493E+04  0.7818609E-02  0.8962190E-01
        1   -1    0    0  501    0  0.00000000000E+00  0.00000000000E+00  0.62422082079E+03  0.62422082081E+03  0.50400001928E-02 0.  1.
       -1   -1    0    0    0  501  0.00000000000E+00  0.00000000000E+00 -0.77212743229E+03  0.77212743231E+03  0.50400001928E-02 0. -1.
    10030    2    1    2    0    0  0.00000000000E+00  0.00000000000E+00 -0.14790661150E+03  0.13963482531E+04  0.13884927361E+04 0.  0.
        1    1    3    3  502    0  0.79608955674E+02 -0.48760538855E+03  0.41653696132E+03  0.64621949904E+03  0.50400001928E-02 0.  1.
       -1    1    3    3    0  502 -0.79608955674E+02  0.48760538855E+03 -0.56444357282E+03  0.75012875408E+03  0.50400001928E-02 0. -1.
</event>
<event>
 5   0  0.2917809E-03  0.1473247E+04  0.7818609E-02  0.8902441E-01
       -2   -1    0    0    0  501  0.00000000000E+00  0.00000000000E+00  0.34220599113E+03  0.34220599114E+03  0.25500000920E-02 0.  1.
        2   -1    0    0  501    0  0.00000000000E+00  0.00000000000E+00 -0.15856365045E+04  0.15856365045E+04  0.25500000920E-02 0. -1.
    10030    2    1    2    0    0  0.00000000000E+00  0.00000000000E+00 -0.12434305134E+04  0.19278424956E+04  0.14732471776E+04 0.  0.
        2    1    3    3  502    0  0.39506839944E+03  0.61865390164E+03 -0.70240855588E+03  0.10159672581E+04  0.25500000920E-02 0.  1.
       -2    1    3    3    0  502 -0.39506839944E+03 -0.61865390164E+03 -0.54102195747E+03  0.91187523747E+03  0.25500000920E-02 0. -1.
</event>
<event>
 5   0  0.1700207E-03  0.1275053E+04  0.7818609E-02  0.9049586E-01
       -1   -1    0    0    0  501  0.00000000000E+00  0.00000000000E+00  0.18788014302E+03  0.18788014308E+03  0.50400001928E-02 0. -1.
        1   -1    0    0  501    0  0.00000000000E+00  0.00000000000E+00 -0.21632940602E+04  0.21632940602E+04  0.50400001928E-02 0.  1.
    10030    2    1    2    0    0  0.00000000000E+00  0.00000000000E+00 -0.19754139172E+04  0.23511742033E+04  0.12750529362E+04 0.  0.
        2    1    3    3  502    0 -0.82693399539E+02 -0.18196558651E+03  0.12861083998E+03  0.23767713640E+03  0.25500000920E-02 0. -1.
       -2    1    3    3    0  502  0.82693399539E+02  0.18196558651E+03 -0.21040247572E+04  0.21134970669E+04  0.25500000920E-02 0.  1.
</event>
<event>
 5   0  0.1560957E-03  0.1377942E+04  0.7818609E-02  0.8969942E-01
        1   -1    0    0  501    0  0.00000000000E+00  0.00000000000E+00  0.22655736109E+04  0.22655736109E+04  0.50400001928E-02 0. -1.
       -1   -1    0    0    0  501  0.00000000000E+00  0.00000000000E+00 -0.20951912490E+03  0.20951912496E+03  0.50400001928E-02 0.  1.
    10030    2    1    2    0    0  0.00000000000E+00  0.00000000000E+00  0.20560544860E+04  0.24750927359E+04  0.13779419443E+04 0.  0.
        5    1    3    3  502    0 -0.34375548476E+03 -0.44267017418E+03  0.17477153590E+04  0.18353898176E+04  0.46999998093E+01 0. -1.
       -5    1    3    3    0  502  0.34375548476E+03  0.44267017418E+03  0.30833912697E+03  0.63970291826E+03  0.46999998093E+01 0.  1.
</event>
<event>
 5   0  0.3006737E-03  0.1332204E+04  0.7818609E-02  0.9004410E-01
       -2   -1    0    0    0  501  0.00000000000E+00  0.00000000000E+00  0.26819550920E+03  0.26819550921E+03  0.25500000920E-02 0.  1.
        2   -1    0    0  501    0  0.00000000000E+00  0.00000000000E+00 -0.16543601172E+04  0.16543601172E+04  0.25500000920E-02 0. -1.
    10030    2    1    2    0    0  0.00000000000E+00  0.00000000000E+00 -0.13861646080E+04  0.19225556264E+04  0.13322041196E+04 0.  0.
        1    1    3    3  502    0  0.53061575249E+03  0.39639053491E+03 -0.79526450030E+03  0.10349512831E+04  0.50400001928E-02 0. -1.
       -1    1    3    3    0  502 -0.53061575249E+03 -0.39639053491E+03 -0.59090010769E+03  0.88760434330E+03  0.50400001928E-02 0.  1.
</event>
<event>
 5   0  0.3006737E-03  0.1389506E+04  0.7818609E-02  0.8961450E-01
       -2   -1    0    0    0  501  0.00000000000E+00  0.00000000000E+00  0.65913794767E+03  0.65913794767E+03  0.25500000920E-02 0. -1.
        2   -1    0    0  501    0  0.00000000000E+00  0.00000000000E+00 -0.73229207154E+03  0.73229207155E+03  0.25500000920E-02 0.  1.
    10030    2    1    2    0    0  0.00000000000E+00  0.00000000000E+00 -0.73154123872E+02  0.13914300192E+04  0.13895056576E+04 0.  0.
        1    1    3    3  502    0  0.24831328946E+03 -0.33412140661E+03  0.52041704251E+03  0.66643116842E+03  0.50400001928E-02 0. -1.
       -1    1    3    3    0  502 -0.24831328946E+03  0.33412140661E+03 -0.59357116639E+03  0.72499885080E+03  0.50400001928E-02 0.  1.
</event>
<event>
 5   0  0.2917809E-03  0.1383365E+04  0.7818609E-02  0.8965948E-01
       -2   -1    0    0    0  501  0.00000000000E+00  0.00000000000E+00  0.28905477157E+03  0.28905477158E+03  0.25500000920E-02 0. -1.
        2   -1    0    0  501    0  0.00000000000E+00  0.00000000000E+00 -0.16551359321E+04  0.16551359321E+04  0.25500000920E-02 0.  1.
    10030    2    1    2    0    0  0.00000000000E+00  0.00000000000E+00 -0.13660811605E+04  0.19441907037E+04  0.13833653730E+04 0.  0.
        2    1    3    3  502    0 -0.38805528920E+02 -0.62966884771E+03 -0.28444932507E+03  0.69202611612E+03  0.25500000920E-02 0.  1.
       -2    1    3    3    0  502  0.38805528920E+02  0.62966884771E+03 -0.10816318354E+04  0.12521645875E+04  0.25500000920E-02 0. -1.
</event>
<event>
 5   0  0.2889469E-03  0.1392723E+04  0.7818609E-02  0.8959103E-01
        2   -1    0    0  501    0  0.00000000000E+00  0.00000000000E+00  0.13199990205E+04  0.13199990205E+04  0.25500000920E-02 0. -1.
       -2   -1    0    0    0  501  0.00000000000E+00  0.00000000000E+00 -0.36736350288E+03  0.36736350289E+03  0.25500000920E-02 0.  1.
    10030    2    1    2    0    0  0.00000000000E+00  0.00000000000E+00  0.95263551764E+03  0.16873625234E+04  0.13927231799E+04 0.  0.
        5    1    3    3  502    0 -0.35892131193E+03 -0.16992653274E+03  0.11693426108E+04  0.12349428190E+04  0.46999998093E+01 0. -1.
       -5    1    3    3    0  502  0.35892131193E+03  0.16992653274E+03 -0.21670709320E+03  0.45241970440E+03  0.46999998093E+01 0.  1.
</event>
<event>
 5   0  0.1644571E-03  0.1403292E+04  0.7818609E-02  0.8951439E-01
        1   -1    0    0  501    0  0.00000000000E+00  0.00000000000E+00  0.16849769384E+04  0.16849769384E+04  0.50400001928E-02 0.  1.
       -1   -1    0    0    0  501  0.00000000000E+00  0.00000000000E+00 -0.29217427999E+03  0.29217428004E+03  0.50400001928E-02 0. -1.
    10030    2    1    2    0    0  0.00000000000E+00  0.00000000000E+00  0.13928026584E+04  0.19771512184E+04  0.14032917356E+04 0.  0.
        4    1    3    3  502    0 -0.53023951316E+03  0.12799548977E+03  0.13182021714E+04  0.14266027353E+04  0.12699999809E+01 0.  1.
       -4    1    3    3    0  502  0.53023951316E+03 -0.12799548977E+03  0.74600486965E+02  0.55054848313E+03  0.12699999809E+01 0. -1.
</event>
<event>
 5   0  0.3006737E-03  0.1389731E+04  0.7818609E-02  0.8961286E-01
       -2   -1    0    0    0  501  0.00000000000E+00  0.00000000000E+00  0.11015891299E+04  0.11015891299E+04  0.25500000920E-02 0.  1.
        2   -1    0    0  501    0  0.00000000000E+00  0.00000000000E+00 -0.43831032901E+03  0.43831032902E+03  0.25500000920E-02 0. -1.
    10030    2    1    2    0    0  0.00000000000E+00  0.00000000000E+00  0.66327880090E+03  0.15398994589E+04  0.13897307566E+04 0.  0.
        1    1    3    3  502    0 -0.14860012921E+03 -0.65933053343E+03  0.51044249980E+03  0.84696534542E+03  0.50400001928E-02 0.  1.
       -1    1    3    3    0  502  0.14860012921E+03  0.65933053343E+03  0.15283630110E+03  0.69293411351E+03  0.50400001928E-02 0. -1.
</event>
<event>
 5   0  0.1586022E-03  0.1335023E+04  0.7818609E-02  0.9002243E-01
       -1   -1    0    0    0  501  0.00000000000E+00  0.00000000000E+00  0.53742374417E+03  0.53742374420E+03  0.50400001928E-02 0. -1.
        1   -1    0    0  501    0  0.00000000000E+00  0.00000000000E+00 -0.82908829260E+03  0.82908829262E+03  0.50400001928E-02 0.  1.
    10030    2    1    2    0    0  0.00000000000E+00  0.00000000000E+00 -0.29166454843E+03  0.13665120368E+04  0.13350231975E+04 0.  0.
        1    1    3    3  502    0 -0.20606376605E+03 -0.61992782160E+03 -0.54890334182E+01  0.65330154538E+03  0.50400001928E-02 0.  1.
       -1    1    3    3    0  502  0.20606376605E+03  0.61992782160E+03 -0.28617551501E+03  0.71321049144E+03  0.50400001928E-02 0. -1.
</event>
<event>
 5   0  0.1104538E-03  0.1403057E+04  0.7818609E-02  0.8951609E-01
       -4   -1    0    0    0  501  0.00000000000E+00  0.00000000000E+00  0.54025347271E+03  0.54025496543E+03  0.12699999809E+01 0.  1.
        4   -1    0    0  501    0  0.00000000000E+00  0.00000000000E+00 -0.91094402083E+03  0.91094490612E+03  0.12699999809E+01 0. -1.
    10030    2    1    2    0    0  0.00000000000E+00  0.00000000000E+00 -0.37069054812E+03  0.14511998715E+04  0.14030572279E+04 0.  0.
        5    1    3    3  502    0  0.41519763039E+03  0.51382115905E+03 -0.42949357094E+03  0.78796451268E+03  0.46999998093E+01 0. -1.
       -5    1    3    3    0  502 -0.41519763039E+03 -0.51382115905E+03  0.58803022828E+02  0.66323535887E+03  0.46999998093E+01 0.  1.
</event>
<event>
 5   0  0.1586022E-03  0.1388641E+04  0.7818609E-02  0.8962082E-01
        1   -1    0    0  501    0  0.00000000000E+00  0.00000000000E+00  0.70902499611E+03  0.70902499612E+03  0.50400001928E-02 0.  1.
       -1   -1    0    0    0  501  0.00000000000E+00  0.00000000000E+00 -0.67992074832E+03  0.67992074833E+03  0.50400001928E-02 0. -1.
    10030    2    1    2    0    0  0.00000000000E+00  0.00000000000E+00  0.29104247791E+02  0.13889457445E+04  0.13886407829E+04 0.  0.
        1    1    3    3  502    0  0.24649018464E+03  0.10949947985E+03 -0.62537995618E+03  0.68106360703E+03  0.50400001928E-02 0. -1.
       -1    1    3    3    0  502 -0.24649018464E+03 -0.10949947985E+03  0.65448420397E+03  0.70788213742E+03  0.50400001928E-02 0.  1.
</event>
<event>
 5   0  0.1560957E-03  0.1400755E+04  0.7818609E-02  0.8953272E-01
        1   -1    0    0  501    0  0.00000000000E+00  0.00000000000E+00  0.37277773517E+03  0.37277773521E+03  0.50400001928E-02 0.  1.
       -1   -1    0    0    0  501  0.00000000000E+00  0.00000000000E+00 -0.13158739352E+04  0.13158739352E+04  0.50400001928E-02 0. -1.
    10030    2    1    2    0    0  0.00000000000E+00  0.00000000000E+00 -0.94309619999E+03  0.16886516704E+04  0.14007548042E+04 0.  0.
        5    1    3    3  502    0 -0.57764532548E+03 -0.31044039036E+02 -0.94749359038E+03  0.11101369502E+04  0.46999998093E+01 0.  1.
       -5    1    3    3    0  502  0.57764532548E+03  0.31044039036E+02  0.43973903896E+01  0.57851472017E+03  0.46999998093E+01 0. -1.
</event>
<event>
 5   0  0.1700207E-03  0.1262133E+04  0.7818609E-02  0.9060145E-01
        1   -1    0    0  501    0  0.00000000000E+00  0.00000000000E+00  0.76976890771E+03  0.76976890773E+03  0.50400001928E-02 0.  1.
       -1   -1    0    0    0  501  0.00000000000E+00  0.00000000000E+00 -0.51735671917E+03  0.51735671920E+03  0.50400001928E-02 0. -1.
    10030    2    1    2    0    0  0.00000000000E+00  0.00000000000E+00  0.25241218854E+03  0.12871256269E+04  0.12621332998E+04 0.  0.
        2    1    3    3  502    0 -0.31551335058E+03  0.54374600890E+03  0.70008452668E+02  0.63254215673E+03  0.25500000920E-02 0. -1.
       -2    1    3    3    0  502  0.31551335058E+03 -0.54374600890E+03  0.18240373587E+03  0.65458347019E+03  0.25500000920E-02 0.  1.
</event>
<event>
 5   0  0.3006737E-03  0.1405830E+04  0.7818609E-02  0.8949609E-01
        2   -1    0    0  501    0  0.00000000000E+00  0.00000000000E+00  0.81774410383E+03  0.81774410384E+03  0.25500000920E-02 0.  1.
       -2   -1    0    0    0  501  0.00000000000E+00  0.00000000000E+00 -0.60421040067E+03  0.60421040067E+03  0.25500000920E-02 0. -1.
    10030    2    1    2    0    0  0.00000000000E+00  0.00000000000E+00  0.21353370317E+03  0.14219545045E+04  0.14058299935E+04 0.  0.
        1    1    3    3  502    0  0.22970105048E+03 -0.65205951324E+03 -0.21754743478E+02  0.69167727321E+03  0.50400001928E-02 0. -1.
       -1    1    3    3    0  502 -0.22970105048E+03  0.65205951324E+03  0.23528844664E+03  0.73027723129E+03  0.50400001928E-02 0.  1.
</event>
<event>
 5   0  0.2993993E-03  0.1401813E+04  0.7818609E-02  0.8952507E-01
       -2   -1    0    0    0  501  0.00000000000E+00  0.00000000000E+00  0.25297976601E+03  0.25297976602E+03  0.25500000920E-02 0. -1.
        2   -1    0    0  501    0  0.00000000000E+00  0.00000000000E+00 -0.19419340269E+04  0.19419340269E+04  0.25500000920E-02 0.  1.
    10030    2    1    2    0    0  0.00000000000E+00  0.00000000000E+00 -0.16889542609E+04  0.21949137929E+04  0.14018131341E+04 0.  0.
        3    1    3    3  502    0 -0.29596439443E+02 -0.50732302249E+02 -0.19380740364E+04  0.19389638203E+04  0.10100000352E+00 0.  1.
       -3    1    3    3    0  502  0.29596439443E+02  0.50732302249E+02  0.24911977552E+03  0.25594997260E+03  0.10100000352E+00 0. -1.
</event>
<event>
 5   0  0.1586022E-03  0.1380827E+04  0.7818609E-02  0.8967815E-01
        1   -1    0    0  501    0  0.00000000000E+00  0.00000000000E+00  0.40958545286E+03  0.40958545289E+03  0.50400001928E-02 0.  1.
       -1   -1    0    0    0  501  0.00000000000E+00  0.00000000000E+00 -0.11637877336E+04  0.11637877336E+04  0.50400001928E-02 0. -1.
    10030    2    1    2    0    0  0.00000000000E+00  0.00000000000E+00 -0.75420228069E+03  0.15733731865E+04  0.13808266016E+04 0.  0.
        1    1    3    3  502    0 -0.41730155900E+02  0.25596366509E+03 -0.11061770293E+04  0.11361718285E+04  0.50400001928E-02 0. -1.
       -1    1    3    3    0  502  0.41730155900E+02 -0.25596366509E+03  0.35197474857E+03  0.43720135797E+03  0.50400001928E-02 0.  1.
</event>
<event>
 5   0  0.1700207E-03  0.1403990E+04  0.7818609E-02  0.8950935E-01
       -1   -1    0    0    0  501  0.00000000000E+00  0.00000000000E+00  0.78930411640E+03  0.78930411642E+03  0.50400001928E-02 0. -1.
        1   -1    0    0  501    0  0.00000000000E+00  0.00000000000E+00 -0.62434368401E+03  0.62434368403E+03  0.50400001928E-02 0.  1.
    10030    2    1    2    0    0  0.00000000000E+00  0.00000000000E+00  0.16496043239E+03  0.14136478004E+04  0.14039900852E+04 0.  0.
        2    1    3    3  502    0  0.46521137712E+03  0.51374948980E+03  0.19476808426E+03  0.71992692013E+03  0.25500000920E-02 0.  1.
       -2    1    3    3    0  502 -0.46521137712E+03 -0.51374948980E+03 -0.29807651867E+02  0.69372088032E+03  0.25500000920E-02 0. -1.
</event>
<event>
 5   0  0.1104538E-03  0.1322123E+04  0.7818609E-02  0.9012203E-01
       -3   -1    0    0    0  501  0.00000000000E+00  0.00000000000E+00  0.44403996118E+03  0.44403997266E+03  0.10100000352E+00 0. -1.
        3   -1    0    0  501    0  0.00000000000E+00  0.00000000000E+00 -0.98415110479E+03  0.98415110997E+03  0.10100000352E+00 0.  1.
    10030    2    1    2    0    0  0.00000000000E+00  0.00000000000E+00 -0.54011114361E+03  0.14281910826E+04  0.13221231868E+04 0.  0.
        3    1    3    3  502    0  0.51796610334E+03 -0.37416377460E+02  0.17179961058E+03  0.54699541671E+03  0.10100000352E+00 0. -1.
       -3    1    3    3    0  502 -0.51796610334E+03  0.37416377460E+02 -0.71191075419E+03  0.88119566592E+03  0.10100000352E+00 0.  1.
</event>
<event>
 5   0  0.1586022E-03  0.1474910E+04  0.7818609E-02  0.8901311E-01
       -1   -1    0    0    0  501  0.00000000000E+00  0.00000000000E+00  0.39223602988E+03  0.39223602992E+03  0.50400001928E-02 0.  1.
        1   -1    0    0  501    0  0.00000000000E+00  0.00000000000E+00 -0.13865110445E+04  0.13865110445E+04  0.50400001928E-02 0. -1.
    10030    2    1    2    0    0  0.00000000000E+00  0.00000000000E+00 -0.99427501464E+03  0.17787470745E+04  0.14749096074E+04 0.  0.
        1    1    3    3  502    0 -0.50660540164E+03  0.92961540492E+02 -0.11336389132E+04  0.12451618636E+04  0.50400001928E-02 0. -1.
       -1    1    3    3    0  502  0.50660540164E+03 -0.92961540492E+02  0.13936389858E+03  0.53358521085E+03  0.50400001928E-02 0.  1.
</event>
<event>
 5   0  0.1700207E-03  0.1519093E+04  0.7818609E-02  0.8871855E-01
        1   -1    0    0  501    0  0.00000000000E+00  0.00000000000E+00  0.14141028266E+04  0.14141028266E+04  0.50400001928E-02 0. -1.
       -1   -1    0    0    0  501  0.00000000000E+00  0.00000000000E+00 -0.40796931043E+03  0.40796931046E+03  0.50400001928E-02 0.  1.
    10030    2    1    2    0    0  0.00000000000E+00  0.00000000000E+00  0.10061335162E+04  0.18220721371E+04  0.15190925648E+04 0.  0.
        2    1    3    3  502    0 -0.30750414804E+03  0.31493485265E+03  0.12455314875E+04  0.13210190948E+04  0.25500000920E-02 0. -1.
       -2    1    3    3    0  502  0.30750414804E+03 -0.31493485265E+03 -0.23939797134E+03  0.50105304226E+03  0.25500000920E-02 0.  1.
</event>
<event>
 5   0  0.1631380E-03  0.1380720E+04  0.7818609E-02  0.8967894E-01
       -1   -1    0    0    0  501  0.00000000000E+00  0.00000000000E+00  0.50453044718E+03  0.50453044721E+03  0.50400001928E-02 0.  1.
        1   -1    0    0  501    0  0.00000000000E+00  0.00000000000E+00 -0.94463410362E+03  0.94463410364E+03  0.50400001928E-02 0. -1.
    10030    2    1    2    0    0  0.00000000000E+00  0.00000000000E+00 -0.44010365644E+03  0.14491645508E+04  0.13807196193E+04 0.  0.
        3    1    3    3  502    0 -0.15367122822E+02  0.31322520688E+03 -0.86556030322E+03  0.92061980611E+03  0.10100000352E+00 0. -1.
       -3    1    3    3    0  502  0.15367122822E+02 -0.31322520688E+03  0.42545664678E+03  0.52854474473E+03  0.10100000352E+00 0.  1.
</event>
<event>
 5   0  0.3006737E-03  0.1312359E+04  0.7818609E-02  0.9019821E-01
        2   -1    0    0  501    0  0.00000000000E+00  0.00000000000E+00  0.17918744811E+04  0.17918744811E+04  0.25500000920E-02 0. -1.
       -2   -1    0    0    0  501  0.00000000000E+00  0.00000000000E+00 -0.24029113062E+03  0.24029113064E+03  0.25500000920E-02 0.  1.
    10030    2    1    2    0    0  0.00000000000E+00  0.00000000000E+00  0.15515833505E+04  0.20321656118E+04  0.13123590134E+04 0.  0.
        1    1    3    3  502    0  0.74385534455E+02  0.50559425899E+03  0.14131439313E+04  0.15027090647E+04  0.50400001928E-02 0. -1.
       -1    1    3    3    0  502 -0.74385534455E+02 -0.50559425899E+03  0.13843941923E+03  0.52945654711E+03  0.50400001928E-02 0.  1.
</event>
<event>
 5   0  0.1560957E-03  0.1422285E+04  0.7818609E-02  0.8937844E-01
        1   -1    0    0  501    0  0.00000000000E+00  0.00000000000E+00  0.21816830686E+04  0.21816830686E+04  0.50400001928E-02 0.  1.
       -1   -1    0    0    0  501  0.00000000000E+00  0.00000000000E+00 -0.23180437655E+03  0.23180437661E+03  0.50400001928E-02 0. -1.
    10030    2    1    2    0    0  0.00000000000E+00  0.00000000000E+00  0.19498786921E+04  0.24134874452E+04  0.14222850398E+04 0.  0.
        5    1    3    3  502    0 -0.61881430878E+03  0.52519566814E+02  0.15627953958E+04  0.16816780288E+04  0.46999998093E+01 0.  1.
       -5    1    3    3    0  502  0.61881430878E+03 -0.52519566814E+02  0.38708329629E+03  0.73180941639E+03  0.46999998093E+01 0. -1.
</event>
<event>
 5   0  0.2917809E-03  0.1286621E+04  0.7818609E-02  0.9040243E-01
        2   -1    0    0  501    0  0.00000000000E+00  0.00000000000E+00  0.50770886839E+03  0.50770886840E+03  0.25500000920E-02 0. -1.
       -2   -1    0    0    0  501  0.00000000000E+00  0.00000000000E+00 -0.81512917018E+03  0.81512917018E+03  0.25500000920E-02 0.  1.
    10030    2    1    2    0    0  0.00000000000E+00  0.00000000000E+00 -0.30742030179E+03  0.13228380386E+04  0.12866208588E+04 0.  0.
        2    1    3    3  502    0 -0.29133114008E+03  0.23874235857E+03 -0.68990399821E+03  0.78602752732E+03  0.25500000920E-02 0.  1.
       -2    1    3    3    0  502  0.29133114008E+03 -0.23874235857E+03  0.38248369643E+03  0.53681051125E+03  0.25500000920E-02 0. -1.
</event>
<event>
 5   0  0.1700207E-03  0.1360008E+04  0.7818609E-02  0.8983287E-01
        1   -1    0    0  501    0  0.00000000000E+00  0.00000000000E+00  0.78223651491E+03  0.78223651492E+03  0.50400001928E-02 0. -1.
       -1   -1    0    0    0  501  0.00000000000E+00  0.00000000000E+00 -0.59113249641E+03  0.59113249643E+03  0.50400001928E-02 0.  1.
    10030    2    1    2    0    0  0.00000000000E+00  0.00000000000E+00  0.19110401850E+03  0.13733690113E+04  0.13600079762E+04 0.  0.
        2    1    3    3  502    0 -0.48258647267E+03  0.47607715115E+03  0.14961549774E+03  0.69420742910E+03  0.25500000920E-02 0.  1.
       -2    1    3    3    0  502  0.48258647267E+03 -0.47607715115E+03  0.41488520765E+02  0.67916158225E+03  0.25500000920E-02 0. -1.
</event>
<event>
 5   0  0.2993993E-03  0.1408807E+04  0.7818609E-02  0.8947468E-01
       -2   -1    0    0    0  501  0.00000000000E+00  0.00000000000E+00  0.48449909177E+03  0.48449909177E+03  0.25500000920E-02 0. -1.
        2   -1    0    0  501    0  0.00000000000E+00  0.00000000000E+00 -0.10241178860E+04  0.10241178860E+04  0.25500000920E-02 0.  1.
    10030    2    1    2    0    0  0.00000000000E+00  0.00000000000E+00 -0.53961879425E+03  0.15086169778E+04  0.14088068507E+04 0.  0.
        3    1    3    3  502    0  0.66634438581E+03 -0.10864789775E+03 -0.48495369941E+03  0.83126368077E+03  0.10100000352E+00 0. -1.
       -3    1    3    3    0  502 -0.66634438581E+03  0.10864789775E+03 -0.54665094834E+02  0.67735329702E+03  0.10100000352E+00 0.  1.
</event>
<event>
 5   0  0.1586022E-03  0.1368547E+04  0.7818609E-02  0.8976906E-01
        1   -1    0    0  501    0  0.00000000000E+00  0.00000000000E+00  0.61631440738E+03  0.61631440741E+03  0.50400001928E-02 0. -1.
       -1   -1    0    0    0  501  0.00000000000E+00  0.00000000000E+00 -0.75972662735E+03  0.75972662737E+03  0.50400001928E-02 0.  1.
    10030    2    1    2    0    0  0.00000000000E+00  0.00000000000E+00 -0.14341221997E+03  0.13760410348E+04  0.13685473556E+04 0.  0.
        1    1    3    3  502    0  0.93205345906E+02  0.36576635364E+03  0.50217144113E+03  0.62821048882E+03  0.50400001928E-02 0. -1.
       -1    1    3    3    0  502 -0.93205345906E+02 -0.36576635364E+03 -0.64558366110E+03  0.74783054595E+03  0.50400001928E-02 0.  1.
</event>
<event>
 5   0  0.2993993E-03  0.1364363E+04  0.7818609E-02  0.8980026E-01
       -2   -1    0    0    0  501  0.00000000000E+00  0.00000000000E+00  0.57075805070E+03  0.57075805070E+03  0.25500000920E-02 0.  1.
        2   -1    0    0  501    0  0.00000000000E+00  0.00000000000E+00 -0.81535703827E+03  0.81535703828E+03  0.25500000920E-02 0. -1.
    10030    2    1    2    0    0  0.00000000000E+00  0.00000000000E+00 -0.24459898758E+03  0.13861150890E+04  0.13643629925E+04 0.  0.
        3    1    3    3  502    0 -0.35198536973E+03 -0.52968724327E+03 -0.37303231704E+03  0.73730278445E+03  0.10100000352E+00 0. -1.
       -3    1    3    3    0  502  0.35198536973E+03  0.52968724327E+03  0.12843332947E+03  0.64881230453E+03  0.10100000352E+00 0.  1.
</event>
<event>
 5   0  0.1631380E-03  0.1405384E+04  0.7818609E-02  0.8949931E-01
        1   -1    0    0  501    0  0.00000000000E+00  0.00000000000E+00  0.10688204106E+04  0.10688204106E+04  0.50400001928E-02 0.  1.
       -1   -1    0    0    0  501  0.00000000000E+00  0.00000000000E+00 -0.46198198942E+03  0.46198198945E+03  0.50400001928E-02 0. -1.
    10030    2    1    2    0    0  0.00000000000E+00  0.00000000000E+00  0.60683842116E+03  0.15308024000E+04  0.14053836197E+04 0.  0.
        3    1    3    3  502    0 -0.53407706901E+03  0.11188938981E+03 -0.17883104417E+03  0.57422826798E+03  0.10100000352E+00 0. -1.
       -3    1    3    3    0  502  0.53407706901E+03 -0.11188938981E+03  0.78566946533E+03  0.95657413207E+03  0.10100000352E+00 0.  1.
</event>
<event>
 5   0  0.1560957E-03  0.1407493E+04  0.7818609E-02  0.8948412E-01
       -1   -1    0    0    0  501  0.00000000000E+00  0.00000000000E+00  0.34496691807E+03  0.34496691810E+03  0.50400001928E-02 0. -1.
        1   -1    0    0  501    0  0.00000000000E+00  0.00000000000E+00 -0.14356723254E+04  0.14356723254E+04  0.50400001928E-02 0.  1.
    10030    2    1    2    0    0  0.00000000000E+00  0.00000000000E+00 -0.10907054074E+04  0.17806392436E+04  0.14074934565E+04 0.  0.
        5    1    3    3  502    0 -0.68646738000E+02 -0.58017380713E+03 -0.49009814450E+02  0.58629179853E+03  0.46999998093E+01 0. -1.
       -5    1    3    3    0  502  0.68646738000E+02  0.58017380713E+03 -0.10416955929E+04  0.11943474450E+04  0.46999998093E+01 0.  1.
</event>
<event>
 5   0  0.1631380E-03  0.1431401E+04  0.7818609E-02  0.8931397E-01
        1   -1    0    0  501    0  0.00000000000E+00  0.00000000000E+00  0.72289696248E+03  0.72289696250E+03  0.50400001928E-02 0.  1.
       -1   -1    0    0    0  501  0.00000000000E+00  0.00000000000E+00 -0.70857602395E+03  0.70857602396E+03  0.50400001928E-02 0. -1.
    10030    2    1    2    0    0  0.00000000000E+00  0.00000000000E+00  0.14320938535E+02  0.14314729865E+04  0.14314013489E+04 0.  0.
        3    1    3    3  502    0 -0.27744544411E+03 -0.34041742542E+03 -0.55799385912E+03  0.71008249873E+03  0.10100000352E+00 0. -1.
       -3    1    3    3    0  502  0.27744544411E+03  0.34041742542E+03  0.57231479765E+03  0.72139048774E+03  0.10100000352E+00 0.  1.
</event>
<event>
 5   0  0.2889469E-03  0.1254623E+04  0.7818609E-02  0.9066345E-01
       -2   -1    0    0    0  501  0.00000000000E+00  0.00000000000E+00  0.91753988943E+03  0.91753988943E+03  0.25500000920E-02 0. -1.
        2   -1    0    0  501    0  0.00000000000E+00  0.00000000000E+00 -0.42888542949E+03  0.42888542950E+03  0.25500000920E-02 0.  1.
    10030    2    1    2    0    0  0.00000000000E+00  0.00000000000E+00  0.48865445994E+03  0.13464253189E+04  0.12546226358E+04 0.  0.
        5    1    3    3  502    0 -0.36130817516E+03  0.49635016991E+03  0.10609910592E+03  0.62304590431E+03  0.46999998093E+01 0.  1.
       -5    1    3    3    0  502  0.36130817516E+03 -0.49635016991E+03  0.38255535402E+03  0.72337941462E+03  0.46999998093E+01 0. -1.
</event>
<event>
 5   0  0.3006737E-03  0.1375787E+04  0.7818609E-02  0.8971534E-01
       -2   -1    0    0    0  501  0.00000000000E+00  0.00000000000E+00  0.93923721541E+03  0.93923721542E+03  0.25500000920E-02 0.  1.
        2   -1    0    0  501    0  0.00000000000E+00  0.00000000000E+00 -0.50381009937E+03  0.50381009937E+03  0.25500000920E-02 0. -1.
    10030    2    1    2    0    0  0.00000000000E+00  0.00000000000E+00  0.43542711605E+03  0.14430473148E+04  0.13757866038E+04 0.  0.
        1    1    3    3  502    0 -0.53984429961E+03 -0.19617396719E+03 -0.17931701501E+03  0.60172309671E+03  0.50400001928E-02 0. -1.
       -1    1    3    3    0  502  0.53984429961E+03  0.19617396719E+03  0.61474413106E+03  0.84132421808E+03  0.50400001928E-02 0.  1.
</event>
<event>
 5   0  0.3006737E-03  0.1294824E+04  0.7818609E-02  0.9033680E-01
        2   -1    0    0  501    0  0.00000000000E+00  0.00000000000E+00  0.21921561288E+04  0.21921561288E+04  0.25500000920E-02 0.  1.
       -2   -1    0    0    0  501  0.00000000000E+00  0.00000000000E+00 -0.19120086005E+03  0.19120086006E+03  0.25500000920E-02 0. -1.
    10030    2    1    2    0    0  0.00000000000E+00  0.00000000000E+00  0.20009552688E+04  0.23833569889E+04  0.12948237520E+04 0.  0.
        1    1    3    3  502    0  0.20498564751E+03 -0.59478411828E+03  0.71917927076E+03  0.95551351982E+03  0.50400001928E-02 0.  1.
       -1    1    3    3    0  502 -0.20498564751E+03  0.59478411828E+03  0.12817759980E+04  0.14278434690E+04  0.50400001928E-02 0. -1.
</event>
<event>
 5   0  0.1700207E-03  0.1388696E+04  0.7818609E-02  0.8962042E-01
        1   -1    0    0  501    0  0.00000000000E+00  0.00000000000E+00  0.15727956040E+04  0.15727956040E+04  0.50400001928E-02 0.  1.
       -1   -1    0    0    0  501  0.00000000000E+00  0.00000000000E+00 -0.30653650437E+03  0.30653650441E+03  0.50400001928E-02 0. -1.
    10030    2    1    2    0    0  0.00000000000E+00  0.00000000000E+00  0.12662590997E+04  0.18793321084E+04  0.13886961750E+04 0.  0.
        2    1    3    3  502    0  0.44001817256E+02  0.33447343613E+03 -0.18817346972E+03  0.38628732067E+03  0.25500000920E-02 0. -1.
       -2    1    3    3    0  502 -0.44001817256E+02 -0.33447343613E+03  0.14544325694E+04  0.14930447878E+04  0.25500000920E-02 0.  1.
</event>
<event>
 5   0  0.1104538E-03  0.1248237E+04  0.7818609E-02  0.9071652E-01
        4   -1    0    0  501    0  0.00000000000E+00  0.00000000000E+00  0.43665174707E+03  0.43665359396E+03  0.12699999809E+01 0. -1.
       -4   -1    0    0    0  501  0.00000000000E+00  0.00000000000E+00 -0.89206625869E+03  0.89206716272E+03  0.12699999809E+01 0.  1.
    10030    2    1    2    0    0  0.00000000000E+00  0.00000000000E+00 -0.45541451162E+03  0.13287207567E+04  0.12482373460E+04 0.  0.
        4    1    3    3  502    0 -0.18328878316E+03  0.29876805294E+03 -0.77739982196E+03  0.85276563226E+03  0.12699999809E+01 0.  1.
       -4    1    3    3    0  502  0.18328878316E+03 -0.29876805294E+03  0.32198531033E+03  0.47595512442E+03  0.12699999809E+01 0. -1.
</event>
<event>
 5   0  0.2917809E-03  0.1479288E+04  0.7818609E-02  0.8898344E-01
        2   -1    0    0  501    0  0.00000000000E+00  0.00000000000E+00  0.16234422895E+04  0.16234422895E+04  0.25500000920E-02 0. -1.
       -2   -1    0    0    0  501  0.00000000000E+00  0.00000000000E+00 -0.33698359237E+03  0.33698359238E+03  0.25500000920E-02 0.  1.
    10030    2    1    2    0    0  0.00000000000E+00  0.00000000000E+00  0.12864586971E+04  0.19604258819E+04  0.14792882271E+04 0.  0.
        2    1    3    3  502    0  0.35326737835E+03 -0.61131357414E+03  0.93529967595E+03  0.11718735471E+04  0.25500000920E-02 0. -1.
       -2    1    3    3    0  502 -0.35326737835E+03  0.61131357414E+03  0.35115902118E+03  0.78855233479E+03  0.25500000920E-02 0.  1.
</event>
<event>
 5   0  0.1560957E-03  0.1350788E+04  0.7818609E-02  0.8990232E-01
        1   -1    0    0  501    0  0.00000000000E+00  0.00000000000E+00  0.82259164965E+03  0.82259164967E+03  0.50400001928E-02 0.  1.
       -1   -1    0    0    0  501  0.00000000000E+00  0.00000000000E+00 -0.55453672836E+03  0.55453672838E+03  0.50400001928E-02 0. -1.
    10030    2    1    2    0    0  0.00000000000E+00  0.00000000000E+00  0.26805492129E+03  0.13771283780E+04  0.13507883360E+04 0.  0.
        5    1    3    3  502    0 -0.27469652437E+03  0.37405343820E+03 -0.36621462752E+03  0.59119319899E+03  0.46999998093E+01 0. -1.
       -5    1    3    3    0  502  0.27469652437E+03 -0.37405343820E+03  0.63426954881E+03  0.78593517905E+03  0.46999998093E+01 0.  1.
</event>
<event>
 5   0  0.1644571E-03  0.1570812E+04  0.7818609E-02  0.8838683E-01
        1   -1    0    0  501    0  0.00000000000E+00  0.00000000000E+00  0.13745220853E+04  0.13745220853E+04  0.50400001928E-02 0. -1.
       -1   -1    0    0    0  501  0.00000000000E+00  0.00000000000E+00 -0.44878317662E+03  0.44878317665E+03  0.50400001928E-02 0.  1.
    10030    2    1    2    0    0  0.00000000000E+00  0.00000000000E+00  0.92573890865E+03  0.18233052619E+04  0.15708117491E+04 0.  0.
        4    1    3    3  502    0  0.21606288004E+03  0.48165528451E+03  0.11378836782E+04  0.12543746885E+04  0.12699999809E+01 0. -1.
       -4    1    3    3    0  502 -0.21606288004E+03 -0.48165528451E+03 -0.21214476952E+03  0.56893057342E+03  0.12699999809E+01 0.  1.
</event>
<event>
 5   0  0.1631380E-03  0.1319450E+04  0.7818609E-02  0.9014282E-01
       -1   -1    0    0    0  501  0.00000000000E+00  0.00000000000E+00  0.43479262174E+03  0.43479262177E+03  0.50400001928E-02 0.  1.
        1   -1    0    0  501    0  0.00000000000E+00  0.00000000000E+00 -0.10010215232E+04  0.10010215232E+04  0.50400001928E-02 0. -1.
    10030    2    1    2    0    0  0.00000000000E+00  0.00000000000E+00 -0.56622890148E+03  0.14358141450E+04  0.13194495406E+04 0.  0.
        3    1    3    3  502    0  0.49685529491E+03 -0.16296383777E+03  0.15462327680E+03  0.54528044567E+03  0.10100000352E+00 0.  1.
       -3    1    3    3    0  502 -0.49685529491E+03  0.16296383777E+03 -0.72085217828E+03  0.89053369932E+03  0.10100000352E+00 0. -1.
</event>
<event>
 5   0  0.1560957E-03  0.1416004E+04  0.7818609E-02  0.8942315E-01
       -1   -1    0    0    0  501  0.00000000000E+00  0.00000000000E+00  0.60370036084E+03  0.60370036086E+03  0.50400001928E-02 0.  1.
        1   -1    0    0  501    0  0.00000000000E+00  0.00000000000E+00 -0.83032369723E+03  0.83032369725E+03  0.50400001928E-02 0. -1.
    10030    2    1    2    0    0  0.00000000000E+00  0.00000000000E+00 -0.22662333639E+03  0.14340240581E+04  0.14160038357E+04 0.  0.
        5    1    3    3  502    0 -0.51934204857E+03  0.27875114611E+03 -0.51050984768E+03  0.77978250779E+03  0.46999998093E+01 0. -1.
       -5    1    3    3    0  502  0.51934204857E+03 -0.27875114611E+03  0.28388651129E+03  0.65424155032E+03  0.46999998093E+01 0.  1.
</event>
<event>
 5   0  0.2917809E-03  0.1102846E+04  0.7818609E-02  0.9202422E-01
       -2   -1    0    0    0  501  0.00000000000E+00  0.00000000000E+00  0.48690433739E+03  0.48690433740E+03  0.25500000920E-02 0. -1.
        2   -1    0    0  501    0  0.00000000000E+00  0.00000000000E+00 -0.62449120311E+03  0.62449120311E+03  0.25500000920E-02 0.  1.
    10030    2    1    2    0    0  0.00000000000E+00  0.00000000000E+00 -0.13758686572E+03  0.11113955405E+04  0.11028462730E+04 0.  0.
        2    1    3    3  502    0  0.47147367123E+03  0.20250452436E+03  0.13469256028E+03  0.53050691876E+03  0.25500000920E-02 0. -1.
       -2    1    3    3    0  502 -0.47147367123E+03 -0.20250452436E+03 -0.27227942600E+03  0.58088862175E+03  0.25500000920E-02 0.  1.
</event>
<event>
 5   0  0.2917809E-03  0.1408917E+04  0.7818609E-02  0.8947389E-01
       -2   -1    0    0    0  501  0.00000000000E+00  0.00000000000E+00  0.41089437086E+03  0.41089437087E+03  0.25500000920E-02 0.  1.
        2   -1    0    0  501    0  0.00000000000E+00  0.00000000000E+00 -0.12077592972E+04  0.12077592972E+04  0.25500000920E-02 0. -1.
    10030    2    1    2    0    0  0.00000000000E+00  0.00000000000E+00 -0.79686492633E+03  0.16186536681E+04  0.14089166002E+04 0.  0.
        2    1    3    3  502    0  0.30098448011E+03  0.45215332865E+03  0.11692906938E+03  0.55561380216E+03  0.25500000920E-02 0.  1.
       -2    1    3    3    0  502 -0.30098448011E+03 -0.45215332865E+03 -0.91379399572E+03  0.10630398659E+04  0.25500000920E-02 0. -1.
</event>
<event>
 5   0  0.1644571E-03  0.1400626E+04  0.7818609E-02  0.8953366E-01
       -1   -1    0    0    0  501  0.00000000000E+00  0.00000000000E+00  0.61276897860E+03  0.61276897862E+03  0.50400001928E-02 0.  1.
        1   -1    0    0  501    0  0.00000000000E+00  0.00000000000E+00 -0.80036362302E+03  0.80036362303E+03  0.50400001928E-02 0. -1.
    10030    2    1    2    0    0  0.00000000000E+00  0.00000000000E+00 -0.18759464442E+03  0.14131326017E+04  0.14006255742E+04 0.  0.
        4    1    3    3  502    0  0.17114065776E+03 -0.14894833567E+03  0.57466072591E+03  0.61782788399E+03  0.12699999809E+01 0.  1.
       -4    1    3    3    0  502 -0.17114065776E+03  0.14894833567E+03 -0.76225537033E+03  0.79530471766E+03  0.12699999809E+01 0. -1.
</event>
<event>
 5   0  0.1586022E-03  0.1411411E+04  0.7818609E-02  0.8945600E-01
        1   -1    0    0  501    0  0.00000000000E+00  0.00000000000E+00  0.80001905790E+03  0.80001905792E+03  0.50400001928E-02 0.  1.
       -1   -1    0    0    0  501  0.00000000000E+00  0.00000000000E+00 -0.62251078712E+03  0.62251078714E+03  0.50400001928E-02 0. -1.
    10030    2    1    2    0    0  0.00000000000E+00  0.00000000000E+00  0.17750827078E+03  0.14225298451E+04  0.14114113411E+04 0.  0.
        1    1    3    3  502    0  0.37264856422E+03 -0.25117935456E+03  0.63715668486E+03  0.77969651895E+03  0.50400001928E-02 0.  1.
       -1    1    3    3    0  502 -0.37264856422E+03  0.25117935456E+03 -0.45964841407E+03  0.64283332611E+03  0.50400001928E-02 0. -1.
</event>
<event>
 5   0  0.1586022E-03  0.1418221E+04  0.7818609E-02  0.8940734E-01
       -1   -1    0    0    0  501  0.00000000000E+00  0.00000000000E+00  0.26605668213E+03  0.26605668218E+03  0.50400001928E-02 0. -1.
        1   -1    0    0  501    0  0.00000000000E+00  0.00000000000E+00 -0.18899651997E+04  0.18899651997E+04  0.50400001928E-02 0.  1.
    10030    2    1    2    0    0  0.00000000000E+00  0.00000000000E+00 -0.16239085176E+04  0.21560218819E+04  0.14182212386E+04 0.  0.
        1    1    3    3  502    0 -0.40182159302E+03  0.48123704077E+03 -0.13156717003E+04  0.14574092442E+04  0.50400001928E-02 0. -1.
       -1    1    3    3    0  502  0.40182159302E+03 -0.48123704077E+03 -0.30823681727E+03  0.69861263771E+03  0.50400001928E-02 0.  1.
</event>
<event>
 5   0  0.1104538E-03  0.1444395E+04  0.7818609E-02  0.8922295E-01
        3   -1    0    0  501    0  0.00000000000E+00  0.00000000000E+00  0.29965056165E+03  0.29965057867E+03  0.10100000352E+00 0. -1.
       -3   -1    0    0    0  501  0.00000000000E+00  0.00000000000E+00 -0.17405916778E+04  0.17405916808E+04  0.10100000352E+00 0.  1.
    10030    2    1    2    0    0  0.00000000000E+00  0.00000000000E+00 -0.14409411162E+04  0.20402422594E+04  0.14443950903E+04 0.  0.
        5    1    3    3  502    0 -0.34308655496E+03  0.87499281655E+02 -0.16095559746E+04  0.16480464296E+04  0.46999998093E+01 0.  1.
       -5    1    3    3    0  502  0.34308655496E+03 -0.87499281655E+02  0.16861485845E+03  0.39219582988E+03  0.46999998093E+01 0. -1.
</event>
<event>
 5   0  0.1560957E-03  0.1385778E+04  0.7818609E-02  0.8964178E-01
        1   -1    0    0  501    0  0.00000000000E+00  0.00000000000E+00  0.16132715020E+04  0.16132715020E+04  0.50400001928E-02 0. -1.
       -1   -1    0    0    0  501  0.00000000000E+00  0.00000000000E+00 -0.29759093788E+03  0.29759093792E+03  0.50400001928E-02 0.  1.
    10030    2    1    2    0    0  0.00000000000E+00  0.00000000000E+00  0.13156805641E+04  0.19108624400E+04  0.13857777302E+04 0.  0.
        5    1    3    3  502    0  0.24624920417E+03  0.55809132555E+03  0.20475082148E+03  0.64346685004E+03  0.46999998093E+01 0.  1.
       -5    1    3    3    0  502 -0.24624920417E+03 -0.55809132555E+03  0.11109297427E+04  0.12673955899E+04  0.46999998093E+01 0. -1.
</event>
<event>
 5   0  0.2760807E-03  0.1397897E+04  0.7818609E-02  0.8955342E-01
        2   -1    0    0  501    0  0.00000000000E+00  0.00000000000E+00  0.99291228189E+03  0.99291228190E+03  0.25500000920E-02 0. -1.
       -2   -1    0    0    0  501  0.00000000000E+00  0.00000000000E+00 -0.49201622136E+03  0.49201622137E+03  0.25500000920E-02 0.  1.
    10030    2    1    2    0    0  0.00000000000E+00  0.00000000000E+00  0.50089606053E+03  0.14849285033E+04  0.13978969191E+04 0.  0.
        4    1    3    3  502    0  0.37708400980E+03  0.44206077914E+02  0.87382372683E+03  0.95274133228E+03  0.12699999809E+01 0. -1.
       -4    1    3    3    0  502 -0.37708400980E+03 -0.44206077914E+02 -0.37292766630E+03  0.53218717098E+03  0.12699999809E+01 0.  1.
</event>
<event>
 5   0  0.2993993E-03  0.1415457E+04  0.7818609E-02  0.8942705E-01
        2   -1    0    0  501    0  0.00000000000E+00  0.00000000000E+00  0.34855012562E+03  0.34855012563E+03  0.25500000920E-02 0.  1.
       -2   -1    0    0    0  501  0.00000000000E+00  0.00000000000E+00 -0.14370374523E+04  0.14370374523E+04  0.25500000920E-02 0. -1.
    10030    2    1    2    0    0  0.00000000000E+00  0.00000000000E+00 -0.10884873267E+04  0.17855875780E+04  0.14154569362E+04 0.  0.
        3    1    3    3  502    0  0.60375630775E+03 -0.30565212666E+03 -0.80563342518E+03  0.10521359834E+04  0.10100000352E+00 0. -1.
       -3    1    3    3    0  502 -0.60375630775E+03  0.30565212666E+03 -0.28285390153E+03  0.73345159451E+03  0.10100000352E+00 0.  1.
</event>
<event>
 5   0  0.3006737E-03  0.1384984E+04  0.7818609E-02  0.8964760E-01
       -2   -1    0    0    0  501  0.00000000000E+00  0.00000000000E+00  0.28990408527E+03  0.28990408528E+03  0.25500000920E-02 0.  1.
        2   -1    0    0  501    0  0.00000000000E+00  0.00000000000E+00 -0.16541502926E+04  0.16541502926E+04  0.25500000920E-02 0. -1.
    10030    2    1    2    0    0  0.00000000000E+00  0.00000000000E+00 -0.13642462073E+04  0.19440543779E+04  0.13849836497E+04 0.  0.
        1    1    3    3  502    0 -0.47190656952E+03 -0.35436744026E+03 -0.11906936369E+04  0.13289181427E+04  0.50400001928E-02 0. -1.
       -1    1    3    3    0  502  0.47190656952E+03  0.35436744026E+03 -0.17355257042E+03  0.61513623515E+03  0.50400001928E-02 0.  1.
</event>
<event>
 5   0  0.2993993E-03  0.1391920E+04  0.7818609E-02  0.8959688E-01
       -2   -1    0    0    0  501  0.00000000000E+00  0.00000000000E+00  0.36442937531E+03  0.36442937532E+03  0.25500000920E-02 0.  1.
        2   -1    0    0  501    0  0.00000000000E+00  0.00000000000E+00 -0.13290920065E+04  0.13290920065E+04  0.25500000920E-02 0. -1.
    10030    2    1    2    0    0  0.00000000000E+00  0.00000000000E+00 -0.96466263116E+03  0.16935213818E+04  0.13919197817E+04 0.  0.
        3    1    3    3  502    0  0.43827157130E+03 -0.33065320571E+03  0.38070381504E+02  0.55032978913E+03  0.10100000352E+00 0.  1.
       -3    1    3    3    0  502 -0.43827157130E+03  0.33065320571E+03 -0.10027330127E+04  0.11431915927E+04  0.10100000352E+00 0. -1.
</event>
<event>
 5   0  0.2889469E-03  0.1411303E+04  0.7818609E-02  0.8945678E-01
        2   -1    0    0  501    0  0.00000000000E+00  0.00000000000E+00  0.35644765811E+03  0.35644765812E+03  0.25500000920E-02 0.  1.
       -2   -1    0    0    0  501  0.00000000000E+00  0.00000000000E+00 -0.13969618450E+04  0.13969618450E+04  0.25500000920E-02 0. -1.
    10030    2    1    2    0    0  0.00000000000E+00  0.00000000000E+00 -0.10405141869E+04  0.17534095031E+04  0.14113026296E+04 0.  0.
        5    1    3    3  502    0  0.35909696006E+03 -0.75482550230E+02 -0.12690815708E+04  0.13210747010E+04  0.46999998093E+01 0. -1.
       -5    1    3    3    0  502 -0.35909696006E+03  0.75482550230E+02  0.22856738397E+03  0.43233480212E+03  0.46999998093E+01 0.  1.
</event>
<event>
 5   0  0.1104538E-03  0.1347280E+04  0.7818609E-02  0.8992889E-01
        4   -1    0    0  501    0  0.00000000000E+00  0.00000000000E+00  0.10520666573E+04  0.10520674238E+04  0.12699999809E+01 0. -1.
       -4   -1    0    0    0  501  0.00000000000E+00  0.00000000000E+00 -0.43133118260E+03  0.43133305227E+03  0.12699999809E+01 0.  1.
    10030    2    1    2    0    0  0.00000000000E+00  0.00000000000E+00  0.62073547466E+03  0.14834004761E+04  0.13472803876E+04 0.  0.
        2    1    3    3  502    0 -0.35323999650E+03 -0.26745677085E+03  0.86905883015E+03  0.97548699103E+03  0.25500000920E-02 0. -1.
       -2    1    3    3    0  502  0.35323999650E+03  0.26745677085E+03 -0.24832335549E+03  0.50791348504E+03  0.25500000920E-02 0.  1.
</event>
<event>
 5   0  0.1586022E-03  0.8002916E+03  0.7818609E-02  0.9559595E-01
       -1   -1    0    0    0  501  0.00000000000E+00  0.00000000000E+00  0.55122532461E+03  0.55122532463E+03  0.50400001928E-02 0. -1.
        1   -1    0    0  501    0  0.00000000000E+00  0.00000000000E+00 -0.29047405793E+03  0.29047405797E+03  0.50400001928E-02 0.  1.
    10030    2    1    2    0    0  0.00000000000E+00  0.00000000000E+00  0.26075126668E+03  0.84169938261E+03  0.80029158911E+03 0.  0.
        1    1    3    3  502    0 -0.12170224286E+03  0.23880327722E+03  0.44286520548E+03  0.51765628692E+03  0.50400001928E-02 0.  1.
       -1    1    3    3    0  502  0.12170224286E+03 -0.23880327722E+03 -0.18211393881E+03  0.32404309569E+03  0.50400001928E-02 0. -1.
</event>
<event>
 5   0  0.2760807E-03  0.1420928E+04  0.7818609E-02  0.8938808E-01
        2   -1    0    0  501    0  0.00000000000E+00  0.00000000000E+00  0.69584317000E+03  0.69584317000E+03  0.25500000920E-02 0. -1.
       -2   -1    0    0    0  501  0.00000000000E+00  0.00000000000E+00 -0.72539173356E+03  0.72539173356E+03  0.25500000920E-02 0.  1.
    10030    2    1    2    0    0  0.00000000000E+00  0.00000000000E+00 -0.29548563563E+02  0.14212349036E+04  0.14209277017E+04 0.  0.
        4    1    3    3  502    0  0.30658007970E+03  0.59101423970E+03  0.23320691735E+03  0.70546173248E+03  0.12699999809E+01 0. -1.
       -4    1    3    3    0  502 -0.30658007970E+03 -0.59101423970E+03 -0.26275548091E+03  0.71577317108E+03  0.12699999809E+01 0.  1.
</event>
<event>
 5   0  0.1631380E-03  0.1378347E+04  0.7818609E-02  0.8969643E-01
       -1   -1    0    0    0  501  0.00000000000E+00  0.00000000000E+00  0.42288202001E+03  0.42288202004E+03  0.50400001928E-02 0.  1.
        1   -1    0    0  501    0  0.00000000000E+00  0.00000000000E+00 -0.11231503718E+04  0.11231503718E+04  0.50400001928E-02 0. -1.
    10030    2    1    2    0    0  0.00000000000E+00  0.00000000000E+00 -0.70026835174E+03  0.15460323918E+04  0.13783469781E+04 0.  0.
        3    1    3    3  502    0 -0.71474808128E+02  0.21517499585E+03 -0.10801175494E+04  0.11036588503E+04  0.10100000352E+00 0. -1.
       -3    1    3    3    0  502  0.71474808128E+02 -0.21517499585E+03  0.37984919769E+03  0.44237354151E+03  0.10100000352E+00 0.  1.
</event>
<event>
 5   0  0.1700207E-03  0.1371827E+04  0.7818609E-02  0.8974468E-01
        1   -1    0    0  501    0  0.00000000000E+00  0.00000000000E+00  0.15702789680E+04  0.15702789680E+04  0.50400001928E-02 0. -1.
       -1   -1    0    0    0  501  0.00000000000E+00  0.00000000000E+00 -0.29961402452E+03  0.29961402457E+03  0.50400001928E-02 0.  1.
    10030    2    1    2    0    0  0.00000000000E+00  0.00000000000E+00  0.12706649434E+04  0.18698929925E+04  0.13718273962E+04 0.  0.
        2    1    3    3  502    0  0.46294236078E+03 -0.12846466997E+03  0.13026214828E+04  0.13883953069E+04  0.25500000920E-02 0. -1.
       -2    1    3    3    0  502 -0.46294236078E+03  0.12846466997E+03 -0.31956539369E+02  0.48149768561E+03  0.25500000920E-02 0.  1.
</event>
<event>
 5   0  0.1644571E-03  0.1389895E+04  0.7818609E-02  0.8961166E-01
       -1   -1    0    0    0  501  0.00000000000E+00  0.00000000000E+00  0.34654174858E+03  0.34654174862E+03  0.50400001928E-02 0.  1.
        1   -1    0    0  501    0  0.00000000000E+00  0.00000000000E+00 -0.13936332865E+04  0.13936332865E+04  0.50400001928E-02 0. -1.
    10030    2    1    2    0    0  0.00000000000E+00  0.00000000000E+00 -0.10470915379E+04  0.17401750351E+04  0.13898951270E+04 0.  0.
        4    1    3    3  502    0 -0.25703040483E+02 -0.68574935148E+03 -0.38617878372E+03  0.78743157496E+03  0.12699999809E+01 0.  1.
       -4    1    3    3    0  502  0.25703040483E+02  0.68574935148E+03 -0.66091275420E+03  0.95274346017E+03  0.12699999809E+01 0. -1.
</event>
<event>
 5   0  0.2760807E-03  0.1378627E+04  0.7818609E-02  0.8969436E-01
        2   -1    0    0  501    0  0.00000000000E+00  0.00000000000E+00  0.73863260481E+03  0.73863260481E+03  0.25500000920E-02 0. -1.
       -2   -1    0    0    0  501  0.00000000000E+00  0.00000000000E+00 -0.64328778954E+03  0.64328778955E+03  0.25500000920E-02 0.  1.
    10030    2    1    2    0    0  0.00000000000E+00  0.00000000000E+00  0.95344815263E+02  0.13819203944E+04  0.13786273400E+04 0.  0.
        4    1    3    3  502    0  0.20532080859E+03 -0.24105686489E+03 -0.56607001326E+03  0.64861538631E+03  0.12699999809E+01 0.  1.
       -4    1    3    3    0  502 -0.20532080859E+03  0.24105686489E+03  0.66141482852E+03  0.73330500805E+03  0.12699999809E+01 0. -1.
</event>
<event>
 5   0  0.1560957E-03  0.1412177E+04  0.7818609E-02  0.8945051E-01
       -1   -1    0    0    0  501  0.00000000000E+00  0.00000000000E+00  0.39147559499E+03  0.39147559502E+03  0.50400001928E-02 0. -1.
        1   -1    0    0  501    0  0.00000000000E+00  0.00000000000E+00 -0.12735435158E+04  0.12735435158E+04  0.50400001928E-02 0.  1.
    10030    2    1    2    0    0  0.00000000000E+00  0.00000000000E+00 -0.88206792077E+03  0.16650191108E+04  0.14121773339E+04 0.  0.
        5    1    3    3  502    0  0.14402641443E+03  0.53429379660E+03 -0.95810306198E+03  0.11064343797E+04  0.46999998093E+01 0.  1.
       -5    1    3    3    0  502 -0.14402641443E+03 -0.53429379660E+03  0.76035141214E+02  0.55858473112E+03  0.46999998093E+01 0. -1.
</event>
<event>
 5   0  0.1560957E-03  0.8321313E+03  0.7818609E-02  0.9514639E-01
       -1   -1    0    0    0  501  0.00000000000E+00  0.00000000000E+00  0.19215757424E+03  0.19215757431E+03  0.50400001928E-02 0.  1.
        1   -1    0    0  501    0  0.00000000000E+00  0.00000000000E+00 -0.90087858301E+03  0.90087858303E+03  0.50400001928E-02 0. -1.
    10030    2    1    2    0    0  0.00000000000E+00  0.00000000000E+00 -0.70872100877E+03  0.10930361573E+04  0.83213134358E+03 0.  0.
        5    1    3    3  502    0  0.23273524900E+03 -0.31269819176E+03 -0.54535587943E+03  0.67035884456E+03  0.46999998093E+01 0. -1.
       -5    1    3    3    0  502 -0.23273524900E+03  0.31269819176E+03 -0.16336512934E+03  0.42267731278E+03  0.46999998093E+01 0.  1.
</event>
<event>
 5   0  0.1560957E-03  0.1373317E+04  0.7818609E-02  0.8973363E-01
       -1   -1    0    0    0  501  0.00000000000E+00  0.00000000000E+00  0.67216773955E+03  0.67216773957E+03  0.50400001928E-02 0. -1.
        1   -1    0    0  501    0  0.00000000000E+00  0.00000000000E+00 -0.70146198821E+03  0.70146198823E+03  0.50400001928E-02 0.  1.
    10030    2    1    2    0    0  0.00000000000E+00  0.00000000000E+00 -0.29294248658E+02  0.13736297278E+04  0.13733173253E+04 0.  0.
        5    1    3    3  502    0  0.41421746915E+03  0.53916927814E+03 -0.11057726648E+03  0.68886068555E+03  0.46999998093E+01 0.  1.
       -5    1    3    3    0  502 -0.41421746915E+03 -0.53916927814E+03  0.81283017817E+02  0.68476904225E+03  0.46999998093E+01 0. -1.
</event>
<event>
 5   0  0.2889469E-03  0.1405877E+04  0.7818609E-02  0.8949576E-01
        2   -1    0    0  501    0  0.00000000000E+00  0.00000000000E+00  0.15722688616E+04  0.15722688616E+04  0.25500000920E-02 0.  1.
       -2   -1    0    0    0  501  0.00000000000E+00  0.00000000000E+00 -0.31427346598E+03  0.31427346599E+03  0.25500000920E-02 0. -1.
    10030    2    1    2    0    0  0.00000000000E+00  0.00000000000E+00  0.12579953957E+04  0.18865423276E+04  0.14058767864E+04 0.  0.
        5    1    3    3  502    0  0.41367924020E+03 -0.29623461962E+03 -0.21808446731E+02  0.50929673274E+03  0.46999998093E+01 0. -1.
       -5    1    3    3    0  502 -0.41367924020E+03  0.29623461962E+03  0.12798038424E+04  0.13772455949E+04  0.46999998093E+01 0.  1.
</event>
<event>
 5   0  0.3006737E-03  0.1248495E+04  0.7818609E-02  0.9071437E-01
        2   -1    0    0  501    0  0.00000000000E+00  0.00000000000E+00  0.10817273209E+04  0.10817273210E+04  0.25500000920E-02 0. -1.
       -2   -1    0    0    0  501  0.00000000000E+00  0.00000000000E+00 -0.36024319285E+03  0.36024319286E+03  0.25500000920E-02 0.  1.
    10030    2    1    2    0    0  0.00000000000E+00  0.00000000000E+00  0.72148412809E+03  0.14419705138E+04  0.12484949402E+04 0.  0.
        1    1    3    3  502    0 -0.17537316987E+03  0.46114959159E+01  0.10526703671E+04  0.10671887913E+04  0.50400001928E-02 0. -1.
       -1    1    3    3    0  502  0.17537316987E+03 -0.46114959159E+01 -0.33118623897E+03  0.37478172249E+03  0.50400001928E-02 0.  1.
</event>
<event>
 5   0  0.1700207E-03  0.1409231E+04  0.7818609E-02  0.8947163E-01
        1   -1    0    0  501    0  0.00000000000E+00  0.00000000000E+00  0.36034425122E+03  0.36034425125E+03  0.50400001928E-02 0. -1.
       -1   -1    0    0    0  501  0.00000000000E+00  0.00000000000E+00 -0.13778025877E+04  0.13778025877E+04  0.50400001928E-02 0.  1.
    10030    2    1    2    0    0  0.00000000000E+00  0.00000000000E+00 -0.10174583365E+04  0.17381468390E+04  0.14092313392E+04 0.  0.
        2    1    3    3  502    0 -0.40158612620E+03 -0.40610402215E+02  0.20361989685E+03  0.45208592538E+03  0.25500000920E-02 0. -1.
       -2    1    3    3    0  502  0.40158612620E+03  0.40610402215E+02 -0.12210782333E+04  0.12860609136E+04  0.25500000920E-02 0.  1.
</event>
<event>
 5   0  0.1104538E-03  0.1115359E+04  0.7818609E-02  0.9190350E-01
        4   -1    0    0  501    0  0.00000000000E+00  0.00000000000E+00  0.26762038616E+03  0.26762339955E+03  0.12699999809E+01 0. -1.
       -4   -1    0    0    0  501  0.00000000000E+00  0.00000000000E+00 -0.11621083153E+04  0.11621090092E+04  0.12699999809E+01 0.  1.
    10030    2    1    2    0    0  0.00000000000E+00  0.00000000000E+00 -0.89448792910E+03  0.14297324088E+04  0.11153591822E+04 0.  0.
        2    1    3    3  502    0 -0.88844319444E+02 -0.37680558639E+03 -0.96179593659E+03  0.10367869534E+04  0.25500000920E-02 0.  1.
       -2    1    3    3    0  502  0.88844319444E+02  0.37680558639E+03  0.67308007492E+02  0.39294545539E+03  0.25500000920E-02 0. -1.
</event>
<event>
 5   0  0.3006737E-03  0.1416840E+04  0.7818609E-02  0.8941718E-01
       -2   -1    0    0    0  501  0.00000000000E+00  0.00000000000E+00  0.42430598286E+03  0.42430598287E+03  0.25500000920E-02 0. -1.
        2   -1    0    0  501    0  0.00000000000E+00  0.00000000000E+00 -0.11827756977E+04  0.11827756977E+04  0.25500000920E-02 0.  1.
    10030    2    1    2    0    0  0.00000000000E+00  0.00000000000E+00 -0.75846971480E+03  0.16070816805E+04  0.14168398709E+04 0.  0.
        1    1    3    3  502    0 -0.53671855466E+03 -0.21840591512E+03  0.83029107681E+02  0.58537320013E+03  0.50400001928E-02 0. -1.
       -1    1    3    3    0  502  0.53671855466E+03  0.21840591512E+03 -0.84149882249E+03  0.10217084804E+04  0.50400001928E-02 0.  1.
</event>
<event>
 5   0  0.1104538E-03  0.1396784E+04  0.7818609E-02  0.8956149E-01
        3   -1    0    0  501    0  0.00000000000E+00  0.00000000000E+00  0.15593541864E+04  0.15593541896E+04  0.10100000352E+00 0. -1.
       -3   -1    0    0    0  501  0.00000000000E+00  0.00000000000E+00 -0.31279078286E+03  0.31279079917E+03  0.10100000352E+00 0.  1.
    10030    2    1    2    0    0  0.00000000000E+00  0.00000000000E+00  0.12465634035E+04  0.18721449888E+04  0.13967843571E+04 0.  0.
        1    1    3    3  502    0 -0.32707471262E+03  0.56693274000E+03  0.94984009606E+03  0.11535106447E+04  0.50400001928E-02 0. -1.
       -1    1    3    3    0  502  0.32707471262E+03 -0.56693274000E+03  0.29672330745E+03  0.71863434410E+03  0.50400001928E-02 0.  1.
</event>
<event>
 5   0  0.3006737E-03  0.1408102E+04  0.7818609E-02  0.8947975E-01
        2   -1    0    0  501    0  0.00000000000E+00  0.00000000000E+00  0.10160558913E+04  0.10160558913E+04  0.25500000920E-02 0.  1.
       -2   -1    0    0    0  501  0.00000000000E+00  0.00000000000E+00 -0.48785489178E+03  0.48785489178E+03  0.25500000920E-02 0. -1.
    10030    2    1    2    0    0  0.00000000000E+00  0.00000000000E+00  0.52820099951E+03  0.15039107831E+04  0.14081020373E+04 0.  0.
        1    1    3    3  502    0 -0.31008382171E+03 -0.13660001981E+03 -0.39504291611E+03  0.52045215677E+03  0.50400001928E-02 0. -1.
       -1    1    3    3    0  502  0.31008382171E+03  0.13660001981E+03  0.92324391562E+03  0.98345862631E+03  0.50400001928E-02 0.  1.
</event>
<event>
 5   0  0.2993993E-03  0.1384581E+04  0.7818609E-02  0.8965056E-01
       -2   -1    0    0    0  501  0.00000000000E+00  0.00000000000E+00  0.38635947322E+03  0.38635947323E+03  0.25500000920E-02 0.  1.
        2   -1    0    0  501    0  0.00000000000E+00  0.00000000000E+00 -0.12404660139E+04  0.12404660139E+04  0.25500000920E-02 0. -1.
    10030    2    1    2    0    0  0.00000000000E+00  0.00000000000E+00 -0.85410654065E+03  0.16268254871E+04  0.13845805078E+04 0.  0.
        3    1    3    3  502    0 -0.28424283996E+03 -0.39413324843E+03 -0.10064055530E+04  0.11175809398E+04  0.10100000352E+00 0. -1.
       -3    1    3    3    0  502  0.28424283996E+03  0.39413324843E+03  0.15229901239E+03  0.50924454731E+03  0.10100000352E+00 0.  1.
</event>
<event>
 5   0  0.1644571E-03  0.1504328E+04  0.7818609E-02  0.8881580E-01
        1   -1    0    0  501    0  0.00000000000E+00  0.00000000000E+00  0.59470064186E+03  0.59470064188E+03  0.50400001928E-02 0.  1.
       -1   -1    0    0    0  501  0.00000000000E+00  0.00000000000E+00 -0.95132010563E+03  0.95132010564E+03  0.50400001928E-02 0. -1.
    10030    2    1    2    0    0  0.00000000000E+00  0.00000000000E+00 -0.35661946377E+03  0.15460207475E+04  0.15043279928E+04 0.  0.
        4    1    3    3  502    0 -0.38296728173E+03  0.39643359648E+03 -0.70428060642E+03  0.89433568685E+03  0.12699999809E+01 0. -1.
       -4    1    3    3    0  502  0.38296728173E+03 -0.39643359648E+03  0.34766114265E+03  0.65168506067E+03  0.12699999809E+01 0.  1.
</event>
<event>
 5   0  0.1644571E-03  0.1260012E+04  0.7818609E-02  0.9061891E-01
       -1   -1    0    0    0  501  0.00000000000E+00  0.00000000000E+00  0.47244381554E+03  0.47244381556E+03  0.50400001928E-02 0. -1.
        1   -1    0    0  501    0  0.00000000000E+00  0.00000000000E+00 -0.84011625194E+03  0.84011625195E+03  0.50400001928E-02 0.  1.
    10030    2    1    2    0    0  0.00000000000E+00  0.00000000000E+00 -0.36767243640E+03  0.13125600675E+04  0.12600122660E+04 0.  0.
        4    1    3    3  502    0  0.39755948886E+03 -0.41871004730E+03  0.78736197056E+02  0.58272862683E+03  0.12699999809E+01 0. -1.
       -4    1    3    3    0  502 -0.39755948886E+03  0.41871004730E+03 -0.44640863345E+03  0.72983144069E+03  0.12699999809E+01 0.  1.
</event>
<event>
 5   0  0.1586022E-03  0.1374772E+04  0.7818609E-02  0.8972285E-01
        1   -1    0    0  501    0  0.00000000000E+00  0.00000000000E+00  0.69973174366E+03  0.69973174368E+03  0.50400001928E-02 0. -1.
       -1   -1    0    0    0  501  0.00000000000E+00  0.00000000000E+00 -0.67525786038E+03  0.67525786040E+03  0.50400001928E-02 0.  1.
    10030    2    1    2    0    0  0.00000000000E+00  0.00000000000E+00  0.24473883280E+02  0.13749896041E+04  0.13747717776E+04 0.  0.
        1    1    3    3  502    0 -0.51357453798E+03 -0.35456955984E+03  0.30041621212E+03  0.69262419779E+03  0.50400001928E-02 0. -1.
       -1    1    3    3    0  502  0.51357453798E+03  0.35456955984E+03 -0.27594232884E+03  0.68236540629E+03  0.50400001928E-02 0.  1.
</event>
<event>
 5   0  0.2889469E-03  0.1198480E+04  0.7818609E-02  0.9114188E-01
       -2   -1    0    0    0  501  0.00000000000E+00  0.00000000000E+00  0.82574519563E+03  0.82574519563E+03  0.25500000920E-02 0. -1.
        2   -1    0    0  501    0  0.00000000000E+00  0.00000000000E+00 -0.43486606802E+03  0.43486606803E+03  0.25500000920E-02 0.  1.
    10030    2    1    2    0    0  0.00000000000E+00  0.00000000000E+00  0.39087912761E+03  0.12606112637E+04  0.11984799813E+04 0.  0.
        5    1    3    3  502    0  0.26959716735E+03 -0.21803764858E+03  0.70949155591E+03  0.78969830109E+03  0.46999998093E+01 0. -1.
       -5    1    3    3    0  502 -0.26959716735E+03  0.21803764858E+03 -0.31861242831E+03  0.47091296256E+03  0.46999998093E+01 0.  1.
</event>
<event>
 5   0  0.1586022E-03  0.1639627E+04  0.7818609E-02  0.8796567E-01
       -1   -1    0    0    0  501  0.00000000000E+00  0.00000000000E+00  0.51233390267E+03  0.51233390270E+03  0.50400001928E-02 0. -1.
        1   -1    0    0  501    0  0.00000000000E+00  0.00000000000E+00 -0.13118290508E+04  0.13118290508E+04  0.50400001928E-02 0.  1.
    10030    2    1    2    0    0  0.00000000000E+00  0.00000000000E+00 -0.79949514816E+03  0.18241629535E+04  0.16396273934E+04 0.  0.
        1    1    3    3  502    0 -0.68885284213E+03  0.26977309802E+03 -0.67195145413E+01  0.73982492147E+03  0.50400001928E-02 0. -1.
       -1    1    3    3    0  502  0.68885284213E+03 -0.26977309802E+03 -0.79277563362E+03  0.10843380321E+04  0.50400001928E-02 0.  1.
</event>
<event>
 5   0  0.1104538E-03  0.1325557E+04  0.7818609E-02  0.9009540E-01
        3   -1    0    0  501    0  0.00000000000E+00  0.00000000000E+00  0.11154258145E+04  0.11154258190E+04  0.10100000352E+00 0.  1.
       -3   -1    0    0    0  501  0.00000000000E+00  0.00000000000E+00 -0.39381874068E+03  0.39381875363E+03  0.10100000352E+00 0. -1.
    10030    2    1    2    0    0  0.00000000000E+00  0.00000000000E+00  0.72160707378E+03  0.15092445727E+04  0.13255573964E+04 0.  0.
        3    1    3    3  502    0  0.12809903568E+03 -0.39374329365E+03 -0.22843708760E+03  0.47289180309E+03  0.10100000352E+00 0. -1.
       -3    1    3    3    0  502 -0.12809903568E+03  0.39374329365E+03  0.95004416137E+03  0.10363527696E+04  0.10100000352E+00 0.  1.
</event>
<event>
 5   0  0.2889469E-03  0.6991923E+03  0.7818609E-02  0.9718614E-01
       -2   -1    0    0    0  501  0.00000000000E+00  0.00000000000E+00  0.94388874762E+02  0.94388874796E+02  0.25500000920E-02 0. -1.
        2   -1    0    0  501    0  0.00000000000E+00  0.00000000000E+00 -0.12948291131E+04  0.12948291131E+04  0.25500000920E-02 0.  1.
    10030    2    1    2    0    0  0.00000000000E+00  0.00000000000E+00 -0.12004402384E+04  0.13892179879E+04  0.69919228549E+03 0.  0.
        5    1    3    3  502    0 -0.74237809903E+02 -0.12807398948E+03  0.28972290128E+02  0.15091614491E+03  0.46999998093E+01 0. -1.
       -5    1    3    3    0  502  0.74237809903E+02  0.12807398948E+03 -0.12294125285E+04  0.12383018430E+04  0.46999998093E+01 0.  1.
</event>
<event>
 5   0  0.3006737E-03  0.1399875E+04  0.7818609E-02  0.8953909E-01
        2   -1    0    0  501    0  0.00000000000E+00  0.00000000000E+00  0.65557239323E+03  0.65557239323E+03  0.25500000920E-02 0. -1.
       -2   -1    0    0    0  501  0.00000000000E+00  0.00000000000E+00 -0.74730471485E+03  0.74730471486E+03  0.25500000920E-02 0.  1.
    10030    2    1    2    0    0  0.00000000000E+00  0.00000000000E+00 -0.91732321629E+02  0.14028771081E+04  0.13998747664E+04 0.  0.
        1    1    3    3  502    0  0.29279856822E+03 -0.25671036048E+03  0.53700065364E+03  0.66332564609E+03  0.50400001928E-02 0. -1.
       -1    1    3    3    0  502 -0.29279856822E+03  0.25671036048E+03 -0.62873297527E+03  0.73955146200E+03  0.50400001928E-02 0.  1.
</event>
<event>
 5   0  0.2760807E-03  0.1375629E+04  0.7818609E-02  0.8971651E-01
       -2   -1    0    0    0  501  0.00000000000E+00  0.00000000000E+00  0.63269976021E+03  0.63269976022E+03  0.25500000920E-02 0. -1.
        2   -1    0    0  501    0  0.00000000000E+00  0.00000000000E+00 -0.74773023594E+03  0.74773023595E+03  0.25500000920E-02 0.  1.
    10030    2    1    2    0    0  0.00000000000E+00  0.00000000000E+00 -0.11503047573E+03  0.13804299962E+04  0.13756289340E+04 0.  0.
        4    1    3    3  502    0  0.36041073018E+03 -0.44350859141E+03 -0.44159294101E+03  0.72221998279E+03  0.12699999809E+01 0.  1.
       -4    1    3    3    0  502 -0.36041073018E+03  0.44350859141E+03  0.32656246528E+03  0.65821001338E+03  0.12699999809E+01 0. -1.
</event>
<event>
 5   0  0.2889469E-03  0.1417937E+04  0.7818609E-02  0.8940936E-01
       -2   -1    0    0    0  501  0.00000000000E+00  0.00000000000E+00  0.45163146568E+03  0.45163146569E+03  0.25500000920E-02 0.  1.
        2   -1    0    0  501    0  0.00000000000E+00  0.00000000000E+00 -0.11129354537E+04  0.11129354537E+04  0.25500000920E-02 0. -1.
    10030    2    1    2    0    0  0.00000000000E+00  0.00000000000E+00 -0.66130398802E+03  0.15645669194E+04  0.14179374742E+04 0.  0.
        5    1    3    3  502    0 -0.39756466849E+03 -0.38106850076E+03 -0.82330182006E+03  0.99051443443E+03  0.46999998093E+01 0. -1.
       -5    1    3    3    0  502  0.39756466849E+03  0.38106850076E+03  0.16199783205E+03  0.57405248496E+03  0.46999998093E+01 0.  1.
</event>
<event>
 5   0  0.1644571E-03  0.1425461E+04  0.7818609E-02  0.8935592E-01
       -1   -1    0    0    0  501  0.00000000000E+00  0.00000000000E+00  0.52008424782E+03  0.52008424785E+03  0.50400001928E-02 0.  1.
        1   -1    0    0  501    0  0.00000000000E+00  0.00000000000E+00 -0.97673618562E+03  0.97673618563E+03  0.50400001928E-02 0. -1.
    10030    2    1    2    0    0  0.00000000000E+00  0.00000000000E+00 -0.45665193780E+03  0.14968204335E+04  0.14254614754E+04 0.  0.
        4    1    3    3  502    0  0.52316982335E+03  0.48226891103E+03 -0.27153853106E+03  0.76159356179E+03  0.12699999809E+01 0. -1.
       -4    1    3    3    0  502 -0.52316982335E+03 -0.48226891103E+03 -0.18511340674E+03  0.73522687169E+03  0.12699999809E+01 0.  1.
</event>
<event>
 5   0  0.3006737E-03  0.1513159E+04  0.7818609E-02  0.8875749E-01
        2   -1    0    0  501    0  0.00000000000E+00  0.00000000000E+00  0.16424994510E+04  0.16424994510E+04  0.25500000920E-02 0.  1.
       -2   -1    0    0    0  501  0.00000000000E+00  0.00000000000E+00 -0.34850091920E+03  0.34850091921E+03  0.25500000920E-02 0. -1.
    10030    2    1    2    0    0  0.00000000000E+00  0.00000000000E+00  0.12939985318E+04  0.19910003702E+04  0.15131590379E+04 0.  0.
        1    1    3    3  502    0  0.62702231813E+03  0.25227622155E+03  0.19960669867E+03  0.70472910652E+03  0.50400001928E-02 0. -1.
       -1    1    3    3    0  502 -0.62702231813E+03 -0.25227622155E+03  0.10943918332E+04  0.12862712637E+04  0.50400001928E-02 0.  1.
</event>
<event>
 5   0  0.1644571E-03  0.1308418E+04  0.7818609E-02  0.9022916E-01
       -1   -1    0    0    0  501  0.00000000000E+00  0.00000000000E+00  0.40176820604E+03  0.40176820607E+03  0.50400001928E-02 0.  1.
        1   -1    0    0  501    0  0.00000000000E+00  0.00000000000E+00 -0.10652648929E+04  0.10652648929E+04  0.50400001928E-02 0. -1.
    10030    2    1    2    0    0  0.00000000000E+00  0.00000000000E+00 -0.66349668689E+03  0.14670330990E+04  0.13084182283E+04 0.  0.
        4    1    3    3  502    0  0.39162718602E+03 -0.58975110490E+02  0.25208453589E+03  0.46946580560E+03  0.12699999809E+01 0.  1.
       -4    1    3    3    0  502 -0.39162718602E+03  0.58975110490E+02 -0.91558122278E+03  0.99756729342E+03  0.12699999809E+01 0. -1.
</event>
<event>
 5   0  0.1700207E-03  0.1149261E+04  0.7818609E-02  0.9158465E-01
        1   -1    0    0  501    0  0.00000000000E+00  0.00000000000E+00  0.57889261509E+03  0.57889261511E+03  0.50400001928E-02 0.  1.
       -1   -1    0    0    0  501  0.00000000000E+00  0.00000000000E+00 -0.57040022986E+03  0.57040022988E+03  0.50400001928E-02 0. -1.
    10030    2    1    2    0    0  0.00000000000E+00  0.00000000000E+00  0.84923852277E+01  0.11492928450E+04  0.11492614685E+04 0.  0.
        2    1    3    3  502    0 -0.38310053226E+03 -0.21062994000E+03  0.37717659495E+03  0.57740208973E+03  0.25500000920E-02 0.  1.
       -2    1    3    3    0  502  0.38310053226E+03  0.21062994000E+03 -0.36868420973E+03  0.57189075526E+03  0.25500000920E-02 0. -1.
</event>
<event>
 5   0  0.1104538E-03  0.1370077E+04  0.7818609E-02  0.8975768E-01
       -4   -1    0    0    0  501  0.00000000000E+00  0.00000000000E+00  0.79256465035E+03  0.79256566787E+03  0.12699999809E+01 0. -1.
        4   -1    0    0  501    0  0.00000000000E+00  0.00000000000E+00 -0.59209788344E+03  0.59209924546E+03  0.12699999809E+01 0.  1.
    10030    2    1    2    0    0  0.00000000000E+00  0.00000000000E+00  0.20046676692E+03  0.13846649133E+04  0.13700766393E+04 0.  0.
        3    1    3    3  502    0  0.62168933737E+03 -0.28312087906E+03  0.48478498090E+02  0.68483957197E+03  0.10100000352E+00 0.  1.
       -3    1    3    3    0  502 -0.62168933737E+03  0.28312087906E+03  0.15198826883E+03  0.69982534136E+03  0.10100000352E+00 0. -1.
</event>
<event>
 5   0  0.1586022E-03  0.1417220E+04  0.7818609E-02  0.8941447E-01
       -1   -1    0    0    0  501  0.00000000000E+00  0.00000000000E+00  0.25882755066E+03  0.25882755071E+03  0.50400001928E-02 0. -1.
        1   -1    0    0  501    0  0.00000000000E+00  0.00000000000E+00 -0.19400105879E+04  0.19400105879E+04  0.50400001928E-02 0.  1.
    10030    2    1    2    0    0  0.00000000000E+00  0.00000000000E+00 -0.16811830372E+04  0.21988381386E+04  0.14172200800E+04 0.  0.
        1    1    3    3  502    0  0.45931383847E+03 -0.17295793235E+03 -0.16336031832E+04  0.17057382592E+04  0.50400001928E-02 0.  1.
       -1    1    3    3    0  502 -0.45931383847E+03  0.17295793235E+03 -0.47579854012E+02  0.49309987944E+03  0.50400001928E-02 0. -1.
</event>
<event>
 5   0  0.1644571E-03  0.1404243E+04  0.7818609E-02  0.8950753E-01
        1   -1    0    0  501    0  0.00000000000E+00  0.00000000000E+00  0.12449487653E+04  0.12449487653E+04  0.50400001928E-02 0. -1.
       -1   -1    0    0    0  501  0.00000000000E+00  0.00000000000E+00 -0.39597980462E+03  0.39597980466E+03  0.50400001928E-02 0.  1.
    10030    2    1    2    0    0  0.00000000000E+00  0.00000000000E+00  0.84896896068E+03  0.16409285700E+04  0.14042429546E+04 0.  0.
        4    1    3    3  502    0 -0.85484129630E+02 -0.99958045257E+01  0.12387599196E+04  0.12417468356E+04  0.12699999809E+01 0. -1.
       -4    1    3    3    0  502  0.85484129630E+02  0.99958045257E+01 -0.38979095888E+03  0.39918173437E+03  0.12699999809E+01 0.  1.
</event>
<event>
 5   0  0.2760807E-03  0.1325233E+04  0.7818609E-02  0.9009791E-01
        2   -1    0    0  501    0  0.00000000000E+00  0.00000000000E+00  0.84912892092E+03  0.84912892092E+03  0.25500000920E-02 0. -1.
       -2   -1    0    0    0  501  0.00000000000E+00  0.00000000000E+00 -0.51707219346E+03  0.51707219347E+03  0.25500000920E-02 0.  1.
    10030    2    1    2    0    0  0.00000000000E+00  0.00000000000E+00  0.33205672746E+03  0.13662011144E+04  0.13252334944E+04 0.  0.
        4    1    3    3  502    0 -0.20291614082E+03  0.11753875840E+03  0.80491951112E+03  0.83838377382E+03  0.12699999809E+01 0. -1.
       -4    1    3    3    0  502  0.20291614082E+03 -0.11753875840E+03 -0.47286278366E+03  0.52781734057E+03  0.12699999809E+01 0.  1.
</event>
<event>
 5   0  0.2760807E-03  0.1401954E+04  0.7818609E-02  0.8952406E-01
        2   -1    0    0  501    0  0.00000000000E+00  0.00000000000E+00  0.38030538622E+03  0.38030538623E+03  0.25500000920E-02 0.  1.
       -2   -1    0    0    0  501  0.00000000000E+00  0.00000000000E+00 -0.12920367125E+04  0.12920367125E+04  0.25500000920E-02 0. -1.
    10030    2    1    2    0    0  0.00000000000E+00  0.00000000000E+00 -0.91173132629E+03  0.16723420987E+04  0.14019536668E+04 0.  0.
        4    1    3    3  502    0  0.46784286724E+02  0.35744677137E+03  0.26125380174E+03  0.44521020391E+03  0.12699999809E+01 0.  1.
       -4    1    3    3    0  502 -0.46784286724E+02 -0.35744677137E+03 -0.11729851280E+04  0.12271318948E+04  0.12699999809E+01 0. -1.
</event>
<event>
 5   0  0.1560957E-03  0.1624173E+04  0.7818609E-02  0.8805834E-01
        1   -1    0    0  501    0  0.00000000000E+00  0.00000000000E+00  0.11807245911E+04  0.11807245911E+04  0.50400001928E-02 0.  1.
       -1   -1    0    0    0  501  0.00000000000E+00  0.00000000000E+00 -0.55854209924E+03  0.55854209926E+03  0.50400001928E-02 0. -1.
    10030    2    1    2    0    0  0.00000000000E+00  0.00000000000E+00  0.62218249184E+03  0.17392666904E+04  0.16241728871E+04 0.  0.
        5    1    3    3  502    0  0.36830622478E+03 -0.62880383600E+03 -0.72658256309E+02  0.73235582307E+03  0.46999998093E+01 0. -1.
       -5    1    3    3    0  502 -0.36830622478E+03  0.62880383600E+03  0.69484074815E+03  0.10069108673E+04  0.46999998093E+01 0.  1.
</event>
<event>
 5   0  0.2917809E-03  0.1403293E+04  0.7818609E-02  0.8951438E-01
        2   -1    0    0  501    0  0.00000000000E+00  0.00000000000E+00  0.84112652186E+03  0.84112652186E+03  0.25500000920E-02 0. -1.
       -2   -1    0    0    0  501  0.00000000000E+00  0.00000000000E+00 -0.58529609500E+03  0.58529609501E+03  0.25500000920E-02 0.  1.
    10030    2    1    2    0    0  0.00000000000E+00  0.00000000000E+00  0.25583042686E+03  0.14264226169E+04  0.14032933673E+04 0.  0.
        2    1    3    3  502    0  0.29645328628E+03 -0.50942528724E+03 -0.25902869541E+03  0.64381250320E+03  0.25500000920E-02 0.  1.
       -2    1    3    3    0  502 -0.29645328628E+03  0.50942528724E+03  0.51485912227E+03  0.78261011367E+03  0.25500000920E-02 0. -1.
</event>
<event>
 5   0  0.1560957E-03  0.1383828E+04  0.7818609E-02  0.8965608E-01
       -1   -1    0    0    0  501  0.00000000000E+00  0.00000000000E+00  0.41941005007E+03  0.41941005010E+03  0.50400001928E-02 0.  1.
        1   -1    0    0  501    0  0.00000000000E+00  0.00000000000E+00 -0.11414727860E+04  0.11414727860E+04  0.50400001928E-02 0. -1.
    10030    2    1    2    0    0  0.00000000000E+00  0.00000000000E+00 -0.72206273592E+03  0.15608828361E+04  0.13838282529E+04 0.  0.
        5    1    3    3  502    0  0.45835550328E+02 -0.22033585877E+03  0.37695387802E+03  0.43905023003E+03  0.46999998093E+01 0.  1.
       -5    1    3    3    0  502 -0.45835550328E+02  0.22033585877E+03 -0.10990166139E+04  0.11218326061E+04  0.46999998093E+01 0. -1.
</event>
<event>
 5   0  0.3006737E-03  0.1309283E+04  0.7818609E-02  0.9022236E-01
       -2   -1    0    0    0  501  0.00000000000E+00  0.00000000000E+00  0.39962771788E+03  0.39962771789E+03  0.25500000920E-02 0.  1.
        2   -1    0    0  501    0  0.00000000000E+00  0.00000000000E+00 -0.10723872352E+04  0.10723872352E+04  0.25500000920E-02 0. -1.
    10030    2    1    2    0    0  0.00000000000E+00  0.00000000000E+00 -0.67275951728E+03  0.14720149531E+04  0.13092832596E+04 0.  0.
        1    1    3    3  502    0 -0.77250481977E+02 -0.81424622939E+01 -0.10671874840E+04  0.10700107769E+04  0.50400001928E-02 0. -1.
       -1    1    3    3    0  502  0.77250481977E+02  0.81424622939E+01  0.39442796674E+03  0.40200417613E+03  0.50400001928E-02 0.  1.
</event>
<event>
 5   0  0.2760807E-03  0.1442981E+04  0.7818609E-02  0.8923281E-01
        2   -1    0    0  501    0  0.00000000000E+00  0.00000000000E+00  0.94387703989E+03  0.94387703990E+03  0.25500000920E-02 0.  1.
       -2   -1    0    0    0  501  0.00000000000E+00  0.00000000000E+00 -0.55150067650E+03  0.55150067650E+03  0.25500000920E-02 0. -1.
    10030    2    1    2    0    0  0.00000000000E+00  0.00000000000E+00  0.39237636340E+03  0.14953777164E+04  0.14429813943E+04 0.  0.
        4    1    3    3  502    0  0.50818908796E+02  0.71791004193E+03  0.24872234361E+03  0.76147344465E+03  0.12699999809E+01 0. -1.
       -4    1    3    3    0  502 -0.50818908796E+02 -0.71791004193E+03  0.14365401979E+03  0.73390427175E+03  0.12699999809E+01 0.  1.
</event>
<event>
 5   0  0.1631380E-03  0.1414627E+04  0.7818609E-02  0.8943298E-01
        1   -1    0    0  501    0  0.00000000000E+00  0.00000000000E+00  0.10005994605E+04  0.10005994605E+04  0.50400001928E-02 0. -1.
       -1   -1    0    0    0  501  0.00000000000E+00  0.00000000000E+00 -0.49999249347E+03  0.49999249349E+03  0.50400001928E-02 0.  1.
    10030    2    1    2    0    0  0.00000000000E+00  0.00000000000E+00  0.50060696699E+03  0.15005919540E+04  0.14146267624E+04 0.  0.
        3    1    3    3  502    0  0.18910190087E+03 -0.57259339269E+02 -0.47012493988E+03  0.50995649828E+03  0.10100000352E+00 0.  1.
       -3    1    3    3    0  502 -0.18910190087E+03  0.57259339269E+02  0.97073190687E+03  0.99063545568E+03  0.10100000352E+00 0. -1.
</event>
<event>
 5   0  0.2760807E-03  0.1067850E+04  0.7818609E-02  0.9237107E-01
       -2   -1    0    0    0  501  0.00000000000E+00  0.00000000000E+00  0.18620405016E+03  0.18620405017E+03  0.25500000920E-02 0.  1.
        2   -1    0    0  501    0  0.00000000000E+00  0.00000000000E+00 -0.15309853176E+04  0.15309853176E+04  0.25500000920E-02 0. -1.
    10030    2    1    2    0    0  0.00000000000E+00  0.00000000000E+00 -0.13447812675E+04  0.17171893678E+04  0.10678495529E+04 0.  0.
        4    1    3    3  502    0  0.43620054838E+02 -0.77878456219E+02  0.17411784673E+03  0.19566910992E+03  0.12699999809E+01 0.  1.
       -4    1    3    3    0  502 -0.43620054838E+02  0.77878456219E+02 -0.15188991142E+04  0.15215202579E+04  0.12699999809E+01 0. -1.
</event>
<event>
 5   0  0.2889469E-03  0.1339228E+04  0.7818609E-02  0.8999023E-01
       -2   -1    0    0    0  501  0.00000000000E+00  0.00000000000E+00  0.43745859436E+03  0.43745859436E+03  0.25500000920E-02 0.  1.
        2   -1    0    0  501    0  0.00000000000E+00  0.00000000000E+00 -0.10249722001E+04  0.10249722001E+04  0.25500000920E-02 0. -1.
    10030    2    1    2    0    0  0.00000000000E+00  0.00000000000E+00 -0.58751360574E+03  0.14624307945E+04  0.13392279835E+04 0.  0.
        5    1    3    3  502    0  0.23183498410E+03 -0.33484001138E+02  0.39124049025E+03  0.45602614990E+03  0.46999998093E+01 0.  1.
       -5    1    3    3    0  502 -0.23183498410E+03  0.33484001138E+02 -0.97875409599E+03  0.10064046446E+04  0.46999998093E+01 0. -1.
</event>
<event>
 5   0  0.3006737E-03  0.1078679E+04  0.7818609E-02  0.9226225E-01
       -2   -1    0    0    0  501  0.00000000000E+00  0.00000000000E+00  0.34153781454E+03  0.34153781455E+03  0.25500000920E-02 0. -1.
        2   -1    0    0  501    0  0.00000000000E+00  0.00000000000E+00 -0.85169830687E+03  0.85169830687E+03  0.25500000920E-02 0.  1.
    10030    2    1    2    0    0  0.00000000000E+00  0.00000000000E+00 -0.51016049232E+03  0.11932361214E+04  0.10786791523E+04 0.  0.
        1    1    3    3  502    0 -0.79145651588E+02  0.67512466464E+02 -0.84049503474E+03  0.84690841934E+03  0.50400001928E-02 0.  1.
       -1    1    3    3    0  502  0.79145651588E+02 -0.67512466464E+02  0.33033454242E+03  0.34632770209E+03  0.50400001928E-02 0. -1.
</event>
<event>
 5   0  0.1644571E-03  0.1094921E+04  0.7818609E-02  0.9210156E-01
       -1   -1    0    0    0  501  0.00000000000E+00  0.00000000000E+00  0.63100412830E+03  0.63100412832E+03  0.50400001928E-02 0.  1.
        1   -1    0    0  501    0  0.00000000000E+00  0.00000000000E+00 -0.47497803594E+03  0.47497803597E+03  0.50400001928E-02 0. -1.
    10030    2    1    2    0    0  0.00000000000E+00  0.00000000000E+00  0.15602609236E+03  0.11059821643E+04  0.10949211872E+04 0.  0.
        4    1    3    3  502    0 -0.32262357469E+03 -0.11136280093E+03 -0.35435765707E+03  0.49199451867E+03  0.12699999809E+01 0. -1.
       -4    1    3    3    0  502  0.32262357469E+03  0.11136280093E+03  0.51038374943E+03  0.61398764561E+03  0.12699999809E+01 0.  1.
</event>
<event>
 5   0  0.3006737E-03  0.1423730E+04  0.7818609E-02  0.8936819E-01
       -2   -1    0    0    0  501  0.00000000000E+00  0.00000000000E+00  0.32652519841E+03  0.32652519842E+03  0.25500000920E-02 0.  1.
        2   -1    0    0  501    0  0.00000000000E+00  0.00000000000E+00 -0.15519522368E+04  0.15519522368E+04  0.25500000920E-02 0. -1.
    10030    2    1    2    0    0  0.00000000000E+00  0.00000000000E+00 -0.12254270384E+04  0.18784774352E+04  0.14237296261E+04 0.  0.
        1    1    3    3  502    0 -0.13218900799E+03 -0.32008273671E+03  0.20789404143E+03  0.40391437789E+03  0.50400001928E-02 0.  1.
       -1    1    3    3    0  502  0.13218900799E+03  0.32008273671E+03 -0.14333210798E+04  0.14745630573E+04  0.50400001928E-02 0. -1.
</event>
<event>
 5   0  0.1700207E-03  0.1395317E+04  0.7818609E-02  0.8957215E-01
        1   -1    0    0  501    0  0.00000000000E+00  0.00000000000E+00  0.65462292867E+03  0.65462292869E+03  0.50400001928E-02 0.  1.
       -1   -1    0    0    0  501  0.00000000000E+00  0.00000000000E+00 -0.74352358237E+03  0.74352358239E+03  0.50400001928E-02 0. -1.
    10030    2    1    2    0    0  0.00000000000E+00  0.00000000000E+00 -0.88900653706E+02  0.13981465111E+04  0.13953172902E+04 0.  0.
        2    1    3    3  502    0  0.20088407978E+03 -0.93422017159E+02  0.61843886827E+03  0.65692367943E+03  0.25500000920E-02 0.  1.
       -2    1    3    3    0  502 -0.20088407978E+03  0.93422017159E+02 -0.70733952197E+03  0.74122283165E+03  0.25500000920E-02 0. -1.
</event>
<event>
 5   0  0.2993993E-03  0.1365084E+04  0.7818609E-02  0.8979488E-01
       -2   -1    0    0    0  501  0.00000000000E+00  0.00000000000E+00  0.35453370599E+03  0.35453370600E+03  0.25500000920E-02 0.  1.
        2   -1    0    0  501    0  0.00000000000E+00  0.00000000000E+00 -0.13140176946E+04  0.13140176946E+04  0.25500000920E-02 0. -1.
    10030    2    1    2    0    0  0.00000000000E+00  0.00000000000E+00 -0.95948398864E+03  0.16685514006E+04  0.13650839725E+04 0.  0.
        3    1    3    3  502    0 -0.60663643540E+03 -0.31196032664E+03 -0.45142922471E+03  0.81799472203E+03  0.10100000352E+00 0. -1.
       -3    1    3    3    0  502  0.60663643540E+03  0.31196032664E+03 -0.50805476393E+03  0.85055667860E+03  0.10100000352E+00 0.  1.
</event>
<event>
 5   0  0.1644571E-03  0.1424317E+04  0.7818609E-02  0.8936402E-01
        1   -1    0    0  501    0  0.00000000000E+00  0.00000000000E+00  0.15057512614E+04  0.15057512615E+04  0.50400001928E-02 0. -1.
       -1   -1    0    0    0  501  0.00000000000E+00  0.00000000000E+00 -0.33682173832E+03  0.33682173836E+03  0.50400001928E-02 0.  1.
    10030    2    1    2    0    0  0.00000000000E+00  0.00000000000E+00  0.11689295231E+04  0.18425729998E+04  0.14243170397E+04 0.  0.
        4    1    3    3  502    0 -0.70636250324E+03  0.65485542593E+02  0.66558213224E+03  0.97274741322E+03  0.12699999809E+01 0. -1.
       -4    1    3    3    0  502  0.70636250324E+03 -0.65485542593E+02  0.50334739089E+03  0.86982558659E+03  0.12699999809E+01 0.  1.
</event>
<event>
 5   0  0.1644571E-03  0.1416601E+04  0.7818609E-02  0.8941889E-01
        1   -1    0    0  501    0  0.00000000000E+00  0.00000000000E+00  0.93959733405E+03  0.93959733407E+03  0.50400001928E-02 0.  1.
       -1   -1    0    0    0  501  0.00000000000E+00  0.00000000000E+00 -0.53394133025E+03  0.53394133028E+03  0.50400001928E-02 0. -1.
    10030    2    1    2    0    0  0.00000000000E+00  0.00000000000E+00  0.40565600380E+03  0.14735386643E+04  0.14166013560E+04 0.  0.
        4    1    3    3  502    0  0.80728965927E+02  0.67532153049E+03 -0.28881307339E+01  0.68013696391E+03  0.12699999809E+01 0.  1.
       -4    1    3    3    0  502 -0.80728965927E+02 -0.67532153049E+03  0.40854413453E+03  0.79340170043E+03  0.12699999809E+01 0. -1.
</event>
<event>
 5   0  0.3006737E-03  0.1360888E+04  0.7818609E-02  0.8982627E-01
        2   -1    0    0  501    0  0.00000000000E+00  0.00000000000E+00  0.14108707476E+04  0.14108707476E+04  0.25500000920E-02 0. -1.
       -2   -1    0    0    0  501  0.00000000000E+00  0.00000000000E+00 -0.32816884878E+03  0.32816884879E+03  0.25500000920E-02 0.  1.
    10030    2    1    2    0    0  0.00000000000E+00  0.00000000000E+00  0.10827018988E+04  0.17390395964E+04  0.13608876942E+04 0.  0.
        1    1    3    3  502    0 -0.47834091749E+03 -0.42468815959E+02 -0.74670854443E+02  0.48599317918E+03  0.50400001928E-02 0.  1.
       -1    1    3    3    0  502  0.47834091749E+03  0.42468815959E+02  0.11573727532E+04  0.12530464172E+04  0.50400001928E-02 0. -1.
</event>
<event>
 5   0  0.2760807E-03  0.1447097E+04  0.7818609E-02  0.8920415E-01
        2   -1    0    0  501    0  0.00000000000E+00  0.00000000000E+00  0.90200702832E+03  0.90200702833E+03  0.25500000920E-02 0.  1.
       -2   -1    0    0    0  501  0.00000000000E+00  0.00000000000E+00 -0.58039768523E+03  0.58039768524E+03  0.25500000920E-02 0. -1.
    10030    2    1    2    0    0  0.00000000000E+00  0.00000000000E+00  0.32160934309E+03  0.14824047136E+04  0.14470974968E+04 0.  0.
        4    1    3    3  502    0  0.61582539185E+03 -0.36614122633E+03  0.26436963949E+03  0.76367089119E+03  0.12699999809E+01 0. -1.
       -4    1    3    3    0  502 -0.61582539185E+03  0.36614122633E+03  0.57239703603E+02  0.71873382238E+03  0.12699999809E+01 0.  1.
</event>
<event>
 5   0  0.1560957E-03  0.1476559E+04  0.7818609E-02  0.8900192E-01
       -1   -1    0    0    0  501  0.00000000000E+00  0.00000000000E+00  0.80228231308E+03  0.80228231309E+03  0.50400001928E-02 0.  1.
        1   -1    0    0  501    0  0.00000000000E+00  0.00000000000E+00 -0.67938291236E+03  0.67938291238E+03  0.50400001928E-02 0. -1.
    10030    2    1    2    0    0  0.00000000000E+00  0.00000000000E+00  0.12289940072E+03  0.14816652255E+04  0.14765593715E+04 0.  0.
        5    1    3    3  502    0  0.56689951510E+03  0.46194077617E+03  0.16314343475E+03  0.74926778338E+03  0.46999998093E+01 0.  1.
       -5    1    3    3    0  502 -0.56689951510E+03 -0.46194077617E+03 -0.40244034030E+02  0.73239744209E+03  0.46999998093E+01 0. -1.
</event>
<event>
 5   0  0.3006737E-03  0.1417823E+04  0.7818609E-02  0.8941018E-01
       -2   -1    0    0    0  501  0.00000000000E+00  0.00000000000E+00  0.46208306399E+03  0.46208306400E+03  0.25500000920E-02 0. -1.
        2   -1    0    0  501    0  0.00000000000E+00  0.00000000000E+00 -0.10875868277E+04  0.10875868277E+04  0.25500000920E-02 0.  1.
    10030    2    1    2    0    0  0.00000000000E+00  0.00000000000E+00 -0.62550376366E+03  0.15496698917E+04  0.14178229137E+04 0.  0.
        1    1    3    3  502    0 -0.14999757409E+03  0.37591444769E+03 -0.94889280793E+03  0.10316048203E+04  0.50400001928E-02 0.  1.
       -1    1    3    3    0  502  0.14999757409E+03 -0.37591444769E+03  0.32338904427E+03  0.51806507139E+03  0.50400001928E-02 0. -1.
</event>
<event>
 5   0  0.2993993E-03  0.9126689E+03  0.7818609E-02  0.9409882E-01
       -2   -1    0    0    0  501  0.00000000000E+00  0.00000000000E+00  0.12138905590E+03  0.12138905593E+03  0.25500000920E-02 0. -1.
        2   -1    0    0  501    0  0.00000000000E+00  0.00000000000E+00 -0.17154852660E+04  0.17154852660E+04  0.25500000920E-02 0.  1.
    10030    2    1    2    0    0  0.00000000000E+00  0.00000000000E+00 -0.15940962101E+04  0.18368743219E+04  0.91266891450E+03 0.  0.
        3    1    3    3  502    0  0.50620669334E+02 -0.24658822111E+03 -0.15631028321E+04  0.15832430883E+04  0.10100000352E+00 0.  1.
       -3    1    3    3    0  502 -0.50620669334E+02  0.24658822111E+03 -0.30993377991E+02  0.25363123355E+03  0.10100000352E+00 0. -1.
</event>
<event>
 5   0  0.1586022E-03  0.1422291E+04  0.7818609E-02  0.8937840E-01
        1   -1    0    0  501    0  0.00000000000E+00  0.00000000000E+00  0.48969094927E+03  0.48969094929E+03  0.50400001928E-02 0.  1.
       -1   -1    0    0    0  501  0.00000000000E+00  0.00000000000E+00 -0.10327486692E+04  0.10327486692E+04  0.50400001928E-02 0. -1.
    10030    2    1    2    0    0  0.00000000000E+00  0.00000000000E+00 -0.54305771989E+03  0.15224396185E+04  0.14222906541E+04 0.  0.
        1    1    3    3  502    0  0.12422703683E+03 -0.43392809936E+03 -0.85977140494E+03  0.97104728045E+03  0.50400001928E-02 0. -1.
       -1    1    3    3    0  502 -0.12422703683E+03  0.43392809936E+03  0.31671368505E+03  0.55139233801E+03  0.50400001928E-02 0.  1.
</event>
<event>
 5   0  0.1586022E-03  0.1345641E+04  0.7818609E-02  0.8994135E-01
        1   -1    0    0  501    0  0.00000000000E+00  0.00000000000E+00  0.56066581833E+03  0.56066581835E+03  0.50400001928E-02 0.  1.
       -1   -1    0    0    0  501  0.00000000000E+00  0.00000000000E+00 -0.80741020870E+03  0.80741020871E+03  0.50400001928E-02 0. -1.
    10030    2    1    2    0    0  0.00000000000E+00  0.00000000000E+00 -0.24674439037E+03  0.13680760271E+04  0.13456408219E+04 0.  0.
        1    1    3    3  502    0  0.11719266224E+03  0.35600204280E+03  0.44470645756E+03  0.58158009593E+03  0.50400001928E-02 0.  1.
       -1    1    3    3    0  502 -0.11719266224E+03 -0.35600204280E+03 -0.69145084793E+03  0.78649593113E+03  0.50400001928E-02 0. -1.
</event>
<event>
 5   0  0.1631380E-03  0.1366045E+04  0.7818609E-02  0.8978770E-01
       -1   -1    0    0    0  501  0.00000000000E+00  0.00000000000E+00  0.28580707607E+03  0.28580707611E+03  0.50400001928E-02 0. -1.
        1   -1    0    0  501    0  0.00000000000E+00  0.00000000000E+00 -0.16322899548E+04  0.16322899548E+04  0.50400001928E-02 0.  1.
    10030    2    1    2    0    0  0.00000000000E+00  0.00000000000E+00 -0.13464828788E+04  0.19180970310E+04  0.13660454156E+04 0.  0.
        3    1    3    3  502    0  0.12628157696E+03 -0.62222212582E+03 -0.31965694626E+03  0.71083611615E+03  0.10100000352E+00 0. -1.
       -3    1    3    3    0  502 -0.12628157696E+03  0.62222212582E+03 -0.10268259325E+04  0.12072609148E+04  0.10100000352E+00 0.  1.
</event>
<event>
 5   0  0.1560957E-03  0.1529179E+04  0.7818609E-02  0.8865278E-01
       -1   -1    0    0    0  501  0.00000000000E+00  0.00000000000E+00  0.58107442221E+03  0.58107442223E+03  0.50400001928E-02 0. -1.
        1   -1    0    0  501    0  0.00000000000E+00  0.00000000000E+00 -0.10060626951E+04  0.10060626951E+04  0.50400001928E-02 0.  1.
    10030    2    1    2    0    0  0.00000000000E+00  0.00000000000E+00 -0.42498827293E+03  0.15871371174E+04  0.15291792561E+04 0.  0.
        5    1    3    3  502    0  0.26684663873E+03  0.69584102907E+03 -0.38976981208E+03  0.84103772968E+03  0.46999998093E+01 0.  1.
       -5    1    3    3    0  502 -0.26684663873E+03 -0.69584102907E+03 -0.35218460850E+02  0.74609938770E+03  0.46999998093E+01 0. -1.
</event>
<event>
 5   0  0.1631380E-03  0.1388675E+04  0.7818609E-02  0.8962057E-01
       -1   -1    0    0    0  501  0.00000000000E+00  0.00000000000E+00  0.56255584075E+03  0.56255584078E+03  0.50400001928E-02 0.  1.
        1   -1    0    0  501    0  0.00000000000E+00  0.00000000000E+00 -0.85699004824E+03  0.85699004826E+03  0.50400001928E-02 0. -1.
    10030    2    1    2    0    0  0.00000000000E+00  0.00000000000E+00 -0.29443420749E+03  0.14195458890E+04  0.13886752783E+04 0.  0.
        3    1    3    3  502    0 -0.40328946706E+03 -0.40464598322E+03  0.25617415310E+03  0.62610380361E+03  0.10100000352E+00 0.  1.
       -3    1    3    3    0  502  0.40328946706E+03  0.40464598322E+03 -0.55060836058E+03  0.79344208542E+03  0.10100000352E+00 0. -1.
</event>
<event>
 5   0  0.2760807E-03  0.1392484E+04  0.7818609E-02  0.8959277E-01
       -2   -1    0    0    0  501  0.00000000000E+00  0.00000000000E+00  0.39402679282E+03  0.39402679282E+03  0.25500000920E-02 0. -1.
        2   -1    0    0  501    0  0.00000000000E+00  0.00000000000E+00 -0.12302534509E+04  0.12302534509E+04  0.25500000920E-02 0.  1.
    10030    2    1    2    0    0  0.00000000000E+00  0.00000000000E+00 -0.83622665811E+03  0.16242802438E+04  0.13924838550E+04 0.  0.
        4    1    3    3  502    0 -0.36232156330E+03  0.57637439454E+03 -0.24800625060E+03  0.72456405593E+03  0.12699999809E+01 0.  1.
       -4    1    3    3    0  502  0.36232156330E+03 -0.57637439454E+03 -0.58822040752E+03  0.89971618783E+03  0.12699999809E+01 0. -1.
</event>
<event>
 5   0  0.3006737E-03  0.1395095E+04  0.7818609E-02  0.8957377E-01
        2   -1    0    0  501    0  0.00000000000E+00  0.00000000000E+00  0.72422589937E+03  0.72422589938E+03  0.25500000920E-02 0.  1.
       -2   -1    0    0    0  501  0.00000000000E+00  0.00000000000E+00 -0.67185181568E+03  0.67185181569E+03  0.25500000920E-02 0. -1.
    10030    2    1    2    0    0  0.00000000000E+00  0.00000000000E+00  0.52374083693E+02  0.13960777151E+04  0.13950949580E+04 0.  0.
        1    1    3    3  502    0 -0.38083230297E+03 -0.16717209662E+03 -0.53420094970E+03  0.67701581042E+03  0.50400001928E-02 0. -1.
       -1    1    3    3    0  502  0.38083230297E+03  0.16717209662E+03  0.58657503340E+03  0.71906190464E+03  0.50400001928E-02 0.  1.
</event>
<event>
 5   0  0.1700207E-03  0.1396594E+04  0.7818609E-02  0.8956287E-01
       -1   -1    0    0    0  501  0.00000000000E+00  0.00000000000E+00  0.30492266077E+03  0.30492266081E+03  0.50400001928E-02 0. -1.
        1   -1    0    0  501    0  0.00000000000E+00  0.00000000000E+00 -0.15991562888E+04  0.15991562889E+04  0.50400001928E-02 0.  1.
    10030    2    1    2    0    0  0.00000000000E+00  0.00000000000E+00 -0.12942336281E+04  0.19040789497E+04  0.13965944159E+04 0.  0.
        2    1    3    3  502    0  0.10929223544E+03 -0.40125686816E+03 -0.14119035298E+04  0.14718775235E+04  0.25500000920E-02 0.  1.
       -2    1    3    3    0  502 -0.10929223544E+03  0.40125686816E+03  0.11766990168E+03  0.43220142612E+03  0.25500000920E-02 0. -1.
</event>
<event>
 5   0  0.2889469E-03  0.1429052E+04  0.7818609E-02  0.8933053E-01
       -2   -1    0    0    0  501  0.00000000000E+00  0.00000000000E+00  0.38143873057E+03  0.38143873058E+03  0.25500000920E-02 0. -1.
        2   -1    0    0  501    0  0.00000000000E+00  0.00000000000E+00 -0.13384790752E+04  0.13384790752E+04  0.25500000920E-02 0.  1.
    10030    2    1    2    0    0  0.00000000000E+00  0.00000000000E+00 -0.95704034466E+03  0.17199178058E+04  0.14290524964E+04 0.  0.
        5    1    3    3  502    0 -0.50566825080E+03  0.47889048112E+03 -0.28637141371E+03  0.75303861081E+03  0.46999998093E+01 0.  1.
       -5    1    3    3    0  502  0.50566825080E+03 -0.47889048112E+03 -0.67066893095E+03  0.96687919500E+03  0.46999998093E+01 0. -1.
</event>
<event>
 5   0  0.1700207E-03  0.1390826E+04  0.7818609E-02  0.8960486E-01
       -1   -1    0    0    0  501  0.00000000000E+00  0.00000000000E+00  0.28176911788E+03  0.28176911793E+03  0.50400001928E-02 0. -1.
        1   -1    0    0  501    0  0.00000000000E+00  0.00000000000E+00 -0.17162966962E+04  0.17162966962E+04  0.50400001928E-02 0.  1.
    10030    2    1    2    0    0  0.00000000000E+00  0.00000000000E+00 -0.14345275783E+04  0.19980658141E+04  0.13908262381E+04 0.  0.
        2    1    3    3  502    0 -0.65280912315E+03  0.22483530802E+03 -0.59802795768E+03  0.91342657349E+03  0.25500000920E-02 0.  1.
       -2    1    3    3    0  502  0.65280912315E+03 -0.22483530802E+03 -0.83649962065E+03  0.10846392406E+04  0.25500000920E-02 0. -1.
</event>
<event>
 5   0  0.2917809E-03  0.1391824E+04  0.7818609E-02  0.8959758E-01
        2   -1    0    0  501    0  0.00000000000E+00  0.00000000000E+00  0.53598062001E+03  0.53598062002E+03  0.25500000920E-02 0.  1.
       -2   -1    0    0    0  501  0.00000000000E+00  0.00000000000E+00 -0.90356491420E+03  0.90356491420E+03  0.25500000920E-02 0. -1.
    10030    2    1    2    0    0  0.00000000000E+00  0.00000000000E+00 -0.36758429419E+03  0.14395455342E+04  0.13918236712E+04 0.  0.
        2    1    3    3  502    0 -0.24114537766E+03  0.58396287769E+03 -0.48556582087E+03  0.79682990788E+03  0.25500000920E-02 0. -1.
       -2    1    3    3    0  502  0.24114537766E+03 -0.58396287769E+03  0.11798152668E+03  0.64271562634E+03  0.25500000920E-02 0.  1.
</event>
<event>
 5   0  0.2993993E-03  0.1523110E+04  0.7818609E-02  0.8869229E-01
        2   -1    0    0  501    0  0.00000000000E+00  0.00000000000E+00  0.13628089193E+04  0.13628089193E+04  0.25500000920E-02 0.  1.
       -2   -1    0    0    0  501  0.00000000000E+00  0.00000000000E+00 -0.42556638184E+03  0.42556638184E+03  0.25500000920E-02 0. -1.
    10030    2    1    2    0    0  0.00000000000E+00  0.00000000000E+00  0.93724253742E+03  0.17883753011E+04  0.15231095311E+04 0.  0.
        3    1    3    3  502    0 -0.97267746207E+02  0.31668561684E+03  0.12737692358E+04  0.13161454595E+04  0.10100000352E+00 0.  1.
       -3    1    3    3    0  502  0.97267746207E+02 -0.31668561684E+03 -0.33652669837E+03  0.47222984158E+03  0.10100000352E+00 0. -1.
</event>
<event>
 5   0  0.1104538E-03  0.1407908E+04  0.7818609E-02  0.8948114E-01
       -3   -1    0    0    0  501  0.00000000000E+00  0.00000000000E+00  0.48433809052E+03  0.48433810105E+03  0.10100000352E+00 0.  1.
        3   -1    0    0  501    0  0.00000000000E+00  0.00000000000E+00 -0.10231517218E+04  0.10231517268E+04  0.10100000352E+00 0. -1.
    10030    2    1    2    0    0  0.00000000000E+00  0.00000000000E+00 -0.53881363129E+03  0.15074898278E+04  0.14079081830E+04 0.  0.
        1    1    3    3  502    0  0.14128577583E+03 -0.43358389525E+03  0.30480284514E+03  0.54850837651E+03  0.50400001928E-02 0.  1.
       -1    1    3    3    0  502 -0.14128577583E+03  0.43358389525E+03 -0.84361647643E+03  0.95898145133E+03  0.50400001928E-02 0. -1.
</event>
<event>
 5   0  0.3006737E-03  0.1403750E+04  0.7818609E-02  0.8951108E-01
       -2   -1    0    0    0  501  0.00000000000E+00  0.00000000000E+00  0.64340801337E+03  0.64340801337E+03  0.25500000920E-02 0.  1.
        2   -1    0    0  501    0  0.00000000000E+00  0.00000000000E+00 -0.76565514905E+03  0.76565514905E+03  0.25500000920E-02 0. -1.
    10030    2    1    2    0    0  0.00000000000E+00  0.00000000000E+00 -0.12224713568E+03  0.14090631624E+04  0.14037502034E+04 0.  0.
        1    1    3    3  502    0 -0.61420426253E+03  0.20362193760E+03  0.21178758333E+03  0.68085442648E+03  0.50400001928E-02 0.  1.
       -1    1    3    3    0  502  0.61420426253E+03 -0.20362193760E+03 -0.33403471901E+03  0.72820873594E+03  0.50400001928E-02 0. -1.
</event>
<event>
 5   0  0.2760807E-03  0.1377233E+04  0.7818609E-02  0.8970465E-01
        2   -1    0    0  501    0  0.00000000000E+00  0.00000000000E+00  0.21842574293E+04  0.21842574293E+04  0.25500000920E-02 0. -1.
       -2   -1    0    0    0  501  0.00000000000E+00  0.00000000000E+00 -0.21709574545E+03  0.21709574546E+03  0.25500000920E-02 0.  1.
    10030    2    1    2    0    0  0.00000000000E+00  0.00000000000E+00  0.19671616838E+04  0.24013531747E+04  0.13772334513E+04 0.  0.
        4    1    3    3  502    0 -0.41944236505E+03  0.35990841472E+03  0.26737356253E+03  0.61396758825E+03  0.12699999809E+01 0.  1.
       -4    1    3    3    0  502  0.41944236505E+03 -0.35990841472E+03  0.16997881213E+04  0.17873855865E+04  0.12699999809E+01 0. -1.
</event>
<event>
 5   0  0.1560957E-03  0.1315786E+04  0.7818609E-02  0.9017140E-01
       -1   -1    0    0    0  501  0.00000000000E+00  0.00000000000E+00  0.29635387976E+03  0.29635387980E+03  0.50400001928E-02 0.  1.
        1   -1    0    0  501    0  0.00000000000E+00  0.00000000000E+00 -0.14604935703E+04  0.14604935703E+04  0.50400001928E-02 0. -1.
    10030    2    1    2    0    0  0.00000000000E+00  0.00000000000E+00 -0.11641396905E+04  0.17568474501E+04  0.13157855995E+04 0.  0.
        5    1    3    3  502    0 -0.13658878212E+03 -0.37668960555E+03  0.11460848593E+03  0.41678381611E+03  0.46999998093E+01 0.  1.
       -5    1    3    3    0  502  0.13658878212E+03  0.37668960555E+03 -0.12787481764E+04  0.13400636340E+04  0.46999998093E+01 0. -1.
</event>
<event>
 5   0  0.1644571E-03  0.1453719E+04  0.7818609E-02  0.8915827E-01
       -1   -1    0    0    0  501  0.00000000000E+00  0.00000000000E+00  0.70465535984E+03  0.70465535986E+03  0.50400001928E-02 0.  1.
        1   -1    0    0  501    0  0.00000000000E+00  0.00000000000E+00 -0.74976287052E+03  0.74976287053E+03  0.50400001928E-02 0. -1.
    10030    2    1    2    0    0  0.00000000000E+00  0.00000000000E+00 -0.45107510680E+02  0.14544182304E+04  0.14537185771E+04 0.  0.
        4    1    3    3  502    0 -0.12969085838E+03 -0.71518609902E+03 -0.19097028706E+02  0.72710190784E+03  0.12699999809E+01 0. -1.
       -4    1    3    3    0  502  0.12969085838E+03  0.71518609902E+03 -0.26010481973E+02  0.72731632255E+03  0.12699999809E+01 0.  1.
</event>
<event>
 5   0  0.1560957E-03  0.1405774E+04  0.7818609E-02  0.8949650E-01
       -1   -1    0    0    0  501  0.00000000000E+00  0.00000000000E+00  0.33838662788E+03  0.33838662792E+03  0.50400001928E-02 0.  1.
        1   -1    0    0  501    0  0.00000000000E+00  0.00000000000E+00 -0.14600165878E+04  0.14600165878E+04  0.50400001928E-02 0. -1.
    10030    2    1    2    0    0  0.00000000000E+00  0.00000000000E+00 -0.11216299599E+04  0.17984032157E+04  0.14057739361E+04 0.  0.
        5    1    3    3  502    0 -0.17166406540E+03  0.22671908188E+03 -0.13831137062E+04  0.14120537198E+04  0.46999998093E+01 0. -1.
       -5    1    3    3    0  502  0.17166406540E+03 -0.22671908188E+03  0.26148374626E+03  0.38634949591E+03  0.46999998093E+01 0.  1.
</event>
<event>
 5   0  0.2993993E-03  0.1436496E+04  0.7818609E-02  0.8927817E-01
        2   -1    0    0  501    0  0.00000000000E+00  0.00000000000E+00  0.10564333061E+04  0.10564333061E+04  0.25500000920E-02 0. -1.
       -2   -1    0    0    0  501  0.00000000000E+00  0.00000000000E+00 -0.48832236513E+03  0.48832236513E+03  0.25500000920E-02 0.  1.
    10030    2    1    2    0    0  0.00000000000E+00  0.00000000000E+00  0.56811094101E+03  0.15447556713E+04  0.14364957510E+04 0.  0.
        3    1    3    3  502    0 -0.53864607951E+03 -0.46991474237E+03  0.20862241902E+03  0.74463601040E+03  0.10100000352E+00 0.  1.
       -3    1    3    3    0  502  0.53864607951E+03  0.46991474237E+03  0.35948852198E+03  0.80011966087E+03  0.10100000352E+00 0. -1.
</event>
<event>
 5   0  0.2917809E-03  0.1374421E+04  0.7818609E-02  0.8972545E-01
        2   -1    0    0  501    0  0.00000000000E+00  0.00000000000E+00  0.82024956007E+03  0.82024956007E+03  0.25500000920E-02 0. -1.
       -2   -1    0    0    0  501  0.00000000000E+00  0.00000000000E+00 -0.57574919955E+03  0.57574919955E+03  0.25500000920E-02 0.  1.
    10030    2    1    2    0    0  0.00000000000E+00  0.00000000000E+00  0.24450036052E+03  0.13959987596E+04  0.13744206454E+04 0.  0.
        2    1    3    3  502    0  0.32618815787E+03 -0.30944715851E+03  0.65012272793E+03  0.79045292057E+03  0.25500000920E-02 0. -1.
       -2    1    3    3    0  502 -0.32618815787E+03  0.30944715851E+03 -0.40562236741E+03  0.60554583906E+03  0.25500000920E-02 0.  1.
</event>
<event>
 5   0  0.2889469E-03  0.1116786E+04  0.7818609E-02  0.9188984E-01
       -2   -1    0    0    0  501  0.00000000000E+00  0.00000000000E+00  0.11101250571E+04  0.11101250571E+04  0.25500000920E-02 0. -1.
        2   -1    0    0  501    0  0.00000000000E+00  0.00000000000E+00 -0.28087155080E+03  0.28087155081E+03  0.25500000920E-02 0.  1.
    10030    2    1    2    0    0  0.00000000000E+00  0.00000000000E+00  0.82925350626E+03  0.13909966079E+04  0.11167856489E+04 0.  0.
        5    1    3    3  502    0 -0.24187340078E+03 -0.72650441895E+02  0.10348981589E+04  0.10652779534E+04  0.46999998093E+01 0. -1.
       -5    1    3    3    0  502  0.24187340078E+03  0.72650441895E+02 -0.20564465264E+03  0.32571865447E+03  0.46999998093E+01 0.  1.
</event>
<event>
 5   0  0.1644571E-03  0.1413459E+04  0.7818609E-02  0.8944133E-01
       -1   -1    0    0    0  501  0.00000000000E+00  0.00000000000E+00  0.68841292935E+03  0.68841292936E+03  0.50400001928E-02 0. -1.
        1   -1    0    0  501    0  0.00000000000E+00  0.00000000000E+00 -0.72553379507E+03  0.72553379509E+03  0.50400001928E-02 0.  1.
    10030    2    1    2    0    0  0.00000000000E+00  0.00000000000E+00 -0.37120865728E+02  0.14139467245E+04  0.14134593666E+04 0.  0.
        4    1    3    3  502    0 -0.64183356237E+03 -0.26901931101E+03 -0.14166187704E+03  0.71020518992E+03  0.12699999809E+01 0.  1.
       -4    1    3    3    0  502  0.64183356237E+03  0.26901931101E+03  0.10454101131E+03  0.70374153453E+03  0.12699999809E+01 0. -1.
</event>
<event>
 5   0  0.1586022E-03  0.1358160E+04  0.7818609E-02  0.8984674E-01
       -1   -1    0    0    0  501  0.00000000000E+00  0.00000000000E+00  0.37484057507E+03  0.37484057510E+03  0.50400001928E-02 0. -1.
        1   -1    0    0  501    0  0.00000000000E+00  0.00000000000E+00 -0.12302552339E+04  0.12302552339E+04  0.50400001928E-02 0.  1.
    10030    2    1    2    0    0  0.00000000000E+00  0.00000000000E+00 -0.85541465879E+03  0.16050958090E+04  0.13581599013E+04 0.  0.
        1    1    3    3  502    0 -0.32163947242E+03 -0.17802070184E+03  0.24707395048E+03  0.44293211391E+03  0.50400001928E-02 0. -1.
       -1    1    3    3    0  502  0.32163947242E+03  0.17802070184E+03 -0.11024886093E+04  0.11621636951E+04  0.50400001928E-02 0.  1.
</event>
<event>
 5   0  0.2917809E-03  0.1492056E+04  0.7818609E-02  0.8889753E-01
       -2   -1    0    0    0  501  0.00000000000E+00  0.00000000000E+00  0.46649323535E+03  0.46649323535E+03  0.25500000920E-02 0.  1.
        2   -1    0    0  501    0  0.00000000000E+00  0.00000000000E+00 -0.11930678863E+04  0.11930678863E+04  0.25500000920E-02 0. -1.
    10030    2    1    2    0    0  0.00000000000E+00  0.00000000000E+00 -0.72657465093E+03  0.16595611216E+04  0.14920564309E+04 0.  0.
        2    1    3    3  502    0 -0.69681307506E+03 -0.26235188348E+03 -0.41523287829E+03  0.85252291204E+03  0.25500000920E-02 0. -1.
       -2    1    3    3    0  502  0.69681307506E+03  0.26235188348E+03 -0.31134177264E+03  0.80703820959E+03  0.25500000920E-02 0.  1.
</event>
<event>
 5   0  0.1104538E-03  0.1416327E+04  0.7818609E-02  0.8942084E-01
        3   -1    0    0  501    0  0.00000000000E+00  0.00000000000E+00  0.85501441595E+03  0.85501442192E+03  0.10100000352E+00 0. -1.
       -3   -1    0    0    0  501  0.00000000000E+00  0.00000000000E+00 -0.58653472142E+03  0.58653473012E+03  0.10100000352E+00 0.  1.
    10030    2    1    2    0    0  0.00000000000E+00  0.00000000000E+00  0.26847969453E+03  0.14415491520E+04  0.14163271555E+04 0.  0.
        1    1    3    3  502    0  0.44294507553E+03 -0.55077354505E+03  0.17911369732E+03  0.72913205556E+03  0.50400001928E-02 0.  1.
       -1    1    3    3    0  502 -0.44294507553E+03  0.55077354505E+03  0.89365997212E+02  0.71241709647E+03  0.50400001928E-02 0. -1.
</event>
<event>
 5   0  0.1644571E-03  0.1445109E+04  0.7818609E-02  0.8921799E-01
        1   -1    0    0  501    0  0.00000000000E+00  0.00000000000E+00  0.30693196689E+03  0.30693196693E+03  0.50400001928E-02 0. -1.
       -1   -1    0    0    0  501  0.00000000000E+00  0.00000000000E+00 -0.17009784370E+04  0.17009784370E+04  0.50400001928E-02 0.  1.
    10030    2    1    2    0    0  0.00000000000E+00  0.00000000000E+00 -0.13940464701E+04  0.20079104039E+04  0.14451085182E+04 0.  0.
        4    1    3    3  502    0 -0.16637582835E+03  0.26697093537E+03 -0.16008393575E+04  0.16314541544E+04  0.12699999809E+01 0.  1.
       -4    1    3    3    0  502  0.16637582835E+03 -0.26697093537E+03  0.20679288742E+03  0.37645624949E+03  0.12699999809E+01 0. -1.
</event>
<event>
 5   0  0.2760807E-03  0.1398387E+04  0.7818609E-02  0.8954987E-01
        2   -1    0    0  501    0  0.00000000000E+00  0.00000000000E+00  0.85996665326E+03  0.85996665326E+03  0.25500000920E-02 0. -1.
       -2   -1    0    0    0  501  0.00000000000E+00  0.00000000000E+00 -0.56847739097E+03  0.56847739097E+03  0.25500000920E-02 0.  1.
    10030    2    1    2    0    0  0.00000000000E+00  0.00000000000E+00  0.29148926230E+03  0.14284440442E+04  0.13983870700E+04 0.  0.
        4    1    3    3  502    0 -0.17021412018E+03  0.53957874572E+03 -0.27387924432E+03  0.62859328896E+03  0.12699999809E+01 0.  1.
       -4    1    3    3    0  502  0.17021412018E+03 -0.53957874572E+03  0.56536850662E+03  0.79985075528E+03  0.12699999809E+01 0. -1.
</event>
<event>
 5   0  0.1560957E-03  0.1381848E+04  0.7818609E-02  0.8967064E-01
        1   -1    0    0  501    0  0.00000000000E+00  0.00000000000E+00  0.39515488757E+03  0.39515488760E+03  0.50400001928E-02 0.  1.
       -1   -1    0    0    0  501  0.00000000000E+00  0.00000000000E+00 -0.12080725334E+04  0.12080725334E+04  0.50400001928E-02 0. -1.
    10030    2    1    2    0    0  0.00000000000E+00  0.00000000000E+00 -0.81291764583E+03  0.16032274210E+04  0.13818476995E+04 0.  0.
        5    1    3    3  502    0  0.17786087656E+03  0.36348418990E+03 -0.10561723235E+04  0.11310514200E+04  0.46999998093E+01 0. -1.
       -5    1    3    3    0  502 -0.17786087656E+03 -0.36348418990E+03  0.24325467769E+03  0.47217600101E+03  0.46999998093E+01 0.  1.
</event>
<event>
 5   0  0.2993993E-03  0.1414883E+04  0.7818609E-02  0.8943116E-01
        2   -1    0    0  501    0  0.00000000000E+00  0.00000000000E+00  0.11553534647E+04  0.11553534647E+04  0.25500000920E-02 0.  1.
       -2   -1    0    0    0  501  0.00000000000E+00  0.00000000000E+00 -0.43317758064E+03  0.43317758065E+03  0.25500000920E-02 0. -1.
    10030    2    1    2    0    0  0.00000000000E+00  0.00000000000E+00  0.72217588410E+03  0.15885310454E+04  0.14148826363E+04 0.  0.
        3    1    3    3  502    0  0.42354469740E+03  0.56267321592E+03  0.28592413218E+03  0.76009465081E+03  0.10100000352E+00 0. -1.
       -3    1    3    3    0  502 -0.42354469740E+03 -0.56267321592E+03  0.43625175191E+03  0.82843639458E+03  0.10100000352E+00 0.  1.
</event>
<event>
 5   0  0.3006737E-03  0.1399012E+04  0.7818609E-02  0.8954534E-01
       -2   -1    0    0    0  501  0.00000000000E+00  0.00000000000E+00  0.11781499281E+04  0.11781499281E+04  0.25500000920E-02 0. -1.
        2   -1    0    0  501    0  0.00000000000E+00  0.00000000000E+00 -0.41531973093E+03  0.41531973094E+03  0.25500000920E-02 0.  1.
    10030    2    1    2    0    0  0.00000000000E+00  0.00000000000E+00  0.76283019721E+03  0.15934696591E+04  0.13990123819E+04 0.  0.
        1    1    3    3  502    0 -0.28489267805E+02 -0.64164696112E+03  0.69703511301E+03  0.94782931475E+03  0.50400001928E-02 0. -1.
       -1    1    3    3    0  502  0.28489267805E+02  0.64164696112E+03  0.65795084198E+02  0.64564034433E+03  0.50400001928E-02 0.  1.
</event>
<event>
 5   0  0.1631380E-03  0.1392631E+04  0.7818609E-02  0.8959170E-01
       -1   -1    0    0    0  501  0.00000000000E+00  0.00000000000E+00  0.20279232049E+03  0.20279232056E+03  0.50400001928E-02 0.  1.
        1   -1    0    0  501    0  0.00000000000E+00  0.00000000000E+00 -0.23908971919E+04  0.23908971919E+04  0.50400001928E-02 0. -1.
    10030    2    1    2    0    0  0.00000000000E+00  0.00000000000E+00 -0.21881048714E+04  0.25936895124E+04  0.13926314512E+04 0.  0.
        3    1    3    3  502    0  0.58826145948E+03 -0.37042584969E+03 -0.11682869901E+04  0.13594709840E+04  0.10100000352E+00 0. -1.
       -3    1    3    3    0  502 -0.58826145948E+03  0.37042584969E+03 -0.10198178813E+04  0.12342185285E+04  0.10100000352E+00 0.  1.
</event>
<event>
 5   0  0.1700207E-03  0.1376510E+04  0.7818609E-02  0.8970999E-01
        1   -1    0    0  501    0  0.00000000000E+00  0.00000000000E+00  0.13286916141E+04  0.13286916141E+04  0.50400001928E-02 0.  1.
       -1   -1    0    0    0  501  0.00000000000E+00  0.00000000000E+00 -0.35651240301E+03  0.35651240305E+03  0.50400001928E-02 0. -1.
    10030    2    1    2    0    0  0.00000000000E+00  0.00000000000E+00  0.97217921110E+03  0.16852040172E+04  0.13765101383E+04 0.  0.
        2    1    3    3  502    0 -0.21505735866E+01 -0.36572160875E+03 -0.22770457931E+03  0.43082049106E+03  0.25500000920E-02 0. -1.
       -2    1    3    3    0  502  0.21505735866E+01  0.36572160875E+03  0.11998837904E+04  0.12543835261E+04  0.25500000920E-02 0.  1.
</event>
<event>
 5   0  0.1644571E-03  0.1358298E+04  0.7818609E-02  0.8984571E-01
        1   -1    0    0  501    0  0.00000000000E+00  0.00000000000E+00  0.47787916313E+03  0.47787916316E+03  0.50400001928E-02 0. -1.
       -1   -1    0    0    0  501  0.00000000000E+00  0.00000000000E+00 -0.96518774534E+03  0.96518774536E+03  0.50400001928E-02 0.  1.
    10030    2    1    2    0    0  0.00000000000E+00  0.00000000000E+00 -0.48730858221E+03  0.14430669085E+04  0.13582976287E+04 0.  0.
        4    1    3    3  502    0 -0.67788313533E+03  0.41016301856E+02 -0.24981414886E+03  0.72361357371E+03  0.12699999809E+01 0. -1.
       -4    1    3    3    0  502  0.67788313533E+03 -0.41016301856E+02 -0.23749443335E+03  0.71945333480E+03  0.12699999809E+01 0.  1.
</event>
<event>
 5   0  0.1644571E-03  0.1388509E+04  0.7818609E-02  0.8962179E-01
       -1   -1    0    0    0  501  0.00000000000E+00  0.00000000000E+00  0.49218548618E+03  0.49218548621E+03  0.50400001928E-02 0.  1.
        1   -1    0    0  501    0  0.00000000000E+00  0.00000000000E+00 -0.97928329994E+03  0.97928329995E+03  0.50400001928E-02 0. -1.
    10030    2    1    2    0    0  0.00000000000E+00  0.00000000000E+00 -0.48709781375E+03  0.14714687862E+04  0.13885085914E+04 0.  0.
        4    1    3    3  502    0 -0.15235640061E+03  0.26565263678E+03 -0.90383518498E+03  0.95430783857E+03  0.12699999809E+01 0. -1.
       -4    1    3    3    0  502  0.15235640061E+03 -0.26565263678E+03  0.41673737123E+03  0.51716094759E+03  0.12699999809E+01 0.  1.
</event>
<event>
 5   0  0.1586022E-03  0.1430923E+04  0.7818609E-02  0.8931734E-01
       -1   -1    0    0    0  501  0.00000000000E+00  0.00000000000E+00  0.25146496670E+03  0.25146496675E+03  0.50400001928E-02 0.  1.
        1   -1    0    0  501    0  0.00000000000E+00  0.00000000000E+00 -0.20356132150E+04  0.20356132150E+04  0.50400001928E-02 0. -1.
    10030    2    1    2    0    0  0.00000000000E+00  0.00000000000E+00 -0.17841482483E+04  0.22870781818E+04  0.14309233514E+04 0.  0.
        1    1    3    3  502    0 -0.21935664002E+03  0.66908383403E+03 -0.68930177190E+03  0.98535650667E+03  0.50400001928E-02 0.  1.
       -1    1    3    3    0  502  0.21935664002E+03 -0.66908383403E+03 -0.10948464764E+04  0.13017216751E+04  0.50400001928E-02 0. -1.
</event>
<event>
 5   0  0.2889469E-03  0.8652550E+03  0.7818609E-02  0.9470088E-01
       -2   -1    0    0    0  501  0.00000000000E+00  0.00000000000E+00  0.10892198171E+03  0.10892198174E+03  0.25500000920E-02 0.  1.
        2   -1    0    0  501    0  0.00000000000E+00  0.00000000000E+00 -0.17183544602E+04  0.17183544602E+04  0.25500000920E-02 0. -1.
    10030    2    1    2    0    0  0.00000000000E+00  0.00000000000E+00 -0.16094324785E+04  0.18272764419E+04  0.86525504476E+03 0.  0.
        5    1    3    3  502    0  0.28423277485E+03  0.11061260646E+02 -0.14930381570E+04  0.15198998816E+04  0.46999998093E+01 0. -1.
       -5    1    3    3    0  502 -0.28423277485E+03 -0.11061260646E+02 -0.11639432149E+03  0.30737656036E+03  0.46999998093E+01 0.  1.
</event>
<event>
 5   0  0.2917809E-03  0.1366361E+04  0.7818609E-02  0.8978535E-01
        2   -1    0    0  501    0  0.00000000000E+00  0.00000000000E+00  0.16708724696E+04  0.16708724696E+04  0.25500000920E-02 0.  1.
       -2   -1    0    0    0  501  0.00000000000E+00  0.00000000000E+00 -0.27933646318E+03  0.27933646319E+03  0.25500000920E-02 0. -1.
    10030    2    1    2    0    0  0.00000000000E+00  0.00000000000E+00  0.13915360064E+04  0.19502089328E+04  0.13663610154E+04 0.  0.
        2    1    3    3  502    0 -0.62139582893E+03 -0.64423445350E+02  0.10904173438E+04  0.12566993038E+04  0.25500000920E-02 0.  1.
       -2    1    3    3    0  502  0.62139582893E+03  0.64423445350E+02  0.30111866264E+03  0.69350962900E+03  0.25500000920E-02 0. -1.
</event>
<event>
 5   0  0.1700207E-03  0.1400791E+04  0.7818609E-02  0.8953246E-01
        1   -1    0    0  501    0  0.00000000000E+00  0.00000000000E+00  0.58593183635E+03  0.58593183637E+03  0.50400001928E-02 0.  1.
       -1   -1    0    0    0  501  0.00000000000E+00  0.00000000000E+00 -0.83722051595E+03  0.83722051596E+03  0.50400001928E-02 0. -1.
    10030    2    1    2    0    0  0.00000000000E+00  0.00000000000E+00 -0.25128867960E+03  0.14231523523E+04  0.14007914254E+04 0.  0.
        2    1    3    3  502    0  0.23247990702E+03 -0.65936707640E+03 -0.83237090302E+02  0.70408824860E+03  0.25500000920E-02 0.  1.
       -2    1    3    3    0  502 -0.23247990702E+03  0.65936707640E+03 -0.16805158930E+03  0.71906410374E+03  0.25500000920E-02 0. -1.
</event>
<event>
 5   0  0.1586022E-03  0.1280541E+04  0.7818609E-02  0.9045140E-01
       -1   -1    0    0    0  501  0.00000000000E+00  0.00000000000E+00  0.88906734728E+03  0.88906734729E+03  0.50400001928E-02 0.  1.
        1   -1    0    0  501    0  0.00000000000E+00  0.00000000000E+00 -0.46109735978E+03  0.46109735981E+03  0.50400001928E-02 0. -1.
    10030    2    1    2    0    0  0.00000000000E+00  0.00000000000E+00  0.42796998750E+03  0.13501647071E+04  0.12805414582E+04 0.  0.
        1    1    3    3  502    0 -0.66783943068E+02  0.21776141677E+03  0.84490593051E+03  0.87506923219E+03  0.50400001928E-02 0.  1.
       -1    1    3    3    0  502  0.66783943068E+02 -0.21776141677E+03 -0.41693594301E+03  0.47509547491E+03  0.50400001928E-02 0. -1.
</event>
<event>
 5   0  0.1631380E-03  0.1411935E+04  0.7818609E-02  0.8945224E-01
        1   -1    0    0  501    0  0.00000000000E+00  0.00000000000E+00  0.54418722620E+03  0.54418722623E+03  0.50400001928E-02 0.  1.
       -1   -1    0    0    0  501  0.00000000000E+00  0.00000000000E+00 -0.91584330995E+03  0.91584330996E+03  0.50400001928E-02 0. -1.
    10030    2    1    2    0    0  0.00000000000E+00  0.00000000000E+00 -0.37165608375E+03  0.14600305362E+04  0.14119351692E+04 0.  0.
        3    1    3    3  502    0  0.68904801806E+03 -0.15133482476E+03 -0.15845327652E+03  0.72304692200E+03  0.10100000352E+00 0.  1.
       -3    1    3    3    0  502 -0.68904801806E+03  0.15133482476E+03 -0.21320280723E+03  0.73698361419E+03  0.10100000352E+00 0. -1.
</event>
<event>
 5   0  0.1586022E-03  0.1511991E+04  0.7818609E-02  0.8876518E-01
       -1   -1    0    0    0  501  0.00000000000E+00  0.00000000000E+00  0.39852110239E+03  0.39852110242E+03  0.50400001928E-02 0.  1.
        1   -1    0    0  501    0  0.00000000000E+00  0.00000000000E+00 -0.14341245485E+04  0.14341245485E+04  0.50400001928E-02 0. -1.
    10030    2    1    2    0    0  0.00000000000E+00  0.00000000000E+00 -0.10356034461E+04  0.18326456509E+04  0.15119906032E+04 0.  0.
        1    1    3    3  502    0  0.52038723586E+03  0.31157781718E+03  0.29172157024E+02  0.60723523134E+03  0.50400001928E-02 0.  1.
       -1    1    3    3    0  502 -0.52038723586E+03 -0.31157781718E+03 -0.10647756031E+04  0.12254104196E+04  0.50400001928E-02 0. -1.
</event>
<event>
 5   0  0.1644571E-03  0.1395704E+04  0.7818609E-02  0.8956934E-01
        1   -1    0    0  501    0  0.00000000000E+00  0.00000000000E+00  0.17015998122E+04  0.17015998122E+04  0.50400001928E-02 0. -1.
       -1   -1    0    0    0  501  0.00000000000E+00  0.00000000000E+00 -0.28619986055E+03  0.28619986060E+03  0.50400001928E-02 0.  1.
    10030    2    1    2    0    0  0.00000000000E+00  0.00000000000E+00  0.14153999516E+04  0.19877996728E+04  0.13957043082E+04 0.  0.
        4    1    3    3  502    0  0.89508409373E+02  0.43085990567E+03  0.14790789596E+04  0.15431552726E+04  0.12699999809E+01 0. -1.
       -4    1    3    3    0  502 -0.89508409373E+02 -0.43085990567E+03 -0.63679007991E+02  0.44464440019E+03  0.12699999809E+01 0.  1.
</event>
<event>
 5   0  0.1644571E-03  0.1436129E+04  0.7818609E-02  0.8928074E-01
       -1   -1    0    0    0  501  0.00000000000E+00  0.00000000000E+00  0.52203788429E+03  0.52203788432E+03  0.50400001928E-02 0.  1.
        1   -1    0    0  501    0  0.00000000000E+00  0.00000000000E+00 -0.98769988602E+03  0.98769988603E+03  0.50400001928E-02 0. -1.
    10030    2    1    2    0    0  0.00000000000E+00  0.00000000000E+00 -0.46566200173E+03  0.15097377704E+04  0.14361291848E+04 0.  0.
        4    1    3    3  502    0 -0.58256995639E+03 -0.34224266404E+03  0.22728492599E+02  0.67604437166E+03  0.12699999809E+01 0.  1.
       -4    1    3    3    0  502  0.58256995639E+03  0.34224266404E+03 -0.48839049433E+03  0.83369339869E+03  0.12699999809E+01 0. -1.
</event>
<event>
 5   0  0.1631380E-03  0.1393457E+04  0.7818609E-02  0.8958568E-01
       -1   -1    0    0    0  501  0.00000000000E+00  0.00000000000E+00  0.51208320285E+03  0.51208320288E+03  0.50400001928E-02 0.  1.
        1   -1    0    0  501    0  0.00000000000E+00  0.00000000000E+00 -0.94795293926E+03  0.94795293928E+03  0.50400001928E-02 0. -1.
    10030    2    1    2    0    0  0.00000000000E+00  0.00000000000E+00 -0.43586973641E+03  0.14600361422E+04  0.13934572506E+04 0.  0.
        3    1    3    3  502    0 -0.37335439366E+03 -0.58017876630E+03 -0.11618762567E+03  0.69964310809E+03  0.10100000352E+00 0.  1.
       -3    1    3    3    0  502  0.37335439366E+03  0.58017876630E+03 -0.31968211074E+03  0.76039303407E+03  0.10100000352E+00 0. -1.
</event>
<event>
 5   0  0.2917809E-03  0.1414109E+04  0.7818609E-02  0.8943669E-01
        2   -1    0    0  501    0  0.00000000000E+00  0.00000000000E+00  0.10004494680E+04  0.10004494680E+04  0.25500000920E-02 0. -1.
       -2   -1    0    0    0  501  0.00000000000E+00  0.00000000000E+00 -0.49970141319E+03  0.49970141320E+03  0.25500000920E-02 0.  1.
    10030    2    1    2    0    0  0.00000000000E+00  0.00000000000E+00  0.50074805483E+03  0.15001508812E+04  0.14141089251E+04 0.  0.
        2    1    3    3  502    0  0.11654915937E+03 -0.59616627951E+03 -0.13348209080E+03  0.62194485925E+03  0.25500000920E-02 0.  1.
       -2    1    3    3    0  502 -0.11654915937E+03  0.59616627951E+03  0.63423014563E+03  0.87820602197E+03  0.25500000920E-02 0. -1.
</event>
<event>
 5   0  0.1560957E-03  0.1411255E+04  0.7818609E-02  0.8945712E-01
       -1   -1    0    0    0  501  0.00000000000E+00  0.00000000000E+00  0.51425639268E+03  0.51425639271E+03  0.50400001928E-02 0. -1.
        1   -1    0    0  501    0  0.00000000000E+00  0.00000000000E+00 -0.96821383599E+03  0.96821383601E+03  0.50400001928E-02 0.  1.
    10030    2    1    2    0    0  0.00000000000E+00  0.00000000000E+00 -0.45395744331E+03  0.14824702287E+04  0.14112549800E+04 0.  0.
        5    1    3    3  502    0  0.20777309025E+03 -0.63517414234E+03 -0.46483879007E+03  0.81407188803E+03  0.46999998093E+01 0.  1.
       -5    1    3    3    0  502 -0.20777309025E+03  0.63517414234E+03  0.10881346757E+02  0.66839834069E+03  0.46999998093E+01 0. -1.
</event>
<event>
 5   0  0.3006737E-03  0.1393180E+04  0.7818609E-02  0.8958770E-01
       -2   -1    0    0    0  501  0.00000000000E+00  0.00000000000E+00  0.59325138260E+03  0.59325138260E+03  0.25500000920E-02 0. -1.
        2   -1    0    0  501    0  0.00000000000E+00  0.00000000000E+00 -0.81792910811E+03  0.81792910812E+03  0.25500000920E-02 0.  1.
    10030    2    1    2    0    0  0.00000000000E+00  0.00000000000E+00 -0.22467772552E+03  0.14111804907E+04  0.13931799227E+04 0.  0.
        1    1    3    3  502    0 -0.13548553167E+03  0.39274707191E+03  0.45401956093E+03  0.61541884397E+03  0.50400001928E-02 0. -1.
       -1    1    3    3    0  502  0.13548553167E+03 -0.39274707191E+03 -0.67869728644E+03  0.79576164675E+03  0.50400001928E-02 0.  1.
</event>
<event>
 5   0  0.1631380E-03  0.1404840E+04  0.7818609E-02  0.8950323E-01
       -1   -1    0    0    0  501  0.00000000000E+00  0.00000000000E+00  0.68033066908E+03  0.68033066910E+03  0.50400001928E-02 0.  1.
        1   -1    0    0  501    0  0.00000000000E+00  0.00000000000E+00 -0.72522638259E+03  0.72522638260E+03  0.50400001928E-02 0. -1.
    10030    2    1    2    0    0  0.00000000000E+00  0.00000000000E+00 -0.44895713508E+02  0.14055570517E+04  0.14048398487E+04 0.  0.
        3    1    3    3  502    0 -0.77207206639E+02  0.51151865166E+03  0.45295938788E+03  0.68759326715E+03  0.10100000352E+00 0.  1.
       -3    1    3    3    0  502  0.77207206639E+02 -0.51151865166E+03 -0.49785510139E+03  0.71796378456E+03  0.10100000352E+00 0. -1.
</event>
<event>
 5   0  0.3006737E-03  0.1286647E+04  0.7818609E-02  0.9040222E-01
        2   -1    0    0  501    0  0.00000000000E+00  0.00000000000E+00  0.17965830754E+04  0.17965830755E+04  0.25500000920E-02 0. -1.
       -2   -1    0    0    0  501  0.00000000000E+00  0.00000000000E+00 -0.23036225278E+03  0.23036225279E+03  0.25500000920E-02 0.  1.
    10030    2    1    2    0    0  0.00000000000E+00  0.00000000000E+00  0.15662208227E+04  0.20269453282E+04  0.12866466874E+04 0.  0.
        1    1    3    3  502    0 -0.17473437767E+03  0.26156742169E+03 -0.10094525712E+03  0.33036277604E+03  0.50400001928E-02 0.  1.
       -1    1    3    3    0  502  0.17473437767E+03 -0.26156742169E+03  0.16671660798E+04  0.16965825522E+04  0.50400001928E-02 0. -1.
</event>
<event>
 5   0  0.1586022E-03  0.1403580E+04  0.7818609E-02  0.8951231E-01
        1   -1    0    0  501    0  0.00000000000E+00  0.00000000000E+00  0.54989986416E+03  0.54989986418E+03  0.50400001928E-02 0. -1.
       -1   -1    0    0    0  501  0.00000000000E+00  0.00000000000E+00 -0.89563481470E+03  0.89563481472E+03  0.50400001928E-02 0.  1.
    10030    2    1    2    0    0  0.00000000000E+00  0.00000000000E+00 -0.34573495055E+03  0.14455346789E+04  0.14035803689E+04 0.  0.
        1    1    3    3  502    0 -0.33245247302E+03  0.20662394741E+03  0.42703082338E+03  0.57928699847E+03  0.50400001928E-02 0. -1.
       -1    1    3    3    0  502  0.33245247302E+03 -0.20662394741E+03 -0.77276577392E+03  0.86624768042E+03  0.50400001928E-02 0.  1.
</event>
<event>
 5   0  0.2889469E-03  0.1364472E+04  0.7818609E-02  0.8979944E-01
       -2   -1    0    0    0  501  0.00000000000E+00  0.00000000000E+00  0.43087579939E+03  0.43087579939E+03  0.25500000920E-02 0.  1.
        2   -1    0    0  501    0  0.00000000000E+00  0.00000000000E+00 -0.10802329130E+04  0.10802329130E+04  0.25500000920E-02 0. -1.
    10030    2    1    2    0    0  0.00000000000E+00  0.00000000000E+00 -0.64935711366E+03  0.15111087124E+04  0.13644723815E+04 0.  0.
        5    1    3    3  502    0  0.13477392207E+02  0.41773911434E+02  0.42929241446E+03  0.43155621521E+03  0.46999998093E+01 0.  1.
       -5    1    3    3    0  502 -0.13477392207E+02 -0.41773911434E+02 -0.10786495281E+04  0.10795524972E+04  0.46999998093E+01 0. -1.
</event>
<event>
 5   0  0.1700207E-03  0.1338938E+04  0.7818609E-02  0.8999245E-01
        1   -1    0    0  501    0  0.00000000000E+00  0.00000000000E+00  0.12932403603E+04  0.12932403604E+04  0.50400001928E-02 0.  1.
       -1   -1    0    0    0  501  0.00000000000E+00  0.00000000000E+00 -0.34656243617E+03  0.34656243620E+03  0.50400001928E-02 0. -1.
    10030    2    1    2    0    0  0.00000000000E+00  0.00000000000E+00  0.94667792418E+03  0.16398027966E+04  0.13389376832E+04 0.  0.
        2    1    3    3  502    0  0.12598516168E+03  0.18849766450E+03 -0.29811288995E+03  0.37453294335E+03  0.25500000920E-02 0. -1.
       -2    1    3    3    0  502 -0.12598516168E+03 -0.18849766450E+03  0.12447908141E+04  0.12652698532E+04  0.25500000920E-02 0.  1.
</event>
<event>
 5   0  0.2993993E-03  0.1540681E+04  0.7818609E-02  0.8857842E-01
        2   -1    0    0  501    0  0.00000000000E+00  0.00000000000E+00  0.31386096908E+03  0.31386096909E+03  0.25500000920E-02 0. -1.
       -2   -1    0    0    0  501  0.00000000000E+00  0.00000000000E+00 -0.18907251850E+04  0.18907251850E+04  0.25500000920E-02 0.  1.
    10030    2    1    2    0    0  0.00000000000E+00  0.00000000000E+00 -0.15768642159E+04  0.22045861541E+04  0.15406814581E+04 0.  0.
        3    1    3    3  502    0  0.47130452424E+03 -0.42465571412E+03 -0.14137349812E+04  0.15495505921E+04  0.10100000352E+00 0.  1.
       -3    1    3    3    0  502 -0.47130452424E+03  0.42465571412E+03 -0.16312923473E+03  0.65503556203E+03  0.10100000352E+00 0. -1.
</event>
<event>
 5   0  0.2917809E-03  0.1407292E+04  0.7818609E-02  0.8948557E-01
       -2   -1    0    0    0  501  0.00000000000E+00  0.00000000000E+00  0.23452933032E+03  0.23452933033E+03  0.25500000920E-02 0. -1.
        2   -1    0    0  501    0  0.00000000000E+00  0.00000000000E+00 -0.21111117565E+04  0.21111117565E+04  0.25500000920E-02 0.  1.
    10030    2    1    2    0    0  0.00000000000E+00  0.00000000000E+00 -0.18765824262E+04  0.23456410869E+04  0.14072919051E+04 0.  0.
        2    1    3    3  502    0  0.70105133302E+03 -0.38184418843E+02 -0.10162315991E+04  0.12351751634E+04  0.25500000920E-02 0.  1.
       -2    1    3    3    0  502 -0.70105133302E+03  0.38184418843E+02 -0.86035082716E+03  0.11104659235E+04  0.25500000920E-02 0. -1.
</event>
<event>
 5   0  0.1104538E-03  0.1394321E+04  0.7818609E-02  0.8957940E-01
        4   -1    0    0  501    0  0.00000000000E+00  0.00000000000E+00  0.84406041281E+03  0.84406136825E+03  0.12699999809E+01 0.  1.
       -4   -1    0    0    0  501  0.00000000000E+00  0.00000000000E+00 -0.57582470521E+03  0.57582610572E+03  0.12699999809E+01 0. -1.
    10030    2    1    2    0    0  0.00000000000E+00  0.00000000000E+00  0.26823570760E+03  0.14198874740E+04  0.13943206388E+04 0.  0.
        5    1    3    3  502    0 -0.36492367902E+03  0.58866871126E+03  0.21501170530E+03  0.72522566594E+03  0.46999998093E+01 0.  1.
       -5    1    3    3    0  502  0.36492367902E+03 -0.58866871126E+03  0.53224002301E+02  0.69466180803E+03  0.46999998093E+01 0. -1.
</event>
<event>
 5   0  0.2889469E-03  0.1387676E+04  0.7818609E-02  0.8962788E-01
        2   -1    0    0  501    0  0.00000000000E+00  0.00000000000E+00  0.12447053275E+04  0.12447053275E+04  0.25500000920E-02 0. -1.
       -2   -1    0    0    0  501  0.00000000000E+00  0.00000000000E+00 -0.38676733426E+03  0.38676733427E+03  0.25500000920E-02 0.  1.
    10030    2    1    2    0    0  0.00000000000E+00  0.00000000000E+00  0.85793799328E+03  0.16314726618E+04  0.13876762756E+04 0.  0.
        5    1    3    3  502    0 -0.37524070552E+01 -0.20337240820E+03 -0.35090655608E+03  0.40562534200E+03  0.46999998093E+01 0.  1.
       -5    1    3    3    0  502  0.37524070552E+01  0.20337240820E+03  0.12088445494E+04  0.12258473198E+04  0.46999998093E+01 0. -1.
</event>
<event>
 5   0  0.2889469E-03  0.1479754E+04  0.7818609E-02  0.8898029E-01
        2   -1    0    0  501    0  0.00000000000E+00  0.00000000000E+00  0.18753120040E+04  0.18753120040E+04  0.25500000920E-02 0. -1.
       -2   -1    0    0    0  501  0.00000000000E+00  0.00000000000E+00 -0.29190754790E+03  0.29190754791E+03  0.25500000920E-02 0.  1.
    10030    2    1    2    0    0  0.00000000000E+00  0.00000000000E+00  0.15834044561E+04  0.21672195519E+04  0.14797536669E+04 0.  0.
        5    1    3    3  502    0 -0.39254030304E+03 -0.57113442192E+03  0.41228458021E+03  0.80640131602E+03  0.46999998093E+01 0.  1.
       -5    1    3    3    0  502  0.39254030304E+03  0.57113442192E+03  0.11711198759E+04  0.13608182359E+04  0.46999998093E+01 0. -1.
</event>
<event>
 5   0  0.2993993E-03  0.1453704E+04  0.7818609E-02  0.8915837E-01
        2   -1    0    0  501    0  0.00000000000E+00  0.00000000000E+00  0.88123191331E+03  0.88123191332E+03  0.25500000920E-02 0.  1.
       -2   -1    0    0    0  501  0.00000000000E+00  0.00000000000E+00 -0.59951712487E+03  0.59951712488E+03  0.25500000920E-02 0. -1.
    10030    2    1    2    0    0  0.00000000000E+00  0.00000000000E+00  0.28171478844E+03  0.14807490382E+04  0.14537037154E+04 0.  0.
        3    1    3    3  502    0  0.15050484400E+03 -0.43773846065E+03  0.71168221003E+03  0.84897482075E+03  0.10100000352E+00 0.  1.
       -3    1    3    3    0  502 -0.15050484400E+03  0.43773846065E+03 -0.42996742158E+03  0.63177421744E+03  0.10100000352E+00 0. -1.
</event>
<event>
 5   0  0.3006737E-03  0.1449404E+04  0.7818609E-02  0.8918814E-01
       -2   -1    0    0    0  501  0.00000000000E+00  0.00000000000E+00  0.46502885196E+03  0.46502885197E+03  0.25500000920E-02 0. -1.
        2   -1    0    0  501    0  0.00000000000E+00  0.00000000000E+00 -0.11293770679E+04  0.11293770679E+04  0.25500000920E-02 0.  1.
    10030    2    1    2    0    0  0.00000000000E+00  0.00000000000E+00 -0.66434821592E+03  0.15944059198E+04  0.14494039069E+04 0.  0.
        1    1    3    3  502    0 -0.53157153387E+03 -0.11390399745E+03 -0.85933498635E+03  0.10168574310E+04  0.50400001928E-02 0.  1.
       -1    1    3    3    0  502  0.53157153387E+03  0.11390399745E+03  0.19498677043E+03  0.57754848881E+03  0.50400001928E-02 0. -1.
</event>
<event>
 5   0  0.1560957E-03  0.1351446E+04  0.7818609E-02  0.8989734E-01
       -1   -1    0    0    0  501  0.00000000000E+00  0.00000000000E+00  0.50086484717E+03  0.50086484720E+03  0.50400001928E-02 0. -1.
        1   -1    0    0  501    0  0.00000000000E+00  0.00000000000E+00 -0.91162586853E+03  0.91162586855E+03  0.50400001928E-02 0.  1.
    10030    2    1    2    0    0  0.00000000000E+00  0.00000000000E+00 -0.41076102136E+03  0.14124907157E+04  0.13514456724E+04 0.  0.
        5    1    3    3  502    0 -0.30920271815E+02 -0.20827634455E+03  0.46568399314E+03  0.51109565677E+03  0.46999998093E+01 0. -1.
       -5    1    3    3    0  502  0.30920271815E+02  0.20827634455E+03 -0.87644501450E+03  0.90139505898E+03  0.46999998093E+01 0.  1.
</event>
<event>
 5   0  0.1586022E-03  0.1175422E+04  0.7818609E-02  0.9134646E-01
       -1   -1    0    0    0  501  0.00000000000E+00  0.00000000000E+00  0.54092241073E+03  0.54092241075E+03  0.50400001928E-02 0.  1.
        1   -1    0    0  501    0  0.00000000000E+00  0.00000000000E+00 -0.63854681086E+03  0.63854681088E+03  0.50400001928E-02 0. -1.
    10030    2    1    2    0    0  0.00000000000E+00  0.00000000000E+00 -0.97624400135E+02  0.11794692216E+04  0.11754221035E+04 0.  0.
        1    1    3    3  502    0 -0.39633329005E+03 -0.38698376116E+03 -0.24587517522E+03  0.60604546860E+03  0.50400001928E-02 0. -1.
       -1    1    3    3    0  502  0.39633329005E+03  0.38698376116E+03  0.14825077508E+03  0.57342375303E+03  0.50400001928E-02 0.  1.
</event>
<event>
 5   0  0.1104538E-03  0.1225721E+04  0.7818609E-02  0.9090636E-01
       -3   -1    0    0    0  501  0.00000000000E+00  0.00000000000E+00  0.30062445598E+03  0.30062447294E+03  0.10100000352E+00 0. -1.
        3   -1    0    0  501    0  0.00000000000E+00  0.00000000000E+00 -0.12493935346E+04  0.12493935387E+04  0.10100000352E+00 0.  1.
    10030    2    1    2    0    0  0.00000000000E+00  0.00000000000E+00 -0.94876907864E+03  0.15500180116E+04  0.12257214495E+04 0.  0.
        5    1    3    3  502    0 -0.28289577310E+03  0.50906302582E+03 -0.71565357468E+03  0.92269025769E+03  0.46999998093E+01 0.  1.
       -5    1    3    3    0  502  0.28289577310E+03 -0.50906302582E+03 -0.23311550396E+03  0.62732775395E+03  0.46999998093E+01 0. -1.
</event>
<event>
 5   0  0.2917809E-03  0.1418901E+04  0.7818609E-02  0.8940250E-01
       -2   -1    0    0    0  501  0.00000000000E+00  0.00000000000E+00  0.59002922748E+03  0.59002922748E+03  0.25500000920E-02 0. -1.
        2   -1    0    0  501    0  0.00000000000E+00  0.00000000000E+00 -0.85304249031E+03  0.85304249031E+03  0.25500000920E-02 0.  1.
    10030    2    1    2    0    0  0.00000000000E+00  0.00000000000E+00 -0.26301326283E+03  0.14430717178E+04  0.14189009854E+04 0.  0.
        2    1    3    3  502    0 -0.18007284004E+03 -0.13804833793E+03 -0.81514502789E+03  0.84613532477E+03  0.25500000920E-02 0.  1.
       -2    1    3    3    0  502  0.18007284004E+03  0.13804833793E+03  0.55213176506E+03  0.59693639303E+03  0.25500000920E-02 0. -1.
</event>
<event>
 5   0  0.1700207E-03  0.1403281E+04  0.7818609E-02  0.8951447E-01
        1   -1    0    0  501    0  0.00000000000E+00  0.00000000000E+00  0.20620557641E+04  0.20620557641E+04  0.50400001928E-02 0. -1.
       -1   -1    0    0    0  501  0.00000000000E+00  0.00000000000E+00 -0.23874193979E+03  0.23874193985E+03  0.50400001928E-02 0.  1.
    10030    2    1    2    0    0  0.00000000000E+00  0.00000000000E+00  0.18233138243E+04  0.23007977039E+04  0.14032807177E+04 0.  0.
        2    1    3    3  502    0 -0.68858601872E+03 -0.13117827126E+03  0.96194565569E+03  0.11902511872E+04  0.25500000920E-02 0.  1.
       -2    1    3    3    0  502  0.68858601872E+03  0.13117827126E+03  0.86136816861E+03  0.11105465168E+04  0.25500000920E-02 0. -1.
</event>
<event>
 5   0  0.3006737E-03  0.1393532E+04  0.7818609E-02  0.8958514E-01
       -2   -1    0    0    0  501  0.00000000000E+00  0.00000000000E+00  0.68746515659E+03  0.68746515660E+03  0.25500000920E-02 0.  1.
        2   -1    0    0  501    0  0.00000000000E+00  0.00000000000E+00 -0.70619268708E+03  0.70619268708E+03  0.25500000920E-02 0. -1.
    10030    2    1    2    0    0  0.00000000000E+00  0.00000000000E+00 -0.18727530485E+02  0.13936578437E+04  0.13935320107E+04 0.  0.
        1    1    3    3  502    0  0.11883968726E+03  0.58565800018E+03 -0.36767631723E+03  0.70164381186E+03  0.50400001928E-02 0. -1.
       -1    1    3    3    0  502 -0.11883968726E+03 -0.58565800018E+03  0.34894878675E+03  0.69201403182E+03  0.50400001928E-02 0.  1.
</event>
<event>
 5   0  0.2889469E-03  0.1440704E+04  0.7818609E-02  0.8924871E-01
        2   -1    0    0  501    0  0.00000000000E+00  0.00000000000E+00  0.12757701061E+04  0.12757701061E+04  0.25500000920E-02 0. -1.
       -2   -1    0    0    0  501  0.00000000000E+00  0.00000000000E+00 -0.40674002313E+03  0.40674002314E+03  0.25500000920E-02 0.  1.
    10030    2    1    2    0    0  0.00000000000E+00  0.00000000000E+00  0.86903008299E+03  0.16825101293E+04  0.14407036649E+04 0.  0.
        5    1    3    3  502    0 -0.50097610567E+03  0.18624036035E+03  0.99850051316E+03  0.11325581199E+04  0.46999998093E+01 0. -1.
       -5    1    3    3    0  502  0.50097610567E+03 -0.18624036035E+03 -0.12947043016E+03  0.54995200933E+03  0.46999998093E+01 0.  1.
</event>
<event>
 5   0  0.1104538E-03  0.1463954E+04  0.7818609E-02  0.8908783E-01
       -3   -1    0    0    0  501  0.00000000000E+00  0.00000000000E+00  0.93870397774E+03  0.93870398317E+03  0.10100000352E+00 0. -1.
        3   -1    0    0  501    0  0.00000000000E+00  0.00000000000E+00 -0.57077676446E+03  0.57077677339E+03  0.10100000352E+00 0.  1.
    10030    2    1    2    0    0  0.00000000000E+00  0.00000000000E+00  0.36792721329E+03  0.15094807566E+04  0.14639541387E+04 0.  0.
        5    1    3    3  502    0  0.84302635096E+02  0.59222538027E+03  0.61889956493E+03  0.86075350524E+03  0.46999998093E+01 0.  1.
       -5    1    3    3    0  502 -0.84302635096E+02 -0.59222538027E+03 -0.25097235165E+03  0.64872725132E+03  0.46999998093E+01 0. -1.
</event>
<event>
 5   0  0.1631380E-03  0.1405393E+04  0.7818609E-02  0.8949924E-01
       -1   -1    0    0    0  501  0.00000000000E+00  0.00000000000E+00  0.12808646284E+04  0.12808646284E+04  0.50400001928E-02 0. -1.
        1   -1    0    0  501    0  0.00000000000E+00  0.00000000000E+00 -0.38550730647E+03  0.38550730650E+03  0.50400001928E-02 0.  1.
    10030    2    1    2    0    0  0.00000000000E+00  0.00000000000E+00  0.89535732196E+03  0.16663719349E+04  0.14053934295E+04 0.  0.
        3    1    3    3  502    0 -0.64002190944E+02 -0.69773714792E+03  0.51096932579E+03  0.86719263727E+03  0.10100000352E+00 0.  1.
       -3    1    3    3    0  502  0.64002190944E+02  0.69773714792E+03  0.38438799617E+03  0.79917929767E+03  0.10100000352E+00 0. -1.
</event>
<event>
 5   0  0.1560957E-03  0.1406883E+04  0.7818609E-02  0.8948851E-01
        1   -1    0    0  501    0  0.00000000000E+00  0.00000000000E+00  0.60800988249E+03  0.60800988251E+03  0.50400001928E-02 0. -1.
       -1   -1    0    0    0  501  0.00000000000E+00  0.00000000000E+00 -0.81385192800E+03  0.81385192802E+03  0.50400001928E-02 0.  1.
    10030    2    1    2    0    0  0.00000000000E+00  0.00000000000E+00 -0.20584204551E+03  0.14218618105E+04  0.14068831012E+04 0.  0.
        5    1    3    3  502    0  0.11839134775E+03  0.42654876559E+02 -0.80236740537E+03  0.81218932086E+03  0.46999998093E+01 0.  1.
       -5    1    3    3    0  502 -0.11839134775E+03 -0.42654876559E+02  0.59652535986E+03  0.60967248968E+03  0.46999998093E+01 0. -1.
</event>
<event>
 5   0  0.3006737E-03  0.1380568E+04  0.7818609E-02  0.8968005E-01
       -2   -1    0    0    0  501  0.00000000000E+00  0.00000000000E+00  0.37829962343E+03  0.37829962343E+03  0.25500000920E-02 0.  1.
        2   -1    0    0  501    0  0.00000000000E+00  0.00000000000E+00 -0.12595631443E+04  0.12595631443E+04  0.25500000920E-02 0. -1.
    10030    2    1    2    0    0  0.00000000000E+00  0.00000000000E+00 -0.88126352084E+03  0.16378627677E+04  0.13805683803E+04 0.  0.
        1    1    3    3  502    0  0.65017306186E+03 -0.11318827092E+03 -0.20054036507E+03  0.68974852887E+03  0.50400001928E-02 0.  1.
       -1    1    3    3    0  502 -0.65017306186E+03  0.11318827092E+03 -0.68072315577E+03  0.94811423883E+03  0.50400001928E-02 0. -1.
</event>
<event>
 5   0  0.2760807E-03  0.1303194E+04  0.7818609E-02  0.9027036E-01
        2   -1    0    0  501    0  0.00000000000E+00  0.00000000000E+00  0.47460785304E+03  0.47460785305E+03  0.25500000920E-02 0.  1.
       -2   -1    0    0    0  501  0.00000000000E+00  0.00000000000E+00 -0.89458869212E+03  0.89458869212E+03  0.25500000920E-02 0. -1.
    10030    2    1    2    0    0  0.00000000000E+00  0.00000000000E+00 -0.41998083908E+03  0.13691965452E+04  0.13031942580E+04 0.  0.
        4    1    3    3  502    0 -0.21475292582E+03 -0.37768682062E+03  0.30020753691E+03  0.52810257691E+03  0.12699999809E+01 0.  1.
       -4    1    3    3    0  502  0.21475292582E+03  0.37768682062E+03 -0.72018837599E+03  0.84109396825E+03  0.12699999809E+01 0. -1.
</event>
<event>
 5   0  0.1104538E-03  0.1436029E+04  0.7818609E-02  0.8928144E-01
       -4   -1    0    0    0  501  0.00000000000E+00  0.00000000000E+00  0.47875136057E+03  0.47875304505E+03  0.12699999809E+01 0.  1.
        4   -1    0    0  501    0  0.00000000000E+00  0.00000000000E+00 -0.10768495762E+04  0.10768503251E+04  0.12699999809E+01 0. -1.
    10030    2    1    2    0    0  0.00000000000E+00  0.00000000000E+00 -0.59809821559E+03  0.15556033701E+04  0.14360293763E+04 0.  0.
        1    1    3    3  502    0 -0.29530500400E+03  0.53821082597E+03 -0.70243943841E+03  0.93289715577E+03  0.50400001928E-02 0. -1.
       -1    1    3    3    0  502  0.29530500400E+03 -0.53821082597E+03  0.10434122282E+03  0.62270621434E+03  0.50400001928E-02 0.  1.
</event>
<event>
 5   0  0.1644571E-03  0.1424238E+04  0.7818609E-02  0.8936458E-01
        1   -1    0    0  501    0  0.00000000000E+00  0.00000000000E+00  0.80867819500E+03  0.80867819502E+03  0.50400001928E-02 0.  1.
       -1   -1    0    0    0  501  0.00000000000E+00  0.00000000000E+00 -0.62708919573E+03  0.62708919576E+03  0.50400001928E-02 0. -1.
    10030    2    1    2    0    0  0.00000000000E+00  0.00000000000E+00  0.18158899927E+03  0.14357673908E+04  0.14242378438E+04 0.  0.
        4    1    3    3  502    0 -0.62914778497E+03 -0.32039666499E+02  0.42553414519E+03  0.76021996632E+03  0.12699999809E+01 0.  1.
       -4    1    3    3    0  502  0.62914778497E+03  0.32039666499E+02 -0.24394514593E+03  0.67554742445E+03  0.12699999809E+01 0. -1.
</event>
<event>
 5   0  0.2993993E-03  0.1380868E+04  0.7818609E-02  0.8967785E-01
       -2   -1    0    0    0  501  0.00000000000E+00  0.00000000000E+00  0.44554119534E+03  0.44554119535E+03  0.25500000920E-02 0. -1.
        2   -1    0    0  501    0  0.00000000000E+00  0.00000000000E+00 -0.10699321135E+04  0.10699321135E+04  0.25500000920E-02 0.  1.
    10030    2    1    2    0    0  0.00000000000E+00  0.00000000000E+00 -0.62439091815E+03  0.15154733088E+04  0.13808676009E+04 0.  0.
        3    1    3    3  502    0  0.54265629143E+03  0.15436551846E+03  0.12458778511E+03  0.57777737089E+03  0.10100000352E+00 0.  1.
       -3    1    3    3    0  502 -0.54265629143E+03 -0.15436551846E+03 -0.74897870326E+03  0.93769593795E+03  0.10100000352E+00 0. -1.
</event>
<event>
 5   0  0.1586022E-03  0.1387437E+04  0.7818609E-02  0.8962963E-01
        1   -1    0    0  501    0  0.00000000000E+00  0.00000000000E+00  0.75751456712E+03  0.75751456713E+03  0.50400001928E-02 0. -1.
       -1   -1    0    0    0  501  0.00000000000E+00  0.00000000000E+00 -0.63529537912E+03  0.63529537914E+03  0.50400001928E-02 0.  1.
    10030    2    1    2    0    0  0.00000000000E+00  0.00000000000E+00  0.12221918800E+03  0.13928099463E+04  0.13874372117E+04 0.  0.
        1    1    3    3  502    0 -0.55167558567E+03  0.35964715743E+03  0.28002163394E+03  0.71561452275E+03  0.50400001928E-02 0.  1.
       -1    1    3    3    0  502  0.55167558567E+03 -0.35964715743E+03 -0.15780244594E+03  0.67719542353E+03  0.50400001928E-02 0. -1.
</event>
<event>
 5   0  0.2889469E-03  0.7780083E+03  0.7818609E-02  0.9592406E-01
        2   -1    0    0  501    0  0.00000000000E+00  0.00000000000E+00  0.10268429120E+04  0.10268429120E+04  0.25500000920E-02 0. -1.
       -2   -1    0    0    0  501  0.00000000000E+00  0.00000000000E+00 -0.14736842526E+03  0.14736842528E+03  0.25500000920E-02 0.  1.
    10030    2    1    2    0    0  0.00000000000E+00  0.00000000000E+00  0.87947448670E+03  0.11742113372E+04  0.77800828515E+03 0.  0.
        5    1    3    3  502    0 -0.13433788354E+03  0.35633627911E+03  0.55933944615E+03  0.67668671982E+03  0.46999998093E+01 0. -1.
       -5    1    3    3    0  502  0.13433788354E+03 -0.35633627911E+03  0.32013504055E+03  0.49752461743E+03  0.46999998093E+01 0.  1.
</event>
<event>
 5   0  0.1700207E-03  0.1386845E+04  0.7818609E-02  0.8963396E-01
       -1   -1    0    0    0  501  0.00000000000E+00  0.00000000000E+00  0.50484807548E+03  0.50484807551E+03  0.50400001928E-02 0. -1.
        1   -1    0    0  501    0  0.00000000000E+00  0.00000000000E+00 -0.95243507585E+03  0.95243507586E+03  0.50400001928E-02 0.  1.
    10030    2    1    2    0    0  0.00000000000E+00  0.00000000000E+00 -0.44758700037E+03  0.14572831514E+04  0.13868453628E+04 0.  0.
        2    1    3    3  502    0  0.45533308047E+03  0.47089881511E+03 -0.46285942711E+03  0.80206780107E+03  0.25500000920E-02 0.  1.
       -2    1    3    3    0  502 -0.45533308047E+03 -0.47089881511E+03  0.15272426744E+02  0.65521535030E+03  0.25500000920E-02 0. -1.
</event>
<event>
 5   0  0.3006737E-03  0.1447109E+04  0.7818609E-02  0.8920408E-01
        2   -1    0    0  501    0  0.00000000000E+00  0.00000000000E+00  0.13852458755E+04  0.13852458755E+04  0.25500000920E-02 0. -1.
       -2   -1    0    0    0  501  0.00000000000E+00  0.00000000000E+00 -0.37793346065E+03  0.37793346066E+03  0.25500000920E-02 0.  1.
    10030    2    1    2    0    0  0.00000000000E+00  0.00000000000E+00  0.10073124149E+04  0.17631793362E+04  0.14471085206E+04 0.  0.
        1    1    3    3  502    0 -0.59974948828E+03  0.18147870655E+03  0.94447479446E+03  0.11334313420E+04  0.50400001928E-02 0. -1.
       -1    1    3    3    0  502  0.59974948828E+03 -0.18147870655E+03  0.62837620409E+02  0.62974799419E+03  0.50400001928E-02 0.  1.
</event>
<event>
 5   0  0.2917809E-03  0.1417671E+04  0.7818609E-02  0.8941126E-01
        2   -1    0    0  501    0  0.00000000000E+00  0.00000000000E+00  0.18621285964E+04  0.18621285964E+04  0.25500000920E-02 0.  1.
       -2   -1    0    0    0  501  0.00000000000E+00  0.00000000000E+00 -0.26982454888E+03  0.26982454889E+03  0.25500000920E-02 0. -1.
    10030    2    1    2    0    0  0.00000000000E+00  0.00000000000E+00  0.15923040475E+04  0.21319531453E+04  0.14176713420E+04 0.  0.
        2    1    3    3  502    0  0.28897141203E+03 -0.44027311484E+03  0.82653878003E+02  0.53308212893E+03  0.25500000920E-02 0. -1.
       -2    1    3    3    0  502 -0.28897141203E+03  0.44027311484E+03  0.15096501695E+04  0.15988710163E+04  0.25500000920E-02 0.  1.
</event>
<event>
 5   0  0.1104538E-03  0.1511195E+04  0.7818609E-02  0.8877042E-01
        3   -1    0    0  501    0  0.00000000000E+00  0.00000000000E+00  0.58439405750E+03  0.58439406622E+03  0.10100000352E+00 0. -1.
       -3   -1    0    0    0  501  0.00000000000E+00  0.00000000000E+00 -0.97695699257E+03  0.97695699779E+03  0.10100000352E+00 0.  1.
    10030    2    1    2    0    0  0.00000000000E+00  0.00000000000E+00 -0.39256293508E+03  0.15613510640E+04  0.15111953835E+04 0.  0.
        2    1    3    3  502    0  0.36824058057E+03  0.28026860724E+03  0.42085031910E+03  0.62551307619E+03  0.25500000920E-02 0. -1.
       -2    1    3    3    0  502 -0.36824058057E+03 -0.28026860724E+03 -0.81341325418E+03  0.93583798783E+03  0.25500000920E-02 0.  1.
</event>
<event>
 5   0  0.1644571E-03  0.1397710E+04  0.7818609E-02  0.8955478E-01
       -1   -1    0    0    0  501  0.00000000000E+00  0.00000000000E+00  0.94507121209E+03  0.94507121211E+03  0.50400001928E-02 0. -1.
        1   -1    0    0  501    0  0.00000000000E+00  0.00000000000E+00 -0.51678475299E+03  0.51678475302E+03  0.50400001928E-02 0.  1.
    10030    2    1    2    0    0  0.00000000000E+00  0.00000000000E+00  0.42828645910E+03  0.14618559651E+04  0.13977101172E+04 0.  0.
        4    1    3    3  502    0 -0.97385159359E+02 -0.25504891921E+03 -0.45870289452E+03  0.53380125402E+03  0.12699999809E+01 0.  1.
       -4    1    3    3    0  502  0.97385159359E+02  0.25504891921E+03  0.88698935362E+03  0.92805471110E+03  0.12699999809E+01 0. -1.
</event>
<event>
 5   0  0.1104538E-03  0.1381923E+04  0.7818609E-02  0.8967008E-01
       -3   -1    0    0    0  501  0.00000000000E+00  0.00000000000E+00  0.90959425851E+03  0.90959426412E+03  0.10100000352E+00 0. -1.
        3   -1    0    0  501    0  0.00000000000E+00  0.00000000000E+00 -0.52488020169E+03  0.52488021141E+03  0.10100000352E+00 0.  1.
    10030    2    1    2    0    0  0.00000000000E+00  0.00000000000E+00  0.38471405682E+03  0.14344744755E+04  0.13819233392E+04 0.  0.
        3    1    3    3  502    0  0.53508409167E+03  0.26685937742E+03  0.55178911667E+03  0.81363391765E+03  0.10100000352E+00 0. -1.
       -3    1    3    3    0  502 -0.53508409167E+03 -0.26685937742E+03 -0.16707505984E+03  0.62084055787E+03  0.10100000352E+00 0.  1.
</event>
<event>
 5   0  0.2760807E-03  0.1423155E+04  0.7818609E-02  0.8937227E-01
        2   -1    0    0  501    0  0.00000000000E+00  0.00000000000E+00  0.87226737901E+03  0.87226737901E+03  0.25500000920E-02 0. -1.
       -2   -1    0    0    0  501  0.00000000000E+00  0.00000000000E+00 -0.58048965082E+03  0.58048965083E+03  0.25500000920E-02 0.  1.
    10030    2    1    2    0    0  0.00000000000E+00  0.00000000000E+00  0.29177772819E+03  0.14527570298E+04  0.14231545050E+04 0.  0.
        4    1    3    3  502    0 -0.50782862445E+03 -0.45674011367E+03 -0.57860310171E+02  0.68545668837E+03  0.12699999809E+01 0. -1.
       -4    1    3    3    0  502  0.50782862445E+03  0.45674011367E+03  0.34963803836E+03  0.76730034146E+03  0.12699999809E+01 0.  1.
</event>
<event>
 5   0  0.2889469E-03  0.1098914E+04  0.7818609E-02  0.9206251E-01
        2   -1    0    0  501    0  0.00000000000E+00  0.00000000000E+00  0.17763972077E+04  0.17763972077E+04  0.25500000920E-02 0.  1.
       -2   -1    0    0    0  501  0.00000000000E+00  0.00000000000E+00 -0.16995251278E+03  0.16995251280E+03  0.25500000920E-02 0. -1.
    10030    2    1    2    0    0  0.00000000000E+00  0.00000000000E+00  0.16064446949E+04  0.19463497205E+04  0.10989143172E+04 0.  0.
        5    1    3    3  502    0 -0.48420512018E+03 -0.24832519815E+03  0.66878842378E+03  0.86221809784E+03  0.46999998093E+01 0. -1.
       -5    1    3    3    0  502  0.48420512018E+03  0.24832519815E+03  0.93765627112E+03  0.10841316226E+04  0.46999998093E+01 0.  1.
</event>
<event>
 5   0  0.1586022E-03  0.9466688E+03  0.7818609E-02  0.9369053E-01
       -1   -1    0    0    0  501  0.00000000000E+00  0.00000000000E+00  0.21035033132E+03  0.21035033138E+03  0.50400001928E-02 0.  1.
        1   -1    0    0  501    0  0.00000000000E+00  0.00000000000E+00 -0.10651062873E+04  0.10651062873E+04  0.50400001928E-02 0. -1.
    10030    2    1    2    0    0  0.00000000000E+00  0.00000000000E+00 -0.85475595597E+03  0.12754566187E+04  0.94666881318E+03 0.  0.
        1    1    3    3  502    0  0.35888396510E+03  0.18187427499E+03 -0.76331381605E+03  0.86285800344E+03  0.50400001928E-02 0. -1.
       -1    1    3    3    0  502 -0.35888396510E+03 -0.18187427499E+03 -0.91442139918E+02  0.41259861523E+03  0.50400001928E-02 0.  1.
</event>
<event>
 5   0  0.2760807E-03  0.8749780E+03  0.7818609E-02  0.9457412E-01
       -2   -1    0    0    0  501  0.00000000000E+00  0.00000000000E+00  0.43420766614E+03  0.43420766615E+03  0.25500000920E-02 0. -1.
        2   -1    0    0  501    0  0.00000000000E+00  0.00000000000E+00 -0.44079517387E+03  0.44079517388E+03  0.25500000920E-02 0.  1.
    10030    2    1    2    0    0  0.00000000000E+00  0.00000000000E+00 -0.65875077283E+01  0.87500284002E+03  0.87497804246E+03 0.  0.
        4    1    3    3  502    0 -0.44501043127E+02  0.37690273541E+03  0.21433368104E+03  0.43586299972E+03  0.12699999809E+01 0. -1.
       -4    1    3    3    0  502  0.44501043127E+02 -0.37690273541E+03 -0.22092118877E+03  0.43913984030E+03  0.12699999809E+01 0.  1.
</event>
<event>
 5   0  0.1104538E-03  0.1327937E+04  0.7818609E-02  0.9007699E-01
       -3   -1    0    0    0  501  0.00000000000E+00  0.00000000000E+00  0.57683154184E+03  0.57683155068E+03  0.10100000352E+00 0. -1.
        3   -1    0    0  501    0  0.00000000000E+00  0.00000000000E+00 -0.76426895711E+03  0.76426896378E+03  0.10100000352E+00 0.  1.
    10030    2    1    2    0    0  0.00000000000E+00  0.00000000000E+00 -0.18743741527E+03  0.13411005145E+04  0.13279374252E+04 0.  0.
        3    1    3    3  502    0 -0.65800768639E+03 -0.13379873825E+02 -0.18234567164E+03  0.68293710585E+03  0.10100000352E+00 0.  1.
       -3    1    3    3    0  502  0.65800768639E+03  0.13379873825E+02 -0.50917436262E+01  0.65816340861E+03  0.10100000352E+00 0. -1.
</event>
<event>
 5   0  0.1631380E-03  0.1260968E+04  0.7818609E-02  0.9061103E-01
        1   -1    0    0  501    0  0.00000000000E+00  0.00000000000E+00  0.78896636138E+03  0.78896636140E+03  0.50400001928E-02 0.  1.
       -1   -1    0    0    0  501  0.00000000000E+00  0.00000000000E+00 -0.50383685480E+03  0.50383685482E+03  0.50400001928E-02 0. -1.
    10030    2    1    2    0    0  0.00000000000E+00  0.00000000000E+00  0.28512950658E+03  0.12928032162E+04  0.12609684058E+04 0.  0.
        3    1    3    3  502    0  0.24975319040E+03 -0.46416370402E+03  0.49725511432E+03  0.72462904935E+03  0.10100000352E+00 0.  1.
       -3    1    3    3    0  502 -0.24975319040E+03  0.46416370402E+03 -0.21212560774E+03  0.56817416687E+03  0.10100000352E+00 0. -1.
</event>
<event>
 5   0  0.1700207E-03  0.1082115E+04  0.7818609E-02  0.9222802E-01
        1   -1    0    0  501    0  0.00000000000E+00  0.00000000000E+00  0.60963802681E+03  0.60963802683E+03  0.50400001928E-02 0. -1.
       -1   -1    0    0    0  501  0.00000000000E+00  0.00000000000E+00 -0.48019146353E+03  0.48019146356E+03  0.50400001928E-02 0.  1.
    10030    2    1    2    0    0  0.00000000000E+00  0.00000000000E+00  0.12944656328E+03  0.10898294904E+04  0.10821145528E+04 0.  0.
        2    1    3    3  502    0 -0.50685008338E+03  0.11290991598E+03  0.21778483458E+03  0.56309492124E+03  0.25500000920E-02 0. -1.
       -2    1    3    3    0  502  0.50685008338E+03 -0.11290991598E+03 -0.88338271291E+02  0.52673456915E+03  0.25500000920E-02 0.  1.
</event>
<event>
 5   0  0.1700207E-03  0.1406567E+04  0.7818609E-02  0.8949079E-01
       -1   -1    0    0    0  501  0.00000000000E+00  0.00000000000E+00  0.43845376513E+03  0.43845376516E+03  0.50400001928E-02 0. -1.
        1   -1    0    0  501    0  0.00000000000E+00  0.00000000000E+00 -0.11280722567E+04  0.11280722567E+04  0.50400001928E-02 0.  1.
    10030    2    1    2    0    0  0.00000000000E+00  0.00000000000E+00 -0.68961849157E+03  0.15665260219E+04  0.14065667824E+04 0.  0.
        2    1    3    3  502    0 -0.47228615128E+03 -0.16868165755E+03  0.20431367702E+03  0.54152727439E+03  0.25500000920E-02 0. -1.
       -2    1    3    3    0  502  0.47228615128E+03  0.16868165755E+03 -0.89393216859E+03  0.10249987475E+04  0.25500000920E-02 0.  1.
</event>
<event>
 5   0  0.1586022E-03  0.1470504E+04  0.7818609E-02  0.8904307E-01
       -1   -1    0    0    0  501  0.00000000000E+00  0.00000000000E+00  0.11723383153E+04  0.11723383153E+04  0.50400001928E-02 0.  1.
        1   -1    0    0  501    0  0.00000000000E+00  0.00000000000E+00 -0.46112616407E+03  0.46112616410E+03  0.50400001928E-02 0. -1.
    10030    2    1    2    0    0  0.00000000000E+00  0.00000000000E+00  0.71121215124E+03  0.16334644794E+04  0.14705044990E+04 0.  0.
        1    1    3    3  502    0 -0.43049938465E+03  0.58563187903E+03  0.47880914646E+03  0.87037498625E+03  0.50400001928E-02 0.  1.
       -1    1    3    3    0  502  0.43049938465E+03 -0.58563187903E+03  0.23240300478E+03  0.76308949317E+03  0.50400001928E-02 0. -1.
</event>
<event>
 5   0  0.1560957E-03  0.1391568E+04  0.7818609E-02  0.8959945E-01
        1   -1    0    0  501    0  0.00000000000E+00  0.00000000000E+00  0.54783617512E+03  0.54783617514E+03  0.50400001928E-02 0.  1.
       -1   -1    0    0    0  501  0.00000000000E+00  0.00000000000E+00 -0.88368658666E+03  0.88368658667E+03  0.50400001928E-02 0. -1.
    10030    2    1    2    0    0  0.00000000000E+00  0.00000000000E+00 -0.33585041154E+03  0.14315227618E+04  0.13915681509E+04 0.  0.
        5    1    3    3  502    0  0.49900197819E+03 -0.43696216350E+03  0.48237705088E+02  0.66504727107E+03  0.46999998093E+01 0.  1.
       -5    1    3    3    0  502 -0.49900197819E+03  0.43696216350E+03 -0.38408811663E+03  0.76647549074E+03  0.46999998093E+01 0. -1.
</event>
<event>
 5   0  0.1700207E-03  0.1394762E+04  0.7818609E-02  0.8957619E-01
       -1   -1    0    0    0  501  0.00000000000E+00  0.00000000000E+00  0.73472144360E+03  0.73472144361E+03  0.50400001928E-02 0.  1.
        1   -1    0    0  501    0  0.00000000000E+00  0.00000000000E+00 -0.66193798994E+03  0.66193798995E+03  0.50400001928E-02 0. -1.
    10030    2    1    2    0    0  0.00000000000E+00  0.00000000000E+00  0.72783453662E+02  0.13966594336E+04  0.13947616794E+04 0.  0.
        2    1    3    3  502    0  0.36672236993E+03 -0.50203524772E+03  0.35275727053E+03  0.71481632500E+03  0.25500000920E-02 0.  1.
       -2    1    3    3    0  502 -0.36672236993E+03  0.50203524772E+03 -0.27997381687E+03  0.68184310857E+03  0.25500000920E-02 0. -1.
</event>
<event>
 5   0  0.2760807E-03  0.1442131E+04  0.7818609E-02  0.8923874E-01
       -2   -1    0    0    0  501  0.00000000000E+00  0.00000000000E+00  0.53982538998E+03  0.53982538998E+03  0.25500000920E-02 0. -1.
        2   -1    0    0  501    0  0.00000000000E+00  0.00000000000E+00 -0.96315462755E+03  0.96315462755E+03  0.25500000920E-02 0.  1.
    10030    2    1    2    0    0  0.00000000000E+00  0.00000000000E+00 -0.42332923757E+03  0.15029800175E+04  0.14421308157E+04 0.  0.
        4    1    3    3  502    0 -0.35471663804E+03  0.38833416319E+03 -0.72573822956E+03  0.89628394293E+03  0.12699999809E+01 0.  1.
       -4    1    3    3    0  502  0.35471663804E+03 -0.38833416319E+03  0.30240899199E+03  0.60669607461E+03  0.12699999809E+01 0. -1.
</event>
<event>
 5   0  0.2760807E-03  0.9923929E+03  0.7818609E-02  0.9316928E-01
        2   -1    0    0  501    0  0.00000000000E+00  0.00000000000E+00  0.77403689491E+03  0.77403689492E+03  0.25500000920E-02 0.  1.
       -2   -1    0    0    0  501  0.00000000000E+00  0.00000000000E+00 -0.31808677040E+03  0.31808677041E+03  0.25500000920E-02 0. -1.
    10030    2    1    2    0    0  0.00000000000E+00  0.00000000000E+00  0.45595012452E+03  0.10921236653E+04  0.99239285785E+03 0.  0.
        4    1    3    3  502    0  0.16794906458E+03 -0.37380113414E+03 -0.79918084965E+02  0.41751968742E+03  0.12699999809E+01 0. -1.
       -4    1    3    3    0  502 -0.16794906458E+03  0.37380113414E+03  0.53586820948E+03  0.67460397791E+03  0.12699999809E+01 0.  1.
</event>
<event>
 5   0  0.2760807E-03  0.1403516E+04  0.7818609E-02  0.8951277E-01
       -2   -1    0    0    0  501  0.00000000000E+00  0.00000000000E+00  0.10420465210E+04  0.10420465210E+04  0.25500000920E-02 0. -1.
        2   -1    0    0  501    0  0.00000000000E+00  0.00000000000E+00 -0.47259338275E+03  0.47259338276E+03  0.25500000920E-02 0.  1.
    10030    2    1    2    0    0  0.00000000000E+00  0.00000000000E+00  0.56945313825E+03  0.15146399038E+04  0.14035159997E+04 0.  0.
        4    1    3    3  502    0 -0.49843757660E+03 -0.48317918568E+03  0.39562744355E+03  0.79901491240E+03  0.12699999809E+01 0. -1.
       -4    1    3    3    0  502  0.49843757660E+03  0.48317918568E+03  0.17382569470E+03  0.71562499137E+03  0.12699999809E+01 0.  1.
</event>
<event>
 5   0  0.1644571E-03  0.1421255E+04  0.7818609E-02  0.8938575E-01
        1   -1    0    0  501    0  0.00000000000E+00  0.00000000000E+00  0.21630023185E+04  0.21630023185E+04  0.50400001928E-02 0. -1.
       -1   -1    0    0    0  501  0.00000000000E+00  0.00000000000E+00 -0.23346779745E+03  0.23346779751E+03  0.50400001928E-02 0.  1.
    10030    2    1    2    0    0  0.00000000000E+00  0.00000000000E+00  0.19295345211E+04  0.23964701160E+04  0.14212549205E+04 0.  0.
        4    1    3    3  502    0 -0.36342228236E+03  0.55710920382E+03  0.13864546565E+04  0.15377595871E+04  0.12699999809E+01 0. -1.
       -4    1    3    3    0  502  0.36342228236E+03 -0.55710920382E+03  0.54307986459E+03  0.85871052894E+03  0.12699999809E+01 0.  1.
</event>
<event>
 5   0  0.1644571E-03  0.1443823E+04  0.7818609E-02  0.8922694E-01
        1   -1    0    0  501    0  0.00000000000E+00  0.00000000000E+00  0.93360890103E+03  0.93360890105E+03  0.50400001928E-02 0. -1.
       -1   -1    0    0    0  501  0.00000000000E+00  0.00000000000E+00 -0.55821714603E+03  0.55821714605E+03  0.50400001928E-02 0.  1.
    10030    2    1    2    0    0  0.00000000000E+00  0.00000000000E+00  0.37539175501E+03  0.14918260471E+04  0.14438233912E+04 0.  0.
        4    1    3    3  502    0  0.32214956641E+03 -0.35407060110E+03 -0.37064817676E+03  0.60541557424E+03  0.12699999809E+01 0.  1.
       -4    1    3    3    0  502 -0.32214956641E+03  0.35407060110E+03  0.74603993177E+03  0.88641047285E+03  0.12699999809E+01 0. -1.
</event>
<event>
 5   0  0.2889469E-03  0.1424175E+04  0.7818609E-02  0.8936503E-01
        2   -1    0    0  501    0  0.00000000000E+00  0.00000000000E+00  0.55774292320E+03  0.55774292321E+03  0.25500000920E-02 0.  1.
       -2   -1    0    0    0  501  0.00000000000E+00  0.00000000000E+00 -0.90914457119E+03  0.90914457120E+03  0.25500000920E-02 0. -1.
    10030    2    1    2    0    0  0.00000000000E+00  0.00000000000E+00 -0.35140164799E+03  0.14668874944E+04  0.14241754818E+04 0.  0.
        5    1    3    3  502    0  0.14591500926E+01  0.34012103574E+03  0.46865069648E+03  0.57908549748E+03  0.46999998093E+01 0.  1.
       -5    1    3    3    0  502 -0.14591500926E+01 -0.34012103574E+03 -0.82005234447E+03  0.88780199693E+03  0.46999998093E+01 0. -1.
</event>
<event>
 5   0  0.1560957E-03  0.1391520E+04  0.7818609E-02  0.8959980E-01
        1   -1    0    0  501    0  0.00000000000E+00  0.00000000000E+00  0.14390726915E+04  0.14390726916E+04  0.50400001928E-02 0. -1.
       -1   -1    0    0    0  501  0.00000000000E+00  0.00000000000E+00 -0.33638476452E+03  0.33638476455E+03  0.50400001928E-02 0.  1.
    10030    2    1    2    0    0  0.00000000000E+00  0.00000000000E+00  0.11026879270E+04  0.17754574561E+04  0.13915202169E+04 0.  0.
        5    1    3    3  502    0  0.64558587714E+03  0.25846138226E+03  0.57919942513E+03  0.90502899122E+03  0.46999998093E+01 0. -1.
       -5    1    3    3    0  502 -0.64558587714E+03 -0.25846138226E+03  0.52348850189E+03  0.87042846489E+03  0.46999998093E+01 0.  1.
</event>
<event>
 5   0  0.1560957E-03  0.1369888E+04  0.7818609E-02  0.8975908E-01
       -1   -1    0    0    0  501  0.00000000000E+00  0.00000000000E+00  0.63056435825E+03  0.63056435827E+03  0.50400001928E-02 0.  1.
        1   -1    0    0  501    0  0.00000000000E+00  0.00000000000E+00 -0.74401306799E+03  0.74401306801E+03  0.50400001928E-02 0. -1.
    10030    2    1    2    0    0  0.00000000000E+00  0.00000000000E+00 -0.11344870974E+03  0.13745774263E+04  0.13698877659E+04 0.  0.
        5    1    3    3  502    0  0.29132603910E+03  0.53575178459E+03  0.25615264340E+03  0.66146587400E+03  0.46999998093E+01 0.  1.
       -5    1    3    3    0  502 -0.29132603910E+03 -0.53575178459E+03 -0.36960135314E+03  0.71311155228E+03  0.46999998093E+01 0. -1.
</event>
<event>
 5   0  0.2917809E-03  0.1277470E+04  0.7818609E-02  0.9047625E-01
       -2   -1    0    0    0  501  0.00000000000E+00  0.00000000000E+00  0.36750486273E+03  0.36750486274E+03  0.25500000920E-02 0. -1.
        2   -1    0    0  501    0  0.00000000000E+00  0.00000000000E+00 -0.11101417843E+04  0.11101417843E+04  0.25500000920E-02 0.  1.
    10030    2    1    2    0    0  0.00000000000E+00  0.00000000000E+00 -0.74263692157E+03  0.14776466470E+04  0.12774701626E+04 0.  0.
        2    1    3    3  502    0 -0.85482467357E+02 -0.54374625557E+03  0.35216315992E+01  0.55043586780E+03  0.25500000920E-02 0. -1.
       -2    1    3    3    0  502  0.85482467357E+02  0.54374625557E+03 -0.74615855317E+03  0.92721077924E+03  0.25500000920E-02 0.  1.
</event>
<event>
 5   0  0.1631380E-03  0.1483361E+04  0.7818609E-02  0.8895594E-01
       -1   -1    0    0    0  501  0.00000000000E+00  0.00000000000E+00  0.77017478276E+03  0.77017478277E+03  0.50400001928E-02 0. -1.
        1   -1    0    0  501    0  0.00000000000E+00  0.00000000000E+00 -0.71424002438E+03  0.71424002440E+03  0.50400001928E-02 0.  1.
    10030    2    1    2    0    0  0.00000000000E+00  0.00000000000E+00  0.55934758375E+02  0.14844148072E+04  0.14833605841E+04 0.  0.
        3    1    3    3  502    0  0.48130860626E+03 -0.53653212419E+03 -0.14698521753E+03  0.73561495303E+03  0.10100000352E+00 0.  1.
       -3    1    3    3    0  502 -0.48130860626E+03  0.53653212419E+03  0.20291997590E+03  0.74879985414E+03  0.10100000352E+00 0. -1.
</event>
<event>
 5   0  0.2993993E-03  0.1311612E+04  0.7818609E-02  0.9020407E-01
        2   -1    0    0  501    0  0.00000000000E+00  0.00000000000E+00  0.65900096236E+03  0.65900096236E+03  0.25500000920E-02 0.  1.
       -2   -1    0    0    0  501  0.00000000000E+00  0.00000000000E+00 -0.65262638916E+03  0.65262638917E+03  0.25500000920E-02 0. -1.
    10030    2    1    2    0    0  0.00000000000E+00  0.00000000000E+00  0.63745731947E+01  0.13116273515E+04  0.13116118611E+04 0.  0.
        3    1    3    3  502    0  0.55054152976E+03  0.21839076564E+03 -0.27840244817E+03  0.65444513586E+03  0.10100000352E+00 0. -1.
       -3    1    3    3    0  502 -0.55054152976E+03 -0.21839076564E+03  0.28477702136E+03  0.65718221567E+03  0.10100000352E+00 0.  1.
</event>
<event>
 5   0  0.1104538E-03  0.1394294E+04  0.7818609E-02  0.8957959E-01
       -3   -1    0    0    0  501  0.00000000000E+00  0.00000000000E+00  0.40037898424E+03  0.40037899698E+03  0.10100000352E+00 0.  1.
        3   -1    0    0  501    0  0.00000000000E+00  0.00000000000E+00 -0.12138848327E+04  0.12138848369E+04  0.10100000352E+00 0. -1.
    10030    2    1    2    0    0  0.00000000000E+00  0.00000000000E+00 -0.81350584851E+03  0.16142638339E+04  0.13942940723E+04 0.  0.
        3    1    3    3  502    0  0.71092334742E+02  0.69329188838E+03 -0.42701271492E+03  0.81734180821E+03  0.10100000352E+00 0. -1.
       -3    1    3    3    0  502 -0.71092334742E+02 -0.69329188838E+03 -0.38649313358E+03  0.79692202571E+03  0.10100000352E+00 0.  1.
</event>
<event>
 5   0  0.2760807E-03  0.1412481E+04  0.7818609E-02  0.8944833E-01
        2   -1    0    0  501    0  0.00000000000E+00  0.00000000000E+00  0.87307706985E+03  0.87307706985E+03  0.25500000920E-02 0. -1.
       -2   -1    0    0    0  501  0.00000000000E+00  0.00000000000E+00 -0.57128513687E+03  0.57128513688E+03  0.25500000920E-02 0.  1.
    10030    2    1    2    0    0  0.00000000000E+00  0.00000000000E+00  0.30179193298E+03  0.14443622067E+04  0.14124814383E+04 0.  0.
        4    1    3    3  502    0 -0.11244670516E+03  0.67942406910E+03 -0.92041754747E+01  0.68872901559E+03  0.12699999809E+01 0.  1.
       -4    1    3    3    0  502  0.11244670516E+03 -0.67942406910E+03  0.31099610845E+03  0.75563319114E+03  0.12699999809E+01 0. -1.
</event>
<event>
 5   0  0.2760807E-03  0.1401880E+04  0.7818609E-02  0.8952459E-01
       -2   -1    0    0    0  501  0.00000000000E+00  0.00000000000E+00  0.29893752256E+03  0.29893752257E+03  0.25500000920E-02 0.  1.
        2   -1    0    0  501    0  0.00000000000E+00  0.00000000000E+00 -0.16435430199E+04  0.16435430199E+04  0.25500000920E-02 0. -1.
    10030    2    1    2    0    0  0.00000000000E+00  0.00000000000E+00 -0.13446054973E+04  0.19424805425E+04  0.14018797075E+04 0.  0.
        4    1    3    3  502    0  0.34142419090E+03 -0.48684996188E+03 -0.15808493346E+03  0.61529328178E+03  0.12699999809E+01 0.  1.
       -4    1    3    3    0  502 -0.34142419090E+03  0.48684996188E+03 -0.11865205639E+04  0.13271872607E+04  0.12699999809E+01 0. -1.
</event>
<event>
 5   0  0.1700207E-03  0.1373379E+04  0.7818609E-02  0.8973317E-01
       -1   -1    0    0    0  501  0.00000000000E+00  0.00000000000E+00  0.28068602606E+03  0.28068602610E+03  0.50400001928E-02 0. -1.
        1   -1    0    0  501    0  0.00000000000E+00  0.00000000000E+00 -0.16799646516E+04  0.16799646516E+04  0.50400001928E-02 0.  1.
    10030    2    1    2    0    0  0.00000000000E+00  0.00000000000E+00 -0.13992786256E+04  0.19606506777E+04  0.13733791931E+04 0.  0.
        2    1    3    3  502    0  0.24990549630E+03 -0.13054459054E+03  0.19424096784E+03  0.34238019918E+03  0.25500000920E-02 0. -1.
       -2    1    3    3    0  502 -0.24990549630E+03  0.13054459054E+03 -0.15935195934E+04  0.16182704786E+04  0.25500000920E-02 0.  1.
</event>
<event>
 5   0  0.3006737E-03  0.8855935E+03  0.7818609E-02  0.9443772E-01
       -2   -1    0    0    0  501  0.00000000000E+00  0.00000000000E+00  0.12060516380E+04  0.12060516380E+04  0.25500000920E-02 0. -1.
        2   -1    0    0  501    0  0.00000000000E+00  0.00000000000E+00 -0.16257095826E+03  0.16257095828E+03  0.25500000920E-02 0.  1.
    10030    2    1    2    0    0  0.00000000000E+00  0.00000000000E+00  0.10434806798E+04  0.13686225963E+04  0.88559351967E+03 0.  0.
        1    1    3    3  502    0  0.32362728010E+03  0.68676359892E+01  0.54807741601E+02  0.32830727895E+03  0.50400001928E-02 0.  1.
       -1    1    3    3    0  502 -0.32362728010E+03 -0.68676359892E+01  0.98867293815E+03  0.10403153173E+04  0.50400001928E-02 0. -1.
</event>
<event>
 5   0  0.1586022E-03  0.1387459E+04  0.7818609E-02  0.8962946E-01
       -1   -1    0    0    0  501  0.00000000000E+00  0.00000000000E+00  0.69417368037E+03  0.69417368038E+03  0.50400001928E-02 0.  1.
        1   -1    0    0  501    0  0.00000000000E+00  0.00000000000E+00 -0.69328603294E+03  0.69328603296E+03  0.50400001928E-02 0. -1.
    10030    2    1    2    0    0  0.00000000000E+00  0.00000000000E+00  0.88764742256E+00  0.13874597133E+04  0.13874594294E+04 0.  0.
        1    1    3    3  502    0  0.11285109292E+03 -0.57096913080E+03 -0.37707419953E+03  0.69348833406E+03  0.50400001928E-02 0. -1.
       -1    1    3    3    0  502 -0.11285109292E+03  0.57096913080E+03  0.37796184695E+03  0.69397137929E+03  0.50400001928E-02 0.  1.
</event>
<event>
 5   0  0.1560957E-03  0.1339314E+04  0.7818609E-02  0.8998957E-01
        1   -1    0    0  501    0  0.00000000000E+00  0.00000000000E+00  0.57824562852E+03  0.57824562854E+03  0.50400001928E-02 0.  1.
       -1   -1    0    0    0  501  0.00000000000E+00  0.00000000000E+00 -0.77551862524E+03  0.77551862525E+03  0.50400001928E-02 0. -1.
    10030    2    1    2    0    0  0.00000000000E+00  0.00000000000E+00 -0.19727299672E+03  0.13537642538E+04  0.13393136375E+04 0.  0.
        5    1    3    3  502    0  0.27077594145E+03  0.48787736386E+03  0.27559355572E+03  0.62234864071E+03  0.46999998093E+01 0. -1.
       -5    1    3    3    0  502 -0.27077594145E+03 -0.48787736386E+03 -0.47286655244E+03  0.73141561308E+03  0.46999998093E+01 0.  1.
</event>
<event>
 5   0  0.3006737E-03  0.1627157E+04  0.7818609E-02  0.8804036E-01
        2   -1    0    0  501    0  0.00000000000E+00  0.00000000000E+00  0.10890980562E+04  0.10890980562E+04  0.25500000920E-02 0. -1.
       -2   -1    0    0    0  501  0.00000000000E+00  0.00000000000E+00 -0.60775976565E+03  0.60775976566E+03  0.25500000920E-02 0.  1.
    10030    2    1    2    0    0  0.00000000000E+00  0.00000000000E+00  0.48133829055E+03  0.16968578219E+04  0.16271570046E+04 0.  0.
        1    1    3    3  502    0 -0.19038414332E+02 -0.21764400420E+03  0.10579349664E+04  0.10802581946E+04  0.50400001928E-02 0. -1.
       -1    1    3    3    0  502  0.19038414332E+02  0.21764400420E+03 -0.57659667583E+03  0.61659962730E+03  0.50400001928E-02 0.  1.
</event>
<event>
 5   0  0.1560957E-03  0.1404093E+04  0.7818609E-02  0.8950861E-01
        1   -1    0    0  501    0  0.00000000000E+00  0.00000000000E+00  0.14079475449E+04  0.14079475449E+04  0.50400001928E-02 0.  1.
       -1   -1    0    0    0  501  0.00000000000E+00  0.00000000000E+00 -0.35006224923E+03  0.35006224927E+03  0.50400001928E-02 0. -1.
    10030    2    1    2    0    0  0.00000000000E+00  0.00000000000E+00  0.10578852957E+04  0.17580097942E+04  0.14040929947E+04 0.  0.
        5    1    3    3  502    0  0.48121361487E+03  0.34047494288E+03  0.51584777565E+02  0.59175401066E+03  0.46999998093E+01 0. -1.
       -5    1    3    3    0  502 -0.48121361487E+03 -0.34047494288E+03  0.10063005181E+04  0.11662557836E+04  0.46999998093E+01 0.  1.
</event>
<event>
 5   0  0.1631380E-03  0.7186466E+03  0.7818609E-02  0.9685865E-01
        1   -1    0    0  501    0  0.00000000000E+00  0.00000000000E+00  0.68549002079E+03  0.68549002081E+03  0.50400001928E-02 0.  1.
       -1   -1    0    0    0  501  0.00000000000E+00  0.00000000000E+00 -0.18835173239E+03  0.18835173246E+03  0.50400001928E-02 0. -1.
    10030    2    1    2    0    0  0.00000000000E+00  0.00000000000E+00  0.49713828840E+03  0.87384175327E+03  0.71864659740E+03 0.  0.
        3    1    3    3  502    0  0.39468064368E+02  0.12596875640E+03 -0.15779880281E+03  0.20573363377E+03  0.10100000352E+00 0. -1.
       -3    1    3    3    0  502 -0.39468064368E+02 -0.12596875640E+03  0.65493709121E+03  0.66810811950E+03  0.10100000352E+00 0.  1.
</event>
<event>
 5   0  0.1644571E-03  0.1417372E+04  0.7818609E-02  0.8941339E-01
        1   -1    0    0  501    0  0.00000000000E+00  0.00000000000E+00  0.31405688846E+03  0.31405688850E+03  0.50400001928E-02 0.  1.
       -1   -1    0    0    0  501  0.00000000000E+00  0.00000000000E+00 -0.15991873549E+04  0.15991873549E+04  0.50400001928E-02 0. -1.
    10030    2    1    2    0    0  0.00000000000E+00  0.00000000000E+00 -0.12851304665E+04  0.19132442435E+04  0.14173719410E+04 0.  0.
        4    1    3    3  502    0 -0.26032387968E+03  0.88001528875E+02 -0.15243422931E+04  0.15489137584E+04  0.12699999809E+01 0. -1.
       -4    1    3    3    0  502  0.26032387968E+03 -0.88001528875E+02  0.23921182667E+03  0.36433048504E+03  0.12699999809E+01 0.  1.
</event>
<event>
 5   0  0.2889469E-03  0.1261563E+04  0.7818609E-02  0.9060614E-01
        2   -1    0    0  501    0  0.00000000000E+00  0.00000000000E+00  0.78290584904E+03  0.78290584904E+03  0.25500000920E-02 0.  1.
       -2   -1    0    0    0  501  0.00000000000E+00  0.00000000000E+00 -0.50821576840E+03  0.50821576841E+03  0.25500000920E-02 0. -1.
    10030    2    1    2    0    0  0.00000000000E+00  0.00000000000E+00  0.27469008064E+03  0.12911216174E+04  0.12615626780E+04 0.  0.
        5    1    3    3  502    0  0.30288273637E+03 -0.52668646955E+03 -0.36114847665E+02  0.60865668600E+03  0.46999998093E+01 0. -1.
       -5    1    3    3    0  502 -0.30288273637E+03  0.52668646955E+03  0.31080492830E+03  0.68246493144E+03  0.46999998093E+01 0.  1.
</event>
<event>
 5   0  0.3006737E-03  0.1396390E+04  0.7818609E-02  0.8956436E-01
        2   -1    0    0  501    0  0.00000000000E+00  0.00000000000E+00  0.12512161726E+04  0.12512161726E+04  0.25500000920E-02 0. -1.
       -2   -1    0    0    0  501  0.00000000000E+00  0.00000000000E+00 -0.38960205985E+03  0.38960205986E+03  0.25500000920E-02 0.  1.
    10030    2    1    2    0    0  0.00000000000E+00  0.00000000000E+00  0.86161411277E+03  0.16408182325E+04  0.13963902007E+04 0.  0.
        1    1    3    3  502    0 -0.49259315176E+03 -0.15892458079E+03  0.98141380391E+03  0.11095395847E+04  0.50400001928E-02 0. -1.
       -1    1    3    3    0  502  0.49259315176E+03  0.15892458079E+03 -0.11979969114E+03  0.53127864776E+03  0.50400001928E-02 0.  1.
</event>
<event>
 5   0  0.1700207E-03  0.1401982E+04  0.7818609E-02  0.8952385E-01
       -1   -1    0    0    0  501  0.00000000000E+00  0.00000000000E+00  0.34286156123E+03  0.34286156127E+03  0.50400001928E-02 0. -1.
        1   -1    0    0  501    0  0.00000000000E+00  0.00000000000E+00 -0.14331983751E+04  0.14331983751E+04  0.50400001928E-02 0.  1.
    10030    2    1    2    0    0  0.00000000000E+00  0.00000000000E+00 -0.10903368138E+04  0.17760599363E+04  0.14019823572E+04 0.  0.
        2    1    3    3  502    0 -0.22501012090E+03 -0.63239604443E+03 -0.80116119964E+03  0.10451859066E+04  0.25500000920E-02 0.  1.
       -2    1    3    3    0  502  0.22501012090E+03  0.63239604443E+03 -0.28917561420E+03  0.73087402976E+03  0.25500000920E-02 0. -1.
</event>
<event>
 5   0  0.1560957E-03  0.1418696E+04  0.7818609E-02  0.8940396E-01
       -1   -1    0    0    0  501  0.00000000000E+00  0.00000000000E+00  0.69437464438E+03  0.69437464440E+03  0.50400001928E-02 0. -1.
        1   -1    0    0  501    0  0.00000000000E+00  0.00000000000E+00 -0.72464412288E+03  0.72464412290E+03  0.50400001928E-02 0.  1.
    10030    2    1    2    0    0  0.00000000000E+00  0.00000000000E+00 -0.30269478498E+02  0.14190187673E+04  0.14186958873E+04 0.  0.
        5    1    3    3  502    0 -0.16722270174E+03  0.30528849769E+03  0.60305763280E+03  0.69632255262E+03  0.46999998093E+01 0. -1.
       -5    1    3    3    0  502  0.16722270174E+03 -0.30528849769E+03 -0.63332711130E+03  0.72269621468E+03  0.46999998093E+01 0.  1.
</event>
<event>
 5   0  0.2993993E-03  0.1422613E+04  0.7818609E-02  0.8937611E-01
       -2   -1    0    0    0  501  0.00000000000E+00  0.00000000000E+00  0.38665635475E+03  0.38665635476E+03  0.25500000920E-02 0. -1.
        2   -1    0    0  501    0  0.00000000000E+00  0.00000000000E+00 -0.13085442963E+04  0.13085442963E+04  0.25500000920E-02 0.  1.
    10030    2    1    2    0    0  0.00000000000E+00  0.00000000000E+00 -0.92188794158E+03  0.16952006511E+04  0.14226130432E+04 0.  0.
        3    1    3    3  502    0  0.38889925273E+03 -0.19361335489E+03  0.21020698975E+03  0.48261345682E+03  0.10100000352E+00 0. -1.
       -3    1    3    3    0  502 -0.38889925273E+03  0.19361335489E+03 -0.11320949313E+04  0.12125871943E+04  0.10100000352E+00 0.  1.
</event>
<event>
 5   0  0.3006737E-03  0.1871971E+04  0.7818609E-02  0.8668936E-01
       -2   -1    0    0    0  501  0.00000000000E+00  0.00000000000E+00  0.44600949799E+03  0.44600949799E+03  0.25500000920E-02 0.  1.
        2   -1    0    0  501    0  0.00000000000E+00  0.00000000000E+00 -0.19642374441E+04  0.19642374441E+04  0.25500000920E-02 0. -1.
    10030    2    1    2    0    0  0.00000000000E+00  0.00000000000E+00 -0.15182279461E+04  0.24102469421E+04  0.18719706797E+04 0.  0.
        1    1    3    3  502    0  0.69319334505E+03  0.59138729622E+03 -0.48352933236E+03  0.10315311740E+04  0.50400001928E-02 0.  1.
       -1    1    3    3    0  502 -0.69319334505E+03 -0.59138729622E+03 -0.10346986138E+04  0.13787157681E+04  0.50400001928E-02 0. -1.
</event>
<event>
 5   0  0.1560957E-03  0.1282831E+04  0.7818609E-02  0.9043292E-01
       -1   -1    0    0    0  501  0.00000000000E+00  0.00000000000E+00  0.80908947533E+03  0.80908947535E+03  0.50400001928E-02 0. -1.
        1   -1    0    0  501    0  0.00000000000E+00  0.00000000000E+00 -0.50848991544E+03  0.50848991547E+03  0.50400001928E-02 0.  1.
    10030    2    1    2    0    0  0.00000000000E+00  0.00000000000E+00  0.30059955989E+03  0.13175793908E+04  0.12828309926E+04 0.  0.
        5    1    3    3  502    0 -0.44058453672E+03 -0.45471985104E+03  0.25557934211E+03  0.68280873386E+03  0.46999998093E+01 0. -1.
       -5    1    3    3    0  502  0.44058453672E+03  0.45471985104E+03  0.45020217780E+02  0.63477065696E+03  0.46999998093E+01 0.  1.
</event>
<event>
 5   0  0.1700207E-03  0.1365936E+04  0.7818609E-02  0.8978852E-01
       -1   -1    0    0    0  501  0.00000000000E+00  0.00000000000E+00  0.72206122847E+03  0.72206122848E+03  0.50400001928E-02 0.  1.
        1   -1    0    0  501    0  0.00000000000E+00  0.00000000000E+00 -0.64599102364E+03  0.64599102365E+03  0.50400001928E-02 0. -1.
    10030    2    1    2    0    0  0.00000000000E+00  0.00000000000E+00  0.76070204831E+02  0.13680522521E+04  0.13659356824E+04 0.  0.
        2    1    3    3  502    0  0.62164753391E+03  0.43947741616E+02  0.31787458840E+03  0.69958653101E+03  0.25500000920E-02 0. -1.
       -2    1    3    3    0  502 -0.62164753391E+03 -0.43947741616E+02 -0.24180438357E+03  0.66846572113E+03  0.25500000920E-02 0.  1.
</event>
<event>
 5   0  0.1560957E-03  0.1452629E+04  0.7818609E-02  0.8916580E-01
        1   -1    0    0  501    0  0.00000000000E+00  0.00000000000E+00  0.68372695173E+03  0.68372695174E+03  0.50400001928E-02 0. -1.
       -1   -1    0    0    0  501  0.00000000000E+00  0.00000000000E+00 -0.77155494100E+03  0.77155494102E+03  0.50400001928E-02 0.  1.
    10030    2    1    2    0    0  0.00000000000E+00  0.00000000000E+00 -0.87827989276E+02  0.14552818928E+04  0.14526292134E+04 0.  0.
        5    1    3    3  502    0  0.41634791935E+02 -0.19362974739E+03  0.65613589471E+03  0.68539210478E+03  0.46999998093E+01 0. -1.
       -5    1    3    3    0  502 -0.41634791935E+02  0.19362974739E+03 -0.74396388398E+03  0.76988978798E+03  0.46999998093E+01 0.  1.
</event>
<event>
 5   0  0.1700207E-03  0.1400253E+04  0.7818609E-02  0.8953636E-01
       -1   -1    0    0    0  501  0.00000000000E+00  0.00000000000E+00  0.75193645607E+03  0.75193645608E+03  0.50400001928E-02 0.  1.
        1   -1    0    0  501    0  0.00000000000E+00  0.00000000000E+00 -0.65188595314E+03  0.65188595316E+03  0.50400001928E-02 0. -1.
    10030    2    1    2    0    0  0.00000000000E+00  0.00000000000E+00  0.10005050292E+03  0.14038224092E+04  0.14002525678E+04 0.  0.
        2    1    3    3  502    0 -0.89277235022E+02  0.33968256325E+01 -0.64614759009E+03  0.65229492662E+03  0.25500000920E-02 0. -1.
       -2    1    3    3    0  502  0.89277235022E+02 -0.33968256325E+01  0.74619809301E+03  0.75152748262E+03  0.25500000920E-02 0.  1.
</event>
<event>
 5   0  0.1560957E-03  0.1313152E+04  0.7818609E-02  0.9019200E-01
        1   -1    0    0  501    0  0.00000000000E+00  0.00000000000E+00  0.14740263184E+04  0.14740263184E+04  0.50400001928E-02 0. -1.
       -1   -1    0    0    0  501  0.00000000000E+00  0.00000000000E+00 -0.29245876831E+03  0.29245876835E+03  0.50400001928E-02 0.  1.
    10030    2    1    2    0    0  0.00000000000E+00  0.00000000000E+00  0.11815675501E+04  0.17664850868E+04  0.13131518139E+04 0.  0.
        5    1    3    3  502    0  0.30777148966E+03  0.44388130966E+03  0.88677766674E+02  0.54739359077E+03  0.46999998093E+01 0.  1.
       -5    1    3    3    0  502 -0.30777148966E+03 -0.44388130966E+03  0.10928897834E+04  0.12190914960E+04  0.46999998093E+01 0. -1.
</event>
<event>
 5   0  0.1104538E-03  0.1311078E+04  0.7818609E-02  0.9020826E-01
       -4   -1    0    0    0  501  0.00000000000E+00  0.00000000000E+00  0.54336127722E+03  0.54336276141E+03  0.12699999809E+01 0.  1.
        4   -1    0    0  501    0  0.00000000000E+00  0.00000000000E+00 -0.79087291713E+03  0.79087393683E+03  0.12699999809E+01 0. -1.
    10030    2    1    2    0    0  0.00000000000E+00  0.00000000000E+00 -0.24751163991E+03  0.13342366982E+04  0.13110780126E+04 0.  0.
        5    1    3    3  502    0 -0.57802457134E+03  0.16130617924E+03  0.14467838422E+03  0.61732164500E+03  0.46999998093E+01 0.  1.
       -5    1    3    3    0  502  0.57802457134E+03 -0.16130617924E+03 -0.39219002412E+03  0.71691505323E+03  0.46999998093E+01 0. -1.
</event>
<event>
 5   0  0.2993993E-03  0.1369913E+04  0.7818609E-02  0.8975890E-01
        2   -1    0    0  501    0  0.00000000000E+00  0.00000000000E+00  0.14063239089E+04  0.14063239089E+04  0.25500000920E-02 0.  1.
       -2   -1    0    0    0  501  0.00000000000E+00  0.00000000000E+00 -0.33361109631E+03  0.33361109632E+03  0.25500000920E-02 0. -1.
    10030    2    1    2    0    0  0.00000000000E+00  0.00000000000E+00  0.10727128126E+04  0.17399350052E+04  0.13699127870E+04 0.  0.
        3    1    3    3  502    0 -0.51757168736E+03 -0.43927915782E+03  0.42051448039E+03  0.79854810029E+03  0.10100000352E+00 0.  1.
       -3    1    3    3    0  502  0.51757168736E+03  0.43927915782E+03  0.65219833216E+03  0.94138690491E+03  0.10100000352E+00 0. -1.
</event>
<event>
 5   0  0.2917809E-03  0.1362532E+04  0.7818609E-02  0.8981395E-01
        2   -1    0    0  501    0  0.00000000000E+00  0.00000000000E+00  0.65281793074E+03  0.65281793074E+03  0.25500000920E-02 0. -1.
       -2   -1    0    0    0  501  0.00000000000E+00  0.00000000000E+00 -0.71095425769E+03  0.71095425769E+03  0.25500000920E-02 0.  1.
    10030    2    1    2    0    0  0.00000000000E+00  0.00000000000E+00 -0.58136326950E+02  0.13637721884E+04  0.13625324765E+04 0.  0.
        2    1    3    3  502    0 -0.30811321521E+03 -0.13214691245E+02 -0.63708717216E+03  0.70780537324E+03  0.25500000920E-02 0.  1.
       -2    1    3    3    0  502  0.30811321521E+03  0.13214691245E+02  0.57895084521E+03  0.65596681519E+03  0.25500000920E-02 0. -1.
</event>
<event>
 5   0  0.3006737E-03  0.1397156E+04  0.7818609E-02  0.8955880E-01
       -2   -1    0    0    0  501  0.00000000000E+00  0.00000000000E+00  0.84251619921E+03  0.84251619922E+03  0.25500000920E-02 0.  1.
        2   -1    0    0  501    0  0.00000000000E+00  0.00000000000E+00 -0.57923046895E+03  0.57923046895E+03  0.25500000920E-02 0. -1.
    10030    2    1    2    0    0  0.00000000000E+00  0.00000000000E+00  0.26328573027E+03  0.14217466682E+04  0.13971557582E+04 0.  0.
        1    1    3    3  502    0 -0.48222336524E+03  0.29801618416E+03  0.54706584843E+03  0.78780331463E+03  0.50400001928E-02 0.  1.
       -1    1    3    3    0  502  0.48222336524E+03 -0.29801618416E+03 -0.28378011816E+03  0.63394335354E+03  0.50400001928E-02 0. -1.
</event>
<event>
 5   0  0.1700207E-03  0.1406288E+04  0.7818609E-02  0.8949280E-01
        1   -1    0    0  501    0  0.00000000000E+00  0.00000000000E+00  0.95643599374E+03  0.95643599375E+03  0.50400001928E-02 0.  1.
       -1   -1    0    0    0  501  0.00000000000E+00  0.00000000000E+00 -0.51693085353E+03  0.51693085355E+03  0.50400001928E-02 0. -1.
    10030    2    1    2    0    0  0.00000000000E+00  0.00000000000E+00  0.43950514021E+03  0.14733668473E+04  0.14062877012E+04 0.  0.
        2    1    3    3  502    0  0.36181517543E+03 -0.34468352315E+03  0.73801372805E+03  0.89128066012E+03  0.25500000920E-02 0.  1.
       -2    1    3    3    0  502 -0.36181517543E+03  0.34468352315E+03 -0.29850858784E+03  0.58208618719E+03  0.25500000920E-02 0. -1.
</event>
<event>
 5   0  0.2760807E-03  0.1395939E+04  0.7818609E-02  0.8956763E-01
        2   -1    0    0  501    0  0.00000000000E+00  0.00000000000E+00  0.67835607579E+03  0.67835607580E+03  0.25500000920E-02 0.  1.
       -2   -1    0    0    0  501  0.00000000000E+00  0.00000000000E+00 -0.71815020090E+03  0.71815020091E+03  0.25500000920E-02 0. -1.
    10030    2    1    2    0    0  0.00000000000E+00  0.00000000000E+00 -0.39794125109E+02  0.13965062767E+04  0.13959391851E+04 0.  0.
        4    1    3    3  502    0 -0.99164772665E+02  0.83343776188E+02 -0.70601830378E+03  0.71780449660E+03  0.12699999809E+01 0. -1.
       -4    1    3    3    0  502  0.99164772665E+02 -0.83343776188E+02  0.66622417867E+03  0.67870178010E+03  0.12699999809E+01 0.  1.
</event>
<event>
 5   0  0.1586022E-03  0.9324989E+03  0.7818609E-02  0.9385844E-01
        1   -1    0    0  501    0  0.00000000000E+00  0.00000000000E+00  0.41261119443E+03  0.41261119447E+03  0.50400001928E-02 0.  1.
       -1   -1    0    0    0  501  0.00000000000E+00  0.00000000000E+00 -0.52686046880E+03  0.52686046883E+03  0.50400001928E-02 0. -1.
    10030    2    1    2    0    0  0.00000000000E+00  0.00000000000E+00 -0.11424927437E+03  0.93947166329E+03  0.93249885224E+03 0.  0.
        1    1    3    3  502    0  0.22934737473E+03  0.21644732036E+03 -0.40311488210E+03  0.51181175151E+03  0.50400001928E-02 0. -1.
       -1    1    3    3    0  502 -0.22934737473E+03 -0.21644732036E+03  0.28886560774E+03  0.42765991178E+03  0.50400001928E-02 0.  1.
</event>
<event>
 5   0  0.1644571E-03  0.1258775E+04  0.7818609E-02  0.9062911E-01
       -1   -1    0    0    0  501  0.00000000000E+00  0.00000000000E+00  0.29846012248E+03  0.29846012252E+03  0.50400001928E-02 0.  1.
        1   -1    0    0  501    0  0.00000000000E+00  0.00000000000E+00 -0.13272409587E+04  0.13272409587E+04  0.50400001928E-02 0. -1.
    10030    2    1    2    0    0  0.00000000000E+00  0.00000000000E+00 -0.10287808362E+04  0.16257010813E+04  0.12587747998E+04 0.  0.
        4    1    3    3  502    0  0.39468566031E+03 -0.48375102405E+03 -0.61718449889E+03  0.87790098661E+03  0.12699999809E+01 0. -1.
       -4    1    3    3    0  502 -0.39468566031E+03  0.48375102405E+03 -0.41159633736E+03  0.74780009464E+03  0.12699999809E+01 0.  1.
</event>
<event>
 5   0  0.2993993E-03  0.1411197E+04  0.7818609E-02  0.8945753E-01
        2   -1    0    0  501    0  0.00000000000E+00  0.00000000000E+00  0.18459422846E+03  0.18459422848E+03  0.25500000920E-02 0.  1.
       -2   -1    0    0    0  501  0.00000000000E+00  0.00000000000E+00 -0.26970997113E+04  0.26970997113E+04  0.25500000920E-02 0. -1.
    10030    2    1    2    0    0  0.00000000000E+00  0.00000000000E+00 -0.25125054828E+04  0.28816939397E+04  0.14111967124E+04 0.  0.
        3    1    3    3  502    0 -0.33397734470E+03  0.43169021896E+03 -0.21694079196E+04  0.22370131970E+04  0.10100000352E+00 0. -1.
       -3    1    3    3    0  502  0.33397734470E+03 -0.43169021896E+03 -0.34309756319E+03  0.64468074269E+03  0.10100000352E+00 0.  1.
</event>
<event>
 5   0  0.1560957E-03  0.1290742E+04  0.7818609E-02  0.9036939E-01
        1   -1    0    0  501    0  0.00000000000E+00  0.00000000000E+00  0.65913026864E+03  0.65913026866E+03  0.50400001928E-02 0. -1.
       -1   -1    0    0    0  501  0.00000000000E+00  0.00000000000E+00 -0.63189862764E+03  0.63189862766E+03  0.50400001928E-02 0.  1.
    10030    2    1    2    0    0  0.00000000000E+00  0.00000000000E+00  0.27231640996E+02  0.12910288963E+04  0.12907416662E+04 0.  0.
        5    1    3    3  502    0  0.11447667151E+03  0.40879820959E+03 -0.47255873668E+03  0.63525958009E+03  0.46999998093E+01 0.  1.
       -5    1    3    3    0  502 -0.11447667151E+03 -0.40879820959E+03  0.49979037768E+03  0.65576931622E+03  0.46999998093E+01 0. -1.
</event>
<event>
 5   0  0.2993993E-03  0.9156990E+03  0.7818609E-02  0.9406167E-01
        2   -1    0    0  501    0  0.00000000000E+00  0.00000000000E+00  0.80360265200E+03  0.80360265201E+03  0.25500000920E-02 0. -1.
       -2   -1    0    0    0  501  0.00000000000E+00  0.00000000000E+00 -0.26085797632E+03  0.26085797633E+03  0.25500000920E-02 0.  1.
    10030    2    1    2    0    0  0.00000000000E+00  0.00000000000E+00  0.54274467568E+03  0.10644606283E+04  0.91569899328E+03 0.  0.
        3    1    3    3  502    0 -0.43808435879E+03  0.13115089681E+03  0.29756474477E+03  0.54558523687E+03  0.10100000352E+00 0.  1.
       -3    1    3    3    0  502  0.43808435879E+03 -0.13115089681E+03  0.24517993091E+03  0.51887539147E+03  0.10100000352E+00 0. -1.
</event>
<event>
 5   0  0.1644571E-03  0.1394019E+04  0.7818609E-02  0.8958159E-01
        1   -1    0    0  501    0  0.00000000000E+00  0.00000000000E+00  0.81019286201E+03  0.81019286203E+03  0.50400001928E-02 0. -1.
       -1   -1    0    0    0  501  0.00000000000E+00  0.00000000000E+00 -0.59963769101E+03  0.59963769103E+03  0.50400001928E-02 0.  1.
    10030    2    1    2    0    0  0.00000000000E+00  0.00000000000E+00  0.21055517101E+03  0.14098305531E+04  0.13940189053E+04 0.  0.
        4    1    3    3  502    0  0.44851932422E+03 -0.16404341278E+03  0.61871769100E+03  0.78159645568E+03  0.12699999809E+01 0. -1.
       -4    1    3    3    0  502 -0.44851932422E+03  0.16404341278E+03 -0.40816251999E+03  0.62823409738E+03  0.12699999809E+01 0.  1.
</event>
<event>
 5   0  0.1560957E-03  0.1391098E+04  0.7818609E-02  0.8960288E-01
       -1   -1    0    0    0  501  0.00000000000E+00  0.00000000000E+00  0.12962547372E+04  0.12962547372E+04  0.50400001928E-02 0. -1.
        1   -1    0    0  501    0  0.00000000000E+00  0.00000000000E+00 -0.37322010958E+03  0.37322010962E+03  0.50400001928E-02 0.  1.
    10030    2    1    2    0    0  0.00000000000E+00  0.00000000000E+00  0.92303462759E+03  0.16694748468E+04  0.13910978903E+04 0.  0.
        5    1    3    3  502    0 -0.55116042627E+03  0.96626005650E+02 -0.34249762088E+02  0.56063315694E+03  0.46999998093E+01 0. -1.
       -5    1    3    3    0  502  0.55116042627E+03 -0.96626005650E+02  0.95728438968E+03  0.11088416899E+04  0.46999998093E+01 0.  1.
</event>
<event>
 5   0  0.2889469E-03  0.1440728E+04  0.7818609E-02  0.8924854E-01
        2   -1    0    0  501    0  0.00000000000E+00  0.00000000000E+00  0.49819184765E+03  0.49819184766E+03  0.25500000920E-02 0.  1.
       -2   -1    0    0    0  501  0.00000000000E+00  0.00000000000E+00 -0.10416151310E+04  0.10416151310E+04  0.25500000920E-02 0. -1.
    10030    2    1    2    0    0  0.00000000000E+00  0.00000000000E+00 -0.54342328332E+03  0.15398069786E+04  0.14407278253E+04 0.  0.
        5    1    3    3  502    0  0.95142277806E+02 -0.28037861495E+03  0.43013589293E+03  0.52220991673E+03  0.46999998093E+01 0.  1.
       -5    1    3    3    0  502 -0.95142277806E+02  0.28037861495E+03 -0.97355917624E+03  0.10175970619E+04  0.46999998093E+01 0. -1.
</event>
<event>
 5   0  0.1586022E-03  0.1368019E+04  0.7818609E-02  0.8977299E-01
       -1   -1    0    0    0  501  0.00000000000E+00  0.00000000000E+00  0.67117317683E+03  0.67117317685E+03  0.50400001928E-02 0.  1.
        1   -1    0    0  501    0  0.00000000000E+00  0.00000000000E+00 -0.69709159235E+03  0.69709159237E+03  0.50400001928E-02 0. -1.
    10030    2    1    2    0    0  0.00000000000E+00  0.00000000000E+00 -0.25918415515E+02  0.13682647692E+04  0.13680192668E+04 0.  0.
        1    1    3    3  502    0  0.34953400801E+03  0.58772208800E+03 -0.29632625420E+02  0.68444822156E+03  0.50400001928E-02 0.  1.
       -1    1    3    3    0  502 -0.34953400801E+03 -0.58772208800E+03  0.37142099050E+01  0.68381654766E+03  0.50400001928E-02 0. -1.
</event>
<event>
 5   0  0.2889469E-03  0.1403180E+04  0.7818609E-02  0.8951520E-01
        2   -1    0    0  501    0  0.00000000000E+00  0.00000000000E+00  0.20230838419E+04  0.20230838419E+04  0.25500000920E-02 0.  1.
       -2   -1    0    0    0  501  0.00000000000E+00  0.00000000000E+00 -0.24330604754E+03  0.24330604756E+03  0.25500000920E-02 0. -1.
    10030    2    1    2    0    0  0.00000000000E+00  0.00000000000E+00  0.17797777943E+04  0.22663898894E+04  0.14031800076E+04 0.  0.
        5    1    3    3  502    0  0.31937841582E+03 -0.18737838645E+03  0.18523704634E+04  0.18890239956E+04  0.46999998093E+01 0.  1.
       -5    1    3    3    0  502 -0.31937841582E+03  0.18737838645E+03 -0.72592669121E+02  0.37736589380E+03  0.46999998093E+01 0. -1.
</event>
<event>
 5   0  0.1700207E-03  0.1367624E+04  0.7818609E-02  0.8977593E-01
        1   -1    0    0  501    0  0.00000000000E+00  0.00000000000E+00  0.61154023438E+03  0.61154023440E+03  0.50400001928E-02 0. -1.
       -1   -1    0    0    0  501  0.00000000000E+00  0.00000000000E+00 -0.76462523242E+03  0.76462523244E+03  0.50400001928E-02 0.  1.
    10030    2    1    2    0    0  0.00000000000E+00  0.00000000000E+00 -0.15308499805E+03  0.13761654668E+04  0.13676243547E+04 0.  0.
        2    1    3    3  502    0  0.29770617954E+01  0.38543295457E+03 -0.64489886277E+03  0.75130684050E+03  0.25500000920E-02 0.  1.
       -2    1    3    3    0  502 -0.29770617954E+01 -0.38543295457E+03  0.49181386473E+03  0.62485862634E+03  0.25500000920E-02 0. -1.
</event>
<event>
 5   0  0.1631380E-03  0.1380180E+04  0.7818609E-02  0.8968291E-01
       -1   -1    0    0    0  501  0.00000000000E+00  0.00000000000E+00  0.24403735330E+03  0.24403735336E+03  0.50400001928E-02 0. -1.
        1   -1    0    0  501    0  0.00000000000E+00  0.00000000000E+00 -0.19514401717E+04  0.19514401717E+04  0.50400001928E-02 0.  1.
    10030    2    1    2    0    0  0.00000000000E+00  0.00000000000E+00 -0.17074028184E+04  0.21954775250E+04  0.13801801255E+04 0.  0.
        3    1    3    3  502    0 -0.11930298513E+03 -0.36669106194E+03 -0.17640714107E+04  0.18057251976E+04  0.10100000352E+00 0.  1.
       -3    1    3    3    0  502  0.11930298513E+03  0.36669106194E+03  0.56668592308E+02  0.38975232741E+03  0.10100000352E+00 0. -1.
</event>
<event>
 5   0  0.1560957E-03  0.1390454E+04  0.7818609E-02  0.8960758E-01
        1   -1    0    0  501    0  0.00000000000E+00  0.00000000000E+00  0.22597765628E+04  0.22597765628E+04  0.50400001928E-02 0. -1.
       -1   -1    0    0    0  501  0.00000000000E+00  0.00000000000E+00 -0.21388861102E+03  0.21388861108E+03  0.50400001928E-02 0.  1.
    10030    2    1    2    0    0  0.00000000000E+00  0.00000000000E+00  0.20458879518E+04  0.24736651739E+04  0.13904538400E+04 0.  0.
        5    1    3    3  502    0  0.53206891082E+03 -0.16902324914E+03  0.28587349137E+03  0.62722557958E+03  0.46999998093E+01 0.  1.
       -5    1    3    3    0  502 -0.53206891082E+03  0.16902324914E+03  0.17600144604E+04  0.18464395943E+04  0.46999998093E+01 0. -1.
</event>
<event>
 5   0  0.2917809E-03  0.1238498E+04  0.7818609E-02  0.9079811E-01
        2   -1    0    0  501    0  0.00000000000E+00  0.00000000000E+00  0.37665285068E+03  0.37665285069E+03  0.25500000920E-02 0.  1.
       -2   -1    0    0    0  501  0.00000000000E+00  0.00000000000E+00 -0.10180980306E+04  0.10180980306E+04  0.25500000920E-02 0. -1.
    10030    2    1    2    0    0  0.00000000000E+00  0.00000000000E+00 -0.64144517995E+03  0.13947508813E+04  0.12384983254E+04 0.  0.
        2    1    3    3  502    0 -0.17495324634E+03 -0.44945060897E+03 -0.75812495702E+03  0.89853655395E+03  0.25500000920E-02 0. -1.
       -2    1    3    3    0  502  0.17495324634E+03  0.44945060897E+03  0.11667977707E+03  0.49621432738E+03  0.25500000920E-02 0.  1.
</event>
<event>
 5   0  0.3006737E-03  0.1380194E+04  0.7818609E-02  0.8968281E-01
        2   -1    0    0  501    0  0.00000000000E+00  0.00000000000E+00  0.46884928633E+03  0.46884928634E+03  0.25500000920E-02 0.  1.
       -2   -1    0    0    0  501  0.00000000000E+00  0.00000000000E+00 -0.10157502292E+04  0.10157502292E+04  0.25500000920E-02 0. -1.
    10030    2    1    2    0    0  0.00000000000E+00  0.00000000000E+00 -0.54690094288E+03  0.14845995155E+04  0.13801938560E+04 0.  0.
        1    1    3    3  502    0  0.50577767182E+03 -0.22172500919E+03  0.17169107379E+03  0.57831726401E+03  0.50400001928E-02 0.  1.
       -1    1    3    3    0  502 -0.50577767182E+03  0.22172500919E+03 -0.71859201667E+03  0.90628225154E+03  0.50400001928E-02 0. -1.
</event>
<event>
 5   0  0.1586022E-03  0.1405634E+04  0.7818609E-02  0.8949750E-01
       -1   -1    0    0    0  501  0.00000000000E+00  0.00000000000E+00  0.10872417371E+04  0.10872417371E+04  0.50400001928E-02 0.  1.
        1   -1    0    0  501    0  0.00000000000E+00  0.00000000000E+00 -0.45431646633E+03  0.45431646636E+03  0.50400001928E-02 0. -1.
    10030    2    1    2    0    0  0.00000000000E+00  0.00000000000E+00  0.63292527081E+03  0.15415582035E+04  0.14056341261E+04 0.  0.
        1    1    3    3  502    0 -0.11950166960E+03  0.49291633514E+03 -0.21710691780E+03  0.55170877850E+03  0.50400001928E-02 0. -1.
       -1    1    3    3    0  502  0.11950166960E+03 -0.49291633514E+03  0.85003218861E+03  0.98984942500E+03  0.50400001928E-02 0.  1.
</event>
<event>
 5   0  0.1631380E-03  0.1405289E+04  0.7818609E-02  0.8949999E-01
       -1   -1    0    0    0  501  0.00000000000E+00  0.00000000000E+00  0.37502926010E+03  0.37502926014E+03  0.50400001928E-02 0. -1.
        1   -1    0    0  501    0  0.00000000000E+00  0.00000000000E+00 -0.13164560040E+04  0.13164560040E+04  0.50400001928E-02 0.  1.
    10030    2    1    2    0    0  0.00000000000E+00  0.00000000000E+00 -0.94142674392E+03  0.16914852642E+04  0.14052893242E+04 0.  0.
        3    1    3    3  502    0 -0.24451188840E+03  0.60840860720E+03 -0.16677547970E+03  0.67658049611E+03  0.10100000352E+00 0. -1.
       -3    1    3    3    0  502  0.24451188840E+03 -0.60840860720E+03 -0.77465126421E+03  0.10149047681E+04  0.10100000352E+00 0.  1.
</event>
<event>
 5   0  0.1631380E-03  0.1401661E+04  0.7818609E-02  0.8952617E-01
        1   -1    0    0  501    0  0.00000000000E+00  0.00000000000E+00  0.27606331341E+03  0.27606331346E+03  0.50400001928E-02 0.  1.
       -1   -1    0    0    0  501  0.00000000000E+00  0.00000000000E+00 -0.17791693486E+04  0.17791693486E+04  0.50400001928E-02 0. -1.
    10030    2    1    2    0    0  0.00000000000E+00  0.00000000000E+00 -0.15031060351E+04  0.20552326620E+04  0.14016609940E+04 0.  0.
        3    1    3    3  502    0 -0.50270133540E+03 -0.25495303519E+03 -0.14087852493E+03  0.58099608584E+03  0.10100000352E+00 0.  1.
       -3    1    3    3    0  502  0.50270133540E+03  0.25495303519E+03 -0.13622275102E+04  0.14742365762E+04  0.10100000352E+00 0. -1.
</event>
<event>
 5   0  0.1700207E-03  0.1437841E+04  0.7818609E-02  0.8926874E-01
        1   -1    0    0  501    0  0.00000000000E+00  0.00000000000E+00  0.18754507171E+04  0.18754507171E+04  0.50400001928E-02 0.  1.
       -1   -1    0    0    0  501  0.00000000000E+00  0.00000000000E+00 -0.27558530582E+03  0.27558530586E+03  0.50400001928E-02 0. -1.
    10030    2    1    2    0    0  0.00000000000E+00  0.00000000000E+00  0.15998654113E+04  0.21510360230E+04  0.14378409640E+04 0.  0.
        2    1    3    3  502    0 -0.13026567704E+03  0.62585590573E+03  0.30787716143E+03  0.70954429593E+03  0.25500000920E-02 0. -1.
       -2    1    3    3    0  502  0.13026567704E+03 -0.62585590573E+03  0.12919882499E+04  0.14414917270E+04  0.25500000920E-02 0.  1.
</event>
<event>
 5   0  0.3006737E-03  0.1367446E+04  0.7818609E-02  0.8977726E-01
        2   -1    0    0  501    0  0.00000000000E+00  0.00000000000E+00  0.48324031441E+03  0.48324031442E+03  0.25500000920E-02 0. -1.
       -2   -1    0    0    0  501  0.00000000000E+00  0.00000000000E+00 -0.96738040396E+03  0.96738040396E+03  0.25500000920E-02 0.  1.
    10030    2    1    2    0    0  0.00000000000E+00  0.00000000000E+00 -0.48414008955E+03  0.14506207184E+04  0.13674461022E+04 0.  0.
        1    1    3    3  502    0 -0.49857313777E+02 -0.48183009123E+02  0.47950127180E+03  0.48448820810E+03  0.50400001928E-02 0. -1.
       -1    1    3    3    0  502  0.49857313777E+02  0.48183009123E+02 -0.96364136135E+03  0.96613251028E+03  0.50400001928E-02 0.  1.
</event>
<event>
 5   0  0.2993993E-03  0.1379506E+04  0.7818609E-02  0.8968788E-01
        2   -1    0    0  501    0  0.00000000000E+00  0.00000000000E+00  0.98542529854E+03  0.98542529854E+03  0.25500000920E-02 0.  1.
       -2   -1    0    0    0  501  0.00000000000E+00  0.00000000000E+00 -0.48279605861E+03  0.48279605862E+03  0.25500000920E-02 0. -1.
    10030    2    1    2    0    0  0.00000000000E+00  0.00000000000E+00  0.50262923992E+03  0.14682213572E+04  0.13795063613E+04 0.  0.
        3    1    3    3  502    0 -0.30022795004E+03  0.35382280618E+03 -0.29182944211E+03  0.54817135427E+03  0.10100000352E+00 0. -1.
       -3    1    3    3    0  502  0.30022795004E+03 -0.35382280618E+03  0.79445868204E+03  0.92005000289E+03  0.10100000352E+00 0.  1.
</event>
<event>
 5   0  0.1631380E-03  0.1405695E+04  0.7818609E-02  0.8949706E-01
        1   -1    0    0  501    0  0.00000000000E+00  0.00000000000E+00  0.63519789914E+03  0.63519789916E+03  0.50400001928E-02 0.  1.
       -1   -1    0    0    0  501  0.00000000000E+00  0.00000000000E+00 -0.77770240062E+03  0.77770240064E+03  0.50400001928E-02 0. -1.
    10030    2    1    2    0    0  0.00000000000E+00  0.00000000000E+00 -0.14250450148E+03  0.14129002998E+04  0.14056954593E+04 0.  0.
        3    1    3    3  502    0  0.32139669614E+02 -0.69866886061E+03 -0.14106171072E+03  0.71349110126E+03  0.10100000352E+00 0.  1.
       -3    1    3    3    0  502 -0.32139669614E+02  0.69866886061E+03 -0.14427907598E+01  0.69940919853E+03  0.10100000352E+00 0. -1.
</event>
<event>
 5   0  0.2760807E-03  0.1386260E+04  0.7818609E-02  0.8963825E-01
        2   -1    0    0  501    0  0.00000000000E+00  0.00000000000E+00  0.16340328514E+04  0.16340328514E+04  0.25500000920E-02 0. -1.
       -2   -1    0    0    0  501  0.00000000000E+00  0.00000000000E+00 -0.29401434706E+03  0.29401434707E+03  0.25500000920E-02 0.  1.
    10030    2    1    2    0    0  0.00000000000E+00  0.00000000000E+00  0.13400185043E+04  0.19280471985E+04  0.13862598629E+04 0.  0.
        4    1    3    3  502    0 -0.82022230694E+02 -0.43308745975E+03 -0.73966148682E+02  0.44695077824E+03  0.12699999809E+01 0.  1.
       -4    1    3    3    0  502  0.82022230694E+02  0.43308745975E+03  0.14139846530E+04  0.14810964202E+04  0.12699999809E+01 0. -1.
</event>
<event>
 5   0  0.1631380E-03  0.1287129E+04  0.7818609E-02  0.9039835E-01
        1   -1    0    0  501    0  0.00000000000E+00  0.00000000000E+00  0.66161959716E+03  0.66161959718E+03  0.50400001928E-02 0.  1.
       -1   -1    0    0    0  501  0.00000000000E+00  0.00000000000E+00 -0.62600190227E+03  0.62600190229E+03  0.50400001928E-02 0. -1.
    10030    2    1    2    0    0  0.00000000000E+00  0.00000000000E+00  0.35617694890E+02  0.12876214995E+04  0.12871287836E+04 0.  0.
        3    1    3    3  502    0 -0.58371241067E+03  0.13239819970E+03 -0.21876773571E+03  0.63726665851E+03  0.10100000352E+00 0. -1.
       -3    1    3    3    0  502  0.58371241067E+03 -0.13239819970E+03  0.25438543060E+03  0.65035484096E+03  0.10100000352E+00 0.  1.
</event>
<event>
 5   0  0.1631380E-03  0.1446630E+04  0.7818609E-02  0.8920740E-01
       -1   -1    0    0    0  501  0.00000000000E+00  0.00000000000E+00  0.12112974956E+04  0.12112974956E+04  0.50400001928E-02 0. -1.
        1   -1    0    0  501    0  0.00000000000E+00  0.00000000000E+00 -0.43192068557E+03  0.43192068560E+03  0.50400001928E-02 0.  1.
    10030    2    1    2    0    0  0.00000000000E+00  0.00000000000E+00  0.77937680998E+03  0.16432181812E+04  0.14466298003E+04 0.  0.
        3    1    3    3  502    0  0.53675214212E+03 -0.47914983360E+03  0.30547115321E+03  0.78166492870E+03  0.10100000352E+00 0.  1.
       -3    1    3    3    0  502 -0.53675214212E+03  0.47914983360E+03  0.47390565678E+03  0.86155325247E+03  0.10100000352E+00 0. -1.
</event>
<event>
 5   0  0.2993993E-03  0.1462790E+04  0.7818609E-02  0.8909581E-01
        2   -1    0    0  501    0  0.00000000000E+00  0.00000000000E+00  0.17104081548E+04  0.17104081548E+04  0.25500000920E-02 0. -1.
       -2   -1    0    0    0  501  0.00000000000E+00  0.00000000000E+00 -0.31275509078E+03  0.31275509079E+03  0.25500000920E-02 0.  1.
    10030    2    1    2    0    0  0.00000000000E+00  0.00000000000E+00  0.13976530641E+04  0.20231632456E+04  0.14627902895E+04 0.  0.
        3    1    3    3  502    0  0.50783469321E+03 -0.38792206522E+03  0.11908613009E+04  0.13514918618E+04  0.10100000352E+00 0. -1.
       -3    1    3    3    0  502 -0.50783469321E+03  0.38792206522E+03  0.20679176311E+03  0.67167138379E+03  0.10100000352E+00 0.  1.
</event>
<event>
 5   0  0.1644571E-03  0.9299426E+03  0.7818609E-02  0.9388907E-01
        1   -1    0    0  501    0  0.00000000000E+00  0.00000000000E+00  0.11836785372E+04  0.11836785372E+04  0.50400001928E-02 0.  1.
       -1   -1    0    0    0  501  0.00000000000E+00  0.00000000000E+00 -0.18264950342E+03  0.18264950349E+03  0.50400001928E-02 0. -1.
    10030    2    1    2    0    0  0.00000000000E+00  0.00000000000E+00  0.10010290338E+04  0.13663280407E+04  0.92994257259E+03 0.  0.
        4    1    3    3  502    0 -0.35220529792E+03  0.18325315532E+03  0.85608286269E+03  0.94366825289E+03  0.12699999809E+01 0.  1.
       -4    1    3    3    0  502  0.35220529792E+03 -0.18325315532E+03  0.14494617110E+03  0.42265978781E+03  0.12699999809E+01 0. -1.
</event>
<event>
 5   0  0.1631380E-03  0.1416167E+04  0.7818609E-02  0.8942198E-01
        1   -1    0    0  501    0  0.00000000000E+00  0.00000000000E+00  0.66183090233E+03  0.66183090235E+03  0.50400001928E-02 0. -1.
       -1   -1    0    0    0  501  0.00000000000E+00  0.00000000000E+00 -0.75756885506E+03  0.75756885508E+03  0.50400001928E-02 0.  1.
    10030    2    1    2    0    0  0.00000000000E+00  0.00000000000E+00 -0.95737952733E+02  0.14193997574E+04  0.14161673333E+04 0.  0.
        3    1    3    3  502    0  0.61006594245E+03 -0.25656444403E+03 -0.30019088876E+03  0.72671889199E+03  0.10100000352E+00 0.  1.
       -3    1    3    3    0  502 -0.61006594245E+03  0.25656444403E+03  0.20445293603E+03  0.69268086543E+03  0.10100000352E+00 0. -1.
</event>
<event>
 5   0  0.2917809E-03  0.1508325E+04  0.7818609E-02  0.8878936E-01
       -2   -1    0    0    0  501  0.00000000000E+00  0.00000000000E+00  0.41660875083E+03  0.41660875083E+03  0.25500000920E-02 0. -1.
        2   -1    0    0  501    0  0.00000000000E+00  0.00000000000E+00 -0.13652168347E+04  0.13652168347E+04  0.25500000920E-02 0.  1.
    10030    2    1    2    0    0  0.00000000000E+00  0.00000000000E+00 -0.94860808389E+03  0.17818255856E+04  0.15083252701E+04 0.  0.
        2    1    3    3  502    0  0.28802363072E+03  0.33012188892E+03 -0.11994726642E+04  0.12769779738E+04  0.25500000920E-02 0.  1.
       -2    1    3    3    0  502 -0.28802363072E+03 -0.33012188892E+03  0.25086458033E+03  0.50484761173E+03  0.25500000920E-02 0. -1.
</event>
<event>
 5   0  0.1644571E-03  0.1406026E+04  0.7818609E-02  0.8949468E-01
       -1   -1    0    0    0  501  0.00000000000E+00  0.00000000000E+00  0.41054128460E+03  0.41054128463E+03  0.50400001928E-02 0.  1.
        1   -1    0    0  501    0  0.00000000000E+00  0.00000000000E+00 -0.12038437084E+04  0.12038437085E+04  0.50400001928E-02 0. -1.
    10030    2    1    2    0    0  0.00000000000E+00  0.00000000000E+00 -0.79330242385E+03  0.16143849931E+04  0.14060263761E+04 0.  0.
        4    1    3    3  502    0  0.12794397836E+03  0.52968296788E+02 -0.11880285180E+04  0.11960721862E+04  0.12699999809E+01 0. -1.
       -4    1    3    3    0  502 -0.12794397836E+03 -0.52968296788E+02  0.39472609419E+03  0.41831280687E+03  0.12699999809E+01 0.  1.
</event>
<event>
 5   0  0.3006737E-03  0.1369130E+04  0.7818609E-02  0.8976472E-01
       -2   -1    0    0    0  501  0.00000000000E+00  0.00000000000E+00  0.69722734288E+03  0.69722734288E+03  0.25500000920E-02 0. -1.
        2   -1    0    0  501    0  0.00000000000E+00  0.00000000000E+00 -0.67213238629E+03  0.67213238630E+03  0.25500000920E-02 0.  1.
    10030    2    1    2    0    0  0.00000000000E+00  0.00000000000E+00  0.25094956584E+02  0.13693597292E+04  0.13691297641E+04 0.  0.
        1    1    3    3  502    0  0.25424190057E+03  0.19100780738E+03 -0.59377720166E+03  0.67356832743E+03  0.50400001928E-02 0.  1.
       -1    1    3    3    0  502 -0.25424190057E+03 -0.19100780738E+03  0.61887215824E+03  0.69579140175E+03  0.50400001928E-02 0. -1.
</event>
<event>
 5   0  0.1700207E-03  0.1803948E+04  0.7818609E-02  0.8704203E-01
        1   -1    0    0  501    0  0.00000000000E+00  0.00000000000E+00  0.80383372612E+03  0.80383372614E+03  0.50400001928E-02 0.  1.
       -1   -1    0    0    0  501  0.00000000000E+00  0.00000000000E+00 -0.10120966356E+04  0.10120966356E+04  0.50400001928E-02 0. -1.
    10030    2    1    2    0    0  0.00000000000E+00  0.00000000000E+00 -0.20826290949E+03  0.18159303618E+04  0.18039483472E+04 0.  0.
        2    1    3    3  502    0  0.45487543062E+03  0.91954897838E+02  0.67443320042E+03  0.81867423464E+03  0.25500000920E-02 0.  1.
       -2    1    3    3    0  502 -0.45487543062E+03 -0.91954897838E+02 -0.88269610992E+03  0.99725612712E+03  0.25500000920E-02 0. -1.
</event>
<event>
 5   0  0.1644571E-03  0.1380125E+04  0.7818609E-02  0.8968332E-01
       -1   -1    0    0    0  501  0.00000000000E+00  0.00000000000E+00  0.23282420614E+03  0.23282420620E+03  0.50400001928E-02 0. -1.
        1   -1    0    0  501    0  0.00000000000E+00  0.00000000000E+00 -0.20452601516E+04  0.20452601516E+04  0.50400001928E-02 0.  1.
    10030    2    1    2    0    0  0.00000000000E+00  0.00000000000E+00 -0.18124359454E+04  0.22780843578E+04  0.13801247353E+04 0.  0.
        4    1    3    3  502    0  0.48859019406E+03  0.35254285360E+02 -0.10396577996E+03  0.50077314093E+03  0.12699999809E+01 0. -1.
       -4    1    3    3    0  502 -0.48859019406E+03 -0.35254285360E+02 -0.17084701655E+04  0.17773112169E+04  0.12699999809E+01 0.  1.
</event>
<event>
 5   0  0.2993993E-03  0.1381834E+04  0.7818609E-02  0.8967074E-01
        2   -1    0    0  501    0  0.00000000000E+00  0.00000000000E+00  0.10980296364E+04  0.10980296364E+04  0.25500000920E-02 0.  1.
       -2   -1    0    0    0  501  0.00000000000E+00  0.00000000000E+00 -0.43474780179E+03  0.43474780180E+03  0.25500000920E-02 0. -1.
    10030    2    1    2    0    0  0.00000000000E+00  0.00000000000E+00  0.66328183458E+03  0.15327774382E+04  0.13818335221E+04 0.  0.
        3    1    3    3  502    0 -0.16531189266E+03 -0.35184230070E+03 -0.30193004337E+03  0.49222229501E+03  0.10100000352E+00 0. -1.
       -3    1    3    3    0  502  0.16531189266E+03  0.35184230070E+03  0.96521187795E+03  0.10405551432E+04  0.10100000352E+00 0.  1.
</event>
<event>
 5   0  0.1631380E-03  0.1379197E+04  0.7818609E-02  0.8969016E-01
       -1   -1    0    0    0  501  0.00000000000E+00  0.00000000000E+00  0.59595514586E+03  0.59595514588E+03  0.50400001928E-02 0. -1.
        1   -1    0    0  501    0  0.00000000000E+00  0.00000000000E+00 -0.79795670389E+03  0.79795670390E+03  0.50400001928E-02 0.  1.
    10030    2    1    2    0    0  0.00000000000E+00  0.00000000000E+00 -0.20200155803E+03  0.13939118498E+04  0.13791974534E+04 0.  0.
        3    1    3    3  502    0  0.12513825264E+03  0.61612483567E+02 -0.78355079034E+03  0.79586904177E+03  0.10100000352E+00 0.  1.
       -3    1    3    3    0  502 -0.12513825264E+03 -0.61612483567E+02  0.58154923231E+03  0.59804280801E+03  0.10100000352E+00 0. -1.
</event>
<event>
 5   0  0.2917809E-03  0.1216907E+04  0.7818609E-02  0.9098185E-01
       -2   -1    0    0    0  501  0.00000000000E+00  0.00000000000E+00  0.21877535228E+03  0.21877535230E+03  0.25500000920E-02 0. -1.
        2   -1    0    0  501    0  0.00000000000E+00  0.00000000000E+00 -0.16922182572E+04  0.16922182572E+04  0.25500000920E-02 0.  1.
    10030    2    1    2    0    0  0.00000000000E+00  0.00000000000E+00 -0.14734429049E+04  0.19109936095E+04  0.12169069732E+04 0.  0.
        2    1    3    3  502    0  0.50812326764E+03 -0.29016977068E+03 -0.99868570301E+03  0.11574804034E+04  0.25500000920E-02 0.  1.
       -2    1    3    3    0  502 -0.50812326764E+03  0.29016977068E+03 -0.47475720188E+03  0.75351320603E+03  0.25500000920E-02 0. -1.
</event>
<event>
 5   0  0.2993993E-03  0.1406356E+04  0.7818609E-02  0.8949231E-01
        2   -1    0    0  501    0  0.00000000000E+00  0.00000000000E+00  0.73645859689E+03  0.73645859689E+03  0.25500000920E-02 0. -1.
       -2   -1    0    0    0  501  0.00000000000E+00  0.00000000000E+00 -0.67140119837E+03  0.67140119838E+03  0.25500000920E-02 0.  1.
    10030    2    1    2    0    0  0.00000000000E+00  0.00000000000E+00  0.65057398517E+02  0.14078597953E+04  0.14063558362E+04 0.  0.
        3    1    3    3  502    0 -0.88955483572E+02  0.15776702790E+03  0.71270777836E+03  0.73536106824E+03  0.10100000352E+00 0. -1.
       -3    1    3    3    0  502  0.88955483572E+02 -0.15776702790E+03 -0.64765037984E+03  0.67249872703E+03  0.10100000352E+00 0.  1.
</event>
<event>
 5   0  0.2917809E-03  0.1376746E+04  0.7818609E-02  0.8970825E-01
        2   -1    0    0  501    0  0.00000000000E+00  0.00000000000E+00  0.29951570941E+03  0.29951570942E+03  0.25500000920E-02 0.  1.
       -2   -1    0    0    0  501  0.00000000000E+00  0.00000000000E+00 -0.15820789468E+04  0.15820789468E+04  0.25500000920E-02 0. -1.
    10030    2    1    2    0    0  0.00000000000E+00  0.00000000000E+00 -0.12825632374E+04  0.18815946563E+04  0.13767461612E+04 0.  0.
        2    1    3    3  502    0  0.27565416515E+03 -0.24127385660E+02  0.22016048586E+03  0.35360711114E+03  0.25500000920E-02 0.  1.
       -2    1    3    3    0  502 -0.27565416515E+03  0.24127385660E+02 -0.15027237233E+04  0.15279875451E+04  0.25500000920E-02 0. -1.
</event>
<event>
 5   0  0.2917809E-03  0.1369282E+04  0.7818609E-02  0.8976359E-01
        2   -1    0    0  501    0  0.00000000000E+00  0.00000000000E+00  0.13572692543E+04  0.13572692543E+04  0.25500000920E-02 0.  1.
       -2   -1    0    0    0  501  0.00000000000E+00  0.00000000000E+00 -0.34535003830E+03  0.34535003831E+03  0.25500000920E-02 0. -1.
    10030    2    1    2    0    0  0.00000000000E+00  0.00000000000E+00  0.10119192160E+04  0.17026192926E+04  0.13692815473E+04 0.  0.
        2    1    3    3  502    0  0.36553893422E+03  0.47498117857E+03  0.91743706355E+03  0.10958634030E+04  0.25500000920E-02 0.  1.
       -2    1    3    3    0  502 -0.36553893422E+03 -0.47498117857E+03  0.94482152431E+02  0.60675588960E+03  0.25500000920E-02 0. -1.
</event>
<event>
 5   0  0.1560957E-03  0.1358808E+04  0.7818609E-02  0.8984187E-01
        1   -1    0    0  501    0  0.00000000000E+00  0.00000000000E+00  0.11195710402E+04  0.11195710402E+04  0.50400001928E-02 0.  1.
       -1   -1    0    0    0  501  0.00000000000E+00  0.00000000000E+00 -0.41229145229E+03  0.41229145233E+03  0.50400001928E-02 0. -1.
    10030    2    1    2    0    0  0.00000000000E+00  0.00000000000E+00  0.70727958787E+03  0.15318624925E+04  0.13588076687E+04 0.  0.
        5    1    3    3  502    0 -0.37949662483E+03 -0.55876882119E+03  0.27135659921E+03  0.72794009212E+03  0.46999998093E+01 0.  1.
       -5    1    3    3    0  502  0.37949662483E+03  0.55876882119E+03  0.43592298866E+03  0.80392240038E+03  0.46999998093E+01 0. -1.
</event>
<event>
 5   0  0.1644571E-03  0.1306389E+04  0.7818609E-02  0.9024514E-01
       -1   -1    0    0    0  501  0.00000000000E+00  0.00000000000E+00  0.74834964844E+03  0.74834964846E+03  0.50400001928E-02 0.  1.
        1   -1    0    0  501    0  0.00000000000E+00  0.00000000000E+00 -0.57013852719E+03  0.57013852722E+03  0.50400001928E-02 0. -1.
    10030    2    1    2    0    0  0.00000000000E+00  0.00000000000E+00  0.17821112125E+03  0.13184881757E+04  0.13063888646E+04 0.  0.
        4    1    3    3  502    0  0.47008887559E+03 -0.28735505763E+03 -0.26500704943E+03  0.61138108349E+03  0.12699999809E+01 0. -1.
       -4    1    3    3    0  502 -0.47008887559E+03  0.28735505763E+03  0.44321817068E+03  0.70710709218E+03  0.12699999809E+01 0.  1.
</event>
<event>
 5   0  0.2917809E-03  0.1386892E+04  0.7818609E-02  0.8963362E-01
       -2   -1    0    0    0  501  0.00000000000E+00  0.00000000000E+00  0.32609202474E+03  0.32609202475E+03  0.25500000920E-02 0. -1.
        2   -1    0    0  501    0  0.00000000000E+00  0.00000000000E+00 -0.14746361437E+04  0.14746361437E+04  0.25500000920E-02 0.  1.
    10030    2    1    2    0    0  0.00000000000E+00  0.00000000000E+00 -0.11485441190E+04  0.18007281685E+04  0.13868916120E+04 0.  0.
        2    1    3    3  502    0 -0.50173914865E+03  0.42514214901E+03 -0.28868772872E+03  0.71821210298E+03  0.25500000920E-02 0. -1.
       -2    1    3    3    0  502  0.50173914865E+03 -0.42514214901E+03 -0.85985639027E+03  0.10825160655E+04  0.25500000920E-02 0.  1.
</event>
<event>
 5   0  0.2917809E-03  0.1422400E+04  0.7818609E-02  0.8937762E-01
       -2   -1    0    0    0  501  0.00000000000E+00  0.00000000000E+00  0.62986334846E+03  0.62986334847E+03  0.25500000920E-02 0. -1.
        2   -1    0    0  501    0  0.00000000000E+00  0.00000000000E+00 -0.80303964477E+03  0.80303964478E+03  0.25500000920E-02 0.  1.
    10030    2    1    2    0    0  0.00000000000E+00  0.00000000000E+00 -0.17317629631E+03  0.14329029932E+04  0.14223997182E+04 0.  0.
        2    1    3    3  502    0  0.17825661290E+03 -0.94097462431E+02 -0.77366219308E+03  0.79948917534E+03  0.25500000920E-02 0.  1.
       -2    1    3    3    0  502 -0.17825661290E+03  0.94097462431E+02  0.60048589677E+03  0.63341381790E+03  0.25500000920E-02 0. -1.
</event>
<event>
 5   0  0.1104538E-03  0.1420598E+04  0.7818609E-02  0.8939042E-01
        3   -1    0    0  501    0  0.00000000000E+00  0.00000000000E+00  0.68100253547E+03  0.68100254296E+03  0.10100000352E+00 0.  1.
       -3   -1    0    0    0  501  0.00000000000E+00  0.00000000000E+00 -0.74085556064E+03  0.74085556752E+03  0.10100000352E+00 0. -1.
    10030    2    1    2    0    0  0.00000000000E+00  0.00000000000E+00 -0.59853025171E+02  0.14218581105E+04  0.14205977973E+04 0.  0.
        1    1    3    3  502    0 -0.99128461144E+02 -0.29838033907E+03 -0.66741169561E+03  0.73776395278E+03  0.50400001928E-02 0. -1.
       -1    1    3    3    0  502  0.99128461144E+02  0.29838033907E+03  0.60755867044E+03  0.68409415770E+03  0.50400001928E-02 0.  1.
</event>
<event>
 5   0  0.2993993E-03  0.1402546E+04  0.7818609E-02  0.8951977E-01
       -2   -1    0    0    0  501  0.00000000000E+00  0.00000000000E+00  0.82213777259E+03  0.82213777259E+03  0.25500000920E-02 0.  1.
        2   -1    0    0  501    0  0.00000000000E+00  0.00000000000E+00 -0.59817727199E+03  0.59817727199E+03  0.25500000920E-02 0. -1.
    10030    2    1    2    0    0  0.00000000000E+00  0.00000000000E+00  0.22396050060E+03  0.14203150446E+04  0.14025464413E+04 0.  0.
        3    1    3    3  502    0 -0.35659087660E+03  0.79887392341E+02 -0.49413826207E+03  0.61458252576E+03  0.10100000352E+00 0. -1.
       -3    1    3    3    0  502  0.35659087660E+03 -0.79887392341E+02  0.71809876267E+03  0.80573251882E+03  0.10100000352E+00 0.  1.
</event>
<event>
 5   0  0.1104538E-03  0.9468912E+03  0.7818609E-02  0.9368792E-01
       -4   -1    0    0    0  501  0.00000000000E+00  0.00000000000E+00  0.43842823065E+03  0.43843007006E+03  0.12699999809E+01 0.  1.
        4   -1    0    0  501    0  0.00000000000E+00  0.00000000000E+00 -0.51125610853E+03  0.51125768592E+03  0.12699999809E+01 0. -1.
    10030    2    1    2    0    0  0.00000000000E+00  0.00000000000E+00 -0.72827877882E+02  0.94968775597E+03  0.94689119441E+03 0.  0.
        1    1    3    3  502    0 -0.13009077374E+03  0.30324676387E+03 -0.37692884469E+03  0.50095664802E+03  0.50400001928E-02 0. -1.
       -1    1    3    3    0  502  0.13009077374E+03 -0.30324676387E+03  0.30410096681E+03  0.44873110796E+03  0.50400001928E-02 0.  1.
</event>
<event>
 5   0  0.1586022E-03  0.1065738E+04  0.7818609E-02  0.9239244E-01
        1   -1    0    0  501    0  0.00000000000E+00  0.00000000000E+00  0.93278267695E+03  0.93278267696E+03  0.50400001928E-02 0. -1.
       -1   -1    0    0    0  501  0.00000000000E+00  0.00000000000E+00 -0.30441131936E+03  0.30441131940E+03  0.50400001928E-02 0.  1.
    10030    2    1    2    0    0  0.00000000000E+00  0.00000000000E+00  0.62837135759E+03  0.12371939964E+04  0.10657384396E+04 0.  0.
        1    1    3    3  502    0 -0.50630954386E+03  0.47999634374E+01  0.50696584420E+03  0.71651012628E+03  0.50400001928E-02 0. -1.
       -1    1    3    3    0  502  0.50630954386E+03 -0.47999634374E+01  0.12140551339E+03  0.52068387008E+03  0.50400001928E-02 0.  1.
</event>
<event>
 5   0  0.2917809E-03  0.1396916E+04  0.7818609E-02  0.8956054E-01
        2   -1    0    0  501    0  0.00000000000E+00  0.00000000000E+00  0.16389656060E+04  0.16389656060E+04  0.25500000920E-02 0. -1.
       -2   -1    0    0    0  501  0.00000000000E+00  0.00000000000E+00 -0.29765330478E+03  0.29765330479E+03  0.25500000920E-02 0.  1.
    10030    2    1    2    0    0  0.00000000000E+00  0.00000000000E+00  0.13413123012E+04  0.19366189108E+04  0.13969159302E+04 0.  0.
        2    1    3    3  502    0 -0.38392204316E+03  0.48228736245E+03  0.21537831196E+03  0.65298166320E+03  0.25500000920E-02 0.  1.
       -2    1    3    3    0  502  0.38392204316E+03 -0.48228736245E+03  0.11259339892E+04  0.12836372476E+04  0.25500000920E-02 0. -1.
</event>
<event>
 5   0  0.2889469E-03  0.1232801E+04  0.7818609E-02  0.9084620E-01
       -2   -1    0    0    0  501  0.00000000000E+00  0.00000000000E+00  0.25675728088E+03  0.25675728089E+03  0.25500000920E-02 0. -1.
        2   -1    0    0  501    0  0.00000000000E+00  0.00000000000E+00 -0.14798011601E+04  0.14798011601E+04  0.25500000920E-02 0.  1.
    10030    2    1    2    0    0  0.00000000000E+00  0.00000000000E+00 -0.12230438792E+04  0.17365584410E+04  0.12328012364E+04 0.  0.
        5    1    3    3  502    0 -0.54725053546E+03  0.22661232514E+03 -0.85178012222E+03  0.10374910896E+04  0.46999998093E+01 0.  1.
       -5    1    3    3    0  502  0.54725053546E+03 -0.22661232514E+03 -0.37126375698E+03  0.69906735134E+03  0.46999998093E+01 0. -1.
</event>
<event>
 5   0  0.1104538E-03  0.1413547E+04  0.7818609E-02  0.8944070E-01
        4   -1    0    0  501    0  0.00000000000E+00  0.00000000000E+00  0.44636157573E+03  0.44636338245E+03  0.12699999809E+01 0.  1.
       -4   -1    0    0    0  501  0.00000000000E+00  0.00000000000E+00 -0.11191085219E+04  0.11191092425E+04  0.12699999809E+01 0. -1.
    10030    2    1    2    0    0  0.00000000000E+00  0.00000000000E+00 -0.67274694614E+03  0.15654726249E+04  0.14135473412E+04 0.  0.
        1    1    3    3  502    0 -0.30298892984E+03  0.45139476292E+03  0.16379663466E+03  0.56779297384E+03  0.50400001928E-02 0.  1.
       -1    1    3    3    0  502  0.30298892984E+03 -0.45139476292E+03 -0.83654358080E+03  0.99767965109E+03  0.50400001928E-02 0. -1.
</event>
<event>
 5   0  0.1560957E-03  0.1402103E+04  0.7818609E-02  0.8952298E-01
        1   -1    0    0  501    0  0.00000000000E+00  0.00000000000E+00  0.15344675259E+04  0.15344675259E+04  0.50400001928E-02 0. -1.
       -1   -1    0    0    0  501  0.00000000000E+00  0.00000000000E+00 -0.32028899857E+03  0.32028899861E+03  0.50400001928E-02 0.  1.
    10030    2    1    2    0    0  0.00000000000E+00  0.00000000000E+00  0.12141785273E+04  0.18547565245E+04  0.14021028026E+04 0.  0.
        5    1    3    3  502    0  0.36772785869E+03  0.14096899927E+03  0.13742846026E+04  0.14296070424E+04  0.46999998093E+01 0. -1.
       -5    1    3    3    0  502 -0.36772785869E+03 -0.14096899927E+03 -0.16010607525E+03  0.42514948211E+03  0.46999998093E+01 0.  1.
</event>
<event>
 5   0  0.2760807E-03  0.1394526E+04  0.7818609E-02  0.8957790E-01
        2   -1    0    0  501    0  0.00000000000E+00  0.00000000000E+00  0.10297698083E+04  0.10297698083E+04  0.25500000920E-02 0. -1.
       -2   -1    0    0    0  501  0.00000000000E+00  0.00000000000E+00 -0.47212085883E+03  0.47212085883E+03  0.25500000920E-02 0.  1.
    10030    2    1    2    0    0  0.00000000000E+00  0.00000000000E+00  0.55764894945E+03  0.15018906671E+04  0.13945261651E+04 0.  0.
        4    1    3    3  502    0  0.61820110307E+03  0.12965009687E+03  0.59684201319E+03  0.86902459865E+03  0.12699999809E+01 0. -1.
       -4    1    3    3    0  502 -0.61820110307E+03 -0.12965009687E+03 -0.39193063745E+02  0.63286606845E+03  0.12699999809E+01 0.  1.
</event>
<event>
 5   0  0.1631380E-03  0.1710371E+04  0.7818609E-02  0.8755472E-01
        1   -1    0    0  501    0  0.00000000000E+00  0.00000000000E+00  0.15987953065E+04  0.15987953065E+04  0.50400001928E-02 0. -1.
       -1   -1    0    0    0  501  0.00000000000E+00  0.00000000000E+00 -0.45743310516E+03  0.45743310518E+03  0.50400001928E-02 0.  1.
    10030    2    1    2    0    0  0.00000000000E+00  0.00000000000E+00  0.11413622013E+04  0.20562284117E+04  0.17103706050E+04 0.  0.
        3    1    3    3  502    0 -0.21934944478E+03  0.55228605448E+03  0.13100248193E+04  0.14385058576E+04  0.10100000352E+00 0. -1.
       -3    1    3    3    0  502  0.21934944478E+03 -0.55228605448E+03 -0.16866261800E+03  0.61772255407E+03  0.10100000352E+00 0.  1.
</event>
<event>
 5   0  0.1700207E-03  0.1445486E+04  0.7818609E-02  0.8921536E-01
       -1   -1    0    0    0  501  0.00000000000E+00  0.00000000000E+00  0.26705213344E+03  0.26705213349E+03  0.50400001928E-02 0.  1.
        1   -1    0    0  501    0  0.00000000000E+00  0.00000000000E+00 -0.19560118432E+04  0.19560118432E+04  0.50400001928E-02 0. -1.
    10030    2    1    2    0    0  0.00000000000E+00  0.00000000000E+00 -0.16889597097E+04  0.22230639767E+04  0.14454855735E+04 0.  0.
        2    1    3    3  502    0  0.53795653912E+03 -0.40206710708E+03 -0.43381373906E+03  0.79953083541E+03  0.25500000920E-02 0.  1.
       -2    1    3    3    0  502 -0.53795653912E+03  0.40206710708E+03 -0.12551459706E+04  0.14235331412E+04  0.25500000920E-02 0. -1.
</event>
<event>
 5   0  0.2917809E-03  0.1298886E+04  0.7818609E-02  0.9030449E-01
       -2   -1    0    0    0  501  0.00000000000E+00  0.00000000000E+00  0.59347331416E+03  0.59347331417E+03  0.25500000920E-02 0.  1.
        2   -1    0    0  501    0  0.00000000000E+00  0.00000000000E+00 -0.71069059075E+03  0.71069059075E+03  0.25500000920E-02 0. -1.
    10030    2    1    2    0    0  0.00000000000E+00  0.00000000000E+00 -0.11721727659E+03  0.13041639049E+04  0.12988855227E+04 0.  0.
        2    1    3    3  502    0  0.28300425573E+03 -0.48464923177E+02 -0.64350112067E+03  0.70465165142E+03  0.25500000920E-02 0. -1.
       -2    1    3    3    0  502 -0.28300425573E+03  0.48464923177E+02  0.52628384408E+03  0.59951225349E+03  0.25500000920E-02 0.  1.
</event>
<event>
 5   0  0.2993993E-03  0.9617151E+03  0.7818609E-02  0.9351561E-01
       -2   -1    0    0    0  501  0.00000000000E+00  0.00000000000E+00  0.69665073948E+03  0.69665073949E+03  0.25500000920E-02 0.  1.
        2   -1    0    0  501    0  0.00000000000E+00  0.00000000000E+00 -0.33190806328E+03  0.33190806329E+03  0.25500000920E-02 0. -1.
    10030    2    1    2    0    0  0.00000000000E+00  0.00000000000E+00  0.36474267620E+03  0.10285588028E+04  0.96171512982E+03 0.  0.
        3    1    3    3  502    0  0.30872610255E+02  0.88656089940E+02  0.68675472810E+03  0.69314146256E+03  0.10100000352E+00 0.  1.
       -3    1    3    3    0  502 -0.30872610255E+02 -0.88656089940E+02 -0.32201205190E+03  0.33541734021E+03  0.10100000352E+00 0. -1.
</event>
<event>
 5   0  0.1644571E-03  0.1405885E+04  0.7818609E-02  0.8949570E-01
       -1   -1    0    0    0  501  0.00000000000E+00  0.00000000000E+00  0.10219603068E+04  0.10219603068E+04  0.50400001928E-02 0.  1.
        1   -1    0    0  501    0  0.00000000000E+00  0.00000000000E+00 -0.48350981309E+03  0.48350981312E+03  0.50400001928E-02 0. -1.
    10030    2    1    2    0    0  0.00000000000E+00  0.00000000000E+00  0.53845049369E+03  0.15054701199E+04  0.14058845428E+04 0.  0.
        4    1    3    3  502    0  0.41904529894E+03  0.56410830499E+03  0.25039919953E+03  0.74600168522E+03  0.12699999809E+01 0.  1.
       -4    1    3    3    0  502 -0.41904529894E+03 -0.56410830499E+03  0.28805129416E+03  0.75946843470E+03  0.12699999809E+01 0. -1.
</event>
<event>
 5   0  0.2889469E-03  0.7086107E+03  0.7818609E-02  0.9702619E-01
       -2   -1    0    0    0  501  0.00000000000E+00  0.00000000000E+00  0.94982686373E+03  0.94982686374E+03  0.25500000920E-02 0. -1.
        2   -1    0    0  501    0  0.00000000000E+00  0.00000000000E+00 -0.13216334669E+03  0.13216334671E+03  0.25500000920E-02 0.  1.
    10030    2    1    2    0    0  0.00000000000E+00  0.00000000000E+00  0.81766351704E+03  0.10819902104E+04  0.70861074533E+03 0.  0.
        5    1    3    3  502    0  0.30477933944E+03  0.12316941297E+03  0.20713376439E+03  0.38857127582E+03  0.46999998093E+01 0.  1.
       -5    1    3    3    0  502 -0.30477933944E+03 -0.12316941297E+03  0.61052975265E+03  0.69341893463E+03  0.46999998093E+01 0. -1.
</event>
<event>
 5   0  0.1631380E-03  0.1393783E+04  0.7818609E-02  0.8958331E-01
        1   -1    0    0  501    0  0.00000000000E+00  0.00000000000E+00  0.13083335578E+04  0.13083335578E+04  0.50400001928E-02 0. -1.
       -1   -1    0    0    0  501  0.00000000000E+00  0.00000000000E+00 -0.37120338816E+03  0.37120338819E+03  0.50400001928E-02 0.  1.
    10030    2    1    2    0    0  0.00000000000E+00  0.00000000000E+00  0.93713016959E+03  0.16795369460E+04  0.13937831245E+04 0.  0.
        3    1    3    3  502    0  0.37724775547E+03 -0.26518619251E+03  0.10982020283E+04  0.11910866009E+04  0.10100000352E+00 0. -1.
       -3    1    3    3    0  502 -0.37724775547E+03  0.26518619251E+03 -0.16107185871E+03  0.48845034504E+03  0.10100000352E+00 0.  1.
</event>
<event>
 5   0  0.2917809E-03  0.1158821E+04  0.7818609E-02  0.9149684E-01
        2   -1    0    0  501    0  0.00000000000E+00  0.00000000000E+00  0.14494421776E+04  0.14494421776E+04  0.25500000920E-02 0.  1.
       -2   -1    0    0    0  501  0.00000000000E+00  0.00000000000E+00 -0.23161785395E+03  0.23161785396E+03  0.25500000920E-02 0. -1.
    10030    2    1    2    0    0  0.00000000000E+00  0.00000000000E+00  0.12178243236E+04  0.16810600316E+04  0.11588212746E+04 0.  0.
        2    1    3    3  502    0  0.16289638470E+03  0.89266282437E+02  0.14050781266E+04  0.14173031585E+04  0.25500000920E-02 0.  1.
       -2    1    3    3    0  502 -0.16289638470E+03 -0.89266282437E+02 -0.18725380297E+03  0.26375687301E+03  0.25500000920E-02 0. -1.
</event>
<event>
 5   0  0.2993993E-03  0.1511805E+04  0.7818609E-02  0.8876641E-01
        2   -1    0    0  501    0  0.00000000000E+00  0.00000000000E+00  0.76473266765E+03  0.76473266765E+03  0.25500000920E-02 0. -1.
       -2   -1    0    0    0  501  0.00000000000E+00  0.00000000000E+00 -0.74717397801E+03  0.74717397801E+03  0.25500000920E-02 0.  1.
    10030    2    1    2    0    0  0.00000000000E+00  0.00000000000E+00  0.17558689636E+02  0.15119066457E+04  0.15118046824E+04 0.  0.
        3    1    3    3  502    0  0.63583966974E+03 -0.22703172868E+03  0.34873292275E+03  0.75990141009E+03  0.10100000352E+00 0. -1.
       -3    1    3    3    0  502 -0.63583966974E+03  0.22703172868E+03 -0.33117423312E+03  0.75200523557E+03  0.10100000352E+00 0.  1.
</event>
<event>
 5   0  0.3006737E-03  0.1125954E+04  0.7818609E-02  0.9180258E-01
       -2   -1    0    0    0  501  0.00000000000E+00  0.00000000000E+00  0.19746901152E+03  0.19746901153E+03  0.25500000920E-02 0. -1.
        2   -1    0    0  501    0  0.00000000000E+00  0.00000000000E+00 -0.16050261950E+04  0.16050261950E+04  0.25500000920E-02 0.  1.
    10030    2    1    2    0    0  0.00000000000E+00  0.00000000000E+00 -0.14075571835E+04  0.18024952066E+04  0.11259537046E+04 0.  0.
        1    1    3    3  502    0  0.11324254819E+03 -0.49689668674E+03 -0.10866914707E+04  0.12002618650E+04  0.50400001928E-02 0.  1.
       -1    1    3    3    0  502 -0.11324254819E+03  0.49689668674E+03 -0.32086571278E+03  0.60223334156E+03  0.50400001928E-02 0. -1.
</event>
<event>
 5   0  0.1586022E-03  0.1137529E+04  0.7818609E-02  0.9169366E-01
        1   -1    0    0  501    0  0.00000000000E+00  0.00000000000E+00  0.69424342758E+03  0.69424342760E+03  0.50400001928E-02 0.  1.
       -1   -1    0    0    0  501  0.00000000000E+00  0.00000000000E+00 -0.46596474615E+03  0.46596474618E+03  0.50400001928E-02 0. -1.
    10030    2    1    2    0    0  0.00000000000E+00  0.00000000000E+00  0.22827868143E+03  0.11602081738E+04  0.11375288349E+04 0.  0.
        1    1    3    3  502    0  0.18513109408E+03  0.35841591663E+03  0.52307886693E+03  0.66056566089E+03  0.50400001928E-02 0.  1.
       -1    1    3    3    0  502 -0.18513109408E+03 -0.35841591663E+03 -0.29480018551E+03  0.49964251289E+03  0.50400001928E-02 0. -1.
</event>
<event>
 5   0  0.2993993E-03  0.1395089E+04  0.7818609E-02  0.8957381E-01
        2   -1    0    0  501    0  0.00000000000E+00  0.00000000000E+00  0.15462033773E+04  0.15462033773E+04  0.25500000920E-02 0. -1.
       -2   -1    0    0    0  501  0.00000000000E+00  0.00000000000E+00 -0.31468603427E+03  0.31468603428E+03  0.25500000920E-02 0.  1.
    10030    2    1    2    0    0  0.00000000000E+00  0.00000000000E+00  0.12315173430E+04  0.18608894115E+04  0.13950894007E+04 0.  0.
        3    1    3    3  502    0  0.50842264625E+03  0.27914888976E+01  0.12527741120E+04  0.13520149280E+04  0.10100000352E+00 0. -1.
       -3    1    3    3    0  502 -0.50842264625E+03 -0.27914888976E+01 -0.21256768949E+02  0.50887448359E+03  0.10100000352E+00 0.  1.
</event>
<event>
 5   0  0.1644571E-03  0.1424642E+04  0.7818609E-02  0.8936172E-01
        1   -1    0    0  501    0  0.00000000000E+00  0.00000000000E+00  0.13186296772E+04  0.13186296772E+04  0.50400001928E-02 0. -1.
       -1   -1    0    0    0  501  0.00000000000E+00  0.00000000000E+00 -0.38479449974E+03  0.38479449977E+03  0.50400001928E-02 0.  1.
    10030    2    1    2    0    0  0.00000000000E+00  0.00000000000E+00  0.93383517747E+03  0.17034241770E+04  0.14246423369E+04 0.  0.
        4    1    3    3  502    0 -0.38427340115E+03 -0.43687151326E+03 -0.24445241878E+02  0.58234177995E+03  0.12699999809E+01 0.  1.
       -4    1    3    3    0  502  0.38427340115E+03  0.43687151326E+03  0.95828041935E+03  0.11210823970E+04  0.12699999809E+01 0. -1.
</event>
<event>
 5   0  0.2889469E-03  0.1405967E+04  0.7818609E-02  0.8949510E-01
       -2   -1    0    0    0  501  0.00000000000E+00  0.00000000000E+00  0.34269037697E+03  0.34269037698E+03  0.25500000920E-02 0. -1.
        2   -1    0    0  501    0  0.00000000000E+00  0.00000000000E+00 -0.14420770949E+04  0.14420770949E+04  0.25500000920E-02 0.  1.
    10030    2    1    2    0    0  0.00000000000E+00  0.00000000000E+00 -0.10993867179E+04  0.17847674718E+04  0.14059672020E+04 0.  0.
        5    1    3    3  502    0 -0.28456180392E+03 -0.64271393926E+03 -0.53654852525E+03  0.88428673965E+03  0.46999998093E+01 0.  1.
       -5    1    3    3    0  502  0.28456180392E+03  0.64271393926E+03 -0.56283819262E+03  0.90048073219E+03  0.46999998093E+01 0. -1.
</event>
<event>
 5   0  0.1644571E-03  0.1414332E+04  0.7818609E-02  0.8943509E-01
       -1   -1    0    0    0  501  0.00000000000E+00  0.00000000000E+00  0.33278715162E+03  0.33278715166E+03  0.50400001928E-02 0. -1.
        1   -1    0    0  501    0  0.00000000000E+00  0.00000000000E+00 -0.15027135566E+04  0.15027135566E+04  0.50400001928E-02 0.  1.
    10030    2    1    2    0    0  0.00000000000E+00  0.00000000000E+00 -0.11699264050E+04  0.18355007083E+04  0.14143320180E+04 0.  0.
        4    1    3    3  502    0 -0.45834187749E+03  0.19670376639E+03 -0.12355574682E+04  0.13324314310E+04  0.12699999809E+01 0.  1.
       -4    1    3    3    0  502  0.45834187749E+03 -0.19670376639E+03  0.65631063159E+02  0.50306927726E+03  0.12699999809E+01 0. -1.
</event>
<event>
 5   0  0.1631380E-03  0.1401451E+04  0.7818609E-02  0.8952769E-01
        1   -1    0    0  501    0  0.00000000000E+00  0.00000000000E+00  0.63400566134E+03  0.63400566136E+03  0.50400001928E-02 0. -1.
       -1   -1    0    0    0  501  0.00000000000E+00  0.00000000000E+00 -0.77446651539E+03  0.77446651541E+03  0.50400001928E-02 0.  1.
    10030    2    1    2    0    0  0.00000000000E+00  0.00000000000E+00 -0.14046085405E+03  0.14084721768E+04  0.14014508986E+04 0.  0.
        3    1    3    3  502    0 -0.99014147026E+02  0.61470214338E+03 -0.39332765313E+03  0.73645718091E+03  0.10100000352E+00 0.  1.
       -3    1    3    3    0  502  0.99014147026E+02 -0.61470214338E+03  0.25286679908E+03  0.67201499586E+03  0.10100000352E+00 0. -1.
</event>
<event>
 5   0  0.3006737E-03  0.1406682E+04  0.7818609E-02  0.8948996E-01
        2   -1    0    0  501    0  0.00000000000E+00  0.00000000000E+00  0.14056238048E+04  0.14056238048E+04  0.25500000920E-02 0.  1.
       -2   -1    0    0    0  501  0.00000000000E+00  0.00000000000E+00 -0.35193529759E+03  0.35193529760E+03  0.25500000920E-02 0. -1.
    10030    2    1    2    0    0  0.00000000000E+00  0.00000000000E+00  0.10536885072E+04  0.17575591024E+04  0.14066820992E+04 0.  0.
        1    1    3    3  502    0 -0.36144033798E+03  0.41082333214E+03  0.10789672793E+04  0.12097873028E+04  0.50400001928E-02 0.  1.
       -1    1    3    3    0  502  0.36144033798E+03 -0.41082333214E+03 -0.25278772062E+02  0.54777179965E+03  0.50400001928E-02 0. -1.
</event>
<event>
 5   0  0.2760807E-03  0.1379183E+04  0.7818609E-02  0.8969026E-01
        2   -1    0    0  501    0  0.00000000000E+00  0.00000000000E+00  0.30384191197E+04  0.30384191197E+04  0.25500000920E-02 0. -1.
       -2   -1    0    0    0  501  0.00000000000E+00  0.00000000000E+00 -0.15650787265E+03  0.15650787267E+03  0.25500000920E-02 0.  1.
    10030    2    1    2    0    0  0.00000000000E+00  0.00000000000E+00  0.28819112471E+04  0.31949269924E+04  0.13791831099E+04 0.  0.
        4    1    3    3  502    0 -0.80904455574E+02 -0.42499056108E+03  0.26849426420E+04  0.27195737004E+04  0.12699999809E+01 0. -1.
       -4    1    3    3    0  502  0.80904455574E+02  0.42499056108E+03  0.19696860503E+03  0.47535329199E+03  0.12699999809E+01 0.  1.
</event>
<event>
 5   0  0.2993993E-03  0.1444308E+04  0.7818609E-02  0.8922356E-01
       -2   -1    0    0    0  501  0.00000000000E+00  0.00000000000E+00  0.55544736338E+03  0.55544736338E+03  0.25500000920E-02 0.  1.
        2   -1    0    0  501    0  0.00000000000E+00  0.00000000000E+00 -0.93889438197E+03  0.93889438197E+03  0.25500000920E-02 0. -1.
    10030    2    1    2    0    0  0.00000000000E+00  0.00000000000E+00 -0.38344701859E+03  0.14943417454E+04  0.14443080128E+04 0.  0.
        3    1    3    3  502    0 -0.53021500470E+02  0.11370605095E+03  0.54408523801E+03  0.55836287659E+03  0.10100000352E+00 0.  1.
       -3    1    3    3    0  502  0.53021500470E+02 -0.11370605095E+03 -0.92753225660E+03  0.93597886876E+03  0.10100000352E+00 0. -1.
</event>
<event>
 5   0  0.1700207E-03  0.1406022E+04  0.7818609E-02  0.8949471E-01
       -1   -1    0    0    0  501  0.00000000000E+00  0.00000000000E+00  0.61421659248E+03  0.61421659250E+03  0.50400001928E-02 0.  1.
        1   -1    0    0  501    0  0.00000000000E+00  0.00000000000E+00 -0.80464166329E+03  0.80464166331E+03  0.50400001928E-02 0. -1.
    10030    2    1    2    0    0  0.00000000000E+00  0.00000000000E+00 -0.19042507081E+03  0.14188582558E+04  0.14060217077E+04 0.  0.
        2    1    3    3  502    0 -0.68440466231E+03 -0.15954343176E+03 -0.11437038385E+03  0.71200030415E+03  0.25500000920E-02 0. -1.
       -2    1    3    3    0  502  0.68440466231E+03  0.15954343176E+03 -0.76054686968E+02  0.70685795166E+03  0.25500000920E-02 0.  1.
</event>
<event>
 5   0  0.1700207E-03  0.1388864E+04  0.7818609E-02  0.8961919E-01
       -1   -1    0    0    0  501  0.00000000000E+00  0.00000000000E+00  0.46456191084E+03  0.46456191087E+03  0.50400001928E-02 0.  1.
        1   -1    0    0  501    0  0.00000000000E+00  0.00000000000E+00 -0.10380442687E+04  0.10380442687E+04  0.50400001928E-02 0. -1.
    10030    2    1    2    0    0  0.00000000000E+00  0.00000000000E+00 -0.57348235787E+03  0.15026061796E+04  0.13888640380E+04 0.  0.
        2    1    3    3  502    0 -0.22632343825E+03 -0.14354794975E+03  0.40635433966E+03  0.48677732275E+03  0.25500000920E-02 0.  1.
       -2    1    3    3    0  502  0.22632343825E+03  0.14354794975E+03 -0.97983669753E+03  0.10158288569E+04  0.25500000920E-02 0. -1.
</event>
<event>
 5   0  0.2889469E-03  0.1376242E+04  0.7818609E-02  0.8971197E-01
        2   -1    0    0  501    0  0.00000000000E+00  0.00000000000E+00  0.13791274830E+04  0.13791274830E+04  0.25500000920E-02 0.  1.
       -2   -1    0    0    0  501  0.00000000000E+00  0.00000000000E+00 -0.34334078528E+03  0.34334078529E+03  0.25500000920E-02 0. -1.
    10030    2    1    2    0    0  0.00000000000E+00  0.00000000000E+00  0.10357866977E+04  0.17224682683E+04  0.13762422941E+04 0.  0.
        5    1    3    3  502    0 -0.53603173939E+03 -0.42255558916E+03  0.40874515711E+03  0.79559911075E+03  0.46999998093E+01 0.  1.
       -5    1    3    3    0  502  0.53603173939E+03  0.42255558916E+03  0.62704154061E+03  0.92686915755E+03  0.46999998093E+01 0. -1.
</event>
<event>
 5   0  0.1586022E-03  0.1377694E+04  0.7818609E-02  0.8970125E-01
        1   -1    0    0  501    0  0.00000000000E+00  0.00000000000E+00  0.50063651135E+03  0.50063651137E+03  0.50400001928E-02 0. -1.
       -1   -1    0    0    0  501  0.00000000000E+00  0.00000000000E+00 -0.94781395714E+03  0.94781395715E+03  0.50400001928E-02 0.  1.
    10030    2    1    2    0    0  0.00000000000E+00  0.00000000000E+00 -0.44717744579E+03  0.14484504685E+04  0.13776941213E+04 0.  0.
        1    1    3    3  502    0 -0.11613677297E+03 -0.59345281948E+03 -0.57043550995E+03  0.83130660410E+03  0.50400001928E-02 0. -1.
       -1    1    3    3    0  502  0.11613677297E+03  0.59345281948E+03  0.12325806416E+03  0.61714386442E+03  0.50400001928E-02 0.  1.
</event>
<event>
 5   0  0.2993993E-03  0.1424730E+04  0.7818609E-02  0.8936109E-01
        2   -1    0    0  501    0  0.00000000000E+00  0.00000000000E+00  0.52092619189E+03  0.52092619190E+03  0.25500000920E-02 0. -1.
       -2   -1    0    0    0  501  0.00000000000E+00  0.00000000000E+00 -0.97415748043E+03  0.97415748043E+03  0.25500000920E-02 0.  1.
    10030    2    1    2    0    0  0.00000000000E+00  0.00000000000E+00 -0.45323128854E+03  0.14950836723E+04  0.14247303557E+04 0.  0.
        3    1    3    3  502    0  0.52891237558E+03 -0.22859840091E+03 -0.66617766263E+03  0.88079408396E+03  0.10100000352E+00 0.  1.
       -3    1    3    3    0  502 -0.52891237558E+03  0.22859840091E+03  0.21294637410E+03  0.61428958837E+03  0.10100000352E+00 0. -1.
</event>
<event>
 5   0  0.1700207E-03  0.1413318E+04  0.7818609E-02  0.8944234E-01
        1   -1    0    0  501    0  0.00000000000E+00  0.00000000000E+00  0.74457100277E+03  0.74457100279E+03  0.50400001928E-02 0. -1.
       -1   -1    0    0    0  501  0.00000000000E+00  0.00000000000E+00 -0.67067771556E+03  0.67067771557E+03  0.50400001928E-02 0.  1.
    10030    2    1    2    0    0  0.00000000000E+00  0.00000000000E+00  0.73893287215E+02  0.14152487184E+04  0.14133183353E+04 0.  0.
        2    1    3    3  502    0  0.31357000281E+03  0.51563357068E+03 -0.33120078723E+03  0.68840256199E+03  0.25500000920E-02 0.  1.
       -2    1    3    3    0  502 -0.31357000281E+03 -0.51563357068E+03  0.40509407445E+03  0.72684615638E+03  0.25500000920E-02 0. -1.
</event>
<event>
 5   0  0.1644571E-03  0.1371153E+04  0.7818609E-02  0.8974968E-01
       -1   -1    0    0    0  501  0.00000000000E+00  0.00000000000E+00  0.75731244481E+03  0.75731244482E+03  0.50400001928E-02 0. -1.
        1   -1    0    0  501    0  0.00000000000E+00  0.00000000000E+00 -0.62063599568E+03  0.62063599570E+03  0.50400001928E-02 0.  1.
    10030    2    1    2    0    0  0.00000000000E+00  0.00000000000E+00  0.13667644913E+03  0.13779484405E+04  0.13711533295E+04 0.  0.
        4    1    3    3  502    0 -0.32581734326E+03 -0.46074861833E+03 -0.32290787159E+03  0.65016716073E+03  0.12699999809E+01 0.  1.
       -4    1    3    3    0  502  0.32581734326E+03  0.46074861833E+03  0.45958432072E+03  0.72778127979E+03  0.12699999809E+01 0. -1.
</event>
<event>
 5   0  0.1104538E-03  0.1442592E+04  0.7818609E-02  0.8923552E-01
       -3   -1    0    0    0  501  0.00000000000E+00  0.00000000000E+00  0.44119051437E+03  0.44119052593E+03  0.10100000352E+00 0.  1.
        3   -1    0    0  501    0  0.00000000000E+00  0.00000000000E+00 -0.11792367955E+04  0.11792367998E+04  0.10100000352E+00 0. -1.
    10030    2    1    2    0    0  0.00000000000E+00  0.00000000000E+00 -0.73804628115E+03  0.16204273258E+04  0.14425922518E+04 0.  0.
        2    1    3    3  502    0 -0.15126831124E+03  0.40459574288E+03 -0.10178912684E+04  0.11057497237E+04  0.25500000920E-02 0. -1.
       -2    1    3    3    0  502  0.15126831124E+03 -0.40459574288E+03  0.27984498729E+03  0.51467760206E+03  0.25500000920E-02 0.  1.
</event>
<event>
 5   0  0.2760807E-03  0.1379940E+04  0.7818609E-02  0.8968469E-01
       -2   -1    0    0    0  501  0.00000000000E+00  0.00000000000E+00  0.10346408439E+04  0.10346408439E+04  0.25500000920E-02 0. -1.
        2   -1    0    0  501    0  0.00000000000E+00  0.00000000000E+00 -0.46011937378E+03  0.46011937379E+03  0.25500000920E-02 0.  1.
    10030    2    1    2    0    0  0.00000000000E+00  0.00000000000E+00  0.57452147008E+03  0.14947602176E+04  0.13799395598E+04 0.  0.
        4    1    3    3  502    0 -0.52297709489E+03 -0.36879375805E+03  0.56668365235E+03  0.85477824756E+03  0.12699999809E+01 0.  1.
       -4    1    3    3    0  502  0.52297709489E+03  0.36879375805E+03  0.78378177229E+01  0.63998197009E+03  0.12699999809E+01 0. -1.
</event>
<event>
 5   0  0.1560957E-03  0.1369702E+04  0.7818609E-02  0.8976047E-01
       -1   -1    0    0    0  501  0.00000000000E+00  0.00000000000E+00  0.77327091817E+03  0.77327091818E+03  0.50400001928E-02 0. -1.
        1   -1    0    0  501    0  0.00000000000E+00  0.00000000000E+00 -0.60654128522E+03  0.60654128524E+03  0.50400001928E-02 0.  1.
    10030    2    1    2    0    0  0.00000000000E+00  0.00000000000E+00  0.16672963295E+03  0.13798122034E+04  0.13697017727E+04 0.  0.
        5    1    3    3  502    0  0.63538995888E+03 -0.73132874374E+02  0.32997754286E+03  0.71970555503E+03  0.46999998093E+01 0. -1.
       -5    1    3    3    0  502 -0.63538995888E+03  0.73132874374E+02 -0.16324790992E+03  0.66010664839E+03  0.46999998093E+01 0.  1.
</event>
<event>
 5   0  0.2917809E-03  0.1403669E+04  0.7818609E-02  0.8951167E-01
       -2   -1    0    0    0  501  0.00000000000E+00  0.00000000000E+00  0.36141246582E+03  0.36141246583E+03  0.25500000920E-02 0. -1.
        2   -1    0    0  501    0  0.00000000000E+00  0.00000000000E+00 -0.13629069773E+04  0.13629069773E+04  0.25500000920E-02 0.  1.
    10030    2    1    2    0    0  0.00000000000E+00  0.00000000000E+00 -0.10014945115E+04  0.17243194432E+04  0.14036688660E+04 0.  0.
        2    1    3    3  502    0  0.58289441732E+02  0.44539075488E+03  0.16169952938E+03  0.47740687193E+03  0.25500000920E-02 0. -1.
       -2    1    3    3    0  502 -0.58289441732E+02 -0.44539075488E+03 -0.11631940409E+04  0.12469125712E+04  0.25500000920E-02 0.  1.
</event>
<event>
 5   0  0.1700207E-03  0.1397167E+04  0.7818609E-02  0.8955872E-01
       -1   -1    0    0    0  501  0.00000000000E+00  0.00000000000E+00  0.10728126559E+04  0.10728126559E+04  0.50400001928E-02 0. -1.
        1   -1    0    0  501    0  0.00000000000E+00  0.00000000000E+00 -0.45489680043E+03  0.45489680046E+03  0.50400001928E-02 0.  1.
    10030    2    1    2    0    0  0.00000000000E+00  0.00000000000E+00  0.61791585546E+03  0.15277094564E+04  0.13971671978E+04 0.  0.
        2    1    3    3  502    0 -0.23168013140E+03 -0.51070800581E+03 -0.14652072167E+03  0.57962632132E+03  0.25500000920E-02 0.  1.
       -2    1    3    3    0  502  0.23168013140E+03  0.51070800581E+03  0.76443657713E+03  0.94808313504E+03  0.25500000920E-02 0. -1.
</event>
<event>
 5   0  0.1586022E-03  0.7949069E+03  0.7818609E-02  0.9567419E-01
       -1   -1    0    0    0  501  0.00000000000E+00  0.00000000000E+00  0.50992672072E+03  0.50992672074E+03  0.50400001928E-02 0. -1.
        1   -1    0    0  501    0  0.00000000000E+00  0.00000000000E+00 -0.30978813652E+03  0.30978813656E+03  0.50400001928E-02 0.  1.
    10030    2    1    2    0    0  0.00000000000E+00  0.00000000000E+00  0.20013858419E+03  0.81971485731E+03  0.79490690927E+03 0.  0.
        1    1    3    3  502    0  0.24750242600E+03  0.26789383514E+03  0.26293722986E+03  0.44962266919E+03  0.50400001928E-02 0. -1.
       -1    1    3    3    0  502 -0.24750242600E+03 -0.26789383514E+03 -0.62798645666E+02  0.37009218811E+03  0.50400001928E-02 0.  1.
</event>
<event>
 5   0  0.2917809E-03  0.1340905E+04  0.7818609E-02  0.8997741E-01
       -2   -1    0    0    0  501  0.00000000000E+00  0.00000000000E+00  0.24316544545E+03  0.24316544546E+03  0.25500000920E-02 0.  1.
        2   -1    0    0  501    0  0.00000000000E+00  0.00000000000E+00 -0.18485629845E+04  0.18485629845E+04  0.25500000920E-02 0. -1.
    10030    2    1    2    0    0  0.00000000000E+00  0.00000000000E+00 -0.16053975391E+04  0.20917284300E+04  0.13409051295E+04 0.  0.
        2    1    3    3  502    0  0.11079919051E+03 -0.38871734905E+03  0.31727922882E+02  0.40544333657E+03  0.25500000920E-02 0.  1.
       -2    1    3    3    0  502 -0.11079919051E+03  0.38871734905E+03 -0.16371254620E+04  0.16862850934E+04  0.25500000920E-02 0. -1.
</event>
<event>
 5   0  0.2760807E-03  0.1384652E+04  0.7818609E-02  0.8965004E-01
        2   -1    0    0  501    0  0.00000000000E+00  0.00000000000E+00  0.58108273054E+03  0.58108273054E+03  0.25500000920E-02 0. -1.
       -2   -1    0    0    0  501  0.00000000000E+00  0.00000000000E+00 -0.82486616716E+03  0.82486616716E+03  0.25500000920E-02 0.  1.
    10030    2    1    2    0    0  0.00000000000E+00  0.00000000000E+00 -0.24378343662E+03  0.14059488977E+04  0.13846522809E+04 0.  0.
        4    1    3    3  502    0 -0.22243052602E+03  0.40184068880E+03 -0.64789663126E+03  0.79418066948E+03  0.12699999809E+01 0.  1.
       -4    1    3    3    0  502  0.22243052602E+03 -0.40184068880E+03  0.40411319464E+03  0.61176822822E+03  0.12699999809E+01 0. -1.
</event>
<event>
 5   0  0.1700207E-03  0.1338721E+04  0.7818609E-02  0.8999410E-01
       -1   -1    0    0    0  501  0.00000000000E+00  0.00000000000E+00  0.35471002832E+03  0.35471002835E+03  0.50400001928E-02 0. -1.
        1   -1    0    0  501    0  0.00000000000E+00  0.00000000000E+00 -0.12631269941E+04  0.12631269941E+04  0.50400001928E-02 0.  1.
    10030    2    1    2    0    0  0.00000000000E+00  0.00000000000E+00 -0.90841696580E+03  0.16178370225E+04  0.13387214974E+04 0.  0.
        2    1    3    3  502    0 -0.30625204569E+03 -0.16839586286E+03 -0.11441054995E+04  0.11962963162E+04  0.25500000920E-02 0.  1.
       -2    1    3    3    0  502  0.30625204569E+03  0.16839586286E+03  0.23568853372E+03  0.42154070628E+03  0.25500000920E-02 0. -1.
</event>
<event>
 5   0  0.1586022E-03  0.1397447E+04  0.7818609E-02  0.8955669E-01
        1   -1    0    0  501    0  0.00000000000E+00  0.00000000000E+00  0.54340909389E+03  0.54340909391E+03  0.50400001928E-02 0.  1.
       -1   -1    0    0    0  501  0.00000000000E+00  0.00000000000E+00 -0.89842926056E+03  0.89842926057E+03  0.50400001928E-02 0. -1.
    10030    2    1    2    0    0  0.00000000000E+00  0.00000000000E+00 -0.35502016667E+03  0.14418383545E+04  0.13974471445E+04 0.  0.
        1    1    3    3  502    0  0.56949951455E+02  0.50539351667E+01  0.54099158466E+03  0.54400435102E+03  0.50400001928E-02 0.  1.
       -1    1    3    3    0  502 -0.56949951455E+02 -0.50539351667E+01 -0.89601175133E+03  0.89783400346E+03  0.50400001928E-02 0. -1.
</event>
<event>
 5   0  0.1644571E-03  0.1389238E+04  0.7818609E-02  0.8961645E-01
       -1   -1    0    0    0  501  0.00000000000E+00  0.00000000000E+00  0.73936851780E+03  0.73936851782E+03  0.50400001928E-02 0.  1.
        1   -1    0    0  501    0  0.00000000000E+00  0.00000000000E+00 -0.65257835953E+03  0.65257835954E+03  0.50400001928E-02 0. -1.
    10030    2    1    2    0    0  0.00000000000E+00  0.00000000000E+00  0.86790158274E+02  0.13919468774E+04  0.13892384885E+04 0.  0.
        4    1    3    3  502    0  0.18445990633E+03  0.64761344388E+03 -0.12742380779E+03  0.68532260245E+03  0.12699999809E+01 0. -1.
       -4    1    3    3    0  502 -0.18445990633E+03 -0.64761344388E+03  0.21421396606E+03  0.70662427491E+03  0.12699999809E+01 0.  1.
</event>
<event>
 5   0  0.2760807E-03  0.1401974E+04  0.7818609E-02  0.8952391E-01
        2   -1    0    0  501    0  0.00000000000E+00  0.00000000000E+00  0.92056842322E+03  0.92056842322E+03  0.25500000920E-02 0. -1.
       -2   -1    0    0    0  501  0.00000000000E+00  0.00000000000E+00 -0.53378222924E+03  0.53378222924E+03  0.25500000920E-02 0.  1.
    10030    2    1    2    0    0  0.00000000000E+00  0.00000000000E+00  0.38678619398E+03  0.14543506525E+04  0.14019744151E+04 0.  0.
        4    1    3    3  502    0 -0.63025594726E+03 -0.65494803238E+02 -0.11758856424E+03  0.64446940319E+03  0.12699999809E+01 0.  1.
       -4    1    3    3    0  502  0.63025594726E+03  0.65494803238E+02  0.50437475822E+03  0.80988124928E+03  0.12699999809E+01 0. -1.
</event>
<event>
 5   0  0.1631380E-03  0.1373364E+04  0.7818609E-02  0.8973328E-01
       -1   -1    0    0    0  501  0.00000000000E+00  0.00000000000E+00  0.97615437214E+03  0.97615437215E+03  0.50400001928E-02 0. -1.
        1   -1    0    0  501    0  0.00000000000E+00  0.00000000000E+00 -0.48305111292E+03  0.48305111294E+03  0.50400001928E-02 0.  1.
    10030    2    1    2    0    0  0.00000000000E+00  0.00000000000E+00  0.49310325923E+03  0.14592054851E+04  0.13733644176E+04 0.  0.
        3    1    3    3  502    0  0.10228266763E+03 -0.37173635869E+03 -0.35719275594E+03  0.52558190567E+03  0.10100000352E+00 0.  1.
       -3    1    3    3    0  502 -0.10228266763E+03  0.37173635869E+03  0.85029601516E+03  0.93362357943E+03  0.10100000352E+00 0. -1.
</event>
<event>
 5   0  0.1586022E-03  0.1374752E+04  0.7818609E-02  0.8972300E-01
       -1   -1    0    0    0  501  0.00000000000E+00  0.00000000000E+00  0.75971609863E+03  0.75971609865E+03  0.50400001928E-02 0.  1.
        1   -1    0    0  501    0  0.00000000000E+00  0.00000000000E+00 -0.62192412913E+03  0.62192412915E+03  0.50400001928E-02 0. -1.
    10030    2    1    2    0    0  0.00000000000E+00  0.00000000000E+00  0.13779196950E+03  0.13816402278E+04  0.13747520112E+04 0.  0.
        1    1    3    3  502    0 -0.34565953173E+03 -0.27142834432E+03  0.60006273982E+03  0.74379375482E+03  0.50400001928E-02 0.  1.
       -1    1    3    3    0  502  0.34565953173E+03  0.27142834432E+03 -0.46227077031E+03  0.63784647297E+03  0.50400001928E-02 0. -1.
</event>
<event>
 5   0  0.1586022E-03  0.1424306E+04  0.7818609E-02  0.8936410E-01
        1   -1    0    0  501    0  0.00000000000E+00  0.00000000000E+00  0.72707905005E+03  0.72707905007E+03  0.50400001928E-02 0.  1.
       -1   -1    0    0    0  501  0.00000000000E+00  0.00000000000E+00 -0.69753370275E+03  0.69753370277E+03  0.50400001928E-02 0. -1.
    10030    2    1    2    0    0  0.00000000000E+00  0.00000000000E+00  0.29545347306E+02  0.14246127528E+04  0.14243063463E+04 0.  0.
        1    1    3    3  502    0 -0.44437095484E+03  0.54374837245E+03 -0.10371927919E+03  0.70984894657E+03  0.50400001928E-02 0. -1.
       -1    1    3    3    0  502  0.44437095484E+03 -0.54374837245E+03  0.13326462649E+03  0.71476380627E+03  0.50400001928E-02 0.  1.
</event>
<event>
 5   0  0.2760807E-03  0.1403829E+04  0.7818609E-02  0.8951052E-01
        2   -1    0    0  501    0  0.00000000000E+00  0.00000000000E+00  0.47786067973E+03  0.47786067973E+03  0.25500000920E-02 0. -1.
       -2   -1    0    0    0  501  0.00000000000E+00  0.00000000000E+00 -0.10310202559E+04  0.10310202559E+04  0.25500000920E-02 0.  1.
    10030    2    1    2    0    0  0.00000000000E+00  0.00000000000E+00 -0.55315957614E+03  0.15088809356E+04  0.14038291068E+04 0.  0.
        4    1    3    3  502    0  0.35679642871E+03 -0.21545093337E+03  0.33044802299E+03  0.53190253340E+03  0.12699999809E+01 0. -1.
       -4    1    3    3    0  502 -0.35679642871E+03  0.21545093337E+03 -0.88360759914E+03  0.97697840221E+03  0.12699999809E+01 0.  1.
</event>
<event>
 5   0  0.2993993E-03  0.1425677E+04  0.7818609E-02  0.8935439E-01
       -2   -1    0    0    0  501  0.00000000000E+00  0.00000000000E+00  0.44298546214E+03  0.44298546215E+03  0.25500000920E-02 0. -1.
        2   -1    0    0  501    0  0.00000000000E+00  0.00000000000E+00 -0.11470778098E+04  0.11470778098E+04  0.25500000920E-02 0.  1.
    10030    2    1    2    0    0  0.00000000000E+00  0.00000000000E+00 -0.70409234763E+03  0.15900632719E+04  0.14256770934E+04 0.  0.
        3    1    3    3  502    0  0.33752274328E+03  0.60948139932E+03 -0.18382519101E+03  0.72054208024E+03  0.10100000352E+00 0. -1.
       -3    1    3    3    0  502 -0.33752274328E+03 -0.60948139932E+03 -0.52026715661E+03  0.86952119169E+03  0.10100000352E+00 0.  1.
</event>
<event>
 5   0  0.2889469E-03  0.1426465E+04  0.7818609E-02  0.8934882E-01
        2   -1    0    0  501    0  0.00000000000E+00  0.00000000000E+00  0.60543860063E+03  0.60543860064E+03  0.25500000920E-02 0. -1.
       -2   -1    0    0    0  501  0.00000000000E+00  0.00000000000E+00 -0.84021829683E+03  0.84021829683E+03  0.25500000920E-02 0.  1.
    10030    2    1    2    0    0  0.00000000000E+00  0.00000000000E+00 -0.23477969620E+03  0.14456568975E+04  0.14264649871E+04 0.  0.
        5    1    3    3  502    0 -0.32694185548E+03 -0.22282039531E+03 -0.71878639422E+03  0.82049733451E+03  0.46999998093E+01 0.  1.
       -5    1    3    3    0  502  0.32694185548E+03  0.22282039531E+03  0.48400669802E+03  0.62515956296E+03  0.46999998093E+01 0. -1.
</event>
<event>
 5   0  0.2993993E-03  0.1378884E+04  0.7818609E-02  0.8969247E-01
        2   -1    0    0  501    0  0.00000000000E+00  0.00000000000E+00  0.73730118899E+03  0.73730118899E+03  0.25500000920E-02 0. -1.
       -2   -1    0    0    0  501  0.00000000000E+00  0.00000000000E+00 -0.64468919581E+03  0.64468919581E+03  0.25500000920E-02 0.  1.
    10030    2    1    2    0    0  0.00000000000E+00  0.00000000000E+00  0.92611993178E+02  0.13819903848E+04  0.13788837668E+04 0.  0.
        3    1    3    3  502    0 -0.31477113412E+03 -0.34660756223E+03 -0.46090970833E+03  0.65700489991E+03  0.10100000352E+00 0.  1.
       -3    1    3    3    0  502  0.31477113412E+03  0.34660756223E+03  0.55352170151E+03  0.72498548490E+03  0.10100000352E+00 0. -1.
</event>
<event>
 5   0  0.1560957E-03  0.1377755E+04  0.7818609E-02  0.8970080E-01
        1   -1    0    0  501    0  0.00000000000E+00  0.00000000000E+00  0.62312785081E+03  0.62312785083E+03  0.50400001928E-02 0.  1.
       -1   -1    0    0    0  501  0.00000000000E+00  0.00000000000E+00 -0.76156517476E+03  0.76156517477E+03  0.50400001928E-02 0. -1.
    10030    2    1    2    0    0  0.00000000000E+00  0.00000000000E+00 -0.13843732395E+03  0.13846930256E+04  0.13777553783E+04 0.  0.
        5    1    3    3  502    0 -0.62936895754E+02 -0.14907846776E+03  0.60373866381E+03  0.62506632174E+03  0.46999998093E+01 0.  1.
       -5    1    3    3    0  502  0.62936895754E+02  0.14907846776E+03 -0.74217598776E+03  0.75962670385E+03  0.46999998093E+01 0. -1.
</event>
<event>
 5   0  0.2889469E-03  0.1371984E+04  0.7818609E-02  0.8974352E-01
       -2   -1    0    0    0  501  0.00000000000E+00  0.00000000000E+00  0.41529363621E+03  0.41529363622E+03  0.25500000920E-02 0. -1.
        2   -1    0    0  501    0  0.00000000000E+00  0.00000000000E+00 -0.11331374920E+04  0.11331374920E+04  0.25500000920E-02 0.  1.
    10030    2    1    2    0    0  0.00000000000E+00  0.00000000000E+00 -0.71784385582E+03  0.15484311283E+04  0.13719836579E+04 0.  0.
        5    1    3    3  502    0  0.43307483017E+03  0.17435621363E+03  0.20831852394E+03  0.51124611996E+03  0.46999998093E+01 0. -1.
       -5    1    3    3    0  502 -0.43307483017E+03 -0.17435621363E+03 -0.92616237977E+03  0.10371850083E+04  0.46999998093E+01 0.  1.
</event>
<event>
 5   0  0.2917809E-03  0.1436822E+04  0.7818609E-02  0.8927588E-01
       -2   -1    0    0    0  501  0.00000000000E+00  0.00000000000E+00  0.36613590518E+03  0.36613590519E+03  0.25500000920E-02 0. -1.
        2   -1    0    0  501    0  0.00000000000E+00  0.00000000000E+00 -0.14096245069E+04  0.14096245069E+04  0.25500000920E-02 0.  1.
    10030    2    1    2    0    0  0.00000000000E+00  0.00000000000E+00 -0.10434886017E+04  0.17757604121E+04  0.14368216936E+04 0.  0.
        2    1    3    3  502    0  0.36138185573E+03  0.54403878426E+03 -0.89156213996E+03  0.11051959527E+04  0.25500000920E-02 0.  1.
       -2    1    3    3    0  502 -0.36138185573E+03 -0.54403878426E+03 -0.15192646176E+03  0.67056445940E+03  0.25500000920E-02 0. -1.
</event>
<event>
 5   0  0.2889469E-03  0.1320032E+04  0.7818609E-02  0.9013829E-01
       -2   -1    0    0    0  501  0.00000000000E+00  0.00000000000E+00  0.29610384000E+03  0.29610384001E+03  0.25500000920E-02 0. -1.
        2   -1    0    0  501    0  0.00000000000E+00  0.00000000000E+00 -0.14711767901E+04  0.14711767901E+04  0.25500000920E-02 0.  1.
    10030    2    1    2    0    0  0.00000000000E+00  0.00000000000E+00 -0.11750729501E+04  0.17672806301E+04  0.13200319646E+04 0.  0.
        5    1    3    3  502    0  0.52186326222E+03 -0.15239212012E+03 -0.86535682825E+02  0.55052260365E+03  0.46999998093E+01 0. -1.
       -5    1    3    3    0  502 -0.52186326222E+03  0.15239212012E+03 -0.10885372672E+04  0.12167580264E+04  0.46999998093E+01 0.  1.
</event>
<event>
 5   0  0.1586022E-03  0.1406095E+04  0.7818609E-02  0.8949419E-01
        1   -1    0    0  501    0  0.00000000000E+00  0.00000000000E+00  0.93717637614E+03  0.93717637616E+03  0.50400001928E-02 0. -1.
       -1   -1    0    0    0  501  0.00000000000E+00  0.00000000000E+00 -0.52740932968E+03  0.52740932971E+03  0.50400001928E-02 0.  1.
    10030    2    1    2    0    0  0.00000000000E+00  0.00000000000E+00  0.40976704646E+03  0.14645857059E+04  0.14060946830E+04 0.  0.
        1    1    3    3  502    0  0.45347147855E+03 -0.53278391891E+03  0.27690066778E+03  0.75244206817E+03  0.50400001928E-02 0.  1.
       -1    1    3    3    0  502 -0.45347147855E+03  0.53278391891E+03  0.13286637868E+03  0.71214363770E+03  0.50400001928E-02 0. -1.
</event>
<event>
 5   0  0.2917809E-03  0.1420898E+04  0.7818609E-02  0.8938829E-01
        2   -1    0    0  501    0  0.00000000000E+00  0.00000000000E+00  0.12146381397E+04  0.12146381397E+04  0.25500000920E-02 0.  1.
       -2   -1    0    0    0  501  0.00000000000E+00  0.00000000000E+00 -0.41554593778E+03  0.41554593779E+03  0.25500000920E-02 0. -1.
    10030    2    1    2    0    0  0.00000000000E+00  0.00000000000E+00  0.79909220190E+03  0.16301840775E+04  0.14208982298E+04 0.  0.
        2    1    3    3  502    0  0.42223012937E+03  0.39058160222E+03  0.87798948176E+03  0.10496179306E+04  0.25500000920E-02 0.  1.
       -2    1    3    3    0  502 -0.42223012937E+03 -0.39058160222E+03 -0.78897279852E+02  0.58056614689E+03  0.25500000920E-02 0. -1.
</event>
<event>
 5   0  0.1560957E-03  0.1422609E+04  0.7818609E-02  0.8937614E-01
       -1   -1    0    0    0  501  0.00000000000E+00  0.00000000000E+00  0.54521614031E+03  0.54521614033E+03  0.50400001928E-02 0. -1.
        1   -1    0    0  501    0  0.00000000000E+00  0.00000000000E+00 -0.92798757187E+03  0.92798757188E+03  0.50400001928E-02 0.  1.
    10030    2    1    2    0    0  0.00000000000E+00  0.00000000000E+00 -0.38277143156E+03  0.14732037122E+04  0.14226085930E+04 0.  0.
        5    1    3    3  502    0  0.42462993985E+03 -0.32128265326E+03  0.29697799490E+03  0.60971398914E+03  0.46999998093E+01 0. -1.
       -5    1    3    3    0  502 -0.42462993985E+03  0.32128265326E+03 -0.67974942646E+03  0.86348972308E+03  0.46999998093E+01 0.  1.
</event>
<event>
 5   0  0.1631380E-03  0.1395256E+04  0.7818609E-02  0.8957259E-01
       -1   -1    0    0    0  501  0.00000000000E+00  0.00000000000E+00  0.57187541868E+03  0.57187541870E+03  0.50400001928E-02 0. -1.
        1   -1    0    0  501    0  0.00000000000E+00  0.00000000000E+00 -0.85103338466E+03  0.85103338468E+03  0.50400001928E-02 0.  1.
    10030    2    1    2    0    0  0.00000000000E+00  0.00000000000E+00 -0.27915796599E+03  0.14229088034E+04  0.13952563538E+04 0.  0.
        3    1    3    3  502    0  0.59383032925E+02 -0.37641928640E+03 -0.73551218024E+03  0.82836948354E+03  0.10100000352E+00 0.  1.
       -3    1    3    3    0  502 -0.59383032925E+02  0.37641928640E+03  0.45635421425E+03  0.59453931984E+03  0.10100000352E+00 0. -1.
</event>
<event>
 5   0  0.2760807E-03  0.1374006E+04  0.7818609E-02  0.8972853E-01
       -2   -1    0    0    0  501  0.00000000000E+00  0.00000000000E+00  0.30219559489E+03  0.30219559490E+03  0.25500000920E-02 0. -1.
        2   -1    0    0  501    0  0.00000000000E+00  0.00000000000E+00 -0.15618123529E+04  0.15618123529E+04  0.25500000920E-02 0.  1.
    10030    2    1    2    0    0  0.00000000000E+00  0.00000000000E+00 -0.12596167580E+04  0.18640079478E+04  0.13740055504E+04 0.  0.
        4    1    3    3  502    0 -0.16128404337E+03 -0.48323042785E+03 -0.45139124638E+01  0.50945674728E+03  0.12699999809E+01 0. -1.
       -4    1    3    3    0  502  0.16128404337E+03  0.48323042785E+03 -0.12551028456E+04  0.13545512005E+04  0.12699999809E+01 0.  1.
</event>
<event>
 5   0  0.1560957E-03  0.1376891E+04  0.7818609E-02  0.8970718E-01
        1   -1    0    0  501    0  0.00000000000E+00  0.00000000000E+00  0.58235383935E+03  0.58235383937E+03  0.50400001928E-02 0. -1.
       -1   -1    0    0    0  501  0.00000000000E+00  0.00000000000E+00 -0.81386481103E+03  0.81386481105E+03  0.50400001928E-02 0.  1.
    10030    2    1    2    0    0  0.00000000000E+00  0.00000000000E+00 -0.23151097168E+03  0.13962186504E+04  0.13768911321E+04 0.  0.
        5    1    3    3  502    0 -0.31420543210E+02  0.13330552634E+02 -0.81299004224E+03  0.81371976316E+03  0.46999998093E+01 0.  1.
       -5    1    3    3    0  502  0.31420543210E+02 -0.13330552634E+02  0.58147907056E+03  0.58249888727E+03  0.46999998093E+01 0. -1.
</event>
<event>
 5   0  0.1644571E-03  0.1374632E+04  0.7818609E-02  0.8972389E-01
        1   -1    0    0  501    0  0.00000000000E+00  0.00000000000E+00  0.19000456695E+04  0.19000456696E+04  0.50400001928E-02 0. -1.
       -1   -1    0    0    0  501  0.00000000000E+00  0.00000000000E+00 -0.24862740210E+03  0.24862740215E+03  0.50400001928E-02 0.  1.
    10030    2    1    2    0    0  0.00000000000E+00  0.00000000000E+00  0.16514182674E+04  0.21486730717E+04  0.13746321963E+04 0.  0.
        4    1    3    3  502    0  0.17989544671E+03  0.19085545891E+03 -0.16733086143E+03  0.31110996132E+03  0.12699999809E+01 0.  1.
       -4    1    3    3    0  502 -0.17989544671E+03 -0.19085545891E+03  0.18187491289E+04  0.18375631104E+04  0.12699999809E+01 0. -1.
</event>
<event>
 5   0  0.1631380E-03  0.1541281E+04  0.7818609E-02  0.8857456E-01
       -1   -1    0    0    0  501  0.00000000000E+00  0.00000000000E+00  0.46241129702E+03  0.46241129705E+03  0.50400001928E-02 0. -1.
        1   -1    0    0  501    0  0.00000000000E+00  0.00000000000E+00 -0.12843259741E+04  0.12843259742E+04  0.50400001928E-02 0.  1.
    10030    2    1    2    0    0  0.00000000000E+00  0.00000000000E+00 -0.82191467713E+03  0.17467372712E+04  0.15412810769E+04 0.  0.
        3    1    3    3  502    0  0.72301229991E+03  0.24176909967E+03 -0.28330229508E+03  0.81330147177E+03  0.10100000352E+00 0. -1.
       -3    1    3    3    0  502 -0.72301229991E+03 -0.24176909967E+03 -0.53861238205E+03  0.93343579944E+03  0.10100000352E+00 0.  1.
</event>
<event>
 5   0  0.2889469E-03  0.1395384E+04  0.7818609E-02  0.8957166E-01
       -2   -1    0    0    0  501  0.00000000000E+00  0.00000000000E+00  0.33919316355E+03  0.33919316356E+03  0.25500000920E-02 0. -1.
        2   -1    0    0  501    0  0.00000000000E+00  0.00000000000E+00 -0.14350949096E+04  0.14350949096E+04  0.25500000920E-02 0.  1.
    10030    2    1    2    0    0  0.00000000000E+00  0.00000000000E+00 -0.10959017460E+04  0.17742880731E+04  0.13953843662E+04 0.  0.
        5    1    3    3  502    0  0.46268184374E+03 -0.49588262207E+03 -0.33987524900E+03  0.75862463596E+03  0.46999998093E+01 0.  1.
       -5    1    3    3    0  502 -0.46268184374E+03  0.49588262207E+03 -0.75602649702E+03  0.10156634372E+04  0.46999998093E+01 0. -1.
</event>
<event>
 5   0  0.1644571E-03  0.1418765E+04  0.7818609E-02  0.8940347E-01
        1   -1    0    0  501    0  0.00000000000E+00  0.00000000000E+00  0.10939138359E+04  0.10939138359E+04  0.50400001928E-02 0. -1.
       -1   -1    0    0    0  501  0.00000000000E+00  0.00000000000E+00 -0.46002091587E+03  0.46002091590E+03  0.50400001928E-02 0.  1.
    10030    2    1    2    0    0  0.00000000000E+00  0.00000000000E+00  0.63389292004E+03  0.15539347518E+04  0.14187645960E+04 0.  0.
        4    1    3    3  502    0 -0.45523455352E+03  0.43306769348E+01 -0.27891069467E+03  0.53390077915E+03  0.12699999809E+01 0.  1.
       -4    1    3    3    0  502  0.45523455352E+03 -0.43306769348E+01  0.91280361471E+03  0.10200339727E+04  0.12699999809E+01 0. -1.
</event>
<event>
 5   0  0.1560957E-03  0.1372075E+04  0.7818609E-02  0.8974284E-01
       -1   -1    0    0    0  501  0.00000000000E+00  0.00000000000E+00  0.23907764807E+03  0.23907764813E+03  0.50400001928E-02 0.  1.
        1   -1    0    0  501    0  0.00000000000E+00  0.00000000000E+00 -0.19685970491E+04  0.19685970491E+04  0.50400001928E-02 0. -1.
    10030    2    1    2    0    0  0.00000000000E+00  0.00000000000E+00 -0.17295194010E+04  0.22076746972E+04  0.13720751475E+04 0.  0.
        5    1    3    3  502    0 -0.31811690490E+03 -0.59423769233E+03 -0.65928121622E+03  0.94286298699E+03  0.46999998093E+01 0.  1.
       -5    1    3    3    0  502  0.31811690490E+03  0.59423769233E+03 -0.10702381848E+04  0.12648117103E+04  0.46999998093E+01 0. -1.
</event>
<event>
 5   0  0.2889469E-03  0.1347607E+04  0.7818609E-02  0.8992642E-01
        2   -1    0    0  501    0  0.00000000000E+00  0.00000000000E+00  0.84868551686E+03  0.84868551687E+03  0.25500000920E-02 0.  1.
       -2   -1    0    0    0  501  0.00000000000E+00  0.00000000000E+00 -0.53495807605E+03  0.53495807605E+03  0.25500000920E-02 0. -1.
    10030    2    1    2    0    0  0.00000000000E+00  0.00000000000E+00  0.31372744082E+03  0.13836435929E+04  0.13476070218E+04 0.  0.
        5    1    3    3  502    0  0.64002815067E+03  0.20963647050E+03  0.13618570741E+03  0.68713326241E+03  0.46999998093E+01 0.  1.
       -5    1    3    3    0  502 -0.64002815067E+03 -0.20963647050E+03  0.17754173340E+03  0.69651033051E+03  0.46999998093E+01 0. -1.
</event>
<event>
 5   0  0.1560957E-03  0.1427318E+04  0.7818609E-02  0.8934278E-01
       -1   -1    0    0    0  501  0.00000000000E+00  0.00000000000E+00  0.86648846478E+03  0.86648846479E+03  0.50400001928E-02 0.  1.
        1   -1    0    0  501    0  0.00000000000E+00  0.00000000000E+00 -0.58778539793E+03  0.58778539795E+03  0.50400001928E-02 0. -1.
    10030    2    1    2    0    0  0.00000000000E+00  0.00000000000E+00  0.27870306685E+03  0.14542738627E+04  0.14273181385E+04 0.  0.
        5    1    3    3  502    0  0.53059275308E+03 -0.12117159546E+03  0.60967065121E+03  0.81727083523E+03  0.46999998093E+01 0.  1.
       -5    1    3    3    0  502 -0.53059275308E+03  0.12117159546E+03 -0.33096758436E+03  0.63700302752E+03  0.46999998093E+01 0. -1.
</event>
<event>
 5   0  0.2760807E-03  0.1437749E+04  0.7818609E-02  0.8926938E-01
        2   -1    0    0  501    0  0.00000000000E+00  0.00000000000E+00  0.49288146303E+03  0.49288146303E+03  0.25500000920E-02 0.  1.
       -2   -1    0    0    0  501  0.00000000000E+00  0.00000000000E+00 -0.10484891422E+04  0.10484891422E+04  0.25500000920E-02 0. -1.
    10030    2    1    2    0    0  0.00000000000E+00  0.00000000000E+00 -0.55560767921E+03  0.15413706053E+04  0.14377494391E+04 0.  0.
        4    1    3    3  502    0 -0.38391675254E+02 -0.23931217921E+03 -0.10033636236E+04  0.10322230447E+04  0.12699999809E+01 0. -1.
       -4    1    3    3    0  502  0.38391675254E+02  0.23931217921E+03  0.44775594439E+03  0.50914756062E+03  0.12699999809E+01 0.  1.
</event>
<event>
 5   0  0.1644571E-03  0.1409439E+04  0.7818609E-02  0.8947014E-01
        1   -1    0    0  501    0  0.00000000000E+00  0.00000000000E+00  0.13969011212E+04  0.13969011212E+04  0.50400001928E-02 0.  1.
       -1   -1    0    0    0  501  0.00000000000E+00  0.00000000000E+00 -0.35552258443E+03  0.35552258446E+03  0.50400001928E-02 0. -1.
    10030    2    1    2    0    0  0.00000000000E+00  0.00000000000E+00  0.10413785367E+04  0.17524237057E+04  0.14094394586E+04 0.  0.
        4    1    3    3  502    0  0.12484681076E+03  0.64598413012E+03  0.20676898918E+03  0.68966459262E+03  0.12699999809E+01 0. -1.
       -4    1    3    3    0  502 -0.12484681076E+03 -0.64598413012E+03  0.83460954757E+03  0.10627591130E+04  0.12699999809E+01 0.  1.
</event>
<event>
 5   0  0.1700207E-03  0.1399203E+04  0.7818609E-02  0.8954396E-01
        1   -1    0    0  501    0  0.00000000000E+00  0.00000000000E+00  0.88392174377E+03  0.88392174378E+03  0.50400001928E-02 0. -1.
       -1   -1    0    0    0  501  0.00000000000E+00  0.00000000000E+00 -0.55371675130E+03  0.55371675133E+03  0.50400001928E-02 0.  1.
    10030    2    1    2    0    0  0.00000000000E+00  0.00000000000E+00  0.33020499247E+03  0.14376384951E+04  0.13992030251E+04 0.  0.
        2    1    3    3  502    0 -0.57554888059E+03 -0.94922166391E+02  0.56194462808E+03  0.80996820719E+03  0.25500000920E-02 0. -1.
       -2    1    3    3    0  502  0.57554888059E+03  0.94922166391E+02 -0.23173963561E+03  0.62767028792E+03  0.25500000920E-02 0.  1.
</event>
<event>
 5   0  0.1631380E-03  0.1454893E+04  0.7818609E-02  0.8915015E-01
        1   -1    0    0  501    0  0.00000000000E+00  0.00000000000E+00  0.22464950410E+04  0.22464950410E+04  0.50400001928E-02 0. -1.
       -1   -1    0    0    0  501  0.00000000000E+00  0.00000000000E+00 -0.23555750642E+03  0.23555750648E+03  0.50400001928E-02 0.  1.
    10030    2    1    2    0    0  0.00000000000E+00  0.00000000000E+00  0.20109375345E+04  0.24820525475E+04  0.14548934945E+04 0.  0.
        3    1    3    3  502    0 -0.14861676927E+03  0.56927045552E+03  0.17353170025E+04  0.18323430096E+04  0.10100000352E+00 0. -1.
       -3    1    3    3    0  502  0.14861676927E+03 -0.56927045552E+03  0.27562053206E+03  0.64970953782E+03  0.10100000352E+00 0.  1.
</event>
<event>
 5   0  0.2993993E-03  0.1405736E+04  0.7818609E-02  0.8949677E-01
       -2   -1    0    0    0  501  0.00000000000E+00  0.00000000000E+00  0.75475644606E+03  0.75475644607E+03  0.25500000920E-02 0. -1.
        2   -1    0    0  501    0  0.00000000000E+00  0.00000000000E+00 -0.65454683772E+03  0.65454683773E+03  0.25500000920E-02 0.  1.
    10030    2    1    2    0    0  0.00000000000E+00  0.00000000000E+00  0.10020960834E+03  0.14093032838E+04  0.14057360279E+04 0.  0.
        3    1    3    3  502    0  0.18668713396E+03 -0.22902999959E+03 -0.58925693239E+03  0.65918932733E+03  0.10100000352E+00 0.  1.
       -3    1    3    3    0  502 -0.18668713396E+03  0.22902999959E+03  0.68946654073E+03  0.75011395646E+03  0.10100000352E+00 0. -1.
</event>
<event>
 5   0  0.1700207E-03  0.1393165E+04  0.7818609E-02  0.8958781E-01
       -1   -1    0    0    0  501  0.00000000000E+00  0.00000000000E+00  0.13446864653E+04  0.13446864653E+04  0.50400001928E-02 0.  1.
        1   -1    0    0  501    0  0.00000000000E+00  0.00000000000E+00 -0.36084791794E+03  0.36084791797E+03  0.50400001928E-02 0. -1.
    10030    2    1    2    0    0  0.00000000000E+00  0.00000000000E+00  0.98383854735E+03  0.17055343833E+04  0.13931651895E+04 0.  0.
        2    1    3    3  502    0 -0.63893660894E+03 -0.11192359687E+03  0.18110248984E+03  0.67347234065E+03  0.25500000920E-02 0. -1.
       -2    1    3    3    0  502  0.63893660894E+03  0.11192359687E+03  0.80273605751E+03  0.10320620426E+04  0.25500000920E-02 0.  1.
</event>
<event>
 5   0  0.1700207E-03  0.1405200E+04  0.7818609E-02  0.8950063E-01
        1   -1    0    0  501    0  0.00000000000E+00  0.00000000000E+00  0.36861019690E+03  0.36861019693E+03  0.50400001928E-02 0.  1.
       -1   -1    0    0    0  501  0.00000000000E+00  0.00000000000E+00 -0.13392109189E+04  0.13392109189E+04  0.50400001928E-02 0. -1.
    10030    2    1    2    0    0  0.00000000000E+00  0.00000000000E+00 -0.97060072204E+03  0.17078211159E+04  0.14052000577E+04 0.  0.
        2    1    3    3  502    0  0.36269680259E+02 -0.82972512063E+02  0.36148837813E+03  0.37265771828E+03  0.25500000920E-02 0.  1.
       -2    1    3    3    0  502 -0.36269680259E+02  0.82972512063E+02 -0.13320891002E+04  0.13351633976E+04  0.25500000920E-02 0. -1.
</event>
<event>
 5   0  0.2889469E-03  0.1398779E+04  0.7818609E-02  0.8954703E-01
        2   -1    0    0  501    0  0.00000000000E+00  0.00000000000E+00  0.10336540721E+04  0.10336540721E+04  0.25500000920E-02 0.  1.
       -2   -1    0    0    0  501  0.00000000000E+00  0.00000000000E+00 -0.47321980523E+03  0.47321980524E+03  0.25500000920E-02 0. -1.
    10030    2    1    2    0    0  0.00000000000E+00  0.00000000000E+00  0.56043426689E+03  0.15068738774E+04  0.13987788656E+04 0.  0.
        5    1    3    3  502    0 -0.36005940671E+03 -0.45043562009E+03  0.70650966594E+03  0.91198301644E+03  0.46999998093E+01 0.  1.
       -5    1    3    3    0  502  0.36005940671E+03  0.45043562009E+03 -0.14607539905E+03  0.59489086092E+03  0.46999998093E+01 0. -1.
</event>
<event>
 5   0  0.2760807E-03  0.1405508E+04  0.7818609E-02  0.8949841E-01
       -2   -1    0    0    0  501  0.00000000000E+00  0.00000000000E+00  0.13483801127E+04  0.13483801127E+04  0.25500000920E-02 0.  1.
        2   -1    0    0  501    0  0.00000000000E+00  0.00000000000E+00 -0.36626402379E+03  0.36626402380E+03  0.25500000920E-02 0. -1.
    10030    2    1    2    0    0  0.00000000000E+00  0.00000000000E+00  0.98211608894E+03  0.17146441365E+04  0.14055079163E+04 0.  0.
        4    1    3    3  502    0 -0.61763164355E+02  0.20895476799E+03 -0.32401281631E+03  0.39046472513E+03  0.12699999809E+01 0. -1.
       -4    1    3    3    0  502  0.61763164355E+02 -0.20895476799E+03  0.13061289053E+04  0.13241794114E+04  0.12699999809E+01 0.  1.
</event>
<event>
 5   0  0.1700207E-03  0.1414879E+04  0.7818609E-02  0.8943118E-01
       -1   -1    0    0    0  501  0.00000000000E+00  0.00000000000E+00  0.57223422350E+03  0.57223422352E+03  0.50400001928E-02 0. -1.
        1   -1    0    0  501    0  0.00000000000E+00  0.00000000000E+00 -0.87459019279E+03  0.87459019281E+03  0.50400001928E-02 0.  1.
    10030    2    1    2    0    0  0.00000000000E+00  0.00000000000E+00 -0.30235596929E+03  0.14468244163E+04  0.14148787084E+04 0.  0.
        2    1    3    3  502    0 -0.28061558569E+02 -0.66986582644E+03 -0.38202438264E+03  0.77165426548E+03  0.25500000920E-02 0.  1.
       -2    1    3    3    0  502  0.28061558569E+02  0.66986582644E+03  0.79668413344E+02  0.67517015085E+03  0.25500000920E-02 0. -1.
</event>
<event>
 5   0  0.1586022E-03  0.1362893E+04  0.7818609E-02  0.8981125E-01
       -1   -1    0    0    0  501  0.00000000000E+00  0.00000000000E+00  0.56689290281E+03  0.56689290283E+03  0.50400001928E-02 0.  1.
        1   -1    0    0  501    0  0.00000000000E+00  0.00000000000E+00 -0.81914848533E+03  0.81914848534E+03  0.50400001928E-02 0. -1.
    10030    2    1    2    0    0  0.00000000000E+00  0.00000000000E+00 -0.25225558252E+03  0.13860413882E+04  0.13628931913E+04 0.  0.
        1    1    3    3  502    0  0.40162786820E+03  0.52667411956E+03  0.36840270369E+02  0.66336097132E+03  0.50400001928E-02 0.  1.
       -1    1    3    3    0  502 -0.40162786820E+03 -0.52667411956E+03 -0.28909585289E+03  0.72268041686E+03  0.50400001928E-02 0. -1.
</event>
<event>
 5   0  0.1631380E-03  0.1460068E+04  0.7818609E-02  0.8911450E-01
       -1   -1    0    0    0  501  0.00000000000E+00  0.00000000000E+00  0.57467774406E+03  0.57467774408E+03  0.50400001928E-02 0.  1.
        1   -1    0    0  501    0  0.00000000000E+00  0.00000000000E+00 -0.92738840355E+03  0.92738840356E+03  0.50400001928E-02 0. -1.
    10030    2    1    2    0    0  0.00000000000E+00  0.00000000000E+00 -0.35271065949E+03  0.15020661476E+04  0.14600677733E+04 0.  0.
        3    1    3    3  502    0 -0.30289901016E+03  0.14875606067E+03 -0.84233509450E+03  0.90741644109E+03  0.10100000352E+00 0. -1.
       -3    1    3    3    0  502  0.30289901016E+03 -0.14875606067E+03  0.48962443501E+03  0.59464970655E+03  0.10100000352E+00 0.  1.
</event>
<event>
 5   0  0.2917809E-03  0.1413397E+04  0.7818609E-02  0.8944178E-01
       -2   -1    0    0    0  501  0.00000000000E+00  0.00000000000E+00  0.47499110226E+03  0.47499110227E+03  0.25500000920E-02 0.  1.
        2   -1    0    0  501    0  0.00000000000E+00  0.00000000000E+00 -0.10514364792E+04  0.10514364792E+04  0.25500000920E-02 0. -1.
    10030    2    1    2    0    0  0.00000000000E+00  0.00000000000E+00 -0.57644537690E+03  0.15264275814E+04  0.14133972863E+04 0.  0.
        2    1    3    3  502    0  0.50210699360E+03 -0.75368480677E+02  0.24264757031E+03  0.56273411509E+03  0.25500000920E-02 0.  1.
       -2    1    3    3    0  502 -0.50210699360E+03  0.75368480677E+02 -0.81909294721E+03  0.96369346634E+03  0.25500000920E-02 0. -1.
</event>
<event>
 5   0  0.1586022E-03  0.1415833E+04  0.7818609E-02  0.8942437E-01
       -1   -1    0    0    0  501  0.00000000000E+00  0.00000000000E+00  0.37630536929E+03  0.37630536932E+03  0.50400001928E-02 0. -1.
        1   -1    0    0  501    0  0.00000000000E+00  0.00000000000E+00 -0.13317531777E+04  0.13317531777E+04  0.50400001928E-02 0.  1.
    10030    2    1    2    0    0  0.00000000000E+00  0.00000000000E+00 -0.95544780837E+03  0.17080585470E+04  0.14158331418E+04 0.  0.
        1    1    3    3  502    0  0.21293380365E+03 -0.65814106502E+03 -0.65930749300E+03  0.95560286550E+03  0.50400001928E-02 0. -1.
       -1    1    3    3    0  502 -0.21293380365E+03  0.65814106502E+03 -0.29614031538E+03  0.75245568150E+03  0.50400001928E-02 0.  1.
</event>
<event>
 5   0  0.2889469E-03  0.8550065E+03  0.7818609E-02  0.9483642E-01
       -2   -1    0    0    0  501  0.00000000000E+00  0.00000000000E+00  0.54635019055E+03  0.54635019056E+03  0.25500000920E-02 0. -1.
        2   -1    0    0  501    0  0.00000000000E+00  0.00000000000E+00 -0.33450895848E+03  0.33450895849E+03  0.25500000920E-02 0.  1.
    10030    2    1    2    0    0  0.00000000000E+00  0.00000000000E+00  0.21184123207E+03  0.88085914905E+03  0.85500651042E+03 0.  0.
        5    1    3    3  502    0  0.11129491825E+03  0.37990970033E+03 -0.60260771836E+02  0.40046396823E+03  0.46999998093E+01 0. -1.
       -5    1    3    3    0  502 -0.11129491825E+03 -0.37990970033E+03  0.27210200390E+03  0.48039518082E+03  0.46999998093E+01 0.  1.
</event>
<event>
 5   0  0.1631380E-03  0.1399233E+04  0.7818609E-02  0.8954374E-01
       -1   -1    0    0    0  501  0.00000000000E+00  0.00000000000E+00  0.76679958789E+03  0.76679958791E+03  0.50400001928E-02 0.  1.
        1   -1    0    0  501    0  0.00000000000E+00  0.00000000000E+00 -0.63832002338E+03  0.63832002340E+03  0.50400001928E-02 0. -1.
    10030    2    1    2    0    0  0.00000000000E+00  0.00000000000E+00  0.12847956452E+03  0.14051196113E+04  0.13992334057E+04 0.  0.
        3    1    3    3  502    0  0.22197766802E+03  0.19204868484E+03  0.70197568796E+03  0.76087230146E+03  0.10100000352E+00 0.  1.
       -3    1    3    3    0  502 -0.22197766802E+03 -0.19204868484E+03 -0.57349612344E+03  0.64424730985E+03  0.10100000352E+00 0. -1.
</event>
<event>
 5   0  0.2917809E-03  0.8988084E+03  0.7818609E-02  0.9427072E-01
        2   -1    0    0  501    0  0.00000000000E+00  0.00000000000E+00  0.26808515527E+03  0.26808515528E+03  0.25500000920E-02 0.  1.
       -2   -1    0    0    0  501  0.00000000000E+00  0.00000000000E+00 -0.75335813284E+03  0.75335813284E+03  0.25500000920E-02 0. -1.
    10030    2    1    2    0    0  0.00000000000E+00  0.00000000000E+00 -0.48527297757E+03  0.10214432881E+04  0.89880839342E+03 0.  0.
        2    1    3    3  502    0  0.24731547681E+03 -0.21381363293E+03  0.10779117939E+03  0.34423851187E+03  0.25500000920E-02 0.  1.
       -2    1    3    3    0  502 -0.24731547681E+03  0.21381363293E+03 -0.59306415696E+03  0.67720477625E+03  0.25500000920E-02 0. -1.
</event>
<event>
 5   0  0.1104538E-03  0.1394263E+04  0.7818609E-02  0.8957982E-01
        3   -1    0    0  501    0  0.00000000000E+00  0.00000000000E+00  0.55679730642E+03  0.55679731558E+03  0.10100000352E+00 0. -1.
       -3   -1    0    0    0  501  0.00000000000E+00  0.00000000000E+00 -0.87283564754E+03  0.87283565338E+03  0.10100000352E+00 0.  1.
    10030    2    1    2    0    0  0.00000000000E+00  0.00000000000E+00 -0.31603834111E+03  0.14296329690E+04  0.13942633155E+04 0.  0.
        4    1    3    3  502    0 -0.31015363155E+03 -0.21547516204E+03  0.44282032292E+03  0.58199336071E+03  0.12699999809E+01 0. -1.
       -4    1    3    3    0  502  0.31015363155E+03  0.21547516204E+03 -0.75885866403E+03  0.84763960826E+03  0.12699999809E+01 0.  1.
</event>
<event>
 5   0  0.2889469E-03  0.1348038E+04  0.7818609E-02  0.8992314E-01
        2   -1    0    0  501    0  0.00000000000E+00  0.00000000000E+00  0.76317890205E+03  0.76317890205E+03  0.25500000920E-02 0.  1.
       -2   -1    0    0    0  501  0.00000000000E+00  0.00000000000E+00 -0.59527572180E+03  0.59527572181E+03  0.25500000920E-02 0. -1.
    10030    2    1    2    0    0  0.00000000000E+00  0.00000000000E+00  0.16790318025E+03  0.13584546239E+04  0.13480383849E+04 0.  0.
        5    1    3    3  502    0  0.58783396306E+03 -0.24328204022E+03 -0.14035508176E+03  0.65150330636E+03  0.46999998093E+01 0.  1.
       -5    1    3    3    0  502 -0.58783396306E+03  0.24328204022E+03  0.30825826201E+03  0.70695131750E+03  0.46999998093E+01 0. -1.
</event>
<event>
 5   0  0.1586022E-03  0.1429316E+04  0.7818609E-02  0.8932867E-01
       -1   -1    0    0    0  501  0.00000000000E+00  0.00000000000E+00  0.56730744954E+03  0.56730744956E+03  0.50400001928E-02 0. -1.
        1   -1    0    0  501    0  0.00000000000E+00  0.00000000000E+00 -0.90028086821E+03  0.90028086822E+03  0.50400001928E-02 0.  1.
    10030    2    1    2    0    0  0.00000000000E+00  0.00000000000E+00 -0.33297341867E+03  0.14675883178E+04  0.14293159808E+04 0.  0.
        1    1    3    3  502    0 -0.61810168502E+03  0.28722112084E+03 -0.38716100770E+03  0.78386179342E+03  0.50400001928E-02 0.  1.
       -1    1    3    3    0  502  0.61810168502E+03 -0.28722112084E+03  0.54187589026E+02  0.68372652436E+03  0.50400001928E-02 0. -1.
</event>
<event>
 5   0  0.1644571E-03  0.1411829E+04  0.7818609E-02  0.8945300E-01
        1   -1    0    0  501    0  0.00000000000E+00  0.00000000000E+00  0.14838422387E+04  0.14838422387E+04  0.50400001928E-02 0.  1.
       -1   -1    0    0    0  501  0.00000000000E+00  0.00000000000E+00 -0.33582759944E+03  0.33582759948E+03  0.50400001928E-02 0. -1.
    10030    2    1    2    0    0  0.00000000000E+00  0.00000000000E+00  0.11480146392E+04  0.18196698382E+04  0.14118288522E+04 0.  0.
        4    1    3    3  502    0  0.49688020418E+03  0.21243574134E+03  0.11594098031E+04  0.12791605004E+04  0.12699999809E+01 0.  1.
       -4    1    3    3    0  502 -0.49688020418E+03 -0.21243574134E+03 -0.11395163860E+02  0.54050933772E+03  0.12699999809E+01 0. -1.
</event>
<event>
 5   0  0.2993993E-03  0.1427003E+04  0.7818609E-02  0.8934501E-01
        2   -1    0    0  501    0  0.00000000000E+00  0.00000000000E+00  0.89434174707E+03  0.89434174707E+03  0.25500000920E-02 0. -1.
       -2   -1    0    0    0  501  0.00000000000E+00  0.00000000000E+00 -0.56922836629E+03  0.56922836630E+03  0.25500000920E-02 0.  1.
    10030    2    1    2    0    0  0.00000000000E+00  0.00000000000E+00  0.32511338078E+03  0.14635701134E+04  0.14270034220E+04 0.  0.
        3    1    3    3  502    0 -0.55701160814E+03 -0.20566787520E+03  0.56832512389E+03  0.82192132417E+03  0.10100000352E+00 0. -1.
       -3    1    3    3    0  502  0.55701160814E+03  0.20566787520E+03 -0.24321174311E+03  0.64164878920E+03  0.10100000352E+00 0.  1.
</event>
<event>
 5   0  0.1560957E-03  0.1397016E+04  0.7818609E-02  0.8955981E-01
       -1   -1    0    0    0  501  0.00000000000E+00  0.00000000000E+00  0.46422654755E+03  0.46422654758E+03  0.50400001928E-02 0.  1.
        1   -1    0    0  501    0  0.00000000000E+00  0.00000000000E+00 -0.10510242415E+04  0.10510242415E+04  0.50400001928E-02 0. -1.
    10030    2    1    2    0    0  0.00000000000E+00  0.00000000000E+00 -0.58679769390E+03  0.15152507890E+04  0.13970158983E+04 0.  0.
        5    1    3    3  502    0  0.50665636286E+03  0.22932872463E+03  0.16497792093E+03  0.58011390120E+03  0.46999998093E+01 0.  1.
       -5    1    3    3    0  502 -0.50665636286E+03 -0.22932872463E+03 -0.75177561483E+03  0.93513688785E+03  0.46999998093E+01 0. -1.
</event>
<event>
 5   0  0.3006737E-03  0.1399963E+04  0.7818609E-02  0.8953845E-01
       -2   -1    0    0    0  501  0.00000000000E+00  0.00000000000E+00  0.30079388995E+03  0.30079388997E+03  0.25500000920E-02 0. -1.
        2   -1    0    0  501    0  0.00000000000E+00  0.00000000000E+00 -0.16289362024E+04  0.16289362024E+04  0.25500000920E-02 0.  1.
    10030    2    1    2    0    0  0.00000000000E+00  0.00000000000E+00 -0.13281423125E+04  0.19297300924E+04  0.13999629378E+04 0.  0.
        1    1    3    3  502    0  0.71601548530E+02 -0.27975113699E+03 -0.15430057315E+04  0.15697943075E+04  0.50400001928E-02 0.  1.
       -1    1    3    3    0  502 -0.71601548530E+02  0.27975113699E+03  0.21486341901E+03  0.35993578491E+03  0.50400001928E-02 0. -1.
</event>
<event>
 5   0  0.1586022E-03  0.1371003E+04  0.7818609E-02  0.8975080E-01
       -1   -1    0    0    0  501  0.00000000000E+00  0.00000000000E+00  0.67418877745E+03  0.67418877746E+03  0.50400001928E-02 0.  1.
        1   -1    0    0  501    0  0.00000000000E+00  0.00000000000E+00 -0.69700370127E+03  0.69700370129E+03  0.50400001928E-02 0. -1.
    10030    2    1    2    0    0  0.00000000000E+00  0.00000000000E+00 -0.22814923824E+02  0.13711924788E+04  0.13710026597E+04 0.  0.
        1    1    3    3  502    0  0.40795779079E+03 -0.51318437878E+03 -0.21174572325E+03  0.68892961689E+03  0.50400001928E-02 0. -1.
       -1    1    3    3    0  502 -0.40795779079E+03  0.51318437878E+03  0.18893079943E+03  0.68226286187E+03  0.50400001928E-02 0.  1.
</event>
<event>
 5   0  0.2917809E-03  0.1398492E+04  0.7818609E-02  0.8954911E-01
        2   -1    0    0  501    0  0.00000000000E+00  0.00000000000E+00  0.11383043805E+04  0.11383043805E+04  0.25500000920E-02 0.  1.
       -2   -1    0    0    0  501  0.00000000000E+00  0.00000000000E+00 -0.42953769012E+03  0.42953769013E+03  0.25500000920E-02 0. -1.
    10030    2    1    2    0    0  0.00000000000E+00  0.00000000000E+00  0.70876669039E+03  0.15678420706E+04  0.13984915220E+04 0.  0.
        2    1    3    3  502    0  0.23419376041E+03  0.16053532595E+03  0.10707678218E+04  0.11077734590E+04  0.25500000920E-02 0.  1.
       -2    1    3    3    0  502 -0.23419376041E+03 -0.16053532595E+03 -0.36200113139E+03  0.46006861165E+03  0.25500000920E-02 0. -1.
</event>
<event>
 5   0  0.1631380E-03  0.1398584E+04  0.7818609E-02  0.8954844E-01
       -1   -1    0    0    0  501  0.00000000000E+00  0.00000000000E+00  0.39032809378E+03  0.39032809381E+03  0.50400001928E-02 0.  1.
        1   -1    0    0  501    0  0.00000000000E+00  0.00000000000E+00 -0.12528154710E+04  0.12528154711E+04  0.50400001928E-02 0. -1.
    10030    2    1    2    0    0  0.00000000000E+00  0.00000000000E+00 -0.86248737726E+03  0.16431435649E+04  0.13985836760E+04 0.  0.
        3    1    3    3  502    0 -0.34767831471E+02 -0.40934435134E+03 -0.10960928490E+04  0.11705516408E+04  0.10100000352E+00 0. -1.
       -3    1    3    3    0  502  0.34767831471E+02  0.40934435134E+03  0.23360547169E+03  0.47259192406E+03  0.10100000352E+00 0.  1.
</event>
<event>
 5   0  0.2760807E-03  0.1427161E+04  0.7818609E-02  0.8934389E-01
        2   -1    0    0  501    0  0.00000000000E+00  0.00000000000E+00  0.12347798429E+04  0.12347798429E+04  0.25500000920E-02 0. -1.
       -2   -1    0    0    0  501  0.00000000000E+00  0.00000000000E+00 -0.41237907434E+03  0.41237907435E+03  0.25500000920E-02 0.  1.
    10030    2    1    2    0    0  0.00000000000E+00  0.00000000000E+00  0.82240076858E+03  0.16471589173E+04  0.14271613345E+04 0.  0.
        4    1    3    3  502    0  0.58204519833E+03 -0.16475790119E+03 -0.25663445389E+02  0.60546015908E+03  0.12699999809E+01 0.  1.
       -4    1    3    3    0  502 -0.58204519833E+03  0.16475790119E+03  0.84806421397E+03  0.10416987582E+04  0.12699999809E+01 0. -1.
</event>
<event>
 5   0  0.3006737E-03  0.1437355E+04  0.7818609E-02  0.8927215E-01
        2   -1    0    0  501    0  0.00000000000E+00  0.00000000000E+00  0.99885739303E+03  0.99885739303E+03  0.25500000920E-02 0. -1.
       -2   -1    0    0    0  501  0.00000000000E+00  0.00000000000E+00 -0.51708788031E+03  0.51708788031E+03  0.25500000920E-02 0.  1.
    10030    2    1    2    0    0  0.00000000000E+00  0.00000000000E+00  0.48176951272E+03  0.15159452733E+04  0.14373545869E+04 0.  0.
        1    1    3    3  502    0  0.37281001531E+02 -0.12654349084E+03  0.98597820598E+03  0.99476436951E+03  0.50400001928E-02 0. -1.
       -1    1    3    3    0  502 -0.37281001531E+02  0.12654349084E+03 -0.50420869326E+03  0.52118090384E+03  0.50400001928E-02 0.  1.
</event>
<event>
 5   0  0.1631380E-03  0.1406815E+04  0.7818609E-02  0.8948900E-01
       -1   -1    0    0    0  501  0.00000000000E+00  0.00000000000E+00  0.28531787370E+03  0.28531787375E+03  0.50400001928E-02 0.  1.
        1   -1    0    0  501    0  0.00000000000E+00  0.00000000000E+00 -0.17341427461E+04  0.17341427461E+04  0.50400001928E-02 0. -1.
    10030    2    1    2    0    0  0.00000000000E+00  0.00000000000E+00 -0.14488248724E+04  0.20194606199E+04  0.14068147299E+04 0.  0.
        3    1    3    3  502    0 -0.13719031715E+03  0.42730987224E+02  0.26402547350E+03  0.30059371459E+03  0.10100000352E+00 0.  1.
       -3    1    3    3    0  502  0.13719031715E+03 -0.42730987224E+02 -0.17128503459E+04  0.17188669053E+04  0.10100000352E+00 0. -1.
</event>
<event>
 5   0  0.1560957E-03  0.1409993E+04  0.7818609E-02  0.8946617E-01
       -1   -1    0    0    0  501  0.00000000000E+00  0.00000000000E+00  0.30412116028E+03  0.30412116032E+03  0.50400001928E-02 0. -1.
        1   -1    0    0  501    0  0.00000000000E+00  0.00000000000E+00 -0.16342831249E+04  0.16342831249E+04  0.50400001928E-02 0.  1.
    10030    2    1    2    0    0  0.00000000000E+00  0.00000000000E+00 -0.13301619646E+04  0.19384042852E+04  0.14099930215E+04 0.  0.
        5    1    3    3  502    0  0.30014561517E+03 -0.57549559150E+03 -0.28679558438E+03  0.70961705402E+03  0.46999998093E+01 0. -1.
       -5    1    3    3    0  502 -0.30014561517E+03  0.57549559150E+03 -0.10433663802E+04  0.12287872312E+04  0.46999998093E+01 0.  1.
</event>
<event>
 5   0  0.1631380E-03  0.1413478E+04  0.7818609E-02  0.8944120E-01
       -1   -1    0    0    0  501  0.00000000000E+00  0.00000000000E+00  0.27830076357E+03  0.27830076362E+03  0.50400001928E-02 0.  1.
        1   -1    0    0  501    0  0.00000000000E+00  0.00000000000E+00 -0.17947488890E+04  0.17947488890E+04  0.50400001928E-02 0. -1.
    10030    2    1    2    0    0  0.00000000000E+00  0.00000000000E+00 -0.15164481254E+04  0.20730496526E+04  0.14134779606E+04 0.  0.
        3    1    3    3  502    0  0.14751455839E+03 -0.20132658476E+03  0.21151368537E+03  0.32715590774E+03  0.10100000352E+00 0.  1.
       -3    1    3    3    0  502 -0.14751455839E+03  0.20132658476E+03 -0.17279618108E+04  0.17458937449E+04  0.10100000352E+00 0. -1.
</event>
<event>
 5   0  0.1560957E-03  0.1464347E+04  0.7818609E-02  0.8908514E-01
        1   -1    0    0  501    0  0.00000000000E+00  0.00000000000E+00  0.14007738620E+04  0.14007738620E+04  0.50400001928E-02 0.  1.
       -1   -1    0    0    0  501  0.00000000000E+00  0.00000000000E+00 -0.38270156947E+03  0.38270156950E+03  0.50400001928E-02 0. -1.
    10030    2    1    2    0    0  0.00000000000E+00  0.00000000000E+00  0.10180722925E+04  0.17834754315E+04  0.14643474389E+04 0.  0.
        5    1    3    3  502    0 -0.12552204016E+03 -0.34348868773E+03  0.12815506710E+04  0.13327169517E+04  0.46999998093E+01 0.  1.
       -5    1    3    3    0  502  0.12552204016E+03  0.34348868773E+03 -0.26347837846E+03  0.45075847977E+03  0.46999998093E+01 0. -1.
</event>
<event>
 5   0  0.2917809E-03  0.1392006E+04  0.7818609E-02  0.8959625E-01
       -2   -1    0    0    0  501  0.00000000000E+00  0.00000000000E+00  0.75467778267E+03  0.75467778267E+03  0.25500000920E-02 0. -1.
        2   -1    0    0  501    0  0.00000000000E+00  0.00000000000E+00 -0.64189027913E+03  0.64189027914E+03  0.25500000920E-02 0.  1.
    10030    2    1    2    0    0  0.00000000000E+00  0.00000000000E+00  0.11278750353E+03  0.13965680618E+04  0.13920062250E+04 0.  0.
        2    1    3    3  502    0  0.22953070228E+02  0.46030595455E+03 -0.46686306440E+03  0.65602556058E+03  0.25500000920E-02 0.  1.
       -2    1    3    3    0  502 -0.22953070228E+02 -0.46030595455E+03  0.57965056793E+03  0.74054250123E+03  0.25500000920E-02 0. -1.
</event>
<event>
 5   0  0.1631380E-03  0.1420722E+04  0.7818609E-02  0.8938954E-01
       -1   -1    0    0    0  501  0.00000000000E+00  0.00000000000E+00  0.27600074451E+03  0.27600074456E+03  0.50400001928E-02 0. -1.
        1   -1    0    0  501    0  0.00000000000E+00  0.00000000000E+00 -0.18283015572E+04  0.18283015572E+04  0.50400001928E-02 0.  1.
    10030    2    1    2    0    0  0.00000000000E+00  0.00000000000E+00 -0.15523008127E+04  0.21043023018E+04  0.14207217758E+04 0.  0.
        3    1    3    3  502    0  0.39172721879E+03  0.31779313545E+03 -0.15169770819E+04  0.15986438528E+04  0.10100000352E+00 0.  1.
       -3    1    3    3    0  502 -0.39172721879E+03 -0.31779313545E+03 -0.35323730807E+02  0.50565844899E+03  0.10100000352E+00 0. -1.
</event>
<event>
 5   0  0.3006737E-03  0.1370417E+04  0.7818609E-02  0.8975515E-01
        2   -1    0    0  501    0  0.00000000000E+00  0.00000000000E+00  0.63168081376E+03  0.63168081376E+03  0.25500000920E-02 0. -1.
       -2   -1    0    0    0  501  0.00000000000E+00  0.00000000000E+00 -0.74327197674E+03  0.74327197674E+03  0.25500000920E-02 0.  1.
    10030    2    1    2    0    0  0.00000000000E+00  0.00000000000E+00 -0.11159116298E+03  0.13749527905E+04  0.13704169396E+04 0.  0.
        1    1    3    3  502    0  0.21214954009E+03  0.40355602953E+03  0.45741063870E+03  0.64582458048E+03  0.50400001928E-02 0. -1.
       -1    1    3    3    0  502 -0.21214954009E+03 -0.40355602953E+03 -0.56900180168E+03  0.72912821003E+03  0.50400001928E-02 0.  1.
</event>
<event>
 5   0  0.2760807E-03  0.1424083E+04  0.7818609E-02  0.8936568E-01
        2   -1    0    0  501    0  0.00000000000E+00  0.00000000000E+00  0.24180052110E+04  0.24180052110E+04  0.25500000920E-02 0.  1.
       -2   -1    0    0    0  501  0.00000000000E+00  0.00000000000E+00 -0.20967835619E+03  0.20967835621E+03  0.25500000920E-02 0. -1.
    10030    2    1    2    0    0  0.00000000000E+00  0.00000000000E+00  0.22083268549E+04  0.26276835673E+04  0.14240833655E+04 0.  0.
        4    1    3    3  502    0 -0.18284437648E+03  0.43607968599E+03  0.12187103106E+03  0.48831518475E+03  0.12699999809E+01 0. -1.
       -4    1    3    3    0  502  0.18284437648E+03 -0.43607968599E+03  0.20864558238E+04  0.21393683825E+04  0.12699999809E+01 0.  1.
</event>
<event>
 5   0  0.1631380E-03  0.1335923E+04  0.7818609E-02  0.9001553E-01
       -1   -1    0    0    0  501  0.00000000000E+00  0.00000000000E+00  0.25824668597E+03  0.25824668602E+03  0.50400001928E-02 0. -1.
        1   -1    0    0  501    0  0.00000000000E+00  0.00000000000E+00 -0.17277003537E+04  0.17277003537E+04  0.50400001928E-02 0.  1.
    10030    2    1    2    0    0  0.00000000000E+00  0.00000000000E+00 -0.14694536677E+04  0.19859470397E+04  0.13359234870E+04 0.  0.
        3    1    3    3  502    0 -0.20566769201E+03  0.49343194730E+03 -0.13935764365E+03  0.55244443087E+03  0.10100000352E+00 0. -1.
       -3    1    3    3    0  502  0.20566769201E+03 -0.49343194730E+03 -0.13300960241E+04  0.14335026088E+04  0.10100000352E+00 0.  1.
</event>
<event>
 5   0  0.2993993E-03  0.1228256E+04  0.7818609E-02  0.9088477E-01
        2   -1    0    0  501    0  0.00000000000E+00  0.00000000000E+00  0.89185341231E+03  0.89185341232E+03  0.25500000920E-02 0.  1.
       -2   -1    0    0    0  501  0.00000000000E+00  0.00000000000E+00 -0.42288701968E+03  0.42288701969E+03  0.25500000920E-02 0. -1.
    10030    2    1    2    0    0  0.00000000000E+00  0.00000000000E+00  0.46896639264E+03  0.13147404320E+04  0.12282560507E+04 0.  0.
        3    1    3    3  502    0  0.29234396830E+03 -0.49541195965E+03  0.46469705393E+03  0.73948723295E+03  0.10100000352E+00 0.  1.
       -3    1    3    3    0  502 -0.29234396830E+03  0.49541195965E+03  0.42693387043E+01  0.57525319905E+03  0.10100000352E+00 0. -1.
</event>
<event>
 5   0  0.2993993E-03  0.1327918E+04  0.7818609E-02  0.9007714E-01
       -2   -1    0    0    0  501  0.00000000000E+00  0.00000000000E+00  0.29919568283E+03  0.29919568284E+03  0.25500000920E-02 0. -1.
        2   -1    0    0  501    0  0.00000000000E+00  0.00000000000E+00 -0.14734232432E+04  0.14734232432E+04  0.25500000920E-02 0.  1.
    10030    2    1    2    0    0  0.00000000000E+00  0.00000000000E+00 -0.11742275604E+04  0.17726189260E+04  0.13279184815E+04 0.  0.
        3    1    3    3  502    0 -0.25406899720E+03 -0.45098281940E+03 -0.32043307944E+02  0.51861675881E+03  0.10100000352E+00 0. -1.
       -3    1    3    3    0  502  0.25406899720E+03  0.45098281940E+03 -0.11421842524E+04  0.12540021672E+04  0.10100000352E+00 0.  1.
</event>
<event>
 5   0  0.1700207E-03  0.1410706E+04  0.7818609E-02  0.8946105E-01
        1   -1    0    0  501    0  0.00000000000E+00  0.00000000000E+00  0.24380867143E+04  0.24380867143E+04  0.50400001928E-02 0. -1.
       -1   -1    0    0    0  501  0.00000000000E+00  0.00000000000E+00 -0.20406296162E+03  0.20406296168E+03  0.50400001928E-02 0.  1.
    10030    2    1    2    0    0  0.00000000000E+00  0.00000000000E+00  0.22340237527E+04  0.26421496760E+04  0.14107064836E+04 0.  0.
        2    1    3    3  502    0  0.45421344886E+03  0.96976038834E+02  0.21112677679E+04  0.21617506324E+04  0.25500000920E-02 0. -1.
       -2    1    3    3    0  502 -0.45421344886E+03 -0.96976038834E+02  0.12275598484E+03  0.48039904356E+03  0.25500000920E-02 0.  1.
</event>
<event>
 5   0  0.1560957E-03  0.1418891E+04  0.7818609E-02  0.8940256E-01
        1   -1    0    0  501    0  0.00000000000E+00  0.00000000000E+00  0.11769075806E+04  0.11769075806E+04  0.50400001928E-02 0.  1.
       -1   -1    0    0    0  501  0.00000000000E+00  0.00000000000E+00 -0.42765738086E+03  0.42765738089E+03  0.50400001928E-02 0. -1.
    10030    2    1    2    0    0  0.00000000000E+00  0.00000000000E+00  0.74925019972E+03  0.16045649615E+04  0.14188914172E+04 0.  0.
        5    1    3    3  502    0  0.27544713589E+03  0.17887987012E+03  0.10857379913E+04  0.11343360209E+04  0.46999998093E+01 0.  1.
       -5    1    3    3    0  502 -0.27544713589E+03 -0.17887987012E+03 -0.33648779161E+03  0.47022894053E+03  0.46999998093E+01 0. -1.
</event>
<event>
 5   0  0.1586022E-03  0.1421577E+04  0.7818609E-02  0.8938347E-01
        1   -1    0    0  501    0  0.00000000000E+00  0.00000000000E+00  0.12359805569E+04  0.12359805569E+04  0.50400001928E-02 0.  1.
       -1   -1    0    0    0  501  0.00000000000E+00  0.00000000000E+00 -0.40876043382E+03  0.40876043385E+03  0.50400001928E-02 0. -1.
    10030    2    1    2    0    0  0.00000000000E+00  0.00000000000E+00  0.82722012308E+03  0.16447409908E+04  0.14215765173E+04 0.  0.
        1    1    3    3  502    0 -0.23703833651E+03 -0.51707643756E+03  0.90674138346E+03  0.10703901867E+04  0.50400001928E-02 0.  1.
       -1    1    3    3    0  502  0.23703833651E+03  0.51707643756E+03 -0.79521260378E+02  0.57435080407E+03  0.50400001928E-02 0. -1.
</event>
<event>
 5   0  0.2889469E-03  0.1285184E+04  0.7818609E-02  0.9041398E-01
       -2   -1    0    0    0  501  0.00000000000E+00  0.00000000000E+00  0.32845385399E+03  0.32845385400E+03  0.25500000920E-02 0. -1.
        2   -1    0    0  501    0  0.00000000000E+00  0.00000000000E+00 -0.12571765917E+04  0.12571765917E+04  0.25500000920E-02 0.  1.
    10030    2    1    2    0    0  0.00000000000E+00  0.00000000000E+00 -0.92872273776E+03  0.15856304457E+04  0.12851840284E+04 0.  0.
        5    1    3    3  502    0  0.47096777199E+03  0.24787778880E+03 -0.90860394679E+03  0.10530134199E+04  0.46999998093E+01 0.  1.
       -5    1    3    3    0  502 -0.47096777199E+03 -0.24787778880E+03 -0.20118790969E+02  0.53261702581E+03  0.46999998093E+01 0. -1.
</event>
<event>
 5   0  0.2993993E-03  0.1383613E+04  0.7818609E-02  0.8965767E-01
       -2   -1    0    0    0  501  0.00000000000E+00  0.00000000000E+00  0.81307958153E+03  0.81307958154E+03  0.25500000920E-02 0. -1.
        2   -1    0    0  501    0  0.00000000000E+00  0.00000000000E+00 -0.58862127460E+03  0.58862127461E+03  0.25500000920E-02 0.  1.
    10030    2    1    2    0    0  0.00000000000E+00  0.00000000000E+00  0.22445830693E+03  0.14017008561E+04  0.13836125753E+04 0.  0.
        3    1    3    3  502    0 -0.15177289814E+02  0.37423225480E+03 -0.47702408440E+03  0.60649164706E+03  0.10100000352E+00 0.  1.
       -3    1    3    3    0  502  0.15177289814E+02 -0.37423225480E+03  0.70148239133E+03  0.79520920908E+03  0.10100000352E+00 0. -1.
</event>
<event>
 5   0  0.2760807E-03  0.1409966E+04  0.7818609E-02  0.8946636E-01
        2   -1    0    0  501    0  0.00000000000E+00  0.00000000000E+00  0.50770508235E+03  0.50770508236E+03  0.25500000920E-02 0.  1.
       -2   -1    0    0    0  501  0.00000000000E+00  0.00000000000E+00 -0.97891725060E+03  0.97891725060E+03  0.25500000920E-02 0. -1.
    10030    2    1    2    0    0  0.00000000000E+00  0.00000000000E+00 -0.47121216824E+03  0.14866223330E+04  0.14099663306E+04 0.  0.
        4    1    3    3  502    0 -0.26741737680E+03  0.54479968912E+03  0.14261779845E+03  0.62342618168E+03  0.12699999809E+01 0.  1.
       -4    1    3    3    0  502  0.26741737680E+03 -0.54479968912E+03 -0.61382996669E+03  0.86319615128E+03  0.12699999809E+01 0. -1.
</event>
<event>
 5   0  0.2993993E-03  0.1388173E+04  0.7818609E-02  0.8962424E-01
       -2   -1    0    0    0  501  0.00000000000E+00  0.00000000000E+00  0.78089686338E+03  0.78089686338E+03  0.25500000920E-02 0.  1.
        2   -1    0    0  501    0  0.00000000000E+00  0.00000000000E+00 -0.61692647493E+03  0.61692647494E+03  0.25500000920E-02 0. -1.
    10030    2    1    2    0    0  0.00000000000E+00  0.00000000000E+00  0.16397038845E+03  0.13978233383E+04  0.13881728267E+04 0.  0.
        3    1    3    3  502    0 -0.35533600381E+03 -0.22073822845E+03 -0.47573066683E+03  0.63348932009E+03  0.10100000352E+00 0. -1.
       -3    1    3    3    0  502  0.35533600381E+03  0.22073822845E+03  0.63970105528E+03  0.76433401823E+03  0.10100000352E+00 0.  1.
</event>
<event>
 5   0  0.1560957E-03  0.1077051E+04  0.7818609E-02  0.9227852E-01
       -1   -1    0    0    0  501  0.00000000000E+00  0.00000000000E+00  0.13066570279E+04  0.13066570279E+04  0.50400001928E-02 0. -1.
        1   -1    0    0  501    0  0.00000000000E+00  0.00000000000E+00 -0.22194804360E+03  0.22194804366E+03  0.50400001928E-02 0.  1.
    10030    2    1    2    0    0  0.00000000000E+00  0.00000000000E+00  0.10847089843E+04  0.15286050716E+04  0.10770514771E+04 0.  0.
        5    1    3    3  502    0 -0.28320800400E+03  0.40573633524E+03  0.24075428394E+03  0.55028489212E+03  0.46999998093E+01 0.  1.
       -5    1    3    3    0  502  0.28320800400E+03 -0.40573633524E+03  0.84395470039E+03  0.97832017948E+03  0.46999998093E+01 0. -1.
</event>
<event>
 5   0  0.1644571E-03  0.1199651E+04  0.7818609E-02  0.9113162E-01
       -1   -1    0    0    0  501  0.00000000000E+00  0.00000000000E+00  0.42664086850E+03  0.42664086853E+03  0.50400001928E-02 0.  1.
        1   -1    0    0  501    0  0.00000000000E+00  0.00000000000E+00 -0.84331045261E+03  0.84331045263E+03  0.50400001928E-02 0. -1.
    10030    2    1    2    0    0  0.00000000000E+00  0.00000000000E+00 -0.41666958411E+03  0.12699513212E+04  0.11996511225E+04 0.  0.
        4    1    3    3  502    0 -0.37714526547E+03 -0.59310723369E+02 -0.69808232116E+03  0.79566126787E+03  0.12699999809E+01 0. -1.
       -4    1    3    3    0  502  0.37714526547E+03  0.59310723369E+02  0.28141273705E+03  0.47429005328E+03  0.12699999809E+01 0.  1.
</event>
<event>
 5   0  0.1560957E-03  0.1410068E+04  0.7818609E-02  0.8946563E-01
       -1   -1    0    0    0  501  0.00000000000E+00  0.00000000000E+00  0.37526984981E+03  0.37526984984E+03  0.50400001928E-02 0. -1.
        1   -1    0    0  501    0  0.00000000000E+00  0.00000000000E+00 -0.13245754044E+04  0.13245754044E+04  0.50400001928E-02 0.  1.
    10030    2    1    2    0    0  0.00000000000E+00  0.00000000000E+00 -0.94930555456E+03  0.16998452542E+04  0.14100683857E+04 0.  0.
        5    1    3    3  502    0 -0.23541983653E+03  0.33849587151E+03  0.21475429798E+03  0.46491230674E+03  0.46999998093E+01 0. -1.
       -5    1    3    3    0  502  0.23541983653E+03 -0.33849587151E+03 -0.11640598525E+04  0.12349329475E+04  0.46999998093E+01 0.  1.
</event>
<event>
 5   0  0.1644571E-03  0.1405231E+04  0.7818609E-02  0.8950041E-01
       -1   -1    0    0    0  501  0.00000000000E+00  0.00000000000E+00  0.26940269023E+03  0.26940269028E+03  0.50400001928E-02 0. -1.
        1   -1    0    0  501    0  0.00000000000E+00  0.00000000000E+00 -0.18324556505E+04  0.18324556505E+04  0.50400001928E-02 0.  1.
    10030    2    1    2    0    0  0.00000000000E+00  0.00000000000E+00 -0.15630529602E+04  0.21018583408E+04  0.14052309163E+04 0.  0.
        4    1    3    3  502    0 -0.57117662730E+02 -0.21124891535E+03  0.21712793524E+03  0.30827696118E+03  0.12699999809E+01 0. -1.
       -4    1    3    3    0  502  0.57117662730E+02  0.21124891535E+03 -0.17801808955E+04  0.17935813796E+04  0.12699999809E+01 0.  1.
</event>
<event>
 5   0  0.2993993E-03  0.1405704E+04  0.7818609E-02  0.8949700E-01
       -2   -1    0    0    0  501  0.00000000000E+00  0.00000000000E+00  0.18104907153E+03  0.18104907155E+03  0.25500000920E-02 0. -1.
        2   -1    0    0  501    0  0.00000000000E+00  0.00000000000E+00 -0.27285481031E+04  0.27285481031E+04  0.25500000920E-02 0.  1.
    10030    2    1    2    0    0  0.00000000000E+00  0.00000000000E+00 -0.25474990316E+04  0.29095971747E+04  0.14057042374E+04 0.  0.
        3    1    3    3  502    0  0.91970399723E+02  0.72078307437E+02  0.16080338630E+03  0.19877518979E+03  0.10100000352E+00 0. -1.
       -3    1    3    3    0  502 -0.91970399723E+02 -0.72078307437E+02 -0.27083024179E+04  0.27108219849E+04  0.10100000352E+00 0.  1.
</event>
<event>
 5   0  0.1631380E-03  0.1391774E+04  0.7818609E-02  0.8959794E-01
        1   -1    0    0  501    0  0.00000000000E+00  0.00000000000E+00  0.46450782477E+03  0.46450782480E+03  0.50400001928E-02 0. -1.
       -1   -1    0    0    0  501  0.00000000000E+00  0.00000000000E+00 -0.10425201721E+04  0.10425201721E+04  0.50400001928E-02 0.  1.
    10030    2    1    2    0    0  0.00000000000E+00  0.00000000000E+00 -0.57801234733E+03  0.15070279969E+04  0.13917740872E+04 0.  0.
        3    1    3    3  502    0 -0.34882223437E+03 -0.51418183037E+03  0.50310968263E+02  0.62337076415E+03  0.10100000352E+00 0. -1.
       -3    1    3    3    0  502  0.34882223437E+03  0.51418183037E+03 -0.62832331559E+03  0.88365723275E+03  0.10100000352E+00 0.  1.
</event>
<event>
 5   0  0.2889469E-03  0.9183970E+03  0.7818609E-02  0.9402872E-01
        2   -1    0    0  501    0  0.00000000000E+00  0.00000000000E+00  0.10071982739E+04  0.10071982739E+04  0.25500000920E-02 0.  1.
       -2   -1    0    0    0  501  0.00000000000E+00  0.00000000000E+00 -0.20935626396E+03  0.20935626398E+03  0.25500000920E-02 0. -1.
    10030    2    1    2    0    0  0.00000000000E+00  0.00000000000E+00  0.79784200996E+03  0.12165545379E+04  0.91839701155E+03 0.  0.
        5    1    3    3  502    0 -0.41118171983E+03  0.18111326682E+03  0.27347200167E+03  0.52600517853E+03  0.46999998093E+01 0. -1.
       -5    1    3    3    0  502  0.41118171983E+03 -0.18111326682E+03  0.52437000829E+03  0.69054935937E+03  0.46999998093E+01 0.  1.
</event>
<event>
 5   0  0.2993993E-03  0.1424221E+04  0.7818609E-02  0.8936471E-01
        2   -1    0    0  501    0  0.00000000000E+00  0.00000000000E+00  0.63365882944E+03  0.63365882944E+03  0.25500000920E-02 0.  1.
       -2   -1    0    0    0  501  0.00000000000E+00  0.00000000000E+00 -0.80027451136E+03  0.80027451136E+03  0.25500000920E-02 0. -1.
    10030    2    1    2    0    0  0.00000000000E+00  0.00000000000E+00 -0.16661568192E+03  0.14339333408E+04  0.14242205027E+04 0.  0.
        3    1    3    3  502    0 -0.34153801407E+03 -0.42777850162E+03 -0.54189002345E+03  0.77025156230E+03  0.10100000352E+00 0. -1.
       -3    1    3    3    0  502  0.34153801407E+03  0.42777850162E+03  0.37527434153E+03  0.66368177850E+03  0.10100000352E+00 0.  1.
</event>
<event>
 5   0  0.1631380E-03  0.1350840E+04  0.7818609E-02  0.8990192E-01
       -1   -1    0    0    0  501  0.00000000000E+00  0.00000000000E+00  0.46890124698E+03  0.46890124700E+03  0.50400001928E-02 0. -1.
        1   -1    0    0  501    0  0.00000000000E+00  0.00000000000E+00 -0.97289670997E+03  0.97289670998E+03  0.50400001928E-02 0.  1.
    10030    2    1    2    0    0  0.00000000000E+00  0.00000000000E+00 -0.50399546300E+03  0.14417979570E+04  0.13508404503E+04 0.  0.
        3    1    3    3  502    0 -0.15352206339E+03  0.52925501070E+03  0.16482671572E+03  0.57519366018E+03  0.10100000352E+00 0.  1.
       -3    1    3    3    0  502  0.15352206339E+03 -0.52925501070E+03 -0.66882217872E+03  0.86660429681E+03  0.10100000352E+00 0. -1.
</event>
<event>
 5   0  0.2760807E-03  0.1422727E+04  0.7818609E-02  0.8937530E-01
        2   -1    0    0  501    0  0.00000000000E+00  0.00000000000E+00  0.97344610412E+03  0.97344610412E+03  0.25500000920E-02 0. -1.
       -2   -1    0    0    0  501  0.00000000000E+00  0.00000000000E+00 -0.51984189737E+03  0.51984189737E+03  0.25500000920E-02 0.  1.
    10030    2    1    2    0    0  0.00000000000E+00  0.00000000000E+00  0.45360420675E+03  0.14932880015E+04  0.14227270571E+04 0.  0.
        4    1    3    3  502    0  0.31351110787E+03 -0.46382185715E+03 -0.23384543911E+03  0.60671676441E+03  0.12699999809E+01 0.  1.
       -4    1    3    3    0  502 -0.31351110787E+03  0.46382185715E+03  0.68744964586E+03  0.88657123708E+03  0.12699999809E+01 0. -1.
</event>
<event>
 5   0  0.2889469E-03  0.1398218E+04  0.7818609E-02  0.8955109E-01
       -2   -1    0    0    0  501  0.00000000000E+00  0.00000000000E+00  0.46478741476E+03  0.46478741477E+03  0.25500000920E-02 0. -1.
        2   -1    0    0  501    0  0.00000000000E+00  0.00000000000E+00 -0.10515632624E+04  0.10515632624E+04  0.25500000920E-02 0.  1.
    10030    2    1    2    0    0  0.00000000000E+00  0.00000000000E+00 -0.58677584763E+03  0.15163506772E+04  0.13982179661E+04 0.  0.
        5    1    3    3  502    0 -0.55722698794E+03 -0.41402007533E+03 -0.20384873025E+03  0.72352673323E+03  0.46999998093E+01 0.  1.
       -5    1    3    3    0  502  0.55722698794E+03  0.41402007533E+03 -0.38292711738E+03  0.79282394394E+03  0.46999998093E+01 0. -1.
</event>
<event>
 5   0  0.1700207E-03  0.1457326E+04  0.7818609E-02  0.8913337E-01
       -1   -1    0    0    0  501  0.00000000000E+00  0.00000000000E+00  0.30818243545E+03  0.30818243549E+03  0.50400001928E-02 0.  1.
        1   -1    0    0  501    0  0.00000000000E+00  0.00000000000E+00 -0.17228422797E+04  0.17228422797E+04  0.50400001928E-02 0. -1.
    10030    2    1    2    0    0  0.00000000000E+00  0.00000000000E+00 -0.14146598442E+04  0.20310247152E+04  0.14573259480E+04 0.  0.
        2    1    3    3  502    0 -0.32058495312E+02 -0.42024093975E+03 -0.15357342054E+04  0.15925167956E+04  0.25500000920E-02 0. -1.
       -2    1    3    3    0  502  0.32058495312E+02  0.42024093975E+03  0.12107436121E+03  0.43850791956E+03  0.25500000920E-02 0.  1.
</event>
<event>
 5   0  0.1644571E-03  0.1437221E+04  0.7818609E-02  0.8927308E-01
        1   -1    0    0  501    0  0.00000000000E+00  0.00000000000E+00  0.80145712089E+03  0.80145712090E+03  0.50400001928E-02 0.  1.
       -1   -1    0    0    0  501  0.00000000000E+00  0.00000000000E+00 -0.64432768724E+03  0.64432768726E+03  0.50400001928E-02 0. -1.
    10030    2    1    2    0    0  0.00000000000E+00  0.00000000000E+00  0.15712943364E+03  0.14457848082E+04  0.14372209477E+04 0.  0.
        4    1    3    3  502    0 -0.29961967775E+03 -0.25126821051E+03 -0.52793051231E+03  0.65697785627E+03  0.12699999809E+01 0. -1.
       -4    1    3    3    0  502  0.29961967775E+03  0.25126821051E+03  0.68505994595E+03  0.78880695189E+03  0.12699999809E+01 0.  1.
</event>
<event>
 5   0  0.1631380E-03  0.1391156E+04  0.7818609E-02  0.8960245E-01
        1   -1    0    0  501    0  0.00000000000E+00  0.00000000000E+00  0.58040243709E+03  0.58040243711E+03  0.50400001928E-02 0. -1.
       -1   -1    0    0    0  501  0.00000000000E+00  0.00000000000E+00 -0.83360910982E+03  0.83360910983E+03  0.50400001928E-02 0.  1.
    10030    2    1    2    0    0  0.00000000000E+00  0.00000000000E+00 -0.25320667272E+03  0.14140115469E+04  0.13911560070E+04 0.  0.
        3    1    3    3  502    0 -0.33691125651E+03  0.39589616435E+03 -0.59634955109E+03  0.79112310357E+03  0.10100000352E+00 0.  1.
       -3    1    3    3    0  502  0.33691125651E+03 -0.39589616435E+03  0.34314287837E+03  0.62288844338E+03  0.10100000352E+00 0. -1.
</event>
<event>
 5   0  0.1560957E-03  0.1400760E+04  0.7818609E-02  0.8953269E-01
        1   -1    0    0  501    0  0.00000000000E+00  0.00000000000E+00  0.51292225056E+03  0.51292225058E+03  0.50400001928E-02 0. -1.
       -1   -1    0    0    0  501  0.00000000000E+00  0.00000000000E+00 -0.95634771514E+03  0.95634771515E+03  0.50400001928E-02 0.  1.
    10030    2    1    2    0    0  0.00000000000E+00  0.00000000000E+00 -0.44342546458E+03  0.14692699657E+04  0.14007598258E+04 0.  0.
        5    1    3    3  502    0 -0.18085407649E+03 -0.32628359283E+03  0.40001778785E+03  0.54699680121E+03  0.46999998093E+01 0. -1.
       -5    1    3    3    0  502  0.18085407649E+03  0.32628359283E+03 -0.84344325243E+03  0.92227316453E+03  0.46999998093E+01 0.  1.
</event>
<event>
 5   0  0.3006737E-03  0.9433996E+03  0.7818609E-02  0.9372899E-01
        2   -1    0    0  501    0  0.00000000000E+00  0.00000000000E+00  0.72820460173E+03  0.72820460173E+03  0.25500000920E-02 0. -1.
       -2   -1    0    0    0  501  0.00000000000E+00  0.00000000000E+00 -0.30554695986E+03  0.30554695987E+03  0.25500000920E-02 0.  1.
    10030    2    1    2    0    0  0.00000000000E+00  0.00000000000E+00  0.42265764186E+03  0.10337515616E+04  0.94339960191E+03 0.  0.
        1    1    3    3  502    0  0.83573001009E+02 -0.44809255695E+03  0.78341027143E+02  0.46250265151E+03  0.50400001928E-02 0.  1.
       -1    1    3    3    0  502 -0.83573001009E+02  0.44809255695E+03  0.34431661472E+03  0.57124891010E+03  0.50400001928E-02 0. -1.
</event>
<event>
 5   0  0.1586022E-03  0.1396932E+04  0.7818609E-02  0.8956042E-01
        1   -1    0    0  501    0  0.00000000000E+00  0.00000000000E+00  0.74622200764E+03  0.74622200766E+03  0.50400001928E-02 0. -1.
       -1   -1    0    0    0  501  0.00000000000E+00  0.00000000000E+00 -0.65376665133E+03  0.65376665135E+03  0.50400001928E-02 0.  1.
    10030    2    1    2    0    0  0.00000000000E+00  0.00000000000E+00  0.92455356314E+02  0.13999886590E+04  0.13969324438E+04 0.  0.
        1    1    3    3  502    0 -0.35246370062E+03 -0.48382753171E+02 -0.55615598428E+03  0.66021286714E+03  0.50400001928E-02 0.  1.
       -1    1    3    3    0  502  0.35246370062E+03  0.48382753171E+02  0.64861134059E+03  0.73977579186E+03  0.50400001928E-02 0. -1.
</event>
<event>
 5   0  0.3006737E-03  0.1399850E+04  0.7818609E-02  0.8953927E-01
       -2   -1    0    0    0  501  0.00000000000E+00  0.00000000000E+00  0.41759136336E+03  0.41759136336E+03  0.25500000920E-02 0. -1.
        2   -1    0    0  501    0  0.00000000000E+00  0.00000000000E+00 -0.11731437152E+04  0.11731437152E+04  0.25500000920E-02 0.  1.
    10030    2    1    2    0    0  0.00000000000E+00  0.00000000000E+00 -0.75555235185E+03  0.15907350786E+04  0.13998495397E+04 0.  0.
        1    1    3    3  502    0 -0.61334330375E+03 -0.12994714032E+03 -0.73136252158E+03  0.96331064851E+03  0.50400001928E-02 0.  1.
       -1    1    3    3    0  502  0.61334330375E+03  0.12994714032E+03 -0.24189830267E+02  0.62742443007E+03  0.50400001928E-02 0. -1.
</event>
<event>
 5   0  0.1631380E-03  0.1401286E+04  0.7818609E-02  0.8952888E-01
       -1   -1    0    0    0  501  0.00000000000E+00  0.00000000000E+00  0.18631409360E+03  0.18631409367E+03  0.50400001928E-02 0. -1.
        1   -1    0    0  501    0  0.00000000000E+00  0.00000000000E+00 -0.26348029383E+04  0.26348029383E+04  0.50400001928E-02 0.  1.
    10030    2    1    2    0    0  0.00000000000E+00  0.00000000000E+00 -0.24484888447E+04  0.28211170320E+04  0.14012864395E+04 0.  0.
        3    1    3    3  502    0 -0.49816966019E+02  0.66962714147E+03 -0.16269851242E+04  0.17601030774E+04  0.10100000352E+00 0.  1.
       -3    1    3    3    0  502  0.49816966019E+02 -0.66962714147E+03 -0.82150372052E+03  0.10610139545E+04  0.10100000352E+00 0. -1.
</event>
<event>
 5   0  0.1700207E-03  0.1530820E+04  0.7818609E-02  0.8864213E-01
       -1   -1    0    0    0  501  0.00000000000E+00  0.00000000000E+00  0.59470877810E+03  0.59470877812E+03  0.50400001928E-02 0.  1.
        1   -1    0    0  501    0  0.00000000000E+00  0.00000000000E+00 -0.98510846425E+03  0.98510846426E+03  0.50400001928E-02 0. -1.
    10030    2    1    2    0    0  0.00000000000E+00  0.00000000000E+00 -0.39039968615E+03  0.15798172424E+04  0.15308202391E+04 0.  0.
        2    1    3    3  502    0  0.78319486193E+02  0.59360765398E+03  0.29687238608E+03  0.66830921167E+03  0.25500000920E-02 0.  1.
       -2    1    3    3    0  502 -0.78319486193E+02 -0.59360765398E+03 -0.68727207223E+03  0.91150803071E+03  0.25500000920E-02 0. -1.
</event>
<event>
 5   0  0.1560957E-03  0.1419869E+04  0.7818609E-02  0.8939561E-01
       -1   -1    0    0    0  501  0.00000000000E+00  0.00000000000E+00  0.46689963138E+03  0.46689963141E+03  0.50400001928E-02 0. -1.
        1   -1    0    0  501    0  0.00000000000E+00  0.00000000000E+00 -0.10794760343E+04  0.10794760343E+04  0.50400001928E-02 0.  1.
    10030    2    1    2    0    0  0.00000000000E+00  0.00000000000E+00 -0.61257640288E+03  0.15463756657E+04  0.14198689552E+04 0.  0.
        5    1    3    3  502    0  0.99413475226E+02 -0.59964479770E+03 -0.70574793264E+03  0.93142855705E+03  0.46999998093E+01 0.  1.
       -5    1    3    3    0  502 -0.99413475226E+02  0.59964479770E+03  0.93171529759E+02  0.61494710863E+03  0.46999998093E+01 0. -1.
</event>
<event>
 5   0  0.2889469E-03  0.1409811E+04  0.7818609E-02  0.8946748E-01
       -2   -1    0    0    0  501  0.00000000000E+00  0.00000000000E+00  0.29235669954E+03  0.29235669955E+03  0.25500000920E-02 0. -1.
        2   -1    0    0  501    0  0.00000000000E+00  0.00000000000E+00 -0.16996071048E+04  0.16996071048E+04  0.25500000920E-02 0.  1.
    10030    2    1    2    0    0  0.00000000000E+00  0.00000000000E+00 -0.14072504053E+04  0.19919638043E+04  0.14098106592E+04 0.  0.
        5    1    3    3  502    0  0.38705107313E+03  0.43955205437E+03 -0.12578376909E+04  0.13875129867E+04  0.46999998093E+01 0.  1.
       -5    1    3    3    0  502 -0.38705107313E+03 -0.43955205437E+03 -0.14941271438E+03  0.60445081763E+03  0.46999998093E+01 0. -1.
</event>
<event>
 5   0  0.2889469E-03  0.1381144E+04  0.7818609E-02  0.8967582E-01
        2   -1    0    0  501    0  0.00000000000E+00  0.00000000000E+00  0.14057675223E+04  0.14057675223E+04  0.25500000920E-02 0.  1.
       -2   -1    0    0    0  501  0.00000000000E+00  0.00000000000E+00 -0.33923778354E+03  0.33923778355E+03  0.25500000920E-02 0. -1.
    10030    2    1    2    0    0  0.00000000000E+00  0.00000000000E+00  0.10665297387E+04  0.17450053058E+04  0.13811436688E+04 0.  0.
        5    1    3    3  502    0  0.50227058976E+03 -0.16703367882E+03 -0.27073744050E+02  0.53002931317E+03  0.46999998093E+01 0. -1.
       -5    1    3    3    0  502 -0.50227058976E+03  0.16703367882E+03  0.10936034828E+04  0.12149759927E+04  0.46999998093E+01 0.  1.
</event>
<event>
 5   0  0.2889469E-03  0.1406784E+04  0.7818609E-02  0.8948923E-01
        2   -1    0    0  501    0  0.00000000000E+00  0.00000000000E+00  0.18392620172E+04  0.18392620172E+04  0.25500000920E-02 0. -1.
       -2   -1    0    0    0  501  0.00000000000E+00  0.00000000000E+00 -0.26899934771E+03  0.26899934772E+03  0.25500000920E-02 0.  1.
    10030    2    1    2    0    0  0.00000000000E+00  0.00000000000E+00  0.15702626695E+04  0.21082613650E+04  0.14067839677E+04 0.  0.
        5    1    3    3  502    0  0.13326450446E+03 -0.63954100374E+03  0.11758310700E+04  0.13451293316E+04  0.46999998093E+01 0. -1.
       -5    1    3    3    0  502 -0.13326450446E+03  0.63954100374E+03  0.39443159958E+03  0.76313203337E+03  0.46999998093E+01 0.  1.
</event>
<event>
 5   0  0.1644571E-03  0.1378509E+04  0.7818609E-02  0.8969523E-01
        1   -1    0    0  501    0  0.00000000000E+00  0.00000000000E+00  0.17937929778E+04  0.17937929778E+04  0.50400001928E-02 0. -1.
       -1   -1    0    0    0  501  0.00000000000E+00  0.00000000000E+00 -0.26484218637E+03  0.26484218641E+03  0.50400001928E-02 0.  1.
    10030    2    1    2    0    0  0.00000000000E+00  0.00000000000E+00  0.15289507915E+04  0.20586351643E+04  0.13785094185E+04 0.  0.
        4    1    3    3  502    0 -0.38049229755E+03 -0.52024481142E+03  0.39976887885E+03  0.75844961711E+03  0.12699999809E+01 0.  1.
       -4    1    3    3    0  502  0.38049229755E+03  0.52024481142E+03  0.11291819126E+04  0.13001855471E+04  0.12699999809E+01 0. -1.
</event>
<event>
 5   0  0.2917809E-03  0.1372146E+04  0.7818609E-02  0.8974231E-01
        2   -1    0    0  501    0  0.00000000000E+00  0.00000000000E+00  0.19698103184E+04  0.19698103184E+04  0.25500000920E-02 0. -1.
       -2   -1    0    0    0  501  0.00000000000E+00  0.00000000000E+00 -0.23895495647E+03  0.23895495648E+03  0.25500000920E-02 0.  1.
    10030    2    1    2    0    0  0.00000000000E+00  0.00000000000E+00  0.17308553619E+04  0.22087652748E+04  0.13721456758E+04 0.  0.
        2    1    3    3  502    0 -0.32154719734E+03  0.58892722871E+03  0.63513100759E+03  0.92391518964E+03  0.25500000920E-02 0. -1.
       -2    1    3    3    0  502  0.32154719734E+03 -0.58892722871E+03  0.10957243543E+04  0.12848500852E+04  0.25500000920E-02 0.  1.
</event>
<event>
 5   0  0.2993993E-03  0.1392240E+04  0.7818609E-02  0.8959455E-01
        2   -1    0    0  501    0  0.00000000000E+00  0.00000000000E+00  0.40541541761E+03  0.40541541761E+03  0.25500000920E-02 0.  1.
       -2   -1    0    0    0  501  0.00000000000E+00  0.00000000000E+00 -0.11952752511E+04  0.11952752511E+04  0.25500000920E-02 0. -1.
    10030    2    1    2    0    0  0.00000000000E+00  0.00000000000E+00 -0.78985983346E+03  0.16006906687E+04  0.13922399435E+04 0.  0.
        3    1    3    3  502    0  0.25433452329E+03 -0.17052426325E+03  0.32382502218E+03  0.44567614844E+03  0.10100000352E+00 0.  1.
       -3    1    3    3    0  502 -0.25433452329E+03  0.17052426325E+03 -0.11136848556E+04  0.11550145202E+04  0.10100000352E+00 0. -1.
</event>
<event>
 5   0  0.1586022E-03  0.1405472E+04  0.7818609E-02  0.8949867E-01
        1   -1    0    0  501    0  0.00000000000E+00  0.00000000000E+00  0.73016581107E+03  0.73016581109E+03  0.50400001928E-02 0.  1.
       -1   -1    0    0    0  501  0.00000000000E+00  0.00000000000E+00 -0.67633653438E+03  0.67633653440E+03  0.50400001928E-02 0. -1.
    10030    2    1    2    0    0  0.00000000000E+00  0.00000000000E+00  0.53829276697E+02  0.14065023455E+04  0.14054718983E+04 0.  0.
        1    1    3    3  502    0  0.43683116466E+03 -0.52461944247E+02  0.57527997433E+03  0.72423806231E+03  0.50400001928E-02 0.  1.
       -1    1    3    3    0  502 -0.43683116466E+03  0.52461944247E+02 -0.52145069763E+03  0.68226428318E+03  0.50400001928E-02 0. -1.
</event>
<event>
 5   0  0.2993993E-03  0.1354636E+04  0.7818609E-02  0.8987326E-01
       -2   -1    0    0    0  501  0.00000000000E+00  0.00000000000E+00  0.45110906756E+03  0.45110906757E+03  0.25500000920E-02 0. -1.
        2   -1    0    0  501    0  0.00000000000E+00  0.00000000000E+00 -0.10169601395E+04  0.10169601395E+04  0.25500000920E-02 0.  1.
    10030    2    1    2    0    0  0.00000000000E+00  0.00000000000E+00 -0.56585107198E+03  0.14680692071E+04  0.13546363945E+04 0.  0.
        3    1    3    3  502    0  0.52121956681E+03 -0.15808952547E+03  0.15340172101E+03  0.56585707834E+03  0.10100000352E+00 0. -1.
       -3    1    3    3    0  502 -0.52121956681E+03  0.15808952547E+03 -0.71925279299E+03  0.90221212878E+03  0.10100000352E+00 0.  1.
</event>
<event>
 5   0  0.1644571E-03  0.1369522E+04  0.7818609E-02  0.8976180E-01
        1   -1    0    0  501    0  0.00000000000E+00  0.00000000000E+00  0.61270176266E+03  0.61270176268E+03  0.50400001928E-02 0. -1.
       -1   -1    0    0    0  501  0.00000000000E+00  0.00000000000E+00 -0.76529546748E+03  0.76529546750E+03  0.50400001928E-02 0.  1.
    10030    2    1    2    0    0  0.00000000000E+00  0.00000000000E+00 -0.15259370482E+03  0.13779972302E+04  0.13695223721E+04 0.  0.
        4    1    3    3  502    0  0.48621516427E+03  0.48092215251E+03 -0.11122428465E+03  0.69286633425E+03  0.12699999809E+01 0.  1.
       -4    1    3    3    0  502 -0.48621516427E+03 -0.48092215251E+03 -0.41369420168E+02  0.68513089593E+03  0.12699999809E+01 0. -1.
</event>
<event>
 5   0  0.2889469E-03  0.1384879E+04  0.7818609E-02  0.8964837E-01
       -2   -1    0    0    0  501  0.00000000000E+00  0.00000000000E+00  0.53681043903E+03  0.53681043904E+03  0.25500000920E-02 0.  1.
        2   -1    0    0  501    0  0.00000000000E+00  0.00000000000E+00 -0.89318801928E+03  0.89318801928E+03  0.25500000920E-02 0. -1.
    10030    2    1    2    0    0  0.00000000000E+00  0.00000000000E+00 -0.35637758024E+03  0.14299984583E+04  0.13848792767E+04 0.  0.
        5    1    3    3  502    0 -0.62572806048E+02  0.91938605950E+02  0.52751175104E+03  0.53912781491E+03  0.46999998093E+01 0.  1.
       -5    1    3    3    0  502  0.62572806048E+02 -0.91938605950E+02 -0.88388933129E+03  0.89087064341E+03  0.46999998093E+01 0. -1.
</event>
<event>
 5   0  0.1631380E-03  0.1381476E+04  0.7818609E-02  0.8967337E-01
        1   -1    0    0  501    0  0.00000000000E+00  0.00000000000E+00  0.12273954420E+04  0.12273954420E+04  0.50400001928E-02 0.  1.
       -1   -1    0    0    0  501  0.00000000000E+00  0.00000000000E+00 -0.38872470047E+03  0.38872470050E+03  0.50400001928E-02 0. -1.
    10030    2    1    2    0    0  0.00000000000E+00  0.00000000000E+00  0.83867074154E+03  0.16161201425E+04  0.13814759145E+04 0.  0.
        3    1    3    3  502    0  0.14649776993E+03 -0.59615026301E+03  0.48911553369E+02  0.61583202493E+03  0.10100000352E+00 0.  1.
       -3    1    3    3    0  502 -0.14649776993E+03  0.59615026301E+03  0.78975918817E+03  0.10002881176E+04  0.10100000352E+00 0. -1.
</event>
<event>
 5   0  0.2917809E-03  0.1471358E+04  0.7818609E-02  0.8903726E-01
       -2   -1    0    0    0  501  0.00000000000E+00  0.00000000000E+00  0.41927029070E+03  0.41927029070E+03  0.25500000920E-02 0. -1.
        2   -1    0    0  501    0  0.00000000000E+00  0.00000000000E+00 -0.12908702531E+04  0.12908702531E+04  0.25500000920E-02 0.  1.
    10030    2    1    2    0    0  0.00000000000E+00  0.00000000000E+00 -0.87159996242E+03  0.17101405438E+04  0.14713579392E+04 0.  0.
        2    1    3    3  502    0  0.29910192974E+03 -0.35514635318E+03  0.22745029258E+03  0.51703436264E+03  0.25500000920E-02 0. -1.
       -2    1    3    3    0  502 -0.29910192974E+03  0.35514635318E+03 -0.10990502550E+04  0.11931061812E+04  0.25500000920E-02 0.  1.
</event>
<event>
 5   0  0.1560957E-03  0.1416611E+04  0.7818609E-02  0.8941882E-01
       -1   -1    0    0    0  501  0.00000000000E+00  0.00000000000E+00  0.29116250365E+03  0.29116250369E+03  0.50400001928E-02 0.  1.
        1   -1    0    0  501    0  0.00000000000E+00  0.00000000000E+00 -0.17230817839E+04  0.17230817839E+04  0.50400001928E-02 0. -1.
    10030    2    1    2    0    0  0.00000000000E+00  0.00000000000E+00 -0.14319192803E+04  0.20142442876E+04  0.14166111764E+04 0.  0.
        5    1    3    3  502    0  0.23587218208E+03 -0.56011025527E+03 -0.19874966733E+03  0.63943936741E+03  0.46999998093E+01 0.  1.
       -5    1    3    3    0  502 -0.23587218208E+03  0.56011025527E+03 -0.12331696129E+04  0.13748049202E+04  0.46999998093E+01 0. -1.
</event>
<event>
 5   0  0.1700207E-03  0.1380235E+04  0.7818609E-02  0.8968251E-01
        1   -1    0    0  501    0  0.00000000000E+00  0.00000000000E+00  0.85891813542E+03  0.85891813543E+03  0.50400001928E-02 0.  1.
       -1   -1    0    0    0  501  0.00000000000E+00  0.00000000000E+00 -0.55449108346E+03  0.55449108348E+03  0.50400001928E-02 0. -1.
    10030    2    1    2    0    0  0.00000000000E+00  0.00000000000E+00  0.30442705196E+03  0.14134092189E+04  0.13802354111E+04 0.  0.
        2    1    3    3  502    0  0.37377989557E+03  0.47036717499E+03 -0.19551494556E+03  0.63180913541E+03  0.25500000920E-02 0. -1.
       -2    1    3    3    0  502 -0.37377989557E+03 -0.47036717499E+03  0.49994199751E+03  0.78160008350E+03  0.25500000920E-02 0.  1.
</event>
<event>
 5   0  0.1560957E-03  0.1395492E+04  0.7818609E-02  0.8957088E-01
       -1   -1    0    0    0  501  0.00000000000E+00  0.00000000000E+00  0.79193907617E+03  0.79193907619E+03  0.50400001928E-02 0. -1.
        1   -1    0    0  501    0  0.00000000000E+00  0.00000000000E+00 -0.61475641443E+03  0.61475641446E+03  0.50400001928E-02 0.  1.
    10030    2    1    2    0    0  0.00000000000E+00  0.00000000000E+00  0.17718266174E+03  0.14066954906E+04  0.13954922099E+04 0.  0.
        5    1    3    3  502    0  0.30459295329E+03 -0.62212097776E+03  0.17302630669E+03  0.71398289263E+03  0.46999998093E+01 0. -1.
       -5    1    3    3    0  502 -0.30459295329E+03  0.62212097776E+03  0.41563550538E+01  0.69271259802E+03  0.46999998093E+01 0.  1.
</event>
<event>
 5   0  0.2889469E-03  0.1354712E+04  0.7818609E-02  0.8987269E-01
       -2   -1    0    0    0  501  0.00000000000E+00  0.00000000000E+00  0.33302168953E+03  0.33302168954E+03  0.25500000920E-02 0.  1.
        2   -1    0    0  501    0  0.00000000000E+00  0.00000000000E+00 -0.13777205929E+04  0.13777205929E+04  0.25500000920E-02 0. -1.
    10030    2    1    2    0    0  0.00000000000E+00  0.00000000000E+00 -0.10446989034E+04  0.17107422824E+04  0.13547115406E+04 0.  0.
        5    1    3    3  502    0  0.52558745138E+03  0.13505242667E+03 -0.10471585950E+02  0.54278271076E+03  0.46999998093E+01 0.  1.
       -5    1    3    3    0  502 -0.52558745138E+03 -0.13505242667E+03 -0.10342273174E+04  0.11679595717E+04  0.46999998093E+01 0. -1.
</event>
<event>
 5   0  0.1560957E-03  0.1432660E+04  0.7818609E-02  0.8930511E-01
        1   -1    0    0  501    0  0.00000000000E+00  0.00000000000E+00  0.54259525925E+03  0.54259525928E+03  0.50400001928E-02 0. -1.
       -1   -1    0    0    0  501  0.00000000000E+00  0.00000000000E+00 -0.94569369346E+03  0.94569369348E+03  0.50400001928E-02 0.  1.
    10030    2    1    2    0    0  0.00000000000E+00  0.00000000000E+00 -0.40309843421E+03  0.14882889528E+04  0.14326603433E+04 0.  0.
        5    1    3    3  502    0 -0.10098435975E+03  0.69871384622E+03 -0.75563875774E+02  0.71002173850E+03  0.46999998093E+01 0. -1.
       -5    1    3    3    0  502  0.10098435975E+03 -0.69871384622E+03 -0.32753455844E+03  0.77826721426E+03  0.46999998093E+01 0.  1.
</event>
<event>
 5   0  0.3006737E-03  0.1399820E+04  0.7818609E-02  0.8953949E-01
        2   -1    0    0  501    0  0.00000000000E+00  0.00000000000E+00  0.18152980817E+04  0.18152980817E+04  0.25500000920E-02 0.  1.
       -2   -1    0    0    0  501  0.00000000000E+00  0.00000000000E+00 -0.26985858479E+03  0.26985858480E+03  0.25500000920E-02 0. -1.
    10030    2    1    2    0    0  0.00000000000E+00  0.00000000000E+00  0.15454394969E+04  0.20851566665E+04  0.13998196617E+04 0.  0.
        1    1    3    3  502    0  0.58595252500E+03 -0.51074874538E+02  0.20760795730E+03  0.62373878212E+03  0.50400001928E-02 0. -1.
       -1    1    3    3    0  502 -0.58595252500E+03  0.51074874538E+02  0.13378315396E+04  0.14614178844E+04  0.50400001928E-02 0.  1.
</event>
<event>
 5   0  0.2889469E-03  0.1360920E+04  0.7818609E-02  0.8982603E-01
        2   -1    0    0  501    0  0.00000000000E+00  0.00000000000E+00  0.28599396236E+04  0.28599396236E+04  0.25500000920E-02 0.  1.
       -2   -1    0    0    0  501  0.00000000000E+00  0.00000000000E+00 -0.16190052800E+03  0.16190052802E+03  0.25500000920E-02 0. -1.
    10030    2    1    2    0    0  0.00000000000E+00  0.00000000000E+00  0.26980390956E+04  0.30218401516E+04  0.13609198877E+04 0.  0.
        5    1    3    3  502    0  0.42443547483E+02  0.54441096730E+03  0.22504711566E+04  0.23157778979E+04  0.46999998093E+01 0.  1.
       -5    1    3    3    0  502 -0.42443547483E+02 -0.54441096730E+03  0.44756793904E+03  0.70606225369E+03  0.46999998093E+01 0. -1.
</event>
<event>
 5   0  0.2889469E-03  0.1216135E+04  0.7818609E-02  0.9098850E-01
        2   -1    0    0  501    0  0.00000000000E+00  0.00000000000E+00  0.33716057013E+03  0.33716057014E+03  0.25500000920E-02 0.  1.
       -2   -1    0    0    0  501  0.00000000000E+00  0.00000000000E+00 -0.10966467948E+04  0.10966467948E+04  0.25500000920E-02 0. -1.
    10030    2    1    2    0    0  0.00000000000E+00  0.00000000000E+00 -0.75948622464E+03  0.14338073649E+04  0.12161349573E+04 0.  0.
        5    1    3    3  502    0 -0.28518325955E+03 -0.53177458486E+03 -0.29143495227E+03  0.67012694472E+03  0.46999998093E+01 0.  1.
       -5    1    3    3    0  502  0.28518325955E+03  0.53177458486E+03 -0.46805127236E+03  0.76368042020E+03  0.46999998093E+01 0. -1.
</event>
<event>
 5   0  0.1560957E-03  0.1398519E+04  0.7818609E-02  0.8954891E-01
        1   -1    0    0  501    0  0.00000000000E+00  0.00000000000E+00  0.55230152560E+03  0.55230152563E+03  0.50400001928E-02 0. -1.
       -1   -1    0    0    0  501  0.00000000000E+00  0.00000000000E+00 -0.88532093622E+03  0.88532093624E+03  0.50400001928E-02 0.  1.
    10030    2    1    2    0    0  0.00000000000E+00  0.00000000000E+00 -0.33301941062E+03  0.14376224619E+04  0.13985193653E+04 0.  0.
        5    1    3    3  502    0  0.44609186699E+03 -0.19897263435E+03 -0.68085360097E+03  0.83795690758E+03  0.46999998093E+01 0.  1.
       -5    1    3    3    0  502 -0.44609186699E+03  0.19897263435E+03  0.34783419035E+03  0.59966555428E+03  0.46999998093E+01 0. -1.
</event>
<event>
 5   0  0.1560957E-03  0.1138889E+04  0.7818609E-02  0.9168096E-01
        1   -1    0    0  501    0  0.00000000000E+00  0.00000000000E+00  0.18831274154E+04  0.18831274154E+04  0.50400001928E-02 0. -1.
       -1   -1    0    0    0  501  0.00000000000E+00  0.00000000000E+00 -0.17219596971E+03  0.17219596978E+03  0.50400001928E-02 0.  1.
    10030    2    1    2    0    0  0.00000000000E+00  0.00000000000E+00  0.17109314457E+04  0.20553233852E+04  0.11388888470E+04 0.  0.
        5    1    3    3  502    0  0.33858765403E+03 -0.19920723466E+03  0.11155513380E+03  0.40840146875E+03  0.46999998093E+01 0.  1.
       -5    1    3    3    0  502 -0.33858765403E+03  0.19920723466E+03  0.15993763119E+04  0.16469219164E+04  0.46999998093E+01 0. -1.
</event>
<event>
 5   0  0.2889469E-03  0.1397208E+04  0.7818609E-02  0.8955842E-01
       -2   -1    0    0    0  501  0.00000000000E+00  0.00000000000E+00  0.53868783766E+03  0.53868783766E+03  0.25500000920E-02 0. -1.
        2   -1    0    0  501    0  0.00000000000E+00  0.00000000000E+00 -0.90599388830E+03  0.90599388830E+03  0.25500000920E-02 0.  1.
    10030    2    1    2    0    0  0.00000000000E+00  0.00000000000E+00 -0.36730605065E+03  0.14446817260E+04  0.13972084864E+04 0.  0.
        5    1    3    3  502    0 -0.56279294743E+03 -0.15066709687E+03  0.21491712124E+03  0.62100558352E+03  0.46999998093E+01 0. -1.
       -5    1    3    3    0  502  0.56279294743E+03  0.15066709687E+03 -0.58222317189E+03  0.82367614245E+03  0.46999998093E+01 0.  1.
</event>
<event>
 5   0  0.1644571E-03  0.1395911E+04  0.7818609E-02  0.8956783E-01
        1   -1    0    0  501    0  0.00000000000E+00  0.00000000000E+00  0.52042723805E+03  0.52042723807E+03  0.50400001928E-02 0.  1.
       -1   -1    0    0    0  501  0.00000000000E+00  0.00000000000E+00 -0.93604265950E+03  0.93604265952E+03  0.50400001928E-02 0. -1.
    10030    2    1    2    0    0  0.00000000000E+00  0.00000000000E+00 -0.41561542146E+03  0.14564698976E+04  0.13959113095E+04 0.  0.
        4    1    3    3  502    0 -0.30454241134E+03  0.18545673921E+03  0.41822216393E+03  0.54959227953E+03  0.12699999809E+01 0.  1.
       -4    1    3    3    0  502  0.30454241134E+03 -0.18545673921E+03 -0.83383758538E+03  0.90687761805E+03  0.12699999809E+01 0. -1.
</event>
<event>
 5   0  0.3006737E-03  0.1416812E+04  0.7818609E-02  0.8941738E-01
        2   -1    0    0  501    0  0.00000000000E+00  0.00000000000E+00  0.17872844413E+04  0.17872844413E+04  0.25500000920E-02 0.  1.
       -2   -1    0    0    0  501  0.00000000000E+00  0.00000000000E+00 -0.28078294064E+03  0.28078294065E+03  0.25500000920E-02 0. -1.
    10030    2    1    2    0    0  0.00000000000E+00  0.00000000000E+00  0.15065015007E+04  0.20680673820E+04  0.14168118876E+04 0.  0.
        1    1    3    3  502    0 -0.17614319691E+03  0.50997051839E+03  0.83167617388E+02  0.54590586007E+03  0.50400001928E-02 0. -1.
       -1    1    3    3    0  502  0.17614319691E+03 -0.50997051839E+03  0.14233338833E+04  0.15221615219E+04  0.50400001928E-02 0.  1.
</event>
<event>
 5   0  0.1560957E-03  0.1145254E+04  0.7818609E-02  0.9162173E-01
        1   -1    0    0  501    0  0.00000000000E+00  0.00000000000E+00  0.41704477765E+03  0.41704477768E+03  0.50400001928E-02 0.  1.
       -1   -1    0    0    0  501  0.00000000000E+00  0.00000000000E+00 -0.78625020358E+03  0.78625020360E+03  0.50400001928E-02 0. -1.
    10030    2    1    2    0    0  0.00000000000E+00  0.00000000000E+00 -0.36920542593E+03  0.12032949813E+04  0.11452537559E+04 0.  0.
        5    1    3    3  502    0  0.41047867111E+03 -0.32170783415E+03  0.63790926724E+02  0.52543319492E+03  0.46999998093E+01 0.  1.
       -5    1    3    3    0  502 -0.41047867111E+03  0.32170783415E+03 -0.43299635266E+03  0.67786178636E+03  0.46999998093E+01 0. -1.
</event>
<event>
 5   0  0.1586022E-03  0.1378458E+04  0.7818609E-02  0.8969561E-01
       -1   -1    0    0    0  501  0.00000000000E+00  0.00000000000E+00  0.56197038380E+03  0.56197038382E+03  0.50400001928E-02 0.  1.
        1   -1    0    0  501    0  0.00000000000E+00  0.00000000000E+00 -0.84530601604E+03  0.84530601606E+03  0.50400001928E-02 0. -1.
    10030    2    1    2    0    0  0.00000000000E+00  0.00000000000E+00 -0.28333563224E+03  0.14072763999E+04  0.13784584815E+04 0.  0.
        1    1    3    3  502    0 -0.14906689153E+03  0.67247245961E+03 -0.11672762223E+03  0.69861683697E+03  0.50400001928E-02 0. -1.
       -1    1    3    3    0  502  0.14906689153E+03 -0.67247245961E+03 -0.16660801002E+03  0.70865956291E+03  0.50400001928E-02 0.  1.
</event>
<event>
 5   0  0.1586022E-03  0.1392402E+04  0.7818609E-02  0.8959337E-01
        1   -1    0    0  501    0  0.00000000000E+00  0.00000000000E+00  0.11328714464E+04  0.11328714464E+04  0.50400001928E-02 0. -1.
       -1   -1    0    0    0  501  0.00000000000E+00  0.00000000000E+00 -0.42784697773E+03  0.42784697776E+03  0.50400001928E-02 0.  1.
    10030    2    1    2    0    0  0.00000000000E+00  0.00000000000E+00  0.70502446870E+03  0.15607184242E+04  0.13924017014E+04 0.  0.
        1    1    3    3  502    0 -0.48745194445E+03  0.46072848526E+03  0.56165664525E+03  0.87483616893E+03  0.50400001928E-02 0. -1.
       -1    1    3    3    0  502  0.48745194445E+03 -0.46072848526E+03  0.14336782345E+03  0.68588225528E+03  0.50400001928E-02 0.  1.
</event>
<event>
 5   0  0.1644571E-03  0.1310302E+04  0.7818609E-02  0.9021435E-01
        1   -1    0    0  501    0  0.00000000000E+00  0.00000000000E+00  0.17319283322E+04  0.17319283322E+04  0.50400001928E-02 0.  1.
       -1   -1    0    0    0  501  0.00000000000E+00  0.00000000000E+00 -0.24782947874E+03  0.24782947879E+03  0.50400001928E-02 0. -1.
    10030    2    1    2    0    0  0.00000000000E+00  0.00000000000E+00  0.14840988534E+04  0.19797578110E+04  0.13103020962E+04 0.  0.
        4    1    3    3  502    0 -0.41746638934E+03  0.31553230582E+03  0.13376315130E+04  0.14363490174E+04  0.12699999809E+01 0.  1.
       -4    1    3    3    0  502  0.41746638934E+03 -0.31553230582E+03  0.14646734044E+03  0.54340879360E+03  0.12699999809E+01 0. -1.
</event>
<event>
 5   0  0.2760807E-03  0.9375361E+03  0.7818609E-02  0.9379839E-01
       -2   -1    0    0    0  501  0.00000000000E+00  0.00000000000E+00  0.28083449821E+03  0.28083449822E+03  0.25500000920E-02 0. -1.
        2   -1    0    0  501    0  0.00000000000E+00  0.00000000000E+00 -0.78246612805E+03  0.78246612805E+03  0.25500000920E-02 0.  1.
    10030    2    1    2    0    0  0.00000000000E+00  0.00000000000E+00 -0.50163162983E+03  0.10633006263E+04  0.93753609519E+03 0.  0.
        4    1    3    3  502    0 -0.12693833706E+03 -0.44084498549E+03 -0.36009588010E+03  0.58320519409E+03  0.12699999809E+01 0.  1.
       -4    1    3    3    0  502  0.12693833706E+03  0.44084498549E+03 -0.14153574973E+03  0.48009543218E+03  0.12699999809E+01 0. -1.
</event>
<event>
 5   0  0.3006737E-03  0.1378888E+04  0.7818609E-02  0.8969244E-01
        2   -1    0    0  501    0  0.00000000000E+00  0.00000000000E+00  0.45670285318E+03  0.45670285319E+03  0.25500000920E-02 0.  1.
       -2   -1    0    0    0  501  0.00000000000E+00  0.00000000000E+00 -0.10407933863E+04  0.10407933863E+04  0.25500000920E-02 0. -1.
    10030    2    1    2    0    0  0.00000000000E+00  0.00000000000E+00 -0.58409053310E+03  0.14974962395E+04  0.13788884061E+04 0.  0.
        1    1    3    3  502    0 -0.39723792520E+03  0.68616394994E+02 -0.89946490053E+03  0.98566895365E+03  0.50400001928E-02 0.  1.
       -1    1    3    3    0  502  0.39723792520E+03 -0.68616394994E+02  0.31537436742E+03  0.51182728584E+03  0.50400001928E-02 0. -1.
</event>
<event>
 5   0  0.1644571E-03  0.1305941E+04  0.7818609E-02  0.9024867E-01
        1   -1    0    0  501    0  0.00000000000E+00  0.00000000000E+00  0.20058537179E+04  0.20058537179E+04  0.50400001928E-02 0.  1.
       -1   -1    0    0    0  501  0.00000000000E+00  0.00000000000E+00 -0.21256319297E+03  0.21256319303E+03  0.50400001928E-02 0. -1.
    10030    2    1    2    0    0  0.00000000000E+00  0.00000000000E+00  0.17932905249E+04  0.22184169109E+04  0.13059413019E+04 0.  0.
        4    1    3    3  502    0  0.44201398229E+03  0.45850797192E+03  0.11414196638E+04  0.13070755077E+04  0.12699999809E+01 0.  1.
       -4    1    3    3    0  502 -0.44201398229E+03 -0.45850797192E+03  0.65187086109E+03  0.91134140326E+03  0.12699999809E+01 0. -1.
</event>
<event>
 5   0  0.2889469E-03  0.1429381E+04  0.7818609E-02  0.8932821E-01
       -2   -1    0    0    0  501  0.00000000000E+00  0.00000000000E+00  0.25353442502E+03  0.25353442503E+03  0.25500000920E-02 0.  1.
        2   -1    0    0  501    0  0.00000000000E+00  0.00000000000E+00 -0.20146477391E+04  0.20146477391E+04  0.25500000920E-02 0. -1.
    10030    2    1    2    0    0  0.00000000000E+00  0.00000000000E+00 -0.17611133140E+04  0.22681821641E+04  0.14293810635E+04 0.  0.
        5    1    3    3  502    0 -0.68179898694E+03  0.19329536279E+03 -0.73385003320E+03  0.10201818059E+04  0.46999998093E+01 0. -1.
       -5    1    3    3    0  502  0.68179898694E+03 -0.19329536279E+03 -0.10272632808E+04  0.12480003582E+04  0.46999998093E+01 0.  1.
</event>
<event>
 5   0  0.2993993E-03  0.1408267E+04  0.7818609E-02  0.8947856E-01
        2   -1    0    0  501    0  0.00000000000E+00  0.00000000000E+00  0.12094179839E+04  0.12094179839E+04  0.25500000920E-02 0.  1.
       -2   -1    0    0    0  501  0.00000000000E+00  0.00000000000E+00 -0.40995270117E+03  0.40995270118E+03  0.25500000920E-02 0. -1.
    10030    2    1    2    0    0  0.00000000000E+00  0.00000000000E+00  0.79946528273E+03  0.16193706851E+04  0.14082672607E+04 0.  0.
        3    1    3    3  502    0 -0.14933348483E+03  0.39895839957E+03  0.10444333655E+04  0.11279669142E+04  0.10100000352E+00 0.  1.
       -3    1    3    3    0  502  0.14933348483E+03 -0.39895839957E+03 -0.24496808278E+03  0.49140377091E+03  0.10100000352E+00 0. -1.
</event>
<event>
 5   0  0.2760807E-03  0.1383188E+04  0.7818609E-02  0.8966079E-01
        2   -1    0    0  501    0  0.00000000000E+00  0.00000000000E+00  0.11211622727E+04  0.11211622727E+04  0.25500000920E-02 0.  1.
       -2   -1    0    0    0  501  0.00000000000E+00  0.00000000000E+00 -0.42661268341E+03  0.42661268342E+03  0.25500000920E-02 0. -1.
    10030    2    1    2    0    0  0.00000000000E+00  0.00000000000E+00  0.69454958927E+03  0.15477749561E+04  0.13831876889E+04 0.  0.
        4    1    3    3  502    0  0.67605625261E+03 -0.97255191195E+02  0.46877583336E+03  0.82840993702E+03  0.12699999809E+01 0.  1.
       -4    1    3    3    0  502 -0.67605625261E+03  0.97255191195E+02  0.22577375591E+03  0.71936501908E+03  0.12699999809E+01 0. -1.
</event>
<event>
 5   0  0.2917809E-03  0.1410718E+04  0.7818609E-02  0.8946097E-01
       -2   -1    0    0    0  501  0.00000000000E+00  0.00000000000E+00  0.37967668359E+03  0.37967668360E+03  0.25500000920E-02 0. -1.
        2   -1    0    0  501    0  0.00000000000E+00  0.00000000000E+00 -0.13104076334E+04  0.13104076334E+04  0.25500000920E-02 0.  1.
    10030    2    1    2    0    0  0.00000000000E+00  0.00000000000E+00 -0.93073094983E+03  0.16900843170E+04  0.14107178661E+04 0.  0.
        2    1    3    3  502    0 -0.27857295928E+03  0.76997520348E+02 -0.12362125433E+04  0.12695483307E+04  0.25500000920E-02 0.  1.
       -2    1    3    3    0  502  0.27857295928E+03 -0.76997520348E+02  0.30548159351E+03  0.42053598628E+03  0.25500000920E-02 0. -1.
</event>
<event>
 5   0  0.2917809E-03  0.1384174E+04  0.7818609E-02  0.8965355E-01
       -2   -1    0    0    0  501  0.00000000000E+00  0.00000000000E+00  0.28024371156E+03  0.28024371157E+03  0.25500000920E-02 0. -1.
        2   -1    0    0  501    0  0.00000000000E+00  0.00000000000E+00 -0.17091701562E+04  0.17091701562E+04  0.25500000920E-02 0.  1.
    10030    2    1    2    0    0  0.00000000000E+00  0.00000000000E+00 -0.14289264446E+04  0.19894138677E+04  0.13841736716E+04 0.  0.
        2    1    3    3  502    0  0.23125737947E+03  0.54759046932E+03 -0.12239276737E+04  0.13606374419E+04  0.25500000920E-02 0.  1.
       -2    1    3    3    0  502 -0.23125737947E+03 -0.54759046932E+03 -0.20499877085E+03  0.62877642585E+03  0.25500000920E-02 0. -1.
</event>
<event>
 5   0  0.2917809E-03  0.1399173E+04  0.7818609E-02  0.8954418E-01
       -2   -1    0    0    0  501  0.00000000000E+00  0.00000000000E+00  0.12498039550E+04  0.12498039550E+04  0.25500000920E-02 0.  1.
        2   -1    0    0  501    0  0.00000000000E+00  0.00000000000E+00 -0.39159822796E+03  0.39159822797E+03  0.25500000920E-02 0. -1.
    10030    2    1    2    0    0  0.00000000000E+00  0.00000000000E+00  0.85820572707E+03  0.16414021830E+04  0.13991726328E+04 0.  0.
        2    1    3    3  502    0  0.67603014352E+03  0.56146755137E+02  0.22846171273E+03  0.71579603746E+03  0.25500000920E-02 0.  1.
       -2    1    3    3    0  502 -0.67603014352E+03 -0.56146755137E+02  0.62974401434E+03  0.92560614553E+03  0.25500000920E-02 0. -1.
</event>
<event>
 5   0  0.2993993E-03  0.1413013E+04  0.7818609E-02  0.8944452E-01
        2   -1    0    0  501    0  0.00000000000E+00  0.00000000000E+00  0.17753221228E+04  0.17753221228E+04  0.25500000920E-02 0. -1.
       -2   -1    0    0    0  501  0.00000000000E+00  0.00000000000E+00 -0.28116115629E+03  0.28116115630E+03  0.25500000920E-02 0.  1.
    10030    2    1    2    0    0  0.00000000000E+00  0.00000000000E+00  0.14941609665E+04  0.20564832791E+04  0.14130132637E+04 0.  0.
        3    1    3    3  502    0 -0.27108947508E+03  0.31465980046E+03 -0.84723797405E+02  0.42388492020E+03  0.10100000352E+00 0.  1.
       -3    1    3    3    0  502  0.27108947508E+03 -0.31465980046E+03  0.15788847639E+04  0.16325983588E+04  0.10100000352E+00 0. -1.
</event>
<event>
 5   0  0.2760807E-03  0.1402475E+04  0.7818609E-02  0.8952029E-01
        2   -1    0    0  501    0  0.00000000000E+00  0.00000000000E+00  0.76080817680E+03  0.76080817680E+03  0.25500000920E-02 0. -1.
       -2   -1    0    0    0  501  0.00000000000E+00  0.00000000000E+00 -0.64633152783E+03  0.64633152784E+03  0.25500000920E-02 0.  1.
    10030    2    1    2    0    0  0.00000000000E+00  0.00000000000E+00  0.11447664897E+03  0.14071397046E+04  0.14024753991E+04 0.  0.
        4    1    3    3  502    0  0.42395687906E+03  0.30855514379E+03  0.52439070850E+03  0.74157463557E+03  0.12699999809E+01 0. -1.
       -4    1    3    3    0  502 -0.42395687906E+03 -0.30855514379E+03 -0.40991405953E+03  0.66556506907E+03  0.12699999809E+01 0.  1.
</event>
<event>
 5   0  0.3006737E-03  0.1346051E+04  0.7818609E-02  0.8993823E-01
        2   -1    0    0  501    0  0.00000000000E+00  0.00000000000E+00  0.35691909068E+03  0.35691909069E+03  0.25500000920E-02 0.  1.
       -2   -1    0    0    0  501  0.00000000000E+00  0.00000000000E+00 -0.12690926520E+04  0.12690926520E+04  0.25500000920E-02 0. -1.
    10030    2    1    2    0    0  0.00000000000E+00  0.00000000000E+00 -0.91217356127E+03  0.16260117427E+04  0.13460511065E+04 0.  0.
        1    1    3    3  502    0 -0.57896402117E+02 -0.32811529874E+03  0.25030322383E+03  0.41672934446E+03  0.50400001928E-02 0.  1.
       -1    1    3    3    0  502  0.57896402117E+02  0.32811529874E+03 -0.11624767851E+04  0.12092823982E+04  0.50400001928E-02 0. -1.
</event>
<event>
 5   0  0.1586022E-03  0.1358874E+04  0.7818609E-02  0.8984137E-01
       -1   -1    0    0    0  501  0.00000000000E+00  0.00000000000E+00  0.56821503034E+03  0.56821503037E+03  0.50400001928E-02 0. -1.
        1   -1    0    0  501    0  0.00000000000E+00  0.00000000000E+00 -0.81243006000E+03  0.81243006001E+03  0.50400001928E-02 0.  1.
    10030    2    1    2    0    0  0.00000000000E+00  0.00000000000E+00 -0.24421502965E+03  0.13806450904E+04  0.13588744920E+04 0.  0.
        1    1    3    3  502    0 -0.11934379654E+03  0.24041383427E+03 -0.75628146756E+03  0.80249823158E+03  0.50400001928E-02 0.  1.
       -1    1    3    3    0  502  0.11934379654E+03 -0.24041383427E+03  0.51206643791E+03  0.57814685880E+03  0.50400001928E-02 0. -1.
</event>
<event>
 5   0  0.1631380E-03  0.1408329E+04  0.7818609E-02  0.8947812E-01
       -1   -1    0    0    0  501  0.00000000000E+00  0.00000000000E+00  0.47497980813E+03  0.47497980816E+03  0.50400001928E-02 0.  1.
        1   -1    0    0  501    0  0.00000000000E+00  0.00000000000E+00 -0.10439337051E+04  0.10439337051E+04  0.50400001928E-02 0. -1.
    10030    2    1    2    0    0  0.00000000000E+00  0.00000000000E+00 -0.56895389700E+03  0.15189135133E+04  0.14083286988E+04 0.  0.
        3    1    3    3  502    0  0.38692945140E+03  0.49280981093E+03  0.62115647952E+02  0.62963026772E+03  0.10100000352E+00 0.  1.
       -3    1    3    3    0  502 -0.38692945140E+03 -0.49280981093E+03 -0.63106954495E+03  0.88928324559E+03  0.10100000352E+00 0. -1.
</event>
<event>
 5   0  0.1586022E-03  0.1387269E+04  0.7818609E-02  0.8963086E-01
       -1   -1    0    0    0  501  0.00000000000E+00  0.00000000000E+00  0.39497114234E+03  0.39497114237E+03  0.50400001928E-02 0.  1.
        1   -1    0    0  501    0  0.00000000000E+00  0.00000000000E+00 -0.12181358797E+04  0.12181358797E+04  0.50400001928E-02 0. -1.
    10030    2    1    2    0    0  0.00000000000E+00  0.00000000000E+00 -0.82316473735E+03  0.16131070221E+04  0.13872685680E+04 0.  0.
        1    1    3    3  502    0 -0.21954267144E+03  0.17022528639E+03  0.32745771427E+03  0.42942308668E+03  0.50400001928E-02 0.  1.
       -1    1    3    3    0  502  0.21954267144E+03 -0.17022528639E+03 -0.11506224516E+04  0.11836839354E+04  0.50400001928E-02 0. -1.
</event>
<event>
 5   0  0.2760807E-03  0.1418558E+04  0.7818609E-02  0.8940494E-01
       -2   -1    0    0    0  501  0.00000000000E+00  0.00000000000E+00  0.36882466717E+03  0.36882466718E+03  0.25500000920E-02 0. -1.
        2   -1    0    0  501    0  0.00000000000E+00  0.00000000000E+00 -0.13639987261E+04  0.13639987261E+04  0.25500000920E-02 0.  1.
    10030    2    1    2    0    0  0.00000000000E+00  0.00000000000E+00 -0.99517405891E+03  0.17328233933E+04  0.14185575437E+04 0.  0.
        4    1    3    3  502    0 -0.48376723680E+03 -0.50806044464E+03 -0.62522826261E+03  0.93971705746E+03  0.12699999809E+01 0.  1.
       -4    1    3    3    0  502  0.48376723680E+03  0.50806044464E+03 -0.36994579629E+03  0.79310633581E+03  0.12699999809E+01 0. -1.
</event>
<event>
 5   0  0.2917809E-03  0.1398345E+04  0.7818609E-02  0.8955017E-01
       -2   -1    0    0    0  501  0.00000000000E+00  0.00000000000E+00  0.30942709310E+03  0.30942709311E+03  0.25500000920E-02 0. -1.
        2   -1    0    0  501    0  0.00000000000E+00  0.00000000000E+00 -0.15798300568E+04  0.15798300568E+04  0.25500000920E-02 0.  1.
    10030    2    1    2    0    0  0.00000000000E+00  0.00000000000E+00 -0.12704029637E+04  0.18892571499E+04  0.13983450534E+04 0.  0.
        2    1    3    3  502    0 -0.36635215690E+02 -0.69768131480E+03 -0.67197596390E+03  0.96935703026E+03  0.25500000920E-02 0. -1.
       -2    1    3    3    0  502  0.36635215690E+02  0.69768131480E+03 -0.59842699983E+03  0.91990011968E+03  0.25500000920E-02 0.  1.
</event>
<event>
 5   0  0.2917809E-03  0.1403987E+04  0.7818609E-02  0.8950937E-01
        2   -1    0    0  501    0  0.00000000000E+00  0.00000000000E+00  0.78711665117E+03  0.78711665118E+03  0.25500000920E-02 0. -1.
       -2   -1    0    0    0  501  0.00000000000E+00  0.00000000000E+00 -0.62607617153E+03  0.62607617154E+03  0.25500000920E-02 0.  1.
    10030    2    1    2    0    0  0.00000000000E+00  0.00000000000E+00  0.16104047964E+03  0.14131928227E+04  0.14039871503E+04 0.  0.
        2    1    3    3  502    0  0.36984183714E+02 -0.64543131693E+02  0.78313822909E+03  0.78666328983E+03  0.25500000920E-02 0. -1.
       -2    1    3    3    0  502 -0.36984183714E+02  0.64543131693E+02 -0.62209774945E+03  0.62652953288E+03  0.25500000920E-02 0.  1.
</event>
<event>
 5   0  0.3006737E-03  0.1412127E+04  0.7818609E-02  0.8945087E-01
       -2   -1    0    0    0  501  0.00000000000E+00  0.00000000000E+00  0.54279253983E+03  0.54279253983E+03  0.25500000920E-02 0. -1.
        2   -1    0    0  501    0  0.00000000000E+00  0.00000000000E+00 -0.91844557863E+03  0.91844557864E+03  0.25500000920E-02 0.  1.
    10030    2    1    2    0    0  0.00000000000E+00  0.00000000000E+00 -0.37565303881E+03  0.14612381185E+04  0.14121266350E+04 0.  0.
        1    1    3    3  502    0  0.60904990593E+03 -0.12693656608E+03  0.15765734451E+03  0.64180255377E+03  0.50400001928E-02 0. -1.
       -1    1    3    3    0  502 -0.60904990593E+03  0.12693656608E+03 -0.53331038331E+03  0.81943556470E+03  0.50400001928E-02 0.  1.
</event>
<event>
 5   0  0.2889469E-03  0.1241001E+04  0.7818609E-02  0.9077706E-01
       -2   -1    0    0    0  501  0.00000000000E+00  0.00000000000E+00  0.75509247465E+03  0.75509247466E+03  0.25500000920E-02 0.  1.
        2   -1    0    0  501    0  0.00000000000E+00  0.00000000000E+00 -0.50989919044E+03  0.50989919044E+03  0.25500000920E-02 0. -1.
    10030    2    1    2    0    0  0.00000000000E+00  0.00000000000E+00  0.24519328421E+03  0.12649916651E+04  0.12410012756E+04 0.  0.
        5    1    3    3  502    0  0.25539761347E+03 -0.27335391713E+03 -0.38199678631E+03  0.53469050836E+03  0.46999998093E+01 0. -1.
       -5    1    3    3    0  502 -0.25539761347E+03  0.27335391713E+03  0.62719007052E+03  0.73030115674E+03  0.46999998093E+01 0.  1.
</event>
<event>
 5   0  0.1700207E-03  0.1389394E+04  0.7818609E-02  0.8961531E-01
        1   -1    0    0  501    0  0.00000000000E+00  0.00000000000E+00  0.11043682983E+04  0.11043682983E+04  0.50400001928E-02 0.  1.
       -1   -1    0    0    0  501  0.00000000000E+00  0.00000000000E+00 -0.43699565054E+03  0.43699565057E+03  0.50400001928E-02 0. -1.
    10030    2    1    2    0    0  0.00000000000E+00  0.00000000000E+00  0.66737264777E+03  0.15413639489E+04  0.13893943184E+04 0.  0.
        2    1    3    3  502    0  0.51548261805E+03  0.56493943049E+02  0.84651467878E+03  0.99272402837E+03  0.25500000920E-02 0.  1.
       -2    1    3    3    0  502 -0.51548261805E+03 -0.56493943049E+02 -0.17914203100E+03  0.54863992052E+03  0.25500000920E-02 0. -1.
</event>
<event>
 5   0  0.1631380E-03  0.1383506E+04  0.7818609E-02  0.8965845E-01
        1   -1    0    0  501    0  0.00000000000E+00  0.00000000000E+00  0.97435736357E+03  0.97435736358E+03  0.50400001928E-02 0. -1.
       -1   -1    0    0    0  501  0.00000000000E+00  0.00000000000E+00 -0.49111573819E+03  0.49111573822E+03  0.50400001928E-02 0.  1.
    10030    2    1    2    0    0  0.00000000000E+00  0.00000000000E+00  0.48324162538E+03  0.14654731018E+04  0.13835060331E+04 0.  0.
        3    1    3    3  502    0  0.60571659126E+03 -0.22582094389E+03 -0.19208760618E+02  0.64672766626E+03  0.10100000352E+00 0.  1.
       -3    1    3    3    0  502 -0.60571659126E+03  0.22582094389E+03  0.50245038600E+03  0.81874543554E+03  0.10100000352E+00 0. -1.
</event>
<event>
 5   0  0.1586022E-03  0.1640178E+04  0.7818609E-02  0.8796238E-01
        1   -1    0    0  501    0  0.00000000000E+00  0.00000000000E+00  0.99333296347E+03  0.99333296349E+03  0.50400001928E-02 0.  1.
       -1   -1    0    0    0  501  0.00000000000E+00  0.00000000000E+00 -0.67706033091E+03  0.67706033092E+03  0.50400001928E-02 0. -1.
    10030    2    1    2    0    0  0.00000000000E+00  0.00000000000E+00  0.31627263257E+03  0.16703932944E+04  0.16401784598E+04 0.  0.
        1    1    3    3  502    0  0.11239692737E+03 -0.23972629045E+02  0.98509132298E+03  0.99177248947E+03  0.50400001928E-02 0.  1.
       -1    1    3    3    0  502 -0.11239692737E+03  0.23972629045E+02 -0.66881869042E+03  0.67862080494E+03  0.50400001928E-02 0. -1.
</event>
<event>
 5   0  0.1700207E-03  0.1352215E+04  0.7818609E-02  0.8989153E-01
        1   -1    0    0  501    0  0.00000000000E+00  0.00000000000E+00  0.18390459145E+04  0.18390459145E+04  0.50400001928E-02 0. -1.
       -1   -1    0    0    0  501  0.00000000000E+00  0.00000000000E+00 -0.24856425012E+03  0.24856425017E+03  0.50400001928E-02 0.  1.
    10030    2    1    2    0    0  0.00000000000E+00  0.00000000000E+00  0.15904816643E+04  0.20876101646E+04  0.13522145817E+04 0.  0.
        2    1    3    3  502    0 -0.60078576150E+03 -0.21339595791E+03  0.11426564687E+04  0.13084896528E+04  0.25500000920E-02 0.  1.
       -2    1    3    3    0  502  0.60078576150E+03  0.21339595791E+03  0.44782519566E+03  0.77912051182E+03  0.25500000920E-02 0. -1.
</event>
<event>
 5   0  0.2993993E-03  0.1408252E+04  0.7818609E-02  0.8947867E-01
       -2   -1    0    0    0  501  0.00000000000E+00  0.00000000000E+00  0.37625446417E+03  0.37625446417E+03  0.25500000920E-02 0. -1.
        2   -1    0    0  501    0  0.00000000000E+00  0.00000000000E+00 -0.13177080543E+04  0.13177080543E+04  0.25500000920E-02 0.  1.
    10030    2    1    2    0    0  0.00000000000E+00  0.00000000000E+00 -0.94145359013E+03  0.16939625185E+04  0.14082521619E+04 0.  0.
        3    1    3    3  502    0 -0.46968885267E+03  0.12467016121E+03  0.14220464228E+03  0.50633233938E+03  0.10100000352E+00 0. -1.
       -3    1    3    3    0  502  0.46968885267E+03 -0.12467016121E+03 -0.10836582324E+04  0.11876301791E+04  0.10100000352E+00 0.  1.
</event>
<event>
 5   0  0.1700207E-03  0.1392202E+04  0.7818609E-02  0.8959483E-01
       -1   -1    0    0    0  501  0.00000000000E+00  0.00000000000E+00  0.47014210048E+03  0.47014210051E+03  0.50400001928E-02 0.  1.
        1   -1    0    0  501    0  0.00000000000E+00  0.00000000000E+00 -0.10306594945E+04  0.10306594945E+04  0.50400001928E-02 0. -1.
    10030    2    1    2    0    0  0.00000000000E+00  0.00000000000E+00 -0.56051739400E+03  0.15008015950E+04  0.13922017377E+04 0.  0.
        2    1    3    3  502    0 -0.22579024451E+03 -0.49821387029E+02  0.42753485819E+03  0.48605499699E+03  0.25500000920E-02 0.  1.
       -2    1    3    3    0  502  0.22579024451E+03  0.49821387029E+02 -0.98805225219E+03  0.10147465980E+04  0.25500000920E-02 0. -1.
</event>
<event>
 5   0  0.2889469E-03  0.1395804E+04  0.7818609E-02  0.8956862E-01
       -2   -1    0    0    0  501  0.00000000000E+00  0.00000000000E+00  0.61293665978E+03  0.61293665979E+03  0.25500000920E-02 0.  1.
        2   -1    0    0  501    0  0.00000000000E+00  0.00000000000E+00 -0.79464493738E+03  0.79464493738E+03  0.25500000920E-02 0. -1.
    10030    2    1    2    0    0  0.00000000000E+00  0.00000000000E+00 -0.18170827759E+03  0.14075815972E+04  0.13958037307E+04 0.  0.
        5    1    3    3  502    0 -0.24956894948E+03  0.25431139548E+03 -0.69598921881E+03  0.78190922051E+03  0.46999998093E+01 0. -1.
       -5    1    3    3    0  502  0.24956894948E+03 -0.25431139548E+03  0.51428094122E+03  0.62567237666E+03  0.46999998093E+01 0.  1.
</event>
<event>
 5   0  0.2760807E-03  0.1392428E+04  0.7818609E-02  0.8959318E-01
        2   -1    0    0  501    0  0.00000000000E+00  0.00000000000E+00  0.84221693861E+03  0.84221693861E+03  0.25500000920E-02 0. -1.
       -2   -1    0    0    0  501  0.00000000000E+00  0.00000000000E+00 -0.57552132726E+03  0.57552132727E+03  0.25500000920E-02 0.  1.
    10030    2    1    2    0    0  0.00000000000E+00  0.00000000000E+00  0.26669561135E+03  0.14177382659E+04  0.13924278227E+04 0.  0.
        4    1    3    3  502    0 -0.56418879126E+01  0.29326681768E+03  0.77623213221E+03  0.82980431020E+03  0.12699999809E+01 0. -1.
       -4    1    3    3    0  502  0.56418879126E+01 -0.29326681768E+03 -0.50953652086E+03  0.58793395568E+03  0.12699999809E+01 0.  1.
</event>
<event>
 5   0  0.1560957E-03  0.1416777E+04  0.7818609E-02  0.8941763E-01
        1   -1    0    0  501    0  0.00000000000E+00  0.00000000000E+00  0.12004761977E+04  0.12004761977E+04  0.50400001928E-02 0.  1.
       -1   -1    0    0    0  501  0.00000000000E+00  0.00000000000E+00 -0.41801285580E+03  0.41801285583E+03  0.50400001928E-02 0. -1.
    10030    2    1    2    0    0  0.00000000000E+00  0.00000000000E+00  0.78246334194E+03  0.16184890536E+04  0.14167773061E+04 0.  0.
        5    1    3    3  502    0 -0.26895079423E+03 -0.35753313604E+02  0.11387487898E+04  0.11706338990E+04  0.46999998093E+01 0.  1.
       -5    1    3    3    0  502  0.26895079423E+03  0.35753313604E+02 -0.35628544786E+03  0.44785515461E+03  0.46999998093E+01 0. -1.
</event>
<event>
 5   0  0.1631380E-03  0.1441620E+04  0.7818609E-02  0.8924231E-01
       -1   -1    0    0    0  501  0.00000000000E+00  0.00000000000E+00  0.14033787757E+04  0.14033787757E+04  0.50400001928E-02 0. -1.
        1   -1    0    0  501    0  0.00000000000E+00  0.00000000000E+00 -0.37022576805E+03  0.37022576809E+03  0.50400001928E-02 0.  1.
    10030    2    1    2    0    0  0.00000000000E+00  0.00000000000E+00  0.10331530076E+04  0.17736045438E+04  0.14416199016E+04 0.  0.
        3    1    3    3  502    0 -0.23182803824E+03  0.68194225332E+03  0.48227162614E+03  0.86681913209E+03  0.10100000352E+00 0. -1.
       -3    1    3    3    0  502  0.23182803824E+03 -0.68194225332E+03  0.55088138150E+03  0.90678541170E+03  0.10100000352E+00 0.  1.
</event>
<event>
 5   0  0.1644571E-03  0.1201691E+04  0.7818609E-02  0.9111378E-01
        1   -1    0    0  501    0  0.00000000000E+00  0.00000000000E+00  0.10082877927E+04  0.10082877927E+04  0.50400001928E-02 0.  1.
       -1   -1    0    0    0  501  0.00000000000E+00  0.00000000000E+00 -0.35804765663E+03  0.35804765666E+03  0.50400001928E-02 0. -1.
    10030    2    1    2    0    0  0.00000000000E+00  0.00000000000E+00  0.65024013607E+03  0.13663354494E+04  0.12016906115E+04 0.  0.
        4    1    3    3  502    0  0.41374648860E+03  0.37753611376E+03  0.57238740297E+03  0.80084244768E+03  0.12699999809E+01 0.  1.
       -4    1    3    3    0  502 -0.41374648860E+03 -0.37753611376E+03  0.77852733101E+02  0.56549300170E+03  0.12699999809E+01 0. -1.
</event>
<event>
 5   0  0.1560957E-03  0.1353910E+04  0.7818609E-02  0.8987874E-01
       -1   -1    0    0    0  501  0.00000000000E+00  0.00000000000E+00  0.64606061242E+03  0.64606061244E+03  0.50400001928E-02 0.  1.
        1   -1    0    0  501    0  0.00000000000E+00  0.00000000000E+00 -0.70932649522E+03  0.70932649523E+03  0.50400001928E-02 0. -1.
    10030    2    1    2    0    0  0.00000000000E+00  0.00000000000E+00 -0.63265882799E+02  0.13553871077E+04  0.13539097606E+04 0.  0.
        5    1    3    3  502    0  0.18206771025E+03  0.52974065289E+03  0.34887654449E+03  0.65993237815E+03  0.46999998093E+01 0.  1.
       -5    1    3    3    0  502 -0.18206771025E+03 -0.52974065289E+03 -0.41214242729E+03  0.69545472952E+03  0.46999998093E+01 0. -1.
</event>
<event>
 5   0  0.2917809E-03  0.1335454E+04  0.7818609E-02  0.9001913E-01
        2   -1    0    0  501    0  0.00000000000E+00  0.00000000000E+00  0.18352680054E+04  0.18352680054E+04  0.25500000920E-02 0.  1.
       -2   -1    0    0    0  501  0.00000000000E+00  0.00000000000E+00 -0.24293977749E+03  0.24293977751E+03  0.25500000920E-02 0. -1.
    10030    2    1    2    0    0  0.00000000000E+00  0.00000000000E+00  0.15923282279E+04  0.20782077829E+04  0.13354543809E+04 0.  0.
        2    1    3    3  502    0  0.19391222275E+03 -0.63848340700E+03  0.83417410755E+03  0.10682272478E+04  0.25500000920E-02 0. -1.
       -2    1    3    3    0  502 -0.19391222275E+03  0.63848340700E+03  0.75815412033E+03  0.10099805351E+04  0.25500000920E-02 0.  1.
</event>
<event>
 5   0  0.1700207E-03  0.1405436E+04  0.7818609E-02  0.8949893E-01
        1   -1    0    0  501    0  0.00000000000E+00  0.00000000000E+00  0.12637288715E+04  0.12637288715E+04  0.50400001928E-02 0.  1.
       -1   -1    0    0    0  501  0.00000000000E+00  0.00000000000E+00 -0.39075852691E+03  0.39075852694E+03  0.50400001928E-02 0. -1.
    10030    2    1    2    0    0  0.00000000000E+00  0.00000000000E+00  0.87297034456E+03  0.16544873984E+04  0.14054363483E+04 0.  0.
        2    1    3    3  502    0  0.46503259125E+02 -0.14152682708E+03  0.12449266555E+04  0.12538081087E+04  0.25500000920E-02 0.  1.
       -2    1    3    3    0  502 -0.46503259125E+02  0.14152682708E+03 -0.37195631098E+03  0.40067928968E+03  0.25500000920E-02 0. -1.
</event>
<event>
 5   0  0.2889469E-03  0.1312499E+04  0.7818609E-02  0.9019711E-01
        2   -1    0    0  501    0  0.00000000000E+00  0.00000000000E+00  0.97687226580E+03  0.97687226581E+03  0.25500000920E-02 0. -1.
       -2   -1    0    0    0  501  0.00000000000E+00  0.00000000000E+00 -0.44085965131E+03  0.44085965131E+03  0.25500000920E-02 0.  1.
    10030    2    1    2    0    0  0.00000000000E+00  0.00000000000E+00  0.53601261450E+03  0.14177319171E+04  0.13124992442E+04 0.  0.
        5    1    3    3  502    0 -0.47569985280E+03  0.63847768225E+01  0.75625405705E+03  0.89346147322E+03  0.46999998093E+01 0. -1.
       -5    1    3    3    0  502  0.47569985280E+03 -0.63847768225E+01 -0.22024144255E+03  0.52427044390E+03  0.46999998093E+01 0.  1.
</event>
<event>
 5   0  0.1586022E-03  0.1396558E+04  0.7818609E-02  0.8956314E-01
        1   -1    0    0  501    0  0.00000000000E+00  0.00000000000E+00  0.13341968027E+04  0.13341968027E+04  0.50400001928E-02 0.  1.
       -1   -1    0    0    0  501  0.00000000000E+00  0.00000000000E+00 -0.36545866685E+03  0.36545866688E+03  0.50400001928E-02 0. -1.
    10030    2    1    2    0    0  0.00000000000E+00  0.00000000000E+00  0.96873813583E+03  0.16996554696E+04  0.13965583194E+04 0.  0.
        1    1    3    3  502    0  0.24854916713E+03 -0.58078362341E+03  0.84643845395E+03  0.10561933355E+04  0.50400001928E-02 0.  1.
       -1    1    3    3    0  502 -0.24854916713E+03  0.58078362341E+03  0.12229968188E+03  0.64346213402E+03  0.50400001928E-02 0. -1.
</event>
<event>
 5   0  0.2993993E-03  0.1365739E+04  0.7818609E-02  0.8978999E-01
       -2   -1    0    0    0  501  0.00000000000E+00  0.00000000000E+00  0.25878341670E+03  0.25878341672E+03  0.25500000920E-02 0. -1.
        2   -1    0    0  501    0  0.00000000000E+00  0.00000000000E+00 -0.18019344486E+04  0.18019344486E+04  0.25500000920E-02 0.  1.
    10030    2    1    2    0    0  0.00000000000E+00  0.00000000000E+00 -0.15431510319E+04  0.20607178653E+04  0.13657389989E+04 0.  0.
        3    1    3    3  502    0  0.13467145197E+03 -0.57295743135E+03 -0.12940315826E+04  0.14215957108E+04  0.10100000352E+00 0. -1.
       -3    1    3    3    0  502 -0.13467145197E+03  0.57295743135E+03 -0.24911944930E+03  0.63912215447E+03  0.10100000352E+00 0.  1.
</event>
<event>
 5   0  0.2889469E-03  0.1389637E+04  0.7818609E-02  0.8961354E-01
        2   -1    0    0  501    0  0.00000000000E+00  0.00000000000E+00  0.13033732455E+04  0.13033732455E+04  0.25500000920E-02 0. -1.
       -2   -1    0    0    0  501  0.00000000000E+00  0.00000000000E+00 -0.37040229939E+03  0.37040229940E+03  0.25500000920E-02 0.  1.
    10030    2    1    2    0    0  0.00000000000E+00  0.00000000000E+00  0.93297094616E+03  0.16737755449E+04  0.13896365670E+04 0.  0.
        5    1    3    3  502    0  0.23583567417E+03  0.59979927397E+03  0.77912078837E+03  0.10111522769E+04  0.46999998093E+01 0. -1.
       -5    1    3    3    0  502 -0.23583567417E+03 -0.59979927397E+03  0.15385015779E+03  0.66262326802E+03  0.46999998093E+01 0.  1.
</event>
<event>
 5   0  0.2889469E-03  0.1391355E+04  0.7818609E-02  0.8960100E-01
        2   -1    0    0  501    0  0.00000000000E+00  0.00000000000E+00  0.35527099468E+03  0.35527099468E+03  0.25500000920E-02 0.  1.
       -2   -1    0    0    0  501  0.00000000000E+00  0.00000000000E+00 -0.13622478897E+04  0.13622478897E+04  0.25500000920E-02 0. -1.
    10030    2    1    2    0    0  0.00000000000E+00  0.00000000000E+00 -0.10069768950E+04  0.17175188844E+04  0.13913549695E+04 0.  0.
        5    1    3    3  502    0 -0.48687730906E+03  0.46054200527E+03 -0.73375566236E+03  0.99376451674E+03  0.46999998093E+01 0. -1.
       -5    1    3    3    0  502  0.48687730906E+03 -0.46054200527E+03 -0.27322123266E+03  0.72375436763E+03  0.46999998093E+01 0.  1.
</event>
<event>
 5   0  0.2993993E-03  0.1398510E+04  0.7818609E-02  0.8954898E-01
        2   -1    0    0  501    0  0.00000000000E+00  0.00000000000E+00  0.42321407887E+03  0.42321407888E+03  0.25500000920E-02 0. -1.
       -2   -1    0    0    0  501  0.00000000000E+00  0.00000000000E+00 -0.11553430349E+04  0.11553430349E+04  0.25500000920E-02 0.  1.
    10030    2    1    2    0    0  0.00000000000E+00  0.00000000000E+00 -0.73212895600E+03  0.15785571138E+04  0.13985098331E+04 0.  0.
        3    1    3    3  502    0 -0.22900587732E+03  0.31837889983E+03 -0.10195161721E+04  0.10923470379E+04  0.10100000352E+00 0.  1.
       -3    1    3    3    0  502  0.22900587732E+03 -0.31837889983E+03  0.28738721613E+03  0.48621007589E+03  0.10100000352E+00 0. -1.
</event>
<event>
 5   0  0.1586022E-03  0.1403392E+04  0.7818609E-02  0.8951367E-01
        1   -1    0    0  501    0  0.00000000000E+00  0.00000000000E+00  0.20578378817E+04  0.20578378817E+04  0.50400001928E-02 0. -1.
       -1   -1    0    0    0  501  0.00000000000E+00  0.00000000000E+00 -0.23926926631E+03  0.23926926636E+03  0.50400001928E-02 0.  1.
    10030    2    1    2    0    0  0.00000000000E+00  0.00000000000E+00  0.18185686154E+04  0.22971071481E+04  0.14033921194E+04 0.  0.
        1    1    3    3  502    0 -0.35569346041E+03  0.46564793569E+03  0.15411740258E+04  0.16488066034E+04  0.50400001928E-02 0. -1.
       -1    1    3    3    0  502  0.35569346041E+03 -0.46564793569E+03  0.27739458961E+03  0.64830054463E+03  0.50400001928E-02 0.  1.
</event>
<event>
 5   0  0.1700207E-03  0.1351743E+04  0.7818609E-02  0.8989510E-01
        1   -1    0    0  501    0  0.00000000000E+00  0.00000000000E+00  0.92364245676E+03  0.92364245677E+03  0.50400001928E-02 0.  1.
       -1   -1    0    0    0  501  0.00000000000E+00  0.00000000000E+00 -0.49456596309E+03  0.49456596312E+03  0.50400001928E-02 0. -1.
    10030    2    1    2    0    0  0.00000000000E+00  0.00000000000E+00  0.42907649367E+03  0.14182084199E+04  0.13517427584E+04 0.  0.
        2    1    3    3  502    0  0.53615399596E+03 -0.34050052473E+03  0.45698607004E+03  0.78245637767E+03  0.25500000920E-02 0.  1.
       -2    1    3    3    0  502 -0.53615399596E+03  0.34050052473E+03 -0.27909576376E+02  0.63575204222E+03  0.25500000920E-02 0. -1.
</event>
<event>
 5   0  0.1560957E-03  0.1409718E+04  0.7818609E-02  0.8946814E-01
       -1   -1    0    0    0  501  0.00000000000E+00  0.00000000000E+00  0.34924554834E+03  0.34924554838E+03  0.50400001928E-02 0.  1.
        1   -1    0    0  501    0  0.00000000000E+00  0.00000000000E+00 -0.14225690574E+04  0.14225690575E+04  0.50400001928E-02 0. -1.
    10030    2    1    2    0    0  0.00000000000E+00  0.00000000000E+00 -0.10733235091E+04  0.17718146058E+04  0.14097175753E+04 0.  0.
        5    1    3    3  502    0  0.43476629363E+03  0.14714289172E+03 -0.12089703520E+04  0.12931759983E+04  0.46999998093E+01 0. -1.
       -5    1    3    3    0  502 -0.43476629363E+03 -0.14714289172E+03  0.13564684285E+03  0.47863860754E+03  0.46999998093E+01 0.  1.
</event>
<event>
 5   0  0.2917809E-03  0.9359399E+03  0.7818609E-02  0.9381737E-01
        2   -1    0    0  501    0  0.00000000000E+00  0.00000000000E+00  0.31464669708E+03  0.31464669710E+03  0.25500000920E-02 0. -1.
       -2   -1    0    0    0  501  0.00000000000E+00  0.00000000000E+00 -0.69600561690E+03  0.69600561690E+03  0.25500000920E-02 0.  1.
    10030    2    1    2    0    0  0.00000000000E+00  0.00000000000E+00 -0.38135891981E+03  0.10106523140E+04  0.93593988806E+03 0.  0.
        2    1    3    3  502    0 -0.93671752107E+02  0.45170728239E+03 -0.27558155415E+03  0.53736306079E+03  0.25500000920E-02 0. -1.
       -2    1    3    3    0  502  0.93671752107E+02 -0.45170728239E+03 -0.10577736567E+03  0.47328925321E+03  0.25500000920E-02 0.  1.
</event>
<event>
 5   0  0.1631380E-03  0.1372992E+04  0.7818609E-02  0.8973604E-01
       -1   -1    0    0    0  501  0.00000000000E+00  0.00000000000E+00  0.48037274333E+03  0.48037274336E+03  0.50400001928E-02 0.  1.
        1   -1    0    0  501    0  0.00000000000E+00  0.00000000000E+00 -0.98106449638E+03  0.98106449639E+03  0.50400001928E-02 0. -1.
    10030    2    1    2    0    0  0.00000000000E+00  0.00000000000E+00 -0.50069175304E+03  0.14614372398E+04  0.13729918332E+04 0.  0.
        3    1    3    3  502    0  0.39546255594E+03 -0.19706968844E+03  0.30890378260E+03  0.53911840291E+03  0.10100000352E+00 0.  1.
       -3    1    3    3    0  502 -0.39546255594E+03  0.19706968844E+03 -0.80959553564E+03  0.92231883684E+03  0.10100000352E+00 0. -1.
</event>
<event>
 5   0  0.1644571E-03  0.1396393E+04  0.7818609E-02  0.8956434E-01
       -1   -1    0    0    0  501  0.00000000000E+00  0.00000000000E+00  0.30225586046E+04  0.30225586046E+04  0.50400001928E-02 0.  1.
        1   -1    0    0  501    0  0.00000000000E+00  0.00000000000E+00 -0.16127996703E+03  0.16127996711E+03  0.50400001928E-02 0. -1.
    10030    2    1    2    0    0  0.00000000000E+00  0.00000000000E+00  0.28612786376E+04  0.31838385717E+04  0.13963927130E+04 0.  0.
        4    1    3    3  502    0 -0.59340909613E+03 -0.72112910474E+02  0.60810873010E+03  0.85272062702E+03  0.12699999809E+01 0. -1.
       -4    1    3    3    0  502  0.59340909613E+03  0.72112910474E+02  0.22531699075E+04  0.23311179447E+04  0.12699999809E+01 0.  1.
</event>
<event>
 5   0  0.2760807E-03  0.1412581E+04  0.7818609E-02  0.8944762E-01
       -2   -1    0    0    0  501  0.00000000000E+00  0.00000000000E+00  0.52737192929E+03  0.52737192930E+03  0.25500000920E-02 0. -1.
        2   -1    0    0  501    0  0.00000000000E+00  0.00000000000E+00 -0.94590968088E+03  0.94590968088E+03  0.25500000920E-02 0.  1.
    10030    2    1    2    0    0  0.00000000000E+00  0.00000000000E+00 -0.41853775159E+03  0.14732816102E+04  0.14125809192E+04 0.  0.
        4    1    3    3  502    0  0.60481324615E+03  0.36464111229E+03 -0.19980153476E+03  0.73395127201E+03  0.12699999809E+01 0.  1.
       -4    1    3    3    0  502 -0.60481324615E+03 -0.36464111229E+03 -0.21873621683E+03  0.73933033818E+03  0.12699999809E+01 0. -1.
</event>
<event>
 5   0  0.1644571E-03  0.1350300E+04  0.7818609E-02  0.8990601E-01
        1   -1    0    0  501    0  0.00000000000E+00  0.00000000000E+00  0.69668513816E+03  0.69668513818E+03  0.50400001928E-02 0.  1.
       -1   -1    0    0    0  501  0.00000000000E+00  0.00000000000E+00 -0.65428015871E+03  0.65428015873E+03  0.50400001928E-02 0. -1.
    10030    2    1    2    0    0  0.00000000000E+00  0.00000000000E+00  0.42404979449E+02  0.13509652969E+04  0.13502996153E+04 0.  0.
        4    1    3    3  502    0  0.11452580818E+03 -0.60023009360E+03 -0.26605109373E+03  0.66646614571E+03  0.12699999809E+01 0. -1.
       -4    1    3    3    0  502 -0.11452580818E+03  0.60023009360E+03  0.30845607318E+03  0.68449915120E+03  0.12699999809E+01 0.  1.
</event>
<event>
 5   0  0.1644571E-03  0.1408924E+04  0.7818609E-02  0.8947384E-01
        1   -1    0    0  501    0  0.00000000000E+00  0.00000000000E+00  0.15485365017E+04  0.15485365017E+04  0.50400001928E-02 0.  1.
       -1   -1    0    0    0  501  0.00000000000E+00  0.00000000000E+00 -0.32047475591E+03  0.32047475595E+03  0.50400001928E-02 0. -1.
    10030    2    1    2    0    0  0.00000000000E+00  0.00000000000E+00  0.12280617458E+04  0.18690112577E+04  0.14089242101E+04 0.  0.
        4    1    3    3  502    0 -0.60767020995E+02 -0.47960277391E+03  0.12937561709E+04  0.13811292822E+04  0.12699999809E+01 0.  1.
       -4    1    3    3    0  502  0.60767020995E+02  0.47960277391E+03 -0.65694425084E+02  0.48788197545E+03  0.12699999809E+01 0. -1.
</event>
<event>
 5   0  0.1586022E-03  0.1430526E+04  0.7818609E-02  0.8932014E-01
       -1   -1    0    0    0  501  0.00000000000E+00  0.00000000000E+00  0.35187186477E+03  0.35187186480E+03  0.50400001928E-02 0. -1.
        1   -1    0    0  501    0  0.00000000000E+00  0.00000000000E+00 -0.14539415998E+04  0.14539415998E+04  0.50400001928E-02 0.  1.
    10030    2    1    2    0    0  0.00000000000E+00  0.00000000000E+00 -0.11020697350E+04  0.18058134646E+04  0.14305259760E+04 0.  0.
        1    1    3    3  502    0  0.24858615699E+03 -0.96935738890E+02 -0.13887676123E+04  0.14141665729E+04  0.50400001928E-02 0.  1.
       -1    1    3    3    0  502 -0.24858615699E+03  0.96935738890E+02  0.28669787727E+03  0.39164689170E+03  0.50400001928E-02 0. -1.
</event>
<event>
 5   0  0.3006737E-03  0.1371401E+04  0.7818609E-02  0.8974784E-01
       -2   -1    0    0    0  501  0.00000000000E+00  0.00000000000E+00  0.26851252063E+03  0.26851252064E+03  0.25500000920E-02 0.  1.
        2   -1    0    0  501    0  0.00000000000E+00  0.00000000000E+00 -0.17510739181E+04  0.17510739181E+04  0.25500000920E-02 0. -1.
    10030    2    1    2    0    0  0.00000000000E+00  0.00000000000E+00 -0.14825613975E+04  0.20195864388E+04  0.13714011398E+04 0.  0.
        1    1    3    3  502    0  0.47731101640E+03 -0.21510462987E+02 -0.14655715008E+04  0.15414889979E+04  0.50400001928E-02 0. -1.
       -1    1    3    3    0  502 -0.47731101640E+03  0.21510462987E+02 -0.16989896654E+02  0.47809744091E+03  0.50400001928E-02 0.  1.
</event>
<event>
 5   0  0.1631380E-03  0.1397509E+04  0.7818609E-02  0.8955624E-01
       -1   -1    0    0    0  501  0.00000000000E+00  0.00000000000E+00  0.56749697622E+03  0.56749697624E+03  0.50400001928E-02 0. -1.
        1   -1    0    0  501    0  0.00000000000E+00  0.00000000000E+00 -0.86037063722E+03  0.86037063723E+03  0.50400001928E-02 0.  1.
    10030    2    1    2    0    0  0.00000000000E+00  0.00000000000E+00 -0.29287366100E+03  0.14278676135E+04  0.13975088337E+04 0.  0.
        3    1    3    3  502    0 -0.39050532222E+03 -0.24395443952E+03  0.39057539235E+03  0.60378582507E+03  0.10100000352E+00 0. -1.
       -3    1    3    3    0  502  0.39050532222E+03  0.24395443952E+03 -0.68344905335E+03  0.82408178840E+03  0.10100000352E+00 0.  1.
</event>
<event>
 5   0  0.2917809E-03  0.1333066E+04  0.7818609E-02  0.9003747E-01
       -2   -1    0    0    0  501  0.00000000000E+00  0.00000000000E+00  0.46549390070E+03  0.46549390071E+03  0.25500000920E-02 0.  1.
        2   -1    0    0  501    0  0.00000000000E+00  0.00000000000E+00 -0.95439713342E+03  0.95439713343E+03  0.25500000920E-02 0. -1.
    10030    2    1    2    0    0  0.00000000000E+00  0.00000000000E+00 -0.48890323272E+03  0.14198910341E+04  0.13330657065E+04 0.  0.
        2    1    3    3  502    0 -0.14589412400E+03  0.65034192032E+03 -0.23803109486E+03  0.70773477438E+03  0.25500000920E-02 0. -1.
       -2    1    3    3    0  502  0.14589412400E+03 -0.65034192032E+03 -0.25087213787E+03  0.71215625975E+03  0.25500000920E-02 0.  1.
</event>
<event>
 5   0  0.2993993E-03  0.1610849E+04  0.7818609E-02  0.8813911E-01
       -2   -1    0    0    0  501  0.00000000000E+00  0.00000000000E+00  0.10109980129E+04  0.10109980129E+04  0.25500000920E-02 0. -1.
        2   -1    0    0  501    0  0.00000000000E+00  0.00000000000E+00 -0.64165139116E+03  0.64165139116E+03  0.25500000920E-02 0.  1.
    10030    2    1    2    0    0  0.00000000000E+00  0.00000000000E+00  0.36934662172E+03  0.16526494040E+04  0.16108485732E+04 0.  0.
        3    1    3    3  502    0 -0.45610877056E+03 -0.39664643722E+03 -0.36144097085E+03  0.70427494088E+03  0.10100000352E+00 0.  1.
       -3    1    3    3    0  502  0.45610877056E+03  0.39664643722E+03  0.73078759256E+03  0.94837446317E+03  0.10100000352E+00 0. -1.
</event>
<event>
 5   0  0.1104538E-03  0.1403633E+04  0.7818609E-02  0.8951193E-01
        3   -1    0    0  501    0  0.00000000000E+00  0.00000000000E+00  0.32393897734E+03  0.32393899309E+03  0.10100000352E+00 0.  1.
       -3   -1    0    0    0  501  0.00000000000E+00  0.00000000000E+00 -0.15204914220E+04  0.15204914253E+04  0.10100000352E+00 0. -1.
    10030    2    1    2    0    0  0.00000000000E+00  0.00000000000E+00 -0.11965524446E+04  0.18444304184E+04  0.14036330773E+04 0.  0.
        1    1    3    3  502    0  0.65169931696E+03 -0.96362564303E+02 -0.91623245943E+03  0.11284855618E+04  0.50400001928E-02 0. -1.
       -1    1    3    3    0  502 -0.65169931696E+03  0.96362564303E+02 -0.28031998518E+03  0.71594485657E+03  0.50400001928E-02 0.  1.
</event>
<event>
 5   0  0.1560957E-03  0.1374036E+04  0.7818609E-02  0.8972830E-01
        1   -1    0    0  501    0  0.00000000000E+00  0.00000000000E+00  0.67379619338E+03  0.67379619340E+03  0.50400001928E-02 0.  1.
       -1   -1    0    0    0  501  0.00000000000E+00  0.00000000000E+00 -0.70049922342E+03  0.70049922344E+03  0.50400001928E-02 0. -1.
    10030    2    1    2    0    0  0.00000000000E+00  0.00000000000E+00 -0.26703030045E+02  0.13742954168E+04  0.13740359678E+04 0.  0.
        5    1    3    3  502    0 -0.45030073847E+03  0.43137401476E+03  0.27500367632E+03  0.68154486842E+03  0.46999998093E+01 0.  1.
       -5    1    3    3    0  502  0.45030073847E+03 -0.43137401476E+03 -0.30170670637E+03  0.69275054842E+03  0.46999998093E+01 0. -1.
</event>
<event>
 5   0  0.2760807E-03  0.1399181E+04  0.7818609E-02  0.8954412E-01
        2   -1    0    0  501    0  0.00000000000E+00  0.00000000000E+00  0.82238621650E+03  0.82238621650E+03  0.25500000920E-02 0. -1.
       -2   -1    0    0    0  501  0.00000000000E+00  0.00000000000E+00 -0.59512999988E+03  0.59512999989E+03  0.25500000920E-02 0.  1.
    10030    2    1    2    0    0  0.00000000000E+00  0.00000000000E+00  0.22725621662E+03  0.14175162164E+04  0.13991807731E+04 0.  0.
        4    1    3    3  502    0 -0.12608086356E+03 -0.62220448490E+03 -0.18414582349E+03  0.66101898792E+03  0.12699999809E+01 0.  1.
       -4    1    3    3    0  502  0.12608086356E+03  0.62220448490E+03  0.41140204011E+03  0.75649722847E+03  0.12699999809E+01 0. -1.
</event>
<event>
 5   0  0.2760807E-03  0.1438474E+04  0.7818609E-02  0.8926430E-01
        2   -1    0    0  501    0  0.00000000000E+00  0.00000000000E+00  0.11179939418E+04  0.11179939418E+04  0.25500000920E-02 0.  1.
       -2   -1    0    0    0  501  0.00000000000E+00  0.00000000000E+00 -0.46270574528E+03  0.46270574529E+03  0.25500000920E-02 0. -1.
    10030    2    1    2    0    0  0.00000000000E+00  0.00000000000E+00  0.65528819651E+03  0.15806996871E+04  0.14384744976E+04 0.  0.
        4    1    3    3  502    0 -0.18182336345E+03 -0.42613923687E+03 -0.27688168625E+03  0.53974018358E+03  0.12699999809E+01 0. -1.
       -4    1    3    3    0  502  0.18182336345E+03  0.42613923687E+03  0.93216988276E+03  0.10409595035E+04  0.12699999809E+01 0.  1.
</event>
<event>
 5   0  0.2917809E-03  0.1389097E+04  0.7818609E-02  0.8961749E-01
        2   -1    0    0  501    0  0.00000000000E+00  0.00000000000E+00  0.17376922908E+04  0.17376922908E+04  0.25500000920E-02 0.  1.
       -2   -1    0    0    0  501  0.00000000000E+00  0.00000000000E+00 -0.27760801887E+03  0.27760801888E+03  0.25500000920E-02 0. -1.
    10030    2    1    2    0    0  0.00000000000E+00  0.00000000000E+00  0.14600842719E+04  0.20153003097E+04  0.13890965615E+04 0.  0.
        2    1    3    3  502    0 -0.50760670717E+03  0.13029523050E+02  0.42536261295E+02  0.50955242239E+03  0.25500000920E-02 0. -1.
       -2    1    3    3    0  502  0.50760670717E+03 -0.13029523050E+02  0.14175480106E+04  0.15057478873E+04  0.25500000920E-02 0.  1.
</event>
<event>
 5   0  0.1560957E-03  0.1352183E+04  0.7818609E-02  0.8989177E-01
        1   -1    0    0  501    0  0.00000000000E+00  0.00000000000E+00  0.14681525636E+04  0.14681525636E+04  0.50400001928E-02 0. -1.
       -1   -1    0    0    0  501  0.00000000000E+00  0.00000000000E+00 -0.31134351259E+03  0.31134351263E+03  0.50400001928E-02 0.  1.
    10030    2    1    2    0    0  0.00000000000E+00  0.00000000000E+00  0.11568090510E+04  0.17794960762E+04  0.13521830885E+04 0.  0.
        5    1    3    3  502    0  0.27623647978E+03 -0.61367660079E+03  0.49340038293E+03  0.83448882018E+03  0.46999998093E+01 0. -1.
       -5    1    3    3    0  502 -0.27623647978E+03  0.61367660079E+03  0.66340866809E+03  0.94500725607E+03  0.46999998093E+01 0.  1.
</event>
<event>
 5   0  0.2993993E-03  0.1420543E+04  0.7818609E-02  0.8939081E-01
       -2   -1    0    0    0  501  0.00000000000E+00  0.00000000000E+00  0.61750092747E+03  0.61750092748E+03  0.25500000920E-02 0. -1.
        2   -1    0    0  501    0  0.00000000000E+00  0.00000000000E+00 -0.81697939562E+03  0.81697939562E+03  0.25500000920E-02 0.  1.
    10030    2    1    2    0    0  0.00000000000E+00  0.00000000000E+00 -0.19947846814E+03  0.14344803231E+04  0.14205429026E+04 0.  0.
        3    1    3    3  502    0 -0.25648199962E+03  0.24357751616E+03 -0.72171457243E+03  0.80373189359E+03  0.10100000352E+00 0.  1.
       -3    1    3    3    0  502  0.25648199962E+03 -0.24357751616E+03  0.52223610429E+03  0.63074842951E+03  0.10100000352E+00 0. -1.
</event>
<event>
 5   0  0.1104538E-03  0.1375965E+04  0.7818609E-02  0.8971402E-01
       -3   -1    0    0    0  501  0.00000000000E+00  0.00000000000E+00  0.45228572402E+03  0.45228573529E+03  0.10100000352E+00 0.  1.
        3   -1    0    0  501    0  0.00000000000E+00  0.00000000000E+00 -0.10465064381E+04  0.10465064430E+04  0.10100000352E+00 0. -1.
    10030    2    1    2    0    0  0.00000000000E+00  0.00000000000E+00 -0.59422071412E+03  0.14987921783E+04  0.13759650201E+04 0.  0.
        2    1    3    3  502    0  0.47094547859E+03 -0.38519271116E+02 -0.84179416287E+03  0.96534490764E+03  0.25500000920E-02 0. -1.
       -2    1    3    3    0  502 -0.47094547859E+03  0.38519271116E+02  0.24757344875E+03  0.53344727067E+03  0.25500000920E-02 0.  1.
</event>
<event>
 5   0  0.1631380E-03  0.1397325E+04  0.7818609E-02  0.8955757E-01
       -1   -1    0    0    0  501  0.00000000000E+00  0.00000000000E+00  0.76324368580E+03  0.76324368581E+03  0.50400001928E-02 0. -1.
        1   -1    0    0  501    0  0.00000000000E+00  0.00000000000E+00 -0.63954578618E+03  0.63954578620E+03  0.50400001928E-02 0.  1.
    10030    2    1    2    0    0  0.00000000000E+00  0.00000000000E+00  0.12369789961E+03  0.14027894720E+04  0.13973249917E+04 0.  0.
        3    1    3    3  502    0  0.38176468121E+03  0.11552866559E+03 -0.51401273609E+03  0.65061528376E+03  0.10100000352E+00 0.  1.
       -3    1    3    3    0  502 -0.38176468121E+03 -0.11552866559E+03  0.63771063570E+03  0.75217418826E+03  0.10100000352E+00 0. -1.
</event>
<event>
 5   0  0.1104538E-03  0.1444590E+04  0.7818609E-02  0.8922159E-01
        3   -1    0    0  501    0  0.00000000000E+00  0.00000000000E+00  0.44693732519E+03  0.44693733660E+03  0.10100000352E+00 0.  1.
       -3   -1    0    0    0  501  0.00000000000E+00  0.00000000000E+00 -0.11673008357E+04  0.11673008400E+04  0.10100000352E+00 0. -1.
    10030    2    1    2    0    0  0.00000000000E+00  0.00000000000E+00 -0.72036351047E+03  0.16142381766E+04  0.14445903584E+04 0.  0.
        4    1    3    3  502    0 -0.24269789357E+03  0.47056210278E+03 -0.90918071576E+03  0.10521131816E+04  0.12699999809E+01 0. -1.
       -4    1    3    3    0  502  0.24269789357E+03 -0.47056210278E+03  0.18881720529E+03  0.56212499502E+03  0.12699999809E+01 0.  1.
</event>
<event>
 5   0  0.2760807E-03  0.1223251E+04  0.7818609E-02  0.9092745E-01
       -2   -1    0    0    0  501  0.00000000000E+00  0.00000000000E+00  0.25046667173E+03  0.25046667175E+03  0.25500000920E-02 0.  1.
        2   -1    0    0  501    0  0.00000000000E+00  0.00000000000E+00 -0.14935556385E+04  0.14935556385E+04  0.25500000920E-02 0. -1.
    10030    2    1    2    0    0  0.00000000000E+00  0.00000000000E+00 -0.12430889668E+04  0.17440223102E+04  0.12232512577E+04 0.  0.
        4    1    3    3  502    0  0.33222626241E+03 -0.50578361945E+03 -0.74820921451E+03  0.96229413420E+03  0.12699999809E+01 0. -1.
       -4    1    3    3    0  502 -0.33222626241E+03  0.50578361945E+03 -0.49487975225E+03  0.78172817605E+03  0.12699999809E+01 0.  1.
</event>
<event>
 5   0  0.1644571E-03  0.1410925E+04  0.7818609E-02  0.8945949E-01
       -1   -1    0    0    0  501  0.00000000000E+00  0.00000000000E+00  0.28890554670E+03  0.28890554674E+03  0.50400001928E-02 0. -1.
        1   -1    0    0  501    0  0.00000000000E+00  0.00000000000E+00 -0.17226288383E+04  0.17226288383E+04  0.50400001928E-02 0.  1.
    10030    2    1    2    0    0  0.00000000000E+00  0.00000000000E+00 -0.14337232916E+04  0.20115343850E+04  0.14109245569E+04 0.  0.
        4    1    3    3  502    0  0.44677385483E+03 -0.54509391934E+03 -0.67312411250E+03  0.97459321873E+03  0.12699999809E+01 0.  1.
       -4    1    3    3    0  502 -0.44677385483E+03  0.54509391934E+03 -0.76059917907E+03  0.10369411663E+04  0.12699999809E+01 0. -1.
</event>
<event>
 5   0  0.1631380E-03  0.1071010E+04  0.7818609E-02  0.9233918E-01
        1   -1    0    0  501    0  0.00000000000E+00  0.00000000000E+00  0.19066098199E+04  0.19066098199E+04  0.50400001928E-02 0. -1.
       -1   -1    0    0    0  501  0.00000000000E+00  0.00000000000E+00 -0.15040593424E+03  0.15040593432E+03  0.50400001928E-02 0.  1.
    10030    2    1    2    0    0  0.00000000000E+00  0.00000000000E+00  0.17562038857E+04  0.20570157542E+04  0.10710096755E+04 0.  0.
        3    1    3    3  502    0  0.10577298801E+03 -0.43184812709E+03  0.30484969932E+03  0.53908633746E+03  0.10100000352E+00 0.  1.
       -3    1    3    3    0  502 -0.10577298801E+03  0.43184812709E+03  0.14513541863E+04  0.15179294168E+04  0.10100000352E+00 0. -1.
</event>
<event>
 5   0  0.2917809E-03  0.9511381E+03  0.7818609E-02  0.9363821E-01
        2   -1    0    0  501    0  0.00000000000E+00  0.00000000000E+00  0.76493631124E+03  0.76493631124E+03  0.25500000920E-02 0.  1.
       -2   -1    0    0    0  501  0.00000000000E+00  0.00000000000E+00 -0.29566636863E+03  0.29566636864E+03  0.25500000920E-02 0. -1.
    10030    2    1    2    0    0  0.00000000000E+00  0.00000000000E+00  0.46926994261E+03  0.10606026799E+04  0.95113814219E+03 0.  0.
        2    1    3    3  502    0  0.28890875130E+03  0.15969141801E+03 -0.14710366737E+03  0.36139881644E+03  0.25500000920E-02 0. -1.
       -2    1    3    3    0  502 -0.28890875130E+03 -0.15969141801E+03  0.61637360998E+03  0.69920386344E+03  0.25500000920E-02 0.  1.
</event>
<event>
 5   0  0.1631380E-03  0.1375637E+04  0.7818609E-02  0.8971645E-01
       -1   -1    0    0    0  501  0.00000000000E+00  0.00000000000E+00  0.57826228358E+03  0.57826228360E+03  0.50400001928E-02 0.  1.
        1   -1    0    0  501    0  0.00000000000E+00  0.00000000000E+00 -0.81813100493E+03  0.81813100495E+03  0.50400001928E-02 0. -1.
    10030    2    1    2    0    0  0.00000000000E+00  0.00000000000E+00 -0.23986872135E+03  0.13963932885E+04  0.13756370207E+04 0.  0.
        3    1    3    3  502    0  0.37802670698E+03 -0.36633809311E+02 -0.70203964769E+03  0.79818914068E+03  0.10100000352E+00 0. -1.
       -3    1    3    3    0  502 -0.37802670698E+03  0.36633809311E+02  0.46217092633E+03  0.59820414786E+03  0.10100000352E+00 0.  1.
</event>
<event>
 5   0  0.2760807E-03  0.1298998E+04  0.7818609E-02  0.9030360E-01
       -2   -1    0    0    0  501  0.00000000000E+00  0.00000000000E+00  0.81592636012E+03  0.81592636012E+03  0.25500000920E-02 0. -1.
        2   -1    0    0  501    0  0.00000000000E+00  0.00000000000E+00 -0.51701847169E+03  0.51701847170E+03  0.25500000920E-02 0.  1.
    10030    2    1    2    0    0  0.00000000000E+00  0.00000000000E+00  0.29890788842E+03  0.13329448318E+04  0.12989980750E+04 0.  0.
        4    1    3    3  502    0 -0.28823936599E+03 -0.15586221729E+03 -0.42597930421E+03  0.53743366419E+03  0.12699999809E+01 0.  1.
       -4    1    3    3    0  502  0.28823936599E+03  0.15586221729E+03  0.72488719263E+03  0.79551116763E+03  0.12699999809E+01 0. -1.
</event>
<event>
 5   0  0.3006737E-03  0.1397526E+04  0.7818609E-02  0.8955611E-01
       -2   -1    0    0    0  501  0.00000000000E+00  0.00000000000E+00  0.56127289345E+03  0.56127289346E+03  0.25500000920E-02 0.  1.
        2   -1    0    0  501    0  0.00000000000E+00  0.00000000000E+00 -0.86993338622E+03  0.86993338622E+03  0.25500000920E-02 0. -1.
    10030    2    1    2    0    0  0.00000000000E+00  0.00000000000E+00 -0.30866049277E+03  0.14312062797E+04  0.13975264274E+04 0.  0.
        1    1    3    3  502    0 -0.33146847335E+03 -0.32303956967E+03  0.38177794758E+03  0.59998359451E+03  0.50400001928E-02 0.  1.
       -1    1    3    3    0  502  0.33146847335E+03  0.32303956967E+03 -0.69043844035E+03  0.83122268517E+03  0.50400001928E-02 0. -1.
</event>
<event>
 5   0  0.3006737E-03  0.1397893E+04  0.7818609E-02  0.8955345E-01
        2   -1    0    0  501    0  0.00000000000E+00  0.00000000000E+00  0.18946348244E+04  0.18946348244E+04  0.25500000920E-02 0. -1.
       -2   -1    0    0    0  501  0.00000000000E+00  0.00000000000E+00 -0.25784703203E+03  0.25784703204E+03  0.25500000920E-02 0.  1.
    10030    2    1    2    0    0  0.00000000000E+00  0.00000000000E+00  0.16367877924E+04  0.21524818565E+04  0.13978926515E+04 0.  0.
        1    1    3    3  502    0 -0.77835531188E+02 -0.31511064806E+03  0.17715478567E+04  0.18010371732E+04  0.50400001928E-02 0. -1.
       -1    1    3    3    0  502  0.77835531188E+02  0.31511064806E+03 -0.13476006435E+03  0.35144468328E+03  0.50400001928E-02 0.  1.
</event>
<event>
 5   0  0.2993993E-03  0.1442959E+04  0.7818609E-02  0.8923296E-01
       -2   -1    0    0    0  501  0.00000000000E+00  0.00000000000E+00  0.68823855077E+03  0.68823855078E+03  0.25500000920E-02 0. -1.
        2   -1    0    0  501    0  0.00000000000E+00  0.00000000000E+00 -0.75632595129E+03  0.75632595129E+03  0.25500000920E-02 0.  1.
    10030    2    1    2    0    0  0.00000000000E+00  0.00000000000E+00 -0.68087400518E+02  0.14445645021E+04  0.14429590107E+04 0.  0.
        3    1    3    3  502    0  0.51840440528E+03  0.50161837469E+03 -0.21046759912E+02  0.72166965957E+03  0.10100000352E+00 0.  1.
       -3    1    3    3    0  502 -0.51840440528E+03 -0.50161837469E+03 -0.47040640606E+02  0.72289484250E+03  0.10100000352E+00 0. -1.
</event>
<event>
 5   0  0.2889469E-03  0.1393096E+04  0.7818609E-02  0.8958832E-01
       -2   -1    0    0    0  501  0.00000000000E+00  0.00000000000E+00  0.64577183478E+03  0.64577183479E+03  0.25500000920E-02 0.  1.
        2   -1    0    0  501    0  0.00000000000E+00  0.00000000000E+00 -0.75131619931E+03  0.75131619932E+03  0.25500000920E-02 0. -1.
    10030    2    1    2    0    0  0.00000000000E+00  0.00000000000E+00 -0.10554436453E+03  0.13970880341E+04  0.13930956041E+04 0.  0.
        5    1    3    3  502    0  0.76631400799E+02 -0.12040577531E+03  0.63093439389E+03  0.64689274359E+03  0.46999998093E+01 0.  1.
       -5    1    3    3    0  502 -0.76631400799E+02  0.12040577531E+03 -0.73647875842E+03  0.75019529052E+03  0.46999998093E+01 0. -1.
</event>
<event>
 5   0  0.1631380E-03  0.1402066E+04  0.7818609E-02  0.8952324E-01
        1   -1    0    0  501    0  0.00000000000E+00  0.00000000000E+00  0.19974172750E+04  0.19974172750E+04  0.50400001928E-02 0.  1.
       -1   -1    0    0    0  501  0.00000000000E+00  0.00000000000E+00 -0.24604146357E+03  0.24604146363E+03  0.50400001928E-02 0. -1.
    10030    2    1    2    0    0  0.00000000000E+00  0.00000000000E+00  0.17513758114E+04  0.22434587386E+04  0.14020662891E+04 0.  0.
        3    1    3    3  502    0 -0.57125893675E+03  0.21968817604E+03  0.14226532298E+04  0.15487226640E+04  0.10100000352E+00 0.  1.
       -3    1    3    3    0  502  0.57125893675E+03 -0.21968817604E+03  0.32872258160E+03  0.69473607461E+03  0.10100000352E+00 0. -1.
</event>
<event>
 5   0  0.1644571E-03  0.1391659E+04  0.7818609E-02  0.8959878E-01
        1   -1    0    0  501    0  0.00000000000E+00  0.00000000000E+00  0.86294331812E+03  0.86294331813E+03  0.50400001928E-02 0. -1.
       -1   -1    0    0    0  501  0.00000000000E+00  0.00000000000E+00 -0.56107853457E+03  0.56107853460E+03  0.50400001928E-02 0.  1.
    10030    2    1    2    0    0  0.00000000000E+00  0.00000000000E+00  0.30186478355E+03  0.14240218527E+04  0.13916594014E+04 0.  0.
        4    1    3    3  502    0 -0.32661667916E+03  0.27771170995E+03  0.71174228695E+03  0.83089165652E+03  0.12699999809E+01 0. -1.
       -4    1    3    3    0  502  0.32661667916E+03 -0.27771170995E+03 -0.40987750340E+03  0.59313019620E+03  0.12699999809E+01 0.  1.
</event>
<event>
 5   0  0.2760807E-03  0.1383367E+04  0.7818609E-02  0.8965947E-01
        2   -1    0    0  501    0  0.00000000000E+00  0.00000000000E+00  0.14094638192E+04  0.14094638192E+04  0.25500000920E-02 0.  1.
       -2   -1    0    0    0  501  0.00000000000E+00  0.00000000000E+00 -0.33943822957E+03  0.33943822958E+03  0.25500000920E-02 0. -1.
    10030    2    1    2    0    0  0.00000000000E+00  0.00000000000E+00  0.10700255896E+04  0.17489020488E+04  0.13833667676E+04 0.  0.
        4    1    3    3  502    0 -0.52859438454E+03 -0.35802117032E+03  0.19854283253E+03  0.66858959834E+03  0.12699999809E+01 0. -1.
       -4    1    3    3    0  502  0.52859438454E+03  0.35802117032E+03  0.87148275710E+03  0.10803124504E+04  0.12699999809E+01 0.  1.
</event>
<event>
 5   0  0.1631380E-03  0.1389861E+04  0.7818609E-02  0.8961190E-01
       -1   -1    0    0    0  501  0.00000000000E+00  0.00000000000E+00  0.43295283640E+03  0.43295283643E+03  0.50400001928E-02 0.  1.
        1   -1    0    0  501    0  0.00000000000E+00  0.00000000000E+00 -0.11154296831E+04  0.11154296831E+04  0.50400001928E-02 0. -1.
    10030    2    1    2    0    0  0.00000000000E+00  0.00000000000E+00 -0.68247684668E+03  0.15483825195E+04  0.13898610652E+04 0.  0.
        3    1    3    3  502    0  0.44127707547E+03 -0.48106004217E+03 -0.75765227625E+02  0.65717927647E+03  0.10100000352E+00 0. -1.
       -3    1    3    3    0  502 -0.44127707547E+03  0.48106004217E+03 -0.60671161905E+03  0.89120324304E+03  0.10100000352E+00 0.  1.
</event>
<event>
 5   0  0.1700207E-03  0.1457374E+04  0.7818609E-02  0.8913304E-01
       -1   -1    0    0    0  501  0.00000000000E+00  0.00000000000E+00  0.41199445623E+03  0.41199445626E+03  0.50400001928E-02 0. -1.
        1   -1    0    0  501    0  0.00000000000E+00  0.00000000000E+00 -0.12888153661E+04  0.12888153661E+04  0.50400001928E-02 0.  1.
    10030    2    1    2    0    0  0.00000000000E+00  0.00000000000E+00 -0.87682090985E+03  0.17008098224E+04  0.14573740576E+04 0.  0.
        2    1    3    3  502    0 -0.38362627175E+03 -0.21688259504E+03  0.23885094783E+03  0.50125537573E+03  0.25500000920E-02 0. -1.
       -2    1    3    3    0  502  0.38362627175E+03  0.21688259504E+03 -0.11156718577E+04  0.11995544466E+04  0.25500000920E-02 0.  1.
</event>
<event>
 5   0  0.1631380E-03  0.1401873E+04  0.7818609E-02  0.8952464E-01
       -1   -1    0    0    0  501  0.00000000000E+00  0.00000000000E+00  0.42691995072E+03  0.42691995075E+03  0.50400001928E-02 0. -1.
        1   -1    0    0  501    0  0.00000000000E+00  0.00000000000E+00 -0.11508293983E+04  0.11508293983E+04  0.50400001928E-02 0.  1.
    10030    2    1    2    0    0  0.00000000000E+00  0.00000000000E+00 -0.72390944760E+03  0.15777493491E+04  0.14018730756E+04 0.  0.
        3    1    3    3  502    0  0.65560147053E+03 -0.39797214997E+02 -0.86470468525E+02  0.66247585512E+03  0.10100000352E+00 0. -1.
       -3    1    3    3    0  502 -0.65560147053E+03  0.39797214997E+02 -0.63743897907E+03  0.91527349395E+03  0.10100000352E+00 0.  1.
</event>
<event>
 5   0  0.1631380E-03  0.1469474E+04  0.7818609E-02  0.8905010E-01
        1   -1    0    0  501    0  0.00000000000E+00  0.00000000000E+00  0.26400418339E+04  0.26400418339E+04  0.50400001928E-02 0.  1.
       -1   -1    0    0    0  501  0.00000000000E+00  0.00000000000E+00 -0.20448113829E+03  0.20448113835E+03  0.50400001928E-02 0. -1.
    10030    2    1    2    0    0  0.00000000000E+00  0.00000000000E+00  0.24355606956E+04  0.28445229723E+04  0.14694744087E+04 0.  0.
        3    1    3    3  502    0 -0.52885680512E+03  0.36396161463E+03  0.19094693151E+04  0.20145050640E+04  0.10100000352E+00 0. -1.
       -3    1    3    3    0  502  0.52885680512E+03 -0.36396161463E+03  0.52609138053E+03  0.83001790831E+03  0.10100000352E+00 0.  1.
</event>
<event>
 5   0  0.1560957E-03  0.1399823E+04  0.7818609E-02  0.8953947E-01
        1   -1    0    0  501    0  0.00000000000E+00  0.00000000000E+00  0.89658875021E+03  0.89658875022E+03  0.50400001928E-02 0. -1.
       -1   -1    0    0    0  501  0.00000000000E+00  0.00000000000E+00 -0.54637762147E+03  0.54637762149E+03  0.50400001928E-02 0.  1.
    10030    2    1    2    0    0  0.00000000000E+00  0.00000000000E+00  0.35021112874E+03  0.14429663717E+04  0.13998228871E+04 0.  0.
        5    1    3    3  502    0 -0.31862406376E+03 -0.60000904852E+03  0.16279495512E+01  0.67937978519E+03  0.46999998093E+01 0.  1.
       -5    1    3    3    0  502  0.31862406376E+03  0.60000904852E+03  0.34858317919E+03  0.76358658653E+03  0.46999998093E+01 0. -1.
</event>
<event>
 5   0  0.1700207E-03  0.1398092E+04  0.7818609E-02  0.8955201E-01
        1   -1    0    0  501    0  0.00000000000E+00  0.00000000000E+00  0.50836951498E+03  0.50836951501E+03  0.50400001928E-02 0. -1.
       -1   -1    0    0    0  501  0.00000000000E+00  0.00000000000E+00 -0.96123998451E+03  0.96123998452E+03  0.50400001928E-02 0.  1.
    10030    2    1    2    0    0  0.00000000000E+00  0.00000000000E+00 -0.45287046953E+03  0.14696094995E+04  0.13980917062E+04 0.  0.
        2    1    3    3  502    0  0.55913084674E+03  0.76244972792E+02 -0.66012316060E+03  0.86844872435E+03  0.25500000920E-02 0.  1.
       -2    1    3    3    0  502 -0.55913084674E+03 -0.76244972792E+02  0.20725269107E+03  0.60116077518E+03  0.25500000920E-02 0. -1.
</event>
<event>
 5   0  0.1104538E-03  0.1315027E+04  0.7818609E-02  0.9017733E-01
       -3   -1    0    0    0  501  0.00000000000E+00  0.00000000000E+00  0.12074954420E+04  0.12074954463E+04  0.10100000352E+00 0. -1.
        3   -1    0    0  501    0  0.00000000000E+00  0.00000000000E+00 -0.35803368337E+03  0.35803369761E+03  0.10100000352E+00 0.  1.
    10030    2    1    2    0    0  0.00000000000E+00  0.00000000000E+00  0.84946175867E+03  0.15655291439E+04  0.13150270799E+04 0.  0.
        3    1    3    3  502    0 -0.44090544337E+03 -0.74977157181E+02 -0.14906260106E+03  0.47142216041E+03  0.10100000352E+00 0.  1.
       -3    1    3    3    0  502  0.44090544337E+03  0.74977157181E+02  0.99852435973E+03  0.10941069835E+04  0.10100000352E+00 0. -1.
</event>
<event>
 5   0  0.1104538E-03  0.1407856E+04  0.7818609E-02  0.8948151E-01
        4   -1    0    0  501    0  0.00000000000E+00  0.00000000000E+00  0.75815154620E+03  0.75815260991E+03  0.12699999809E+01 0. -1.
       -4   -1    0    0    0  501  0.00000000000E+00  0.00000000000E+00 -0.65358079056E+03  0.65358202446E+03  0.12699999809E+01 0.  1.
    10030    2    1    2    0    0  0.00000000000E+00  0.00000000000E+00  0.10457075564E+03  0.14117346344E+04  0.14078563971E+04 0.  0.
        5    1    3    3  502    0 -0.77938540484E+02  0.77731453709E+02  0.74945323080E+03  0.75750830368E+03  0.46999998093E+01 0. -1.
       -5    1    3    3    0  502  0.77938540484E+02 -0.77731453709E+02 -0.64488247516E+03  0.65422633068E+03  0.46999998093E+01 0.  1.
</event>
<event>
 5   0  0.2889469E-03  0.1396724E+04  0.7818609E-02  0.8956193E-01
       -2   -1    0    0    0  501  0.00000000000E+00  0.00000000000E+00  0.43362910453E+03  0.43362910453E+03  0.25500000920E-02 0. -1.
        2   -1    0    0  501    0  0.00000000000E+00  0.00000000000E+00 -0.11247159627E+04  0.11247159627E+04  0.25500000920E-02 0.  1.
    10030    2    1    2    0    0  0.00000000000E+00  0.00000000000E+00 -0.69108685817E+03  0.15583450672E+04  0.13967241328E+04 0.  0.
        5    1    3    3  502    0 -0.37098709652E+03 -0.38310581298E+03  0.15750144109E+03  0.55608478100E+03  0.46999998093E+01 0.  1.
       -5    1    3    3    0  502  0.37098709652E+03  0.38310581298E+03 -0.84858829926E+03  0.10022602862E+04  0.46999998093E+01 0. -1.
</event>
<event>
 5   0  0.1631380E-03  0.1445841E+04  0.7818609E-02  0.8921289E-01
        1   -1    0    0  501    0  0.00000000000E+00  0.00000000000E+00  0.10508306571E+04  0.10508306571E+04  0.50400001928E-02 0. -1.
       -1   -1    0    0    0  501  0.00000000000E+00  0.00000000000E+00 -0.49733392333E+03  0.49733392335E+03  0.50400001928E-02 0.  1.
    10030    2    1    2    0    0  0.00000000000E+00  0.00000000000E+00  0.55349673381E+03  0.15481645805E+04  0.14458405631E+04 0.  0.
        3    1    3    3  502    0  0.38088355231E+02 -0.59213449945E+03  0.71893897536E+03  0.93217340057E+03  0.10100000352E+00 0. -1.
       -3    1    3    3    0  502 -0.38088355231E+02  0.59213449945E+03 -0.16544224155E+03  0.61599117992E+03  0.10100000352E+00 0.  1.
</event>
<event>
 5   0  0.2889469E-03  0.1262790E+04  0.7818609E-02  0.9059604E-01
       -2   -1    0    0    0  501  0.00000000000E+00  0.00000000000E+00  0.36201156022E+03  0.36201156023E+03  0.25500000920E-02 0.  1.
        2   -1    0    0  501    0  0.00000000000E+00  0.00000000000E+00 -0.11012354031E+04  0.11012354031E+04  0.25500000920E-02 0. -1.
    10030    2    1    2    0    0  0.00000000000E+00  0.00000000000E+00 -0.73922384285E+03  0.14632469633E+04  0.12627904758E+04 0.  0.
        5    1    3    3  502    0 -0.59424828288E+03 -0.21314050918E+03 -0.37984289420E+03  0.73679210950E+03  0.46999998093E+01 0. -1.
       -5    1    3    3    0  502  0.59424828288E+03  0.21314050918E+03 -0.35938094866E+03  0.72645485380E+03  0.46999998093E+01 0.  1.
</event>
<event>
 5   0  0.1631380E-03  0.1327872E+04  0.7818609E-02  0.9007750E-01
        1   -1    0    0  501    0  0.00000000000E+00  0.00000000000E+00  0.75119657045E+03  0.75119657046E+03  0.50400001928E-02 0.  1.
       -1   -1    0    0    0  501  0.00000000000E+00  0.00000000000E+00 -0.58681204064E+03  0.58681204066E+03  0.50400001928E-02 0. -1.
    10030    2    1    2    0    0  0.00000000000E+00  0.00000000000E+00  0.16438452981E+03  0.13380086111E+04  0.13278722716E+04 0.  0.
        3    1    3    3  502    0 -0.21347049297E+03 -0.25220927409E+03  0.66246321586E+03  0.74029500327E+03  0.10100000352E+00 0.  1.
       -3    1    3    3    0  502  0.21347049297E+03  0.25220927409E+03 -0.49807868605E+03  0.59771360785E+03  0.10100000352E+00 0. -1.
</event>
<event>
 5   0  0.2760807E-03  0.1415352E+04  0.7818609E-02  0.8942781E-01
       -2   -1    0    0    0  501  0.00000000000E+00  0.00000000000E+00  0.99879535967E+03  0.99879535967E+03  0.25500000920E-02 0.  1.
        2   -1    0    0  501    0  0.00000000000E+00  0.00000000000E+00 -0.50140907883E+03  0.50140907884E+03  0.25500000920E-02 0. -1.
    10030    2    1    2    0    0  0.00000000000E+00  0.00000000000E+00  0.49738628084E+03  0.15002044385E+04  0.14153516330E+04 0.  0.
        4    1    3    3  502    0  0.33454100248E+03  0.12221188079E+03  0.89686903745E+03  0.96500212921E+03  0.12699999809E+01 0.  1.
       -4    1    3    3    0  502 -0.33454100248E+03 -0.12221188079E+03 -0.39948275662E+03  0.53520230930E+03  0.12699999809E+01 0. -1.
</event>
<event>
 5   0  0.1644571E-03  0.1321386E+04  0.7818609E-02  0.9012775E-01
       -1   -1    0    0    0  501  0.00000000000E+00  0.00000000000E+00  0.55780161066E+03  0.55780161069E+03  0.50400001928E-02 0.  1.
        1   -1    0    0  501    0  0.00000000000E+00  0.00000000000E+00 -0.78256403658E+03  0.78256403660E+03  0.50400001928E-02 0. -1.
    10030    2    1    2    0    0  0.00000000000E+00  0.00000000000E+00 -0.22476242592E+03  0.13403656473E+04  0.13213863630E+04 0.  0.
        4    1    3    3  502    0  0.14672503012E+03 -0.24525300696E+03  0.49185628015E+03  0.56885981148E+03  0.12699999809E+01 0.  1.
       -4    1    3    3    0  502 -0.14672503012E+03  0.24525300696E+03 -0.71661870607E+03  0.77150583581E+03  0.12699999809E+01 0. -1.
</event>
<event>
 5   0  0.2760807E-03  0.1409258E+04  0.7818609E-02  0.8947145E-01
       -2   -1    0    0    0  501  0.00000000000E+00  0.00000000000E+00  0.80967740460E+03  0.80967740461E+03  0.25500000920E-02 0.  1.
        2   -1    0    0  501    0  0.00000000000E+00  0.00000000000E+00 -0.61320927991E+03  0.61320927992E+03  0.25500000920E-02 0. -1.
    10030    2    1    2    0    0  0.00000000000E+00  0.00000000000E+00  0.19646812469E+03  0.14228866845E+04  0.14092575325E+04 0.  0.
        4    1    3    3  502    0  0.16672884946E+02  0.69946013983E+03  0.18257402242E+03  0.72308876278E+03  0.12699999809E+01 0. -1.
       -4    1    3    3    0  502 -0.16672884946E+02 -0.69946013983E+03  0.13894102275E+02  0.69979792174E+03  0.12699999809E+01 0.  1.
</event>
<event>
 5   0  0.2917809E-03  0.1381383E+04  0.7818609E-02  0.8967406E-01
       -2   -1    0    0    0  501  0.00000000000E+00  0.00000000000E+00  0.11297470058E+04  0.11297470058E+04  0.25500000920E-02 0.  1.
        2   -1    0    0  501    0  0.00000000000E+00  0.00000000000E+00 -0.42226658626E+03  0.42226658627E+03  0.25500000920E-02 0. -1.
    10030    2    1    2    0    0  0.00000000000E+00  0.00000000000E+00  0.70748041956E+03  0.15520135921E+04  0.13813825126E+04 0.  0.
        2    1    3    3  502    0  0.70919841381E+00  0.40434524716E+02  0.11284156977E+04  0.11291401333E+04  0.25500000920E-02 0.  1.
       -2    1    3    3    0  502 -0.70919841381E+00 -0.40434524716E+02 -0.42093527816E+03  0.42287345880E+03  0.25500000920E-02 0. -1.
</event>
<event>
 5   0  0.1586022E-03  0.1408003E+04  0.7818609E-02  0.8948046E-01
       -1   -1    0    0    0  501  0.00000000000E+00  0.00000000000E+00  0.45576414927E+03  0.45576414930E+03  0.50400001928E-02 0.  1.
        1   -1    0    0  501    0  0.00000000000E+00  0.00000000000E+00 -0.10874446188E+04  0.10874446188E+04  0.50400001928E-02 0. -1.
    10030    2    1    2    0    0  0.00000000000E+00  0.00000000000E+00 -0.63168046952E+03  0.15432087681E+04  0.14080032267E+04 0.  0.
        1    1    3    3  502    0  0.13777900811E+03  0.50809822855E+03 -0.82813313201E+03  0.98130084545E+03  0.50400001928E-02 0. -1.
       -1    1    3    3    0  502 -0.13777900811E+03 -0.50809822855E+03  0.19645266248E+03  0.56190792266E+03  0.50400001928E-02 0.  1.
</event>
<event>
 5   0  0.1104538E-03  0.1354339E+04  0.7818609E-02  0.8987550E-01
        3   -1    0    0  501    0  0.00000000000E+00  0.00000000000E+00  0.14916949437E+04  0.14916949471E+04  0.10100000352E+00 0.  1.
       -3   -1    0    0    0  501  0.00000000000E+00  0.00000000000E+00 -0.30740757698E+03  0.30740759357E+03  0.10100000352E+00 0. -1.
    10030    2    1    2    0    0  0.00000000000E+00  0.00000000000E+00  0.11842873667E+04  0.17991025407E+04  0.13543387261E+04 0.  0.
        4    1    3    3  502    0 -0.85345541012E+02 -0.66672330068E+03  0.70130635971E+03  0.97140930823E+03  0.12699999809E+01 0.  1.
       -4    1    3    3    0  502  0.85345541012E+02  0.66672330068E+03  0.48298100704E+03  0.82769323248E+03  0.12699999809E+01 0. -1.
</event>
<event>
 5   0  0.1586022E-03  0.1382029E+04  0.7818609E-02  0.8966930E-01
        1   -1    0    0  501    0  0.00000000000E+00  0.00000000000E+00  0.22537503120E+04  0.22537503120E+04  0.50400001928E-02 0. -1.
       -1   -1    0    0    0  501  0.00000000000E+00  0.00000000000E+00 -0.21186957527E+03  0.21186957533E+03  0.50400001928E-02 0.  1.
    10030    2    1    2    0    0  0.00000000000E+00  0.00000000000E+00  0.20418807367E+04  0.24656198873E+04  0.13820291190E+04 0.  0.
        1    1    3    3  502    0  0.32708055678E+03  0.53750679305E+03  0.51129315705E+03  0.81075023014E+03  0.50400001928E-02 0.  1.
       -1    1    3    3    0  502 -0.32708055678E+03 -0.53750679305E+03  0.15305875796E+04  0.16548696572E+04  0.50400001928E-02 0. -1.
</event>
<event>
 5   0  0.2889469E-03  0.1388186E+04  0.7818609E-02  0.8962415E-01
       -2   -1    0    0    0  501  0.00000000000E+00  0.00000000000E+00  0.70804634039E+03  0.70804634040E+03  0.25500000920E-02 0. -1.
        2   -1    0    0  501    0  0.00000000000E+00  0.00000000000E+00 -0.68041467007E+03  0.68041467007E+03  0.25500000920E-02 0.  1.
    10030    2    1    2    0    0  0.00000000000E+00  0.00000000000E+00  0.27631670325E+02  0.13884610105E+04  0.13881860352E+04 0.  0.
        5    1    3    3  502    0 -0.32561097578E+03 -0.50918712471E+03 -0.32749799279E+03  0.68743804142E+03  0.46999998093E+01 0.  1.
       -5    1    3    3    0  502  0.32561097578E+03  0.50918712471E+03  0.35512966311E+03  0.70102296905E+03  0.46999998093E+01 0. -1.
</event>
<event>
 5   0  0.2993993E-03  0.1475527E+04  0.7818609E-02  0.8900892E-01
        2   -1    0    0  501    0  0.00000000000E+00  0.00000000000E+00  0.81637821442E+03  0.81637821442E+03  0.25500000920E-02 0.  1.
       -2   -1    0    0    0  501  0.00000000000E+00  0.00000000000E+00 -0.66671913878E+03  0.66671913879E+03  0.25500000920E-02 0. -1.
    10030    2    1    2    0    0  0.00000000000E+00  0.00000000000E+00  0.14965907563E+03  0.14830973532E+04  0.14755269974E+04 0.  0.
        3    1    3    3  502    0  0.42815520733E+03  0.42534780975E+03 -0.35167916913E+03  0.69850976301E+03  0.10100000352E+00 0. -1.
       -3    1    3    3    0  502 -0.42815520733E+03 -0.42534780975E+03  0.50133824476E+03  0.78458759019E+03  0.10100000352E+00 0.  1.
</event>
<event>
 5   0  0.2889469E-03  0.1496722E+04  0.7818609E-02  0.8886636E-01
        2   -1    0    0  501    0  0.00000000000E+00  0.00000000000E+00  0.10700119002E+04  0.10700119002E+04  0.25500000920E-02 0. -1.
       -2   -1    0    0    0  501  0.00000000000E+00  0.00000000000E+00 -0.52340013676E+03  0.52340013676E+03  0.25500000920E-02 0.  1.
    10030    2    1    2    0    0  0.00000000000E+00  0.00000000000E+00  0.54661176345E+03  0.15934120370E+04  0.14967222520E+04 0.  0.
        5    1    3    3  502    0 -0.56736794987E+03  0.45526059749E+03  0.86306408603E+02  0.73255681577E+03  0.46999998093E+01 0.  1.
       -5    1    3    3    0  502  0.56736794987E+03 -0.45526059749E+03  0.46030535485E+03  0.86085522120E+03  0.46999998093E+01 0. -1.
</event>
<event>
 5   0  0.1700207E-03  0.1181267E+04  0.7818609E-02  0.9129413E-01
        1   -1    0    0  501    0  0.00000000000E+00  0.00000000000E+00  0.36136947682E+03  0.36136947686E+03  0.50400001928E-02 0.  1.
       -1   -1    0    0    0  501  0.00000000000E+00  0.00000000000E+00 -0.96535016938E+03  0.96535016939E+03  0.50400001928E-02 0. -1.
    10030    2    1    2    0    0  0.00000000000E+00  0.00000000000E+00 -0.60398069256E+03  0.13267196462E+04  0.11812672614E+04 0.  0.
        2    1    3    3  502    0  0.19555586594E+03  0.31669153283E+03 -0.81705707406E+03  0.89784067960E+03  0.25500000920E-02 0. -1.
       -2    1    3    3    0  502 -0.19555586594E+03 -0.31669153283E+03  0.21307638150E+03  0.42887896664E+03  0.25500000920E-02 0.  1.
</event>
<event>
 5   0  0.2760807E-03  0.1411345E+04  0.7818609E-02  0.8945647E-01
       -2   -1    0    0    0  501  0.00000000000E+00  0.00000000000E+00  0.45639671270E+03  0.45639671270E+03  0.25500000920E-02 0. -1.
        2   -1    0    0  501    0  0.00000000000E+00  0.00000000000E+00 -0.10910978405E+04  0.10910978405E+04  0.25500000920E-02 0.  1.
    10030    2    1    2    0    0  0.00000000000E+00  0.00000000000E+00 -0.63470112782E+03  0.15474945532E+04  0.14113447030E+04 0.  0.
        4    1    3    3  502    0 -0.30776887523E+03 -0.61104591205E+03 -0.12783890117E+03  0.69601952899E+03  0.12699999809E+01 0. -1.
       -4    1    3    3    0  502  0.30776887523E+03  0.61104591205E+03 -0.50686222665E+03  0.85147502423E+03  0.12699999809E+01 0.  1.
</event>
<event>
 5   0  0.1586022E-03  0.1385463E+04  0.7818609E-02  0.8964409E-01
        1   -1    0    0  501    0  0.00000000000E+00  0.00000000000E+00  0.16924843504E+04  0.16924843504E+04  0.50400001928E-02 0.  1.
       -1   -1    0    0    0  501  0.00000000000E+00  0.00000000000E+00 -0.28353394650E+03  0.28353394655E+03  0.50400001928E-02 0. -1.
    10030    2    1    2    0    0  0.00000000000E+00  0.00000000000E+00  0.14089504039E+04  0.19760182970E+04  0.13854627636E+04 0.  0.
        1    1    3    3  502    0 -0.71937420746E+02 -0.62444370725E+03  0.28921349371E+03  0.69191717785E+03  0.50400001928E-02 0. -1.
       -1    1    3    3    0  502  0.71937420746E+02  0.62444370725E+03  0.11197369102E+04  0.12841011191E+04  0.50400001928E-02 0.  1.
</event>
<event>
 5   0  0.2993993E-03  0.1326313E+04  0.7818609E-02  0.9008955E-01
       -2   -1    0    0    0  501  0.00000000000E+00  0.00000000000E+00  0.72575427225E+03  0.72575427226E+03  0.25500000920E-02 0.  1.
        2   -1    0    0  501    0  0.00000000000E+00  0.00000000000E+00 -0.60595793730E+03  0.60595793730E+03  0.25500000920E-02 0. -1.
    10030    2    1    2    0    0  0.00000000000E+00  0.00000000000E+00  0.11979633496E+03  0.13317122096E+04  0.13263130276E+04 0.  0.
        3    1    3    3  502    0  0.18805566870E+03  0.23260974693E+03  0.65417266606E+03  0.71931503260E+03  0.10100000352E+00 0.  1.
       -3    1    3    3    0  502 -0.18805566870E+03 -0.23260974693E+03 -0.53437633111E+03  0.61239717696E+03  0.10100000352E+00 0. -1.
</event>
<event>
 5   0  0.1586022E-03  0.1411377E+04  0.7818609E-02  0.8945624E-01
        1   -1    0    0  501    0  0.00000000000E+00  0.00000000000E+00  0.12697516230E+04  0.12697516230E+04  0.50400001928E-02 0. -1.
       -1   -1    0    0    0  501  0.00000000000E+00  0.00000000000E+00 -0.39219976591E+03  0.39219976594E+03  0.50400001928E-02 0.  1.
    10030    2    1    2    0    0  0.00000000000E+00  0.00000000000E+00  0.87755185711E+03  0.16619513890E+04  0.14113770430E+04 0.  0.
        1    1    3    3  502    0 -0.14862247983E+02 -0.70319294225E+03  0.37118182169E+03  0.79528431723E+03  0.50400001928E-02 0.  1.
       -1    1    3    3    0  502  0.14862247983E+02  0.70319294225E+03  0.50637003542E+03  0.86666707175E+03  0.50400001928E-02 0. -1.
</event>
<event>
 5   0  0.2889469E-03  0.1371395E+04  0.7818609E-02  0.8974789E-01
        2   -1    0    0  501    0  0.00000000000E+00  0.00000000000E+00  0.51442782160E+03  0.51442782160E+03  0.25500000920E-02 0.  1.
       -2   -1    0    0    0  501  0.00000000000E+00  0.00000000000E+00 -0.91398780216E+03  0.91398780216E+03  0.25500000920E-02 0. -1.
    10030    2    1    2    0    0  0.00000000000E+00  0.00000000000E+00 -0.39955998056E+03  0.14284156238E+04  0.13713945516E+04 0.  0.
        5    1    3    3  502    0  0.44239024181E+03 -0.51745193531E+03 -0.28499255625E+03  0.73804368334E+03  0.46999998093E+01 0. -1.
       -5    1    3    3    0  502 -0.44239024181E+03  0.51745193531E+03 -0.11456742431E+03  0.69037194042E+03  0.46999998093E+01 0.  1.
</event>
<event>
 5   0  0.1104538E-03  0.1315723E+04  0.7818609E-02  0.9017189E-01
        3   -1    0    0  501    0  0.00000000000E+00  0.00000000000E+00  0.24327691191E+04  0.24327691212E+04  0.10100000352E+00 0. -1.
       -3   -1    0    0    0  501  0.00000000000E+00  0.00000000000E+00 -0.17789680283E+03  0.17789683150E+03  0.10100000352E+00 0.  1.
    10030    2    1    2    0    0  0.00000000000E+00  0.00000000000E+00  0.22548723162E+04  0.26106659527E+04  0.13157232056E+04 0.  0.
        1    1    3    3  502    0 -0.38372621812E+03  0.30501663442E+03  0.25686717968E+03  0.55340916669E+03  0.50400001928E-02 0.  1.
       -1    1    3    3    0  502  0.38372621812E+03 -0.30501663442E+03  0.19980051365E+04  0.20572567860E+04  0.50400001928E-02 0. -1.
</event>
<event>
 5   0  0.1644571E-03  0.1093678E+04  0.7818609E-02  0.9211376E-01
        1   -1    0    0  501    0  0.00000000000E+00  0.00000000000E+00  0.10024377900E+04  0.10024377900E+04  0.50400001928E-02 0. -1.
       -1   -1    0    0    0  501  0.00000000000E+00  0.00000000000E+00 -0.29830549266E+03  0.29830549271E+03  0.50400001928E-02 0.  1.
    10030    2    1    2    0    0  0.00000000000E+00  0.00000000000E+00  0.70413229732E+03  0.13007432827E+04  0.10936776469E+04 0.  0.
        4    1    3    3  502    0  0.45366578464E+03  0.16041256999E+03  0.43100709887E+02  0.48311915803E+03  0.12699999809E+01 0.  1.
       -4    1    3    3    0  502 -0.45366578464E+03 -0.16041256999E+03  0.66103158743E+03  0.81762412467E+03  0.12699999809E+01 0. -1.
</event>
<event>
 5   0  0.2917809E-03  0.1386735E+04  0.7818609E-02  0.8963477E-01
        2   -1    0    0  501    0  0.00000000000E+00  0.00000000000E+00  0.46696945528E+03  0.46696945529E+03  0.25500000920E-02 0. -1.
       -2   -1    0    0    0  501  0.00000000000E+00  0.00000000000E+00 -0.10295284917E+04  0.10295284917E+04  0.25500000920E-02 0.  1.
    10030    2    1    2    0    0  0.00000000000E+00  0.00000000000E+00 -0.56255903645E+03  0.14964979470E+04  0.13867348110E+04 0.  0.
        2    1    3    3  502    0  0.33341990484E+03  0.60640511857E+03 -0.32785038454E+03  0.76575575442E+03  0.25500000920E-02 0.  1.
       -2    1    3    3    0  502 -0.33341990484E+03 -0.60640511857E+03 -0.23470865191E+03  0.73074219261E+03  0.25500000920E-02 0. -1.
</event>
<event>
 5   0  0.2993993E-03  0.1409744E+04  0.7818609E-02  0.8946795E-01
        2   -1    0    0  501    0  0.00000000000E+00  0.00000000000E+00  0.12698817260E+04  0.12698817260E+04  0.25500000920E-02 0.  1.
       -2   -1    0    0    0  501  0.00000000000E+00  0.00000000000E+00 -0.39125284893E+03  0.39125284894E+03  0.25500000920E-02 0. -1.
    10030    2    1    2    0    0  0.00000000000E+00  0.00000000000E+00  0.87862887702E+03  0.16611345749E+04  0.14097444351E+04 0.  0.
        3    1    3    3  502    0 -0.51129168263E+02  0.70282814720E+03  0.42019665562E+03  0.82045526139E+03  0.10100000352E+00 0.  1.
       -3    1    3    3    0  502  0.51129168263E+02 -0.70282814720E+03  0.45843222140E+03  0.84067931351E+03  0.10100000352E+00 0. -1.
</event>
<event>
 5   0  0.1560957E-03  0.1303834E+04  0.7818609E-02  0.9026530E-01
        1   -1    0    0  501    0  0.00000000000E+00  0.00000000000E+00  0.61588771604E+03  0.61588771606E+03  0.50400001928E-02 0. -1.
       -1   -1    0    0    0  501  0.00000000000E+00  0.00000000000E+00 -0.69005407868E+03  0.69005407870E+03  0.50400001928E-02 0.  1.
    10030    2    1    2    0    0  0.00000000000E+00  0.00000000000E+00 -0.74166362642E+02  0.13059417948E+04  0.13038340853E+04 0.  0.
        5    1    3    3  502    0  0.32853290569E+03  0.27356019427E+03  0.45585534841E+03  0.62497619049E+03  0.46999998093E+01 0. -1.
       -5    1    3    3    0  502 -0.32853290569E+03 -0.27356019427E+03 -0.53002171105E+03  0.68096560427E+03  0.46999998093E+01 0.  1.
</event>
<event>
 5   0  0.1104538E-03  0.1386235E+04  0.7818609E-02  0.8963843E-01
       -4   -1    0    0    0  501  0.00000000000E+00  0.00000000000E+00  0.15179615229E+04  0.15179620541E+04  0.12699999809E+01 0. -1.
        4   -1    0    0  501    0  0.00000000000E+00  0.00000000000E+00 -0.31648281974E+03  0.31648536790E+03  0.12699999809E+01 0.  1.
    10030    2    1    2    0    0  0.00000000000E+00  0.00000000000E+00  0.12014787031E+04  0.18344474220E+04  0.13862345653E+04 0.  0.
        2    1    3    3  502    0 -0.99896007071E+02 -0.37794504188E+03  0.13581541693E+04  0.14132955864E+04  0.25500000920E-02 0. -1.
       -2    1    3    3    0  502  0.99896007071E+02  0.37794504188E+03 -0.15667546622E+03  0.42115183561E+03  0.25500000920E-02 0.  1.
</event>
<event>
 5   0  0.2760807E-03  0.1579899E+04  0.7818609E-02  0.8832993E-01
       -2   -1    0    0    0  501  0.00000000000E+00  0.00000000000E+00  0.44049552547E+03  0.44049552548E+03  0.25500000920E-02 0. -1.
        2   -1    0    0  501    0  0.00000000000E+00  0.00000000000E+00 -0.14166324466E+04  0.14166324466E+04  0.25500000920E-02 0.  1.
    10030    2    1    2    0    0  0.00000000000E+00  0.00000000000E+00 -0.97613692110E+03  0.18571279721E+04  0.15798990524E+04 0.  0.
        4    1    3    3  502    0  0.17616222888E+02 -0.13997769441E+03  0.42556530665E+03  0.44834309336E+03  0.12699999809E+01 0. -1.
       -4    1    3    3    0  502 -0.17616222888E+02  0.13997769441E+03 -0.14017022277E+04  0.14087848787E+04  0.12699999809E+01 0.  1.
</event>
<event>
 5   0  0.2917809E-03  0.1395694E+04  0.7818609E-02  0.8956941E-01
        2   -1    0    0  501    0  0.00000000000E+00  0.00000000000E+00  0.84512144315E+03  0.84512144315E+03  0.25500000920E-02 0. -1.
       -2   -1    0    0    0  501  0.00000000000E+00  0.00000000000E+00 -0.57623716326E+03  0.57623716327E+03  0.25500000920E-02 0.  1.
    10030    2    1    2    0    0  0.00000000000E+00  0.00000000000E+00  0.26888427988E+03  0.14213586064E+04  0.13956939249E+04 0.  0.
        2    1    3    3  502    0  0.11334095457E+03 -0.32087656001E+03  0.75489271161E+03  0.82805250123E+03  0.25500000920E-02 0. -1.
       -2    1    3    3    0  502 -0.11334095457E+03  0.32087656001E+03 -0.48600843172E+03  0.59330610519E+03  0.25500000920E-02 0.  1.
</event>
<event>
 5   0  0.1700207E-03  0.1436749E+04  0.7818609E-02  0.8927639E-01
       -1   -1    0    0    0  501  0.00000000000E+00  0.00000000000E+00  0.69257465121E+03  0.69257465123E+03  0.50400001928E-02 0. -1.
        1   -1    0    0  501    0  0.00000000000E+00  0.00000000000E+00 -0.74513581656E+03  0.74513581658E+03  0.50400001928E-02 0.  1.
    10030    2    1    2    0    0  0.00000000000E+00  0.00000000000E+00 -0.52561165348E+02  0.14377104678E+04  0.14367493564E+04 0.  0.
        2    1    3    3  502    0  0.16730005795E+03  0.27189561506E+03 -0.67025256420E+03  0.74239816453E+03  0.25500000920E-02 0.  1.
       -2    1    3    3    0  502 -0.16730005795E+03 -0.27189561506E+03  0.61769139885E+03  0.69531230328E+03  0.25500000920E-02 0. -1.
</event>
<event>
 5   0  0.2917809E-03  0.1394086E+04  0.7818609E-02  0.8958111E-01
       -2   -1    0    0    0  501  0.00000000000E+00  0.00000000000E+00  0.37246676305E+03  0.37246676306E+03  0.25500000920E-02 0.  1.
        2   -1    0    0  501    0  0.00000000000E+00  0.00000000000E+00 -0.13044624050E+04  0.13044624051E+04  0.25500000920E-02 0. -1.
    10030    2    1    2    0    0  0.00000000000E+00  0.00000000000E+00 -0.93199564200E+03  0.16769291681E+04  0.13940859221E+04 0.  0.
        2    1    3    3  502    0  0.66029933958E+03  0.18238623965E+03 -0.31097486237E+03  0.75230666838E+03  0.25500000920E-02 0.  1.
       -2    1    3    3    0  502 -0.66029933958E+03 -0.18238623965E+03 -0.62102077963E+03  0.92462249972E+03  0.25500000920E-02 0. -1.
</event>
<event>
 5   0  0.2889469E-03  0.1396804E+04  0.7818609E-02  0.8956135E-01
       -2   -1    0    0    0  501  0.00000000000E+00  0.00000000000E+00  0.31462624968E+03  0.31462624969E+03  0.25500000920E-02 0.  1.
        2   -1    0    0  501    0  0.00000000000E+00  0.00000000000E+00 -0.15503016663E+04  0.15503016663E+04  0.25500000920E-02 0. -1.
    10030    2    1    2    0    0  0.00000000000E+00  0.00000000000E+00 -0.12356754166E+04  0.18649279160E+04  0.13968043516E+04 0.  0.
        5    1    3    3  502    0  0.40757209097E+03  0.35660432920E+03 -0.12066050058E+04  0.13225730177E+04  0.46999998093E+01 0. -1.
       -5    1    3    3    0  502 -0.40757209097E+03 -0.35660432920E+03 -0.29070410772E+02  0.54235489831E+03  0.46999998093E+01 0.  1.
</event>
<event>
 5   0  0.2760807E-03  0.1386222E+04  0.7818609E-02  0.8963852E-01
       -2   -1    0    0    0  501  0.00000000000E+00  0.00000000000E+00  0.34371716698E+03  0.34371716699E+03  0.25500000920E-02 0.  1.
        2   -1    0    0  501    0  0.00000000000E+00  0.00000000000E+00 -0.13976693914E+04  0.13976693914E+04  0.25500000920E-02 0. -1.
    10030    2    1    2    0    0  0.00000000000E+00  0.00000000000E+00 -0.10539522244E+04  0.17413865583E+04  0.13862221519E+04 0.  0.
        4    1    3    3  502    0 -0.60023504645E+03  0.26577794966E+03 -0.24753969991E+03  0.70156791934E+03  0.12699999809E+01 0.  1.
       -4    1    3    3    0  502  0.60023504645E+03 -0.26577794966E+03 -0.80641252447E+03  0.10398186390E+04  0.12699999809E+01 0. -1.
</event>
<event>
 5   0  0.2917809E-03  0.1406822E+04  0.7818609E-02  0.8948896E-01
       -2   -1    0    0    0  501  0.00000000000E+00  0.00000000000E+00  0.29463558681E+03  0.29463558682E+03  0.25500000920E-02 0.  1.
        2   -1    0    0  501    0  0.00000000000E+00  0.00000000000E+00 -0.16793174636E+04  0.16793174636E+04  0.25500000920E-02 0. -1.
    10030    2    1    2    0    0  0.00000000000E+00  0.00000000000E+00 -0.13846818768E+04  0.19739530504E+04  0.14068215044E+04 0.  0.
        2    1    3    3  502    0 -0.40831775576E+03 -0.56677300153E+03 -0.57636684465E+03  0.90562341210E+03  0.25500000920E-02 0.  1.
       -2    1    3    3    0  502  0.40831775576E+03  0.56677300153E+03 -0.80831503214E+03  0.10683296383E+04  0.25500000920E-02 0. -1.
</event>
<event>
 5   0  0.2889469E-03  0.1386969E+04  0.7818609E-02  0.8963305E-01
        2   -1    0    0  501    0  0.00000000000E+00  0.00000000000E+00  0.22972662111E+04  0.22972662111E+04  0.25500000920E-02 0. -1.
       -2   -1    0    0    0  501  0.00000000000E+00  0.00000000000E+00 -0.20934486125E+03  0.20934486126E+03  0.25500000920E-02 0.  1.
    10030    2    1    2    0    0  0.00000000000E+00  0.00000000000E+00  0.20879213499E+04  0.25066110724E+04  0.13869691795E+04 0.  0.
        5    1    3    3  502    0  0.19972429234E+03 -0.21304726341E+03 -0.92774199003E+02  0.30644423864E+03  0.46999998093E+01 0.  1.
       -5    1    3    3    0  502 -0.19972429234E+03  0.21304726341E+03  0.21806955489E+04  0.22001668337E+04  0.46999998093E+01 0. -1.
</event>
<event>
 5   0  0.1586022E-03  0.1416405E+04  0.7818609E-02  0.8942028E-01
        1   -1    0    0  501    0  0.00000000000E+00  0.00000000000E+00  0.46569932311E+03  0.46569932314E+03  0.50400001928E-02 0. -1.
       -1   -1    0    0    0  501  0.00000000000E+00  0.00000000000E+00 -0.10769844945E+04  0.10769844945E+04  0.50400001928E-02 0.  1.
    10030    2    1    2    0    0  0.00000000000E+00  0.00000000000E+00 -0.61128517135E+03  0.15426838176E+04  0.14164052388E+04 0.  0.
        1    1    3    3  502    0 -0.62673358237E+03 -0.25051422320E+03 -0.53923657460E+03  0.86390302853E+03  0.50400001928E-02 0.  1.
       -1    1    3    3    0  502  0.62673358237E+03  0.25051422320E+03 -0.72048596754E+02  0.67878078907E+03  0.50400001928E-02 0. -1.
</event>
<event>
 5   0  0.2993993E-03  0.1392249E+04  0.7818609E-02  0.8959449E-01
        2   -1    0    0  501    0  0.00000000000E+00  0.00000000000E+00  0.96367534712E+03  0.96367534712E+03  0.25500000920E-02 0. -1.
       -2   -1    0    0    0  501  0.00000000000E+00  0.00000000000E+00 -0.50285511006E+03  0.50285511006E+03  0.25500000920E-02 0.  1.
    10030    2    1    2    0    0  0.00000000000E+00  0.00000000000E+00  0.46082023706E+03  0.14665304572E+04  0.13922486455E+04 0.  0.
        3    1    3    3  502    0 -0.60685908244E+03 -0.33218977039E+03  0.31173744666E+03  0.75882029187E+03  0.10100000352E+00 0.  1.
       -3    1    3    3    0  502  0.60685908244E+03  0.33218977039E+03  0.14908279040E+03  0.70771016532E+03  0.10100000352E+00 0. -1.
</event>
<event>
 5   0  0.1586022E-03  0.1351015E+04  0.7818609E-02  0.8990060E-01
       -1   -1    0    0    0  501  0.00000000000E+00  0.00000000000E+00  0.35773069446E+03  0.35773069450E+03  0.50400001928E-02 0. -1.
        1   -1    0    0  501    0  0.00000000000E+00  0.00000000000E+00 -0.12755699998E+04  0.12755699998E+04  0.50400001928E-02 0.  1.
    10030    2    1    2    0    0  0.00000000000E+00  0.00000000000E+00 -0.91783930529E+03  0.16333006943E+04  0.13510152359E+04 0.  0.
        1    1    3    3  502    0 -0.48491899792E+03 -0.47000882680E+03 -0.47825556603E+03  0.82751623445E+03  0.50400001928E-02 0.  1.
       -1    1    3    3    0  502  0.48491899792E+03  0.47000882680E+03 -0.43958373926E+03  0.80578445981E+03  0.50400001928E-02 0. -1.
</event>
<event>
 5   0  0.2917809E-03  0.1440677E+04  0.7818609E-02  0.8924890E-01
        2   -1    0    0  501    0  0.00000000000E+00  0.00000000000E+00  0.10407433375E+04  0.10407433375E+04  0.25500000920E-02 0. -1.
       -2   -1    0    0    0  501  0.00000000000E+00  0.00000000000E+00 -0.49857387129E+03  0.49857387129E+03  0.25500000920E-02 0.  1.
    10030    2    1    2    0    0  0.00000000000E+00  0.00000000000E+00  0.54216946618E+03  0.15393172088E+04  0.14406768337E+04 0.  0.
        2    1    3    3  502    0 -0.37234096734E+03 -0.35125802298E+03  0.81260670271E+03  0.96039036228E+03  0.25500000920E-02 0. -1.
       -2    1    3    3    0  502  0.37234096734E+03  0.35125802298E+03 -0.27043723653E+03  0.57892684648E+03  0.25500000920E-02 0.  1.
</event>
<event>
 5   0  0.2889469E-03  0.1387984E+04  0.7818609E-02  0.8962563E-01
       -2   -1    0    0    0  501  0.00000000000E+00  0.00000000000E+00  0.11814396122E+04  0.11814396122E+04  0.25500000920E-02 0. -1.
        2   -1    0    0  501    0  0.00000000000E+00  0.00000000000E+00 -0.40765937295E+03  0.40765937296E+03  0.25500000920E-02 0.  1.
    10030    2    1    2    0    0  0.00000000000E+00  0.00000000000E+00  0.77378023927E+03  0.15890989852E+04  0.13879840511E+04 0.  0.
        5    1    3    3  502    0 -0.55461678055E+02 -0.29981266457E+03 -0.32684946176E+03  0.44700815677E+03  0.46999998093E+01 0.  1.
       -5    1    3    3    0  502  0.55461678055E+02  0.29981266457E+03  0.11006297010E+04  0.11420908284E+04  0.46999998093E+01 0. -1.
</event>
<event>
 5   0  0.1586022E-03  0.1468442E+04  0.7818609E-02  0.8905714E-01
        1   -1    0    0  501    0  0.00000000000E+00  0.00000000000E+00  0.10289487792E+04  0.10289487792E+04  0.50400001928E-02 0.  1.
       -1   -1    0    0    0  501  0.00000000000E+00  0.00000000000E+00 -0.52391371119E+03  0.52391371122E+03  0.50400001928E-02 0. -1.
    10030    2    1    2    0    0  0.00000000000E+00  0.00000000000E+00  0.50503506799E+03  0.15528624904E+04  0.14684418593E+04 0.  0.
        1    1    3    3  502    0  0.56032458993E+03  0.26518846148E+03 -0.16353697133E+03  0.64111848140E+03  0.50400001928E-02 0. -1.
       -1    1    3    3    0  502 -0.56032458993E+03 -0.26518846148E+03  0.66857203932E+03  0.91174400901E+03  0.50400001928E-02 0.  1.
</event>
<event>
 5   0  0.1644571E-03  0.1413771E+04  0.7818609E-02  0.8943910E-01
        1   -1    0    0  501    0  0.00000000000E+00  0.00000000000E+00  0.55925556395E+03  0.55925556398E+03  0.50400001928E-02 0.  1.
       -1   -1    0    0    0  501  0.00000000000E+00  0.00000000000E+00 -0.89348624745E+03  0.89348624746E+03  0.50400001928E-02 0. -1.
    10030    2    1    2    0    0  0.00000000000E+00  0.00000000000E+00 -0.33423068349E+03  0.14527418114E+04  0.14137710638E+04 0.  0.
        4    1    3    3  502    0  0.41648064235E+03 -0.34871554465E+03  0.29771096086E+03  0.61942883824E+03  0.12699999809E+01 0.  1.
       -4    1    3    3    0  502 -0.41648064235E+03  0.34871554465E+03 -0.63194164435E+03  0.83331297320E+03  0.12699999809E+01 0. -1.
</event>
<event>
 5   0  0.1560957E-03  0.1436115E+04  0.7818609E-02  0.8928083E-01
       -1   -1    0    0    0  501  0.00000000000E+00  0.00000000000E+00  0.31986763679E+03  0.31986763683E+03  0.50400001928E-02 0.  1.
        1   -1    0    0  501    0  0.00000000000E+00  0.00000000000E+00 -0.16119383614E+04  0.16119383614E+04  0.50400001928E-02 0. -1.
    10030    2    1    2    0    0  0.00000000000E+00  0.00000000000E+00 -0.12920707246E+04  0.19318059982E+04  0.14361154750E+04 0.  0.
        5    1    3    3  502    0  0.16072291518E+03  0.16068082034E+02  0.29509152946E+03  0.33643890899E+03  0.46999998093E+01 0.  1.
       -5    1    3    3    0  502 -0.16072291518E+03 -0.16068082034E+02 -0.15871622541E+04  0.15953670893E+04  0.46999998093E+01 0. -1.
</event>
<event>
 5   0  0.1104538E-03  0.1403367E+04  0.7818609E-02  0.8951385E-01
        3   -1    0    0  501    0  0.00000000000E+00  0.00000000000E+00  0.37401257716E+03  0.37401259080E+03  0.10100000352E+00 0. -1.
       -3   -1    0    0    0  501  0.00000000000E+00  0.00000000000E+00 -0.13164252458E+04  0.13164252497E+04  0.10100000352E+00 0.  1.
    10030    2    1    2    0    0  0.00000000000E+00  0.00000000000E+00 -0.94241266862E+03  0.16904378405E+04  0.14033668282E+04 0.  0.
        1    1    3    3  502    0  0.28508248454E+03 -0.48066386188E+03 -0.98232809594E+03  0.11301673589E+04  0.50400001928E-02 0.  1.
       -1    1    3    3    0  502 -0.28508248454E+03  0.48066386188E+03  0.39915427320E+02  0.56027048153E+03  0.50400001928E-02 0. -1.
</event>
<event>
 5   0  0.1104538E-03  0.1411119E+04  0.7818609E-02  0.8945809E-01
        3   -1    0    0  501    0  0.00000000000E+00  0.00000000000E+00  0.38317000316E+03  0.38317001647E+03  0.10100000352E+00 0.  1.
       -3   -1    0    0    0  501  0.00000000000E+00  0.00000000000E+00 -0.12991985757E+04  0.12991985797E+04  0.10100000352E+00 0. -1.
    10030    2    1    2    0    0  0.00000000000E+00  0.00000000000E+00 -0.91602857258E+03  0.16823685961E+04  0.14111186157E+04 0.  0.
        2    1    3    3  502    0  0.47683020797E+03  0.18617947352E+03  0.12090082138E+03  0.52597229224E+03  0.25500000920E-02 0.  1.
       -2    1    3    3    0  502 -0.47683020797E+03 -0.18617947352E+03 -0.10369293940E+04  0.11563963039E+04  0.25500000920E-02 0. -1.
</event>
<event>
 5   0  0.1631380E-03  0.1340759E+04  0.7818609E-02  0.8997853E-01
        1   -1    0    0  501    0  0.00000000000E+00  0.00000000000E+00  0.44850485273E+03  0.44850485276E+03  0.50400001928E-02 0.  1.
       -1   -1    0    0    0  501  0.00000000000E+00  0.00000000000E+00 -0.10020155739E+04  0.10020155739E+04  0.50400001928E-02 0. -1.
    10030    2    1    2    0    0  0.00000000000E+00  0.00000000000E+00 -0.55351072119E+03  0.14505204267E+04  0.13407592587E+04 0.  0.
        3    1    3    3  502    0  0.20708266255E+02  0.44718869355E+03 -0.81660734722E+03  0.93126480104E+03  0.10100000352E+00 0. -1.
       -3    1    3    3    0  502 -0.20708266255E+02 -0.44718869355E+03  0.26309662603E+03  0.51925562564E+03  0.10100000352E+00 0.  1.
</event>
<event>
 5   0  0.2889469E-03  0.1438230E+04  0.7818609E-02  0.8926601E-01
       -2   -1    0    0    0  501  0.00000000000E+00  0.00000000000E+00  0.29164887910E+03  0.29164887912E+03  0.25500000920E-02 0.  1.
        2   -1    0    0  501    0  0.00000000000E+00  0.00000000000E+00 -0.17731126734E+04  0.17731126734E+04  0.25500000920E-02 0. -1.
    10030    2    1    2    0    0  0.00000000000E+00  0.00000000000E+00 -0.14814637943E+04  0.20647615525E+04  0.14382299173E+04 0.  0.
        5    1    3    3  502    0  0.27283835147E+03 -0.64806617265E+03 -0.95690557851E+03  0.11874851184E+04  0.46999998093E+01 0. -1.
       -5    1    3    3    0  502 -0.27283835147E+03  0.64806617265E+03 -0.52455821580E+03  0.87727643416E+03  0.46999998093E+01 0.  1.
</event>
<event>
 5   0  0.1104538E-03  0.1401950E+04  0.7818609E-02  0.8952408E-01
       -3   -1    0    0    0  501  0.00000000000E+00  0.00000000000E+00  0.54286196943E+03  0.54286197883E+03  0.10100000352E+00 0. -1.
        3   -1    0    0  501    0  0.00000000000E+00  0.00000000000E+00 -0.90514008618E+03  0.90514009181E+03  0.10100000352E+00 0.  1.
    10030    2    1    2    0    0  0.00000000000E+00  0.00000000000E+00 -0.36227811674E+03  0.14480020706E+04  0.14019502711E+04 0.  0.
        2    1    3    3  502    0 -0.69391520200E+03  0.98236247921E+02 -0.16662495870E+03  0.72036972788E+03  0.25500000920E-02 0. -1.
       -2    1    3    3    0  502  0.69391520200E+03 -0.98236247921E+02 -0.19565315804E+03  0.72763234276E+03  0.25500000920E-02 0.  1.
</event>
<event>
 5   0  0.2889469E-03  0.1626164E+04  0.7818609E-02  0.8804634E-01
       -2   -1    0    0    0  501  0.00000000000E+00  0.00000000000E+00  0.38665472080E+03  0.38665472081E+03  0.25500000920E-02 0.  1.
        2   -1    0    0  501    0  0.00000000000E+00  0.00000000000E+00 -0.17097992264E+04  0.17097992264E+04  0.25500000920E-02 0. -1.
    10030    2    1    2    0    0  0.00000000000E+00  0.00000000000E+00 -0.13231445056E+04  0.20964539472E+04  0.16261635127E+04 0.  0.
        5    1    3    3  502    0  0.21064952445E+03  0.65323304217E+03 -0.99631965165E+02  0.69356704652E+03  0.46999998093E+01 0.  1.
       -5    1    3    3    0  502 -0.21064952445E+03 -0.65323304217E+03 -0.12235125405E+04  0.14028869007E+04  0.46999998093E+01 0. -1.
</event>
<event>
 5   0  0.1644571E-03  0.8721956E+03  0.7818609E-02  0.9461022E-01
       -1   -1    0    0    0  501  0.00000000000E+00  0.00000000000E+00  0.18262720484E+04  0.18262720485E+04  0.50400001928E-02 0.  1.
        1   -1    0    0  501    0  0.00000000000E+00  0.00000000000E+00 -0.10413633232E+03  0.10413633244E+03  0.50400001928E-02 0. -1.
    10030    2    1    2    0    0  0.00000000000E+00  0.00000000000E+00  0.17221357161E+04  0.19304083809E+04  0.87219555850E+03 0.  0.
        4    1    3    3  502    0 -0.53836620079E+02 -0.24556315252E+03  0.72383888882E+02  0.26161170426E+03  0.12699999809E+01 0. -1.
       -4    1    3    3    0  502  0.53836620079E+02  0.24556315252E+03  0.16497518272E+04  0.16687966766E+04  0.12699999809E+01 0.  1.
</event>
<event>
 5   0  0.1560957E-03  0.1367468E+04  0.7818609E-02  0.8977710E-01
       -1   -1    0    0    0  501  0.00000000000E+00  0.00000000000E+00  0.31066023281E+03  0.31066023285E+03  0.50400001928E-02 0.  1.
        1   -1    0    0  501    0  0.00000000000E+00  0.00000000000E+00 -0.15048337164E+04  0.15048337164E+04  0.50400001928E-02 0. -1.
    10030    2    1    2    0    0  0.00000000000E+00  0.00000000000E+00 -0.11941734836E+04  0.18154939493E+04  0.13674677221E+04 0.  0.
        5    1    3    3  502    0  0.16460439870E+03 -0.21589089063E+03 -0.14301865977E+04  0.14557332444E+04  0.46999998093E+01 0. -1.
       -5    1    3    3    0  502 -0.16460439870E+03  0.21589089063E+03  0.23601311409E+03  0.35976070484E+03  0.46999998093E+01 0.  1.
</event>
<event>
 5   0  0.2993993E-03  0.9500176E+03  0.7818609E-02  0.9365130E-01
       -2   -1    0    0    0  501  0.00000000000E+00  0.00000000000E+00  0.32847021275E+03  0.32847021276E+03  0.25500000920E-02 0. -1.
        2   -1    0    0  501    0  0.00000000000E+00  0.00000000000E+00 -0.68692186888E+03  0.68692186889E+03  0.25500000920E-02 0.  1.
    10030    2    1    2    0    0  0.00000000000E+00  0.00000000000E+00 -0.35845165613E+03  0.10153920817E+04  0.95001762599E+03 0.  0.
        3    1    3    3  502    0 -0.21627013264E+03  0.14907460180E+03 -0.60223499589E+03  0.65702588051E+03  0.10100000352E+00 0.  1.
       -3    1    3    3    0  502  0.21627013264E+03 -0.14907460180E+03  0.24378333976E+03  0.35836620114E+03  0.10100000352E+00 0. -1.
</event>
<event>
 5   0  0.2889469E-03  0.1396557E+04  0.7818609E-02  0.8956315E-01
       -2   -1    0    0    0  501  0.00000000000E+00  0.00000000000E+00  0.11588032159E+04  0.11588032159E+04  0.25500000920E-02 0. -1.
        2   -1    0    0  501    0  0.00000000000E+00  0.00000000000E+00 -0.42077252328E+03  0.42077252329E+03  0.25500000920E-02 0.  1.
    10030    2    1    2    0    0  0.00000000000E+00  0.00000000000E+00  0.73803069261E+03  0.15795757392E+04  0.13965565555E+04 0.  0.
        5    1    3    3  502    0  0.57350515638E+03  0.32033216576E+03  0.10124147655E+03  0.66467494867E+03  0.46999998093E+01 0.  1.
       -5    1    3    3    0  502 -0.57350515638E+03 -0.32033216576E+03  0.63678921606E+03  0.91490079052E+03  0.46999998093E+01 0. -1.
</event>
<event>
 5   0  0.1104538E-03  0.1391395E+04  0.7818609E-02  0.8960071E-01
       -3   -1    0    0    0  501  0.00000000000E+00  0.00000000000E+00  0.26325936851E+03  0.26325938789E+03  0.10100000352E+00 0.  1.
        3   -1    0    0  501    0  0.00000000000E+00  0.00000000000E+00 -0.18384711843E+04  0.18384711870E+04  0.10100000352E+00 0. -1.
    10030    2    1    2    0    0  0.00000000000E+00  0.00000000000E+00 -0.15752118158E+04  0.21017305749E+04  0.13913946762E+04 0.  0.
        4    1    3    3  502    0  0.69135582831E+03 -0.46479098263E+02 -0.69375909268E+03  0.98052867347E+03  0.12699999809E+01 0.  1.
       -4    1    3    3    0  502 -0.69135582831E+03  0.46479098263E+02 -0.88145272308E+03  0.11212019015E+04  0.12699999809E+01 0. -1.
</event>
<event>
 5   0  0.2760807E-03  0.1482881E+04  0.7818609E-02  0.8895917E-01
       -2   -1    0    0    0  501  0.00000000000E+00  0.00000000000E+00  0.21446951181E+03  0.21446951182E+03  0.25500000920E-02 0.  1.
        2   -1    0    0  501    0  0.00000000000E+00  0.00000000000E+00 -0.25632268964E+04  0.25632268964E+04  0.25500000920E-02 0. -1.
    10030    2    1    2    0    0  0.00000000000E+00  0.00000000000E+00 -0.23487573846E+04  0.27776964082E+04  0.14828810082E+04 0.  0.
        4    1    3    3  502    0  0.26622263022E+03 -0.31179126589E+02  0.12053412243E+03  0.29389915677E+03  0.12699999809E+01 0.  1.
       -4    1    3    3    0  502 -0.26622263022E+03  0.31179126589E+02 -0.24692915070E+04  0.24837972514E+04  0.12699999809E+01 0. -1.
</event>
<event>
 5   0  0.1586022E-03  0.1393025E+04  0.7818609E-02  0.8958883E-01
       -1   -1    0    0    0  501  0.00000000000E+00  0.00000000000E+00  0.27188196687E+03  0.27188196692E+03  0.50400001928E-02 0. -1.
        1   -1    0    0  501    0  0.00000000000E+00  0.00000000000E+00 -0.17843389255E+04  0.17843389255E+04  0.50400001928E-02 0.  1.
    10030    2    1    2    0    0  0.00000000000E+00  0.00000000000E+00 -0.15124569586E+04  0.20562208924E+04  0.13930248766E+04 0.  0.
        1    1    3    3  502    0  0.58703448447E+03 -0.10103765374E+03 -0.12890751290E+04  0.14200467533E+04  0.50400001928E-02 0.  1.
       -1    1    3    3    0  502 -0.58703448447E+03  0.10103765374E+03 -0.22338182964E+03  0.63617413911E+03  0.50400001928E-02 0. -1.
</event>
<event>
 5   0  0.1644571E-03  0.1265429E+04  0.7818609E-02  0.9057438E-01
       -1   -1    0    0    0  501  0.00000000000E+00  0.00000000000E+00  0.71566276461E+03  0.71566276462E+03  0.50400001928E-02 0. -1.
        1   -1    0    0  501    0  0.00000000000E+00  0.00000000000E+00 -0.55938054371E+03  0.55938054373E+03  0.50400001928E-02 0.  1.
    10030    2    1    2    0    0  0.00000000000E+00  0.00000000000E+00  0.15628222090E+03  0.12750433084E+04  0.12654292970E+04 0.  0.
        4    1    3    3  502    0 -0.10104406350E+03  0.33321190849E+03 -0.45415854109E+03  0.57227761801E+03  0.12699999809E+01 0.  1.
       -4    1    3    3    0  502  0.10104406350E+03 -0.33321190849E+03  0.61044076199E+03  0.70276569034E+03  0.12699999809E+01 0. -1.
</event>
<event>
 5   0  0.1644571E-03  0.1384649E+04  0.7818609E-02  0.8965006E-01
        1   -1    0    0  501    0  0.00000000000E+00  0.00000000000E+00  0.60502976015E+03  0.60502976017E+03  0.50400001928E-02 0. -1.
       -1   -1    0    0    0  501  0.00000000000E+00  0.00000000000E+00 -0.79221457800E+03  0.79221457802E+03  0.50400001928E-02 0.  1.
    10030    2    1    2    0    0  0.00000000000E+00  0.00000000000E+00 -0.18718481785E+03  0.13972443382E+04  0.13846492641E+04 0.  0.
        4    1    3    3  502    0 -0.65019680272E+03  0.16919111143E+03  0.75051296856E+02  0.67602945536E+03  0.12699999809E+01 0. -1.
       -4    1    3    3    0  502  0.65019680272E+03 -0.16919111143E+03 -0.26223611471E+03  0.72121488283E+03  0.12699999809E+01 0.  1.
</event>
<event>
 5   0  0.1644571E-03  0.1504853E+04  0.7818609E-02  0.8881232E-01
        1   -1    0    0  501    0  0.00000000000E+00  0.00000000000E+00  0.12506752756E+04  0.12506752756E+04  0.50400001928E-02 0.  1.
       -1   -1    0    0    0  501  0.00000000000E+00  0.00000000000E+00 -0.45267207712E+03  0.45267207714E+03  0.50400001928E-02 0. -1.
    10030    2    1    2    0    0  0.00000000000E+00  0.00000000000E+00  0.79800319848E+03  0.17033473527E+04  0.15048531820E+04 0.  0.
        4    1    3    3  502    0 -0.63671561370E+03 -0.15451083765E+02  0.85246765684E+03  0.10641185214E+04  0.12699999809E+01 0.  1.
       -4    1    3    3    0  502  0.63671561370E+03  0.15451083765E+02 -0.54464458359E+02  0.63922883136E+03  0.12699999809E+01 0. -1.
</event>
<event>
 5   0  0.1586022E-03  0.1623725E+04  0.7818609E-02  0.8806104E-01
        1   -1    0    0  501    0  0.00000000000E+00  0.00000000000E+00  0.64591862082E+03  0.64591862083E+03  0.50400001928E-02 0. -1.
       -1   -1    0    0    0  501  0.00000000000E+00  0.00000000000E+00 -0.10204390636E+04  0.10204390636E+04  0.50400001928E-02 0.  1.
    10030    2    1    2    0    0  0.00000000000E+00  0.00000000000E+00 -0.37452044277E+03  0.16663576844E+04  0.16237248444E+04 0.  0.
        1    1    3    3  502    0 -0.13637201268E+02  0.55172719290E+02 -0.10183950715E+04  0.10199796683E+04  0.50400001928E-02 0.  1.
       -1    1    3    3    0  502  0.13637201268E+02 -0.55172719290E+02  0.64387462869E+03  0.64637801610E+03  0.50400001928E-02 0. -1.
</event>
<event>
 5   0  0.1560957E-03  0.1434715E+04  0.7818609E-02  0.8929066E-01
        1   -1    0    0  501    0  0.00000000000E+00  0.00000000000E+00  0.10034933570E+04  0.10034933570E+04  0.50400001928E-02 0.  1.
       -1   -1    0    0    0  501  0.00000000000E+00  0.00000000000E+00 -0.51281038366E+03  0.51281038368E+03  0.50400001928E-02 0. -1.
    10030    2    1    2    0    0  0.00000000000E+00  0.00000000000E+00  0.49068297332E+03  0.15163037407E+04  0.14347150427E+04 0.  0.
        5    1    3    3  502    0  0.19430495746E+03 -0.13151565038E+03  0.96177680712E+03  0.98999368659E+03  0.46999998093E+01 0.  1.
       -5    1    3    3    0  502 -0.19430495746E+03  0.13151565038E+03 -0.47109383380E+03  0.52631005408E+03  0.46999998093E+01 0. -1.
</event>
<event>
 5   0  0.2760807E-03  0.1209552E+04  0.7818609E-02  0.9104536E-01
        2   -1    0    0  501    0  0.00000000000E+00  0.00000000000E+00  0.14639788227E+04  0.14639788227E+04  0.25500000920E-02 0. -1.
       -2   -1    0    0    0  501  0.00000000000E+00  0.00000000000E+00 -0.24983567087E+03  0.24983567088E+03  0.25500000920E-02 0.  1.
    10030    2    1    2    0    0  0.00000000000E+00  0.00000000000E+00  0.12141431518E+04  0.17138144936E+04  0.12095522003E+04 0.  0.
        4    1    3    3  502    0 -0.43163549494E+03  0.20691327729E+03  0.83335404506E+02  0.48586902284E+03  0.12699999809E+01 0. -1.
       -4    1    3    3    0  502  0.43163549494E+03 -0.20691327729E+03  0.11308077473E+04  0.12279454707E+04  0.12699999809E+01 0.  1.
</event>
<event>
 5   0  0.1560957E-03  0.1395633E+04  0.7818609E-02  0.8956986E-01
        1   -1    0    0  501    0  0.00000000000E+00  0.00000000000E+00  0.29822976515E+03  0.29822976519E+03  0.50400001928E-02 0.  1.
       -1   -1    0    0    0  501  0.00000000000E+00  0.00000000000E+00 -0.16327947975E+04  0.16327947975E+04  0.50400001928E-02 0. -1.
    10030    2    1    2    0    0  0.00000000000E+00  0.00000000000E+00 -0.13345650324E+04  0.19310245627E+04  0.13956332026E+04 0.  0.
        5    1    3    3  502    0  0.15939370816E+03  0.57908279399E+03 -0.17579059552E+03  0.62583357210E+03  0.46999998093E+01 0.  1.
       -5    1    3    3    0  502 -0.15939370816E+03 -0.57908279399E+03 -0.11587744368E+04  0.13051909906E+04  0.46999998093E+01 0. -1.
</event>
<event>
 5   0  0.2760807E-03  0.1387475E+04  0.7818609E-02  0.8962935E-01
       -2   -1    0    0    0  501  0.00000000000E+00  0.00000000000E+00  0.14904489563E+04  0.14904489563E+04  0.25500000920E-02 0. -1.
        2   -1    0    0  501    0  0.00000000000E+00  0.00000000000E+00 -0.32290392698E+03  0.32290392699E+03  0.25500000920E-02 0.  1.
    10030    2    1    2    0    0  0.00000000000E+00  0.00000000000E+00  0.11675450293E+04  0.18133528833E+04  0.13874751471E+04 0.  0.
        4    1    3    3  502    0  0.60873120992E+03 -0.81051856551E+02  0.16199760196E+03  0.63511252965E+03  0.12699999809E+01 0.  1.
       -4    1    3    3    0  502 -0.60873120992E+03  0.81051856551E+02  0.10055474273E+04  0.11782403536E+04  0.12699999809E+01 0. -1.
</event>
<event>
 5   0  0.1586022E-03  0.1576254E+04  0.7818609E-02  0.8835270E-01
        1   -1    0    0  501    0  0.00000000000E+00  0.00000000000E+00  0.20791529988E+04  0.20791529988E+04  0.50400001928E-02 0.  1.
       -1   -1    0    0    0  501  0.00000000000E+00  0.00000000000E+00 -0.29874883465E+03  0.29874883469E+03  0.50400001928E-02 0. -1.
    10030    2    1    2    0    0  0.00000000000E+00  0.00000000000E+00  0.17804041641E+04  0.23779018335E+04  0.15762544661E+04 0.  0.
        1    1    3    3  502    0  0.32822116974E+03 -0.46331596469E+03  0.17147658539E+04  0.18063257605E+04  0.50400001928E-02 0.  1.
       -1    1    3    3    0  502 -0.32822116974E+03  0.46331596469E+03  0.65638310249E+02  0.57157607297E+03  0.50400001928E-02 0. -1.
</event>
<event>
 5   0  0.3006737E-03  0.1121630E+04  0.7818609E-02  0.9184363E-01
        2   -1    0    0  501    0  0.00000000000E+00  0.00000000000E+00  0.29508562415E+04  0.29508562415E+04  0.25500000920E-02 0.  1.
       -2   -1    0    0    0  501  0.00000000000E+00  0.00000000000E+00 -0.10658372158E+03  0.10658372162E+03  0.25500000920E-02 0. -1.
    10030    2    1    2    0    0  0.00000000000E+00  0.00000000000E+00  0.28442725199E+04  0.30574399631E+04  0.11216296004E+04 0.  0.
        1    1    3    3  502    0  0.34441678715E+03 -0.39748924795E+03  0.89151363686E+03  0.10350928414E+04  0.50400001928E-02 0. -1.
       -1    1    3    3    0  502 -0.34441678715E+03  0.39748924795E+03  0.19527588830E+04  0.20223471218E+04  0.50400001928E-02 0.  1.
</event>
<event>
 5   0  0.1631380E-03  0.8082227E+03  0.7818609E-02  0.9548191E-01
        1   -1    0    0  501    0  0.00000000000E+00  0.00000000000E+00  0.53452359388E+03  0.53452359390E+03  0.50400001928E-02 0. -1.
       -1   -1    0    0    0  501  0.00000000000E+00  0.00000000000E+00 -0.30551685623E+03  0.30551685627E+03  0.50400001928E-02 0.  1.
    10030    2    1    2    0    0  0.00000000000E+00  0.00000000000E+00  0.22900673765E+03  0.84004045017E+03  0.80822266241E+03 0.  0.
        3    1    3    3  502    0  0.21748385749E+03  0.33439229717E+03  0.18176997719E+03  0.43835804028E+03  0.10100000352E+00 0.  1.
       -3    1    3    3    0  502 -0.21748385749E+03 -0.33439229717E+03  0.47236760459E+02  0.40168240989E+03  0.10100000352E+00 0. -1.
</event>
<event>
 5   0  0.2917809E-03  0.1389318E+04  0.7818609E-02  0.8961587E-01
       -2   -1    0    0    0  501  0.00000000000E+00  0.00000000000E+00  0.54240152831E+03  0.54240152831E+03  0.25500000920E-02 0.  1.
        2   -1    0    0  501    0  0.00000000000E+00  0.00000000000E+00 -0.88965650122E+03  0.88965650122E+03  0.25500000920E-02 0. -1.
    10030    2    1    2    0    0  0.00000000000E+00  0.00000000000E+00 -0.34725497291E+03  0.14320580295E+04  0.13893178843E+04 0.  0.
        2    1    3    3  502    0 -0.65442874822E+03 -0.20916676017E+03 -0.67888413120E+02  0.69038869972E+03  0.25500000920E-02 0. -1.
       -2    1    3    3    0  502  0.65442874822E+03  0.20916676017E+03 -0.27936655979E+03  0.74166932982E+03  0.25500000920E-02 0.  1.
</event>
<event>
 5   0  0.1586022E-03  0.1401051E+04  0.7818609E-02  0.8953058E-01
       -1   -1    0    0    0  501  0.00000000000E+00  0.00000000000E+00  0.52496832034E+03  0.52496832037E+03  0.50400001928E-02 0. -1.
        1   -1    0    0  501    0  0.00000000000E+00  0.00000000000E+00 -0.93479210144E+03  0.93479210145E+03  0.50400001928E-02 0.  1.
    10030    2    1    2    0    0  0.00000000000E+00  0.00000000000E+00 -0.40982378110E+03  0.14597604218E+04  0.14010513758E+04 0.  0.
        1    1    3    3  502    0  0.67403670243E+03  0.17662929946E+03 -0.12968635432E+03  0.70876084555E+03  0.50400001928E-02 0.  1.
       -1    1    3    3    0  502 -0.67403670243E+03 -0.17662929946E+03 -0.28013742678E+03  0.75099957628E+03  0.50400001928E-02 0. -1.
</event>
<event>
 5   0  0.1631380E-03  0.1473062E+04  0.7818609E-02  0.8902566E-01
       -1   -1    0    0    0  501  0.00000000000E+00  0.00000000000E+00  0.66901528141E+03  0.66901528143E+03  0.50400001928E-02 0.  1.
        1   -1    0    0  501    0  0.00000000000E+00  0.00000000000E+00 -0.81086080003E+03  0.81086080005E+03  0.50400001928E-02 0. -1.
    10030    2    1    2    0    0  0.00000000000E+00  0.00000000000E+00 -0.14184551863E+03  0.14798760815E+04  0.14730624784E+04 0.  0.
        3    1    3    3  502    0 -0.72601497504E+03  0.12196981642E+03 -0.48371747108E+02  0.73777653542E+03  0.10100000352E+00 0.  1.
       -3    1    3    3    0  502  0.72601497504E+03 -0.12196981642E+03 -0.93473771519E+02  0.74209954606E+03  0.10100000352E+00 0. -1.
</event>
<event>
 5   0  0.1586022E-03  0.1545939E+04  0.7818609E-02  0.8854466E-01
       -1   -1    0    0    0  501  0.00000000000E+00  0.00000000000E+00  0.10056679590E+04  0.10056679590E+04  0.50400001928E-02 0.  1.
        1   -1    0    0  501    0  0.00000000000E+00  0.00000000000E+00 -0.59411458963E+03  0.59411458965E+03  0.50400001928E-02 0. -1.
    10030    2    1    2    0    0  0.00000000000E+00  0.00000000000E+00  0.41155336934E+03  0.15997825486E+04  0.15459392055E+04 0.  0.
        1    1    3    3  502    0 -0.50603472124E+02 -0.65656696295E+03 -0.21309402818E+03  0.69213434614E+03  0.50400001928E-02 0. -1.
       -1    1    3    3    0  502  0.50603472124E+02  0.65656696295E+03  0.62464739752E+03  0.90764820249E+03  0.50400001928E-02 0.  1.
</event>
<event>
 5   0  0.2889469E-03  0.1306662E+04  0.7818609E-02  0.9024299E-01
       -2   -1    0    0    0  501  0.00000000000E+00  0.00000000000E+00  0.59489828954E+03  0.59489828955E+03  0.25500000920E-02 0.  1.
        2   -1    0    0  501    0  0.00000000000E+00  0.00000000000E+00 -0.71750345315E+03  0.71750345315E+03  0.25500000920E-02 0. -1.
    10030    2    1    2    0    0  0.00000000000E+00  0.00000000000E+00 -0.12260516360E+03  0.13124017427E+04  0.13066622778E+04 0.  0.
        5    1    3    3  502    0 -0.19581261656E+03 -0.37044845263E+03  0.44214241493E+03  0.60916881235E+03  0.46999998093E+01 0.  1.
       -5    1    3    3    0  502  0.19581261656E+03  0.37044845263E+03 -0.56474757853E+03  0.70323293035E+03  0.46999998093E+01 0. -1.
</event>
<event>
 5   0  0.2993993E-03  0.1412292E+04  0.7818609E-02  0.8944969E-01
        2   -1    0    0  501    0  0.00000000000E+00  0.00000000000E+00  0.15642569071E+04  0.15642569071E+04  0.25500000920E-02 0.  1.
       -2   -1    0    0    0  501  0.00000000000E+00  0.00000000000E+00 -0.31877249277E+03  0.31877249278E+03  0.25500000920E-02 0. -1.
    10030    2    1    2    0    0  0.00000000000E+00  0.00000000000E+00  0.12454844143E+04  0.18830293999E+04  0.14122918588E+04 0.  0.
        3    1    3    3  502    0  0.22992257705E+02 -0.62604338798E+03  0.18827166401E+03  0.65414463020E+03  0.10100000352E+00 0. -1.
       -3    1    3    3    0  502 -0.22992257705E+02  0.62604338798E+03  0.10572127503E+04  0.12288847697E+04  0.10100000352E+00 0.  1.
</event>
<event>
 5   0  0.3006737E-03  0.1445710E+04  0.7818609E-02  0.8921380E-01
       -2   -1    0    0    0  501  0.00000000000E+00  0.00000000000E+00  0.77826903463E+03  0.77826903464E+03  0.25500000920E-02 0.  1.
        2   -1    0    0  501    0  0.00000000000E+00  0.00000000000E+00 -0.67138687856E+03  0.67138687856E+03  0.25500000920E-02 0. -1.
    10030    2    1    2    0    0  0.00000000000E+00  0.00000000000E+00  0.10688215608E+03  0.14496559132E+04  0.14457103691E+04 0.  0.
        1    1    3    3  502    0  0.24406449520E+03 -0.63355189579E+03  0.30223944622E+03  0.74317169305E+03  0.50400001928E-02 0.  1.
       -1    1    3    3    0  502 -0.24406449520E+03  0.63355189579E+03 -0.19535729015E+03  0.70648422014E+03  0.50400001928E-02 0. -1.
</event>
<event>
 5   0  0.1700207E-03  0.1398957E+04  0.7818609E-02  0.8954574E-01
        1   -1    0    0  501    0  0.00000000000E+00  0.00000000000E+00  0.49886275755E+03  0.49886275758E+03  0.50400001928E-02 0. -1.
       -1   -1    0    0    0  501  0.00000000000E+00  0.00000000000E+00 -0.98077058412E+03  0.98077058413E+03  0.50400001928E-02 0.  1.
    10030    2    1    2    0    0  0.00000000000E+00  0.00000000000E+00 -0.48190782657E+03  0.14796333417E+04  0.13989566371E+04 0.  0.
        2    1    3    3  502    0 -0.46667830679E+03  0.43950605974E+03 -0.53694202753E+03  0.83621824874E+03  0.25500000920E-02 0.  1.
       -2    1    3    3    0  502  0.46667830679E+03 -0.43950605974E+03  0.55034200961E+02  0.64341509297E+03  0.25500000920E-02 0. -1.
</event>
<event>
 5   0  0.1586022E-03  0.1396554E+04  0.7818609E-02  0.8956317E-01
        1   -1    0    0  501    0  0.00000000000E+00  0.00000000000E+00  0.11103388121E+04  0.11103388121E+04  0.50400001928E-02 0. -1.
       -1   -1    0    0    0  501  0.00000000000E+00  0.00000000000E+00 -0.43913710668E+03  0.43913710671E+03  0.50400001928E-02 0.  1.
    10030    2    1    2    0    0  0.00000000000E+00  0.00000000000E+00  0.67120170546E+03  0.15494759189E+04  0.13965542931E+04 0.  0.
        1    1    3    3  502    0 -0.64668694439E+03  0.87811887894E+02  0.61114123305E+03  0.89409649281E+03  0.50400001928E-02 0. -1.
       -1    1    3    3    0  502  0.64668694439E+03 -0.87811887894E+02  0.60060472409E+02  0.65537942604E+03  0.50400001928E-02 0.  1.
</event>
<event>
 5   0  0.2889469E-03  0.1396164E+04  0.7818609E-02  0.8956600E-01
       -2   -1    0    0    0  501  0.00000000000E+00  0.00000000000E+00  0.23629915453E+03  0.23629915455E+03  0.25500000920E-02 0.  1.
        2   -1    0    0  501    0  0.00000000000E+00  0.00000000000E+00 -0.20622960391E+04  0.20622960391E+04  0.25500000920E-02 0. -1.
    10030    2    1    2    0    0  0.00000000000E+00  0.00000000000E+00 -0.18259968846E+04  0.22985951937E+04  0.13961644752E+04 0.  0.
        5    1    3    3  502    0  0.28218496766E+03 -0.56044220932E+03 -0.40938079160E+03  0.74922529888E+03  0.46999998093E+01 0.  1.
       -5    1    3    3    0  502 -0.28218496766E+03  0.56044220932E+03 -0.14166160930E+04  0.15493698948E+04  0.46999998093E+01 0. -1.
</event>
<event>
 5   0  0.1631380E-03  0.1396720E+04  0.7818609E-02  0.8956196E-01
        1   -1    0    0  501    0  0.00000000000E+00  0.00000000000E+00  0.70930461912E+03  0.70930461913E+03  0.50400001928E-02 0. -1.
       -1   -1    0    0    0  501  0.00000000000E+00  0.00000000000E+00 -0.68758417195E+03  0.68758417197E+03  0.50400001928E-02 0.  1.
    10030    2    1    2    0    0  0.00000000000E+00  0.00000000000E+00  0.21720447167E+02  0.13968887911E+04  0.13967199135E+04 0.  0.
        3    1    3    3  502    0 -0.22596762999E+03  0.56275869144E+03 -0.33551661168E+03  0.69305852676E+03  0.10100000352E+00 0.  1.
       -3    1    3    3    0  502  0.22596762999E+03 -0.56275869144E+03  0.35723705884E+03  0.70383026434E+03  0.10100000352E+00 0. -1.
</event>
<event>
 5   0  0.1644571E-03  0.1429319E+04  0.7818609E-02  0.8932865E-01
        1   -1    0    0  501    0  0.00000000000E+00  0.00000000000E+00  0.73027648709E+03  0.73027648711E+03  0.50400001928E-02 0.  1.
       -1   -1    0    0    0  501  0.00000000000E+00  0.00000000000E+00 -0.69937664242E+03  0.69937664244E+03  0.50400001928E-02 0. -1.
    10030    2    1    2    0    0  0.00000000000E+00  0.00000000000E+00  0.30899844676E+02  0.14296531295E+04  0.14293191632E+04 0.  0.
        4    1    3    3  502    0  0.30688591903E+03  0.26931984328E+03 -0.57122319253E+03  0.70214649032E+03  0.12699999809E+01 0. -1.
       -4    1    3    3    0  502 -0.30688591903E+03 -0.26931984328E+03  0.60212303720E+03  0.72750663923E+03  0.12699999809E+01 0.  1.
</event>
<event>
 5   0  0.2889469E-03  0.1120775E+04  0.7818609E-02  0.9185176E-01
       -2   -1    0    0    0  501  0.00000000000E+00  0.00000000000E+00  0.24093923189E+03  0.24093923191E+03  0.25500000920E-02 0. -1.
        2   -1    0    0  501    0  0.00000000000E+00  0.00000000000E+00 -0.13033749741E+04  0.13033749741E+04  0.25500000920E-02 0.  1.
    10030    2    1    2    0    0  0.00000000000E+00  0.00000000000E+00 -0.10624357422E+04  0.15443142060E+04  0.11207750267E+04 0.  0.
        5    1    3    3  502    0 -0.16230998383E+03 -0.74822538496E+02 -0.12630222472E+04  0.12756136680E+04  0.46999998093E+01 0.  1.
       -5    1    3    3    0  502  0.16230998383E+03  0.74822538496E+02  0.20058650501E+03  0.26870053797E+03  0.46999998093E+01 0. -1.
</event>
<event>
 5   0  0.1560957E-03  0.1322048E+04  0.7818609E-02  0.9012261E-01
       -1   -1    0    0    0  501  0.00000000000E+00  0.00000000000E+00  0.14674133110E+04  0.14674133110E+04  0.50400001928E-02 0. -1.
        1   -1    0    0  501    0  0.00000000000E+00  0.00000000000E+00 -0.29777080288E+03  0.29777080292E+03  0.50400001928E-02 0.  1.
    10030    2    1    2    0    0  0.00000000000E+00  0.00000000000E+00  0.11696425081E+04  0.17651841139E+04  0.13220481683E+04 0.  0.
        5    1    3    3  502    0 -0.54105780661E+03  0.20560626211E+03  0.10110650674E+04  0.11650288175E+04  0.46999998093E+01 0. -1.
       -5    1    3    3    0  502  0.54105780661E+03 -0.20560626211E+03  0.15857744074E+03  0.60015529643E+03  0.46999998093E+01 0.  1.
</event>
<event>
 5   0  0.2889469E-03  0.1404109E+04  0.7818609E-02  0.8950850E-01
       -2   -1    0    0    0  501  0.00000000000E+00  0.00000000000E+00  0.32244884125E+03  0.32244884126E+03  0.25500000920E-02 0. -1.
        2   -1    0    0  501    0  0.00000000000E+00  0.00000000000E+00 -0.15285533695E+04  0.15285533695E+04  0.25500000920E-02 0.  1.
    10030    2    1    2    0    0  0.00000000000E+00  0.00000000000E+00 -0.12061045283E+04  0.18510022108E+04  0.14041086323E+04 0.  0.
        5    1    3    3  502    0 -0.16345884264E+03  0.57760638278E+03 -0.10829303948E+04  0.12381874885E+04  0.46999998093E+01 0.  1.
       -5    1    3    3    0  502  0.16345884264E+03 -0.57760638278E+03 -0.12317413343E+03  0.61281472225E+03  0.46999998093E+01 0. -1.
</event>
<event>
 5   0  0.2760807E-03  0.1379386E+04  0.7818609E-02  0.8968876E-01
        2   -1    0    0  501    0  0.00000000000E+00  0.00000000000E+00  0.15991402747E+04  0.15991402747E+04  0.25500000920E-02 0. -1.
       -2   -1    0    0    0  501  0.00000000000E+00  0.00000000000E+00 -0.29745777960E+03  0.29745777961E+03  0.25500000920E-02 0.  1.
    10030    2    1    2    0    0  0.00000000000E+00  0.00000000000E+00  0.13016824951E+04  0.18965980543E+04  0.13793864076E+04 0.  0.
        4    1    3    3  502    0  0.40258153744E+03 -0.47648994821E+03  0.24631255513E+03  0.67066090743E+03  0.12699999809E+01 0. -1.
       -4    1    3    3    0  502 -0.40258153744E+03  0.47648994821E+03  0.10553699400E+04  0.12259371469E+04  0.12699999809E+01 0.  1.
</event>
<event>
 5   0  0.3006737E-03  0.1401073E+04  0.7818609E-02  0.8953042E-01
       -2   -1    0    0    0  501  0.00000000000E+00  0.00000000000E+00  0.42140328137E+03  0.42140328138E+03  0.25500000920E-02 0. -1.
        2   -1    0    0  501    0  0.00000000000E+00  0.00000000000E+00 -0.11645649910E+04  0.11645649910E+04  0.25500000920E-02 0.  1.
    10030    2    1    2    0    0  0.00000000000E+00  0.00000000000E+00 -0.74316170967E+03  0.15859682724E+04  0.14010731724E+04 0.  0.
        1    1    3    3  502    0 -0.49252460534E+03  0.47084035890E+03 -0.55578346033E+03  0.87929880316E+03  0.50400001928E-02 0.  1.
       -1    1    3    3    0  502  0.49252460534E+03 -0.47084035890E+03 -0.18737824934E+03  0.70666946926E+03  0.50400001928E-02 0. -1.
</event>
<event>
 5   0  0.3006737E-03  0.1386493E+04  0.7818609E-02  0.8963654E-01
        2   -1    0    0  501    0  0.00000000000E+00  0.00000000000E+00  0.20645914812E+04  0.20645914812E+04  0.25500000920E-02 0.  1.
       -2   -1    0    0    0  501  0.00000000000E+00  0.00000000000E+00 -0.23277755648E+03  0.23277755649E+03  0.25500000920E-02 0. -1.
    10030    2    1    2    0    0  0.00000000000E+00  0.00000000000E+00  0.18318139247E+04  0.22973690377E+04  0.13864927842E+04 0.  0.
        1    1    3    3  502    0  0.35399828319E+03 -0.34158585016E+03  0.10654328114E+03  0.50333601929E+03  0.50400001928E-02 0. -1.
       -1    1    3    3    0  502 -0.35399828319E+03  0.34158585016E+03  0.17252706436E+04  0.17940330184E+04  0.50400001928E-02 0.  1.
</event>
<event>
 5   0  0.1700207E-03  0.1373828E+04  0.7818609E-02  0.8972984E-01
        1   -1    0    0  501    0  0.00000000000E+00  0.00000000000E+00  0.15520167520E+04  0.15520167520E+04  0.50400001928E-02 0.  1.
       -1   -1    0    0    0  501  0.00000000000E+00  0.00000000000E+00 -0.30402431266E+03  0.30402431271E+03  0.50400001928E-02 0. -1.
    10030    2    1    2    0    0  0.00000000000E+00  0.00000000000E+00  0.12479924394E+04  0.18560410647E+04  0.13738279751E+04 0.  0.
        2    1    3    3  502    0  0.29722923996E+03  0.35119879872E+02  0.14592944910E+04  0.14896707820E+04  0.25500000920E-02 0.  1.
       -2    1    3    3    0  502 -0.29722923996E+03 -0.35119879872E+02 -0.21130205168E+03  0.36637028278E+03  0.25500000920E-02 0. -1.
</event>
<event>
 5   0  0.3006737E-03  0.1345097E+04  0.7818609E-02  0.8994548E-01
        2   -1    0    0  501    0  0.00000000000E+00  0.00000000000E+00  0.45504509737E+03  0.45504509738E+03  0.25500000920E-02 0. -1.
       -2   -1    0    0    0  501  0.00000000000E+00  0.00000000000E+00 -0.99401432649E+03  0.99401432649E+03  0.25500000920E-02 0.  1.
    10030    2    1    2    0    0  0.00000000000E+00  0.00000000000E+00 -0.53896922911E+03  0.14490594239E+04  0.13450967935E+04 0.  0.
        1    1    3    3  502    0 -0.57544312630E+03 -0.33297656819E+03 -0.37888743620E+03  0.76522145547E+03  0.50400001928E-02 0.  1.
       -1    1    3    3    0  502  0.57544312630E+03  0.33297656819E+03 -0.16008179291E+03  0.68383796840E+03  0.50400001928E-02 0. -1.
</event>
<event>
 5   0  0.1560957E-03  0.1427965E+04  0.7818609E-02  0.8933821E-01
        1   -1    0    0  501    0  0.00000000000E+00  0.00000000000E+00  0.15467989686E+04  0.15467989686E+04  0.50400001928E-02 0.  1.
       -1   -1    0    0    0  501  0.00000000000E+00  0.00000000000E+00 -0.32956504936E+03  0.32956504940E+03  0.50400001928E-02 0. -1.
    10030    2    1    2    0    0  0.00000000000E+00  0.00000000000E+00  0.12172339193E+04  0.18763640180E+04  0.14279648154E+04 0.  0.
        5    1    3    3  502    0  0.42025742513E+03  0.36849060834E+03  0.11923510086E+04  0.13168616668E+04  0.46999998093E+01 0.  1.
       -5    1    3    3    0  502 -0.42025742513E+03 -0.36849060834E+03  0.24882910691E+02  0.55950235125E+03  0.46999998093E+01 0. -1.
</event>
<event>
 5   0  0.1631380E-03  0.1257066E+04  0.7818609E-02  0.9064323E-01
       -1   -1    0    0    0  501  0.00000000000E+00  0.00000000000E+00  0.50595758192E+03  0.50595758194E+03  0.50400001928E-02 0.  1.
        1   -1    0    0  501    0  0.00000000000E+00  0.00000000000E+00 -0.78080409444E+03  0.78080409446E+03  0.50400001928E-02 0. -1.
    10030    2    1    2    0    0  0.00000000000E+00  0.00000000000E+00 -0.27484651252E+03  0.12867616764E+04  0.12570660310E+04 0.  0.
        3    1    3    3  502    0 -0.30218712111E+03 -0.55088113101E+03 -0.12070762380E+03  0.63981045421E+03  0.10100000352E+00 0.  1.
       -3    1    3    3    0  502  0.30218712111E+03  0.55088113101E+03 -0.15413888872E+03  0.64695122219E+03  0.10100000352E+00 0. -1.
</event>
<event>
 5   0  0.2760807E-03  0.1318147E+04  0.7818609E-02  0.9015297E-01
        2   -1    0    0  501    0  0.00000000000E+00  0.00000000000E+00  0.15087111503E+04  0.15087111503E+04  0.25500000920E-02 0. -1.
       -2   -1    0    0    0  501  0.00000000000E+00  0.00000000000E+00 -0.28791334169E+03  0.28791334170E+03  0.25500000920E-02 0.  1.
    10030    2    1    2    0    0  0.00000000000E+00  0.00000000000E+00  0.12207978086E+04  0.17966244920E+04  0.13181472891E+04 0.  0.
        4    1    3    3  502    0  0.36062651470E+02 -0.60305189617E+03  0.96947519153E+03  0.11423028776E+04  0.12699999809E+01 0. -1.
       -4    1    3    3    0  502 -0.36062651470E+02  0.60305189617E+03  0.25132261710E+03  0.65432161440E+03  0.12699999809E+01 0.  1.
</event>
<event>
 5   0  0.1644571E-03  0.1397696E+04  0.7818609E-02  0.8955488E-01
        1   -1    0    0  501    0  0.00000000000E+00  0.00000000000E+00  0.86977135417E+03  0.86977135419E+03  0.50400001928E-02 0.  1.
       -1   -1    0    0    0  501  0.00000000000E+00  0.00000000000E+00 -0.56151392946E+03  0.56151392948E+03  0.50400001928E-02 0. -1.
    10030    2    1    2    0    0  0.00000000000E+00  0.00000000000E+00  0.30825742471E+03  0.14312852837E+04  0.13976962915E+04 0.  0.
        4    1    3    3  502    0  0.48635980953E+03 -0.35697254053E+03  0.51532583557E+03  0.79343404812E+03  0.12699999809E+01 0.  1.
       -4    1    3    3    0  502 -0.48635980953E+03  0.35697254053E+03 -0.20706841086E+03  0.63785123555E+03  0.12699999809E+01 0. -1.
</event>
<event>
 5   0  0.2993993E-03  0.1171819E+04  0.7818609E-02  0.9137887E-01
        2   -1    0    0  501    0  0.00000000000E+00  0.00000000000E+00  0.10596840378E+04  0.10596840378E+04  0.25500000920E-02 0. -1.
       -2   -1    0    0    0  501  0.00000000000E+00  0.00000000000E+00 -0.32395490159E+03  0.32395490160E+03  0.25500000920E-02 0.  1.
    10030    2    1    2    0    0  0.00000000000E+00  0.00000000000E+00  0.73572913624E+03  0.13836389394E+04  0.11718188225E+04 0.  0.
        3    1    3    3  502    0  0.17417494303E+03  0.14879235340E+03  0.10046157746E+04  0.10304023195E+04  0.10100000352E+00 0. -1.
       -3    1    3    3    0  502 -0.17417494303E+03 -0.14879235340E+03 -0.26888663834E+03  0.35323661997E+03  0.10100000352E+00 0.  1.
</event>
<event>
 5   0  0.2993993E-03  0.1389468E+04  0.7818609E-02  0.8961478E-01
        2   -1    0    0  501    0  0.00000000000E+00  0.00000000000E+00  0.11057106282E+04  0.11057106282E+04  0.25500000920E-02 0.  1.
       -2   -1    0    0    0  501  0.00000000000E+00  0.00000000000E+00 -0.43651149088E+03  0.43651149088E+03  0.25500000920E-02 0. -1.
    10030    2    1    2    0    0  0.00000000000E+00  0.00000000000E+00  0.66919913730E+03  0.15422221191E+04  0.13894680922E+04 0.  0.
        3    1    3    3  502    0  0.12983061393E+03  0.67947102521E+03  0.40583057073E+03  0.80201952891E+03  0.10100000352E+00 0.  1.
       -3    1    3    3    0  502 -0.12983061393E+03 -0.67947102521E+03  0.26336856656E+03  0.74020259015E+03  0.10100000352E+00 0. -1.
</event>
<event>
 5   0  0.2993993E-03  0.1403115E+04  0.7818609E-02  0.8951567E-01
        2   -1    0    0  501    0  0.00000000000E+00  0.00000000000E+00  0.15522958354E+04  0.15522958354E+04  0.25500000920E-02 0. -1.
       -2   -1    0    0    0  501  0.00000000000E+00  0.00000000000E+00 -0.31706785668E+03  0.31706785669E+03  0.25500000920E-02 0.  1.
    10030    2    1    2    0    0  0.00000000000E+00  0.00000000000E+00  0.12352279787E+04  0.18693636921E+04  0.14031152675E+04 0.  0.
        3    1    3    3  502    0  0.37450200220E+02  0.23986291282E+03  0.14945500290E+04  0.15141388754E+04  0.10100000352E+00 0. -1.
       -3    1    3    3    0  502 -0.37450200220E+02 -0.23986291282E+03 -0.25932205030E+03  0.35522481673E+03  0.10100000352E+00 0.  1.
</event>
<event>
 5   0  0.1700207E-03  0.1316690E+04  0.7818609E-02  0.9016433E-01
       -1   -1    0    0    0  501  0.00000000000E+00  0.00000000000E+00  0.18690544056E+03  0.18690544063E+03  0.50400001928E-02 0. -1.
        1   -1    0    0  501    0  0.00000000000E+00  0.00000000000E+00 -0.23189176351E+04  0.23189176351E+04  0.50400001928E-02 0.  1.
    10030    2    1    2    0    0  0.00000000000E+00  0.00000000000E+00 -0.21320121946E+04  0.25058230757E+04  0.13166902784E+04 0.  0.
        2    1    3    3  502    0  0.11027192953E+03 -0.19561427849E+03  0.11176926305E+03  0.25083303722E+03  0.25500000920E-02 0. -1.
       -2    1    3    3    0  502 -0.11027192953E+03  0.19561427849E+03 -0.22437814576E+04  0.22549900385E+04  0.25500000920E-02 0.  1.
</event>
<event>
 5   0  0.2889469E-03  0.1396658E+04  0.7818609E-02  0.8956242E-01
       -2   -1    0    0    0  501  0.00000000000E+00  0.00000000000E+00  0.67227307425E+03  0.67227307426E+03  0.25500000920E-02 0.  1.
        2   -1    0    0  501    0  0.00000000000E+00  0.00000000000E+00 -0.72539436894E+03  0.72539436894E+03  0.25500000920E-02 0. -1.
    10030    2    1    2    0    0  0.00000000000E+00  0.00000000000E+00 -0.53121294686E+02  0.13976674432E+04  0.13966575850E+04 0.  0.
        5    1    3    3  502    0  0.10988875914E+03  0.67208169854E+03  0.12805564232E+03  0.69295720389E+03  0.46999998093E+01 0. -1.
       -5    1    3    3    0  502 -0.10988875914E+03 -0.67208169854E+03 -0.18117693701E+03  0.70471023931E+03  0.46999998093E+01 0.  1.
</event>
<event>
 5   0  0.2889469E-03  0.1396797E+04  0.7818609E-02  0.8956140E-01
       -2   -1    0    0    0  501  0.00000000000E+00  0.00000000000E+00  0.42650561605E+03  0.42650561606E+03  0.25500000920E-02 0.  1.
        2   -1    0    0  501    0  0.00000000000E+00  0.00000000000E+00 -0.11436210462E+04  0.11436210462E+04  0.25500000920E-02 0. -1.
    10030    2    1    2    0    0  0.00000000000E+00  0.00000000000E+00 -0.71711543018E+03  0.15701266623E+04  0.13967974783E+04 0.  0.
        5    1    3    3  502    0 -0.42640813184E+03 -0.39396516944E+03  0.77824347968E+02  0.58575691951E+03  0.46999998093E+01 0.  1.
       -5    1    3    3    0  502  0.42640813184E+03  0.39396516944E+03 -0.79493977815E+03  0.98436974278E+03  0.46999998093E+01 0. -1.
</event>
<event>
 5   0  0.2760807E-03  0.1378265E+04  0.7818609E-02  0.8969704E-01
       -2   -1    0    0    0  501  0.00000000000E+00  0.00000000000E+00  0.21906405286E+03  0.21906405288E+03  0.25500000920E-02 0. -1.
        2   -1    0    0  501    0  0.00000000000E+00  0.00000000000E+00 -0.21678741862E+04  0.21678741862E+04  0.25500000920E-02 0.  1.
    10030    2    1    2    0    0  0.00000000000E+00  0.00000000000E+00 -0.19488101333E+04  0.23869382390E+04  0.13782645687E+04 0.  0.
        4    1    3    3  502    0 -0.15866753644E+02 -0.67979912505E+02  0.21292308406E+03  0.22407783247E+03  0.12699999809E+01 0. -1.
       -4    1    3    3    0  502  0.15866753644E+02  0.67979912505E+02 -0.21617332174E+04  0.21628604066E+04  0.12699999809E+01 0.  1.
</event>
<event>
 5   0  0.2760807E-03  0.1414332E+04  0.7818609E-02  0.8943509E-01
        2   -1    0    0  501    0  0.00000000000E+00  0.00000000000E+00  0.62629805614E+03  0.62629805615E+03  0.25500000920E-02 0.  1.
       -2   -1    0    0    0  501  0.00000000000E+00  0.00000000000E+00 -0.79847516148E+03  0.79847516149E+03  0.25500000920E-02 0. -1.
    10030    2    1    2    0    0  0.00000000000E+00  0.00000000000E+00 -0.17217710534E+03  0.14247732176E+04  0.14143315616E+04 0.  0.
        4    1    3    3  502    0 -0.43328206623E+03  0.45513734464E+03 -0.41282624431E+03  0.75187131365E+03  0.12699999809E+01 0. -1.
       -4    1    3    3    0  502  0.43328206623E+03 -0.45513734464E+03  0.24064913897E+03  0.67290190399E+03  0.12699999809E+01 0.  1.
</event>
<event>
 5   0  0.1700207E-03  0.1214980E+04  0.7818609E-02  0.9099845E-01
        1   -1    0    0  501    0  0.00000000000E+00  0.00000000000E+00  0.12065853071E+04  0.12065853071E+04  0.50400001928E-02 0. -1.
       -1   -1    0    0    0  501  0.00000000000E+00  0.00000000000E+00 -0.30585806085E+03  0.30585806089E+03  0.50400001928E-02 0.  1.
    10030    2    1    2    0    0  0.00000000000E+00  0.00000000000E+00  0.90072724628E+03  0.15124433680E+04  0.12149795757E+04 0.  0.
        2    1    3    3  502    0  0.60461876423E+03  0.30219768512E+02  0.38729656198E+03  0.71866244607E+03  0.25500000920E-02 0.  1.
       -2    1    3    3    0  502 -0.60461876423E+03 -0.30219768512E+02  0.51343068431E+03  0.79378092196E+03  0.25500000920E-02 0. -1.
</event>
<event>
 5   0  0.2993993E-03  0.1377265E+04  0.7818609E-02  0.8970442E-01
       -2   -1    0    0    0  501  0.00000000000E+00  0.00000000000E+00  0.43374251628E+03  0.43374251629E+03  0.25500000920E-02 0. -1.
        2   -1    0    0  501    0  0.00000000000E+00  0.00000000000E+00 -0.10933087700E+04  0.10933087700E+04  0.25500000920E-02 0.  1.
    10030    2    1    2    0    0  0.00000000000E+00  0.00000000000E+00 -0.65956625374E+03  0.15270512863E+04  0.13772646761E+04 0.  0.
        3    1    3    3  502    0 -0.42319471348E+03 -0.44686842446E+03 -0.67229620385E+03  0.91146439876E+03  0.10100000352E+00 0.  1.
       -3    1    3    3    0  502  0.42319471348E+03  0.44686842446E+03  0.12729950111E+02  0.61558688755E+03  0.10100000352E+00 0. -1.
</event>
<event>
 5   0  0.1644571E-03  0.1382238E+04  0.7818609E-02  0.8966777E-01
       -1   -1    0    0    0  501  0.00000000000E+00  0.00000000000E+00  0.46153119528E+03  0.46153119531E+03  0.50400001928E-02 0.  1.
        1   -1    0    0  501    0  0.00000000000E+00  0.00000000000E+00 -0.10349146759E+04  0.10349146759E+04  0.50400001928E-02 0. -1.
    10030    2    1    2    0    0  0.00000000000E+00  0.00000000000E+00 -0.57338348063E+03  0.14964458712E+04  0.13822379063E+04 0.  0.
        4    1    3    3  502    0 -0.38125556078E+03  0.47771428827E+03 -0.63595725093E+03  0.88204874114E+03  0.12699999809E+01 0. -1.
       -4    1    3    3    0  502  0.38125556078E+03 -0.47771428827E+03  0.62573770292E+02  0.61439713010E+03  0.12699999809E+01 0.  1.
</event>
<event>
 5   0  0.3006737E-03  0.1412329E+04  0.7818609E-02  0.8944942E-01
        2   -1    0    0  501    0  0.00000000000E+00  0.00000000000E+00  0.12843533801E+04  0.12843533801E+04  0.25500000920E-02 0. -1.
       -2   -1    0    0    0  501  0.00000000000E+00  0.00000000000E+00 -0.38826402525E+03  0.38826402526E+03  0.25500000920E-02 0.  1.
    10030    2    1    2    0    0  0.00000000000E+00  0.00000000000E+00  0.89608935489E+03  0.16726174054E+04  0.14123288756E+04 0.  0.
        1    1    3    3  502    0  0.53989382330E+03 -0.24682464781E+03 -0.48781915613E+01  0.59365945118E+03  0.50400001928E-02 0.  1.
       -1    1    3    3    0  502 -0.53989382330E+03  0.24682464781E+03  0.90096754645E+03  0.10789579542E+04  0.50400001928E-02 0. -1.
</event>
<event>
 5   0  0.2917809E-03  0.1374321E+04  0.7818609E-02  0.8972619E-01
        2   -1    0    0  501    0  0.00000000000E+00  0.00000000000E+00  0.16075111707E+04  0.16075111707E+04  0.25500000920E-02 0. -1.
       -2   -1    0    0    0  501  0.00000000000E+00  0.00000000000E+00 -0.29373940189E+03  0.29373940190E+03  0.25500000920E-02 0.  1.
    10030    2    1    2    0    0  0.00000000000E+00  0.00000000000E+00  0.13137717688E+04  0.19012505726E+04  0.13743207338E+04 0.  0.
        2    1    3    3  502    0 -0.23869184170E+03  0.31595017482E+03 -0.12003348636E+03  0.41377088602E+03  0.25500000920E-02 0.  1.
       -2    1    3    3    0  502  0.23869184170E+03 -0.31595017482E+03  0.14338052552E+04  0.14874796866E+04  0.25500000920E-02 0. -1.
</event>
<event>
 5   0  0.1644571E-03  0.1373690E+04  0.7818609E-02  0.8973086E-01
       -1   -1    0    0    0  501  0.00000000000E+00  0.00000000000E+00  0.22748636616E+03  0.22748636622E+03  0.50400001928E-02 0.  1.
        1   -1    0    0  501    0  0.00000000000E+00  0.00000000000E+00 -0.20737785975E+04  0.20737785975E+04  0.50400001928E-02 0. -1.
    10030    2    1    2    0    0  0.00000000000E+00  0.00000000000E+00 -0.18462922314E+04  0.23012649637E+04  0.13736904418E+04 0.  0.
        4    1    3    3  502    0 -0.39203909404E+03 -0.10895928363E+03 -0.18501292002E+04  0.18943459153E+04  0.12699999809E+01 0. -1.
       -4    1    3    3    0  502  0.39203909404E+03  0.10895928363E+03  0.38369687938E+01  0.40691904843E+03  0.12699999809E+01 0.  1.
</event>
<event>
 5   0  0.1700207E-03  0.1405747E+04  0.7818609E-02  0.8949669E-01
        1   -1    0    0  501    0  0.00000000000E+00  0.00000000000E+00  0.11376132150E+04  0.11376132150E+04  0.50400001928E-02 0. -1.
       -1   -1    0    0    0  501  0.00000000000E+00  0.00000000000E+00 -0.43426975771E+03  0.43426975774E+03  0.50400001928E-02 0.  1.
    10030    2    1    2    0    0  0.00000000000E+00  0.00000000000E+00  0.70334345725E+03  0.15718829727E+04  0.14057467983E+04 0.  0.
        2    1    3    3  502    0 -0.31901636275E+03  0.59118910334E+03  0.12046170310E+03  0.68248591013E+03  0.25500000920E-02 0. -1.
       -2    1    3    3    0  502  0.31901636275E+03 -0.59118910334E+03  0.58288175414E+03  0.88939706258E+03  0.25500000920E-02 0.  1.
</event>
<event>
 5   0  0.2760807E-03  0.1422658E+04  0.7818609E-02  0.8937579E-01
       -2   -1    0    0    0  501  0.00000000000E+00  0.00000000000E+00  0.25866414612E+03  0.25866414613E+03  0.25500000920E-02 0. -1.
        2   -1    0    0  501    0  0.00000000000E+00  0.00000000000E+00 -0.19561629018E+04  0.19561629018E+04  0.25500000920E-02 0.  1.
    10030    2    1    2    0    0  0.00000000000E+00  0.00000000000E+00 -0.16974987557E+04  0.22148270480E+04  0.14226583662E+04 0.  0.
        4    1    3    3  502    0 -0.45521393583E+03 -0.52917381358E+03 -0.10618859960E+04  0.12707667504E+04  0.12699999809E+01 0.  1.
       -4    1    3    3    0  502  0.45521393583E+03  0.52917381358E+03 -0.63561275967E+03  0.94406029760E+03  0.12699999809E+01 0. -1.
</event>
<event>
 5   0  0.2760807E-03  0.1395304E+04  0.7818609E-02  0.8957225E-01
        2   -1    0    0  501    0  0.00000000000E+00  0.00000000000E+00  0.13228315597E+04  0.13228315597E+04  0.25500000920E-02 0.  1.
       -2   -1    0    0    0  501  0.00000000000E+00  0.00000000000E+00 -0.36793670216E+03  0.36793670216E+03  0.25500000920E-02 0. -1.
    10030    2    1    2    0    0  0.00000000000E+00  0.00000000000E+00  0.95489485750E+03  0.16907682618E+04  0.13953039548E+04 0.  0.
        4    1    3    3  502    0 -0.49876448112E+03 -0.47853468075E+03  0.36277648142E+03  0.78062144262E+03  0.12699999809E+01 0.  1.
       -4    1    3    3    0  502  0.49876448112E+03  0.47853468075E+03  0.59211837608E+03  0.91014681920E+03  0.12699999809E+01 0. -1.
</event>
<event>
 5   0  0.1644571E-03  0.1333488E+04  0.7818609E-02  0.9003423E-01
       -1   -1    0    0    0  501  0.00000000000E+00  0.00000000000E+00  0.57706862345E+03  0.57706862347E+03  0.50400001928E-02 0.  1.
        1   -1    0    0  501    0  0.00000000000E+00  0.00000000000E+00 -0.77035450916E+03  0.77035450917E+03  0.50400001928E-02 0. -1.
    10030    2    1    2    0    0  0.00000000000E+00  0.00000000000E+00 -0.19328588571E+03  0.13474231326E+04  0.13334877820E+04 0.  0.
        4    1    3    3  502    0  0.66178941946E+03  0.78931433541E+02 -0.11555743842E+03  0.67642482316E+03  0.12699999809E+01 0.  1.
       -4    1    3    3    0  502 -0.66178941946E+03 -0.78931433541E+02 -0.77728447294E+02  0.67099830948E+03  0.12699999809E+01 0. -1.
</event>
<event>
 5   0  0.1700207E-03  0.1360423E+04  0.7818609E-02  0.8982975E-01
        1   -1    0    0  501    0  0.00000000000E+00  0.00000000000E+00  0.86631100054E+03  0.86631100055E+03  0.50400001928E-02 0.  1.
       -1   -1    0    0    0  501  0.00000000000E+00  0.00000000000E+00 -0.53408977883E+03  0.53408977886E+03  0.50400001928E-02 0. -1.
    10030    2    1    2    0    0  0.00000000000E+00  0.00000000000E+00  0.33222122171E+03  0.14004007794E+04  0.13604232440E+04 0.  0.
        2    1    3    3  502    0  0.60983807937E+03  0.28052192846E+03  0.52911762121E+02  0.67334589178E+03  0.25500000920E-02 0.  1.
       -2    1    3    3    0  502 -0.60983807937E+03 -0.28052192846E+03  0.27930945959E+03  0.72705488763E+03  0.25500000920E-02 0. -1.
</event>
<event>
 5   0  0.2889469E-03  0.1427154E+04  0.7818609E-02  0.8934395E-01
        2   -1    0    0  501    0  0.00000000000E+00  0.00000000000E+00  0.71007776193E+03  0.71007776193E+03  0.25500000920E-02 0. -1.
       -2   -1    0    0    0  501  0.00000000000E+00  0.00000000000E+00 -0.71709317970E+03  0.71709317971E+03  0.25500000920E-02 0.  1.
    10030    2    1    2    0    0  0.00000000000E+00  0.00000000000E+00 -0.70154177732E+01  0.14271709416E+04  0.14271536990E+04 0.  0.
        5    1    3    3  502    0  0.46745511345E+03 -0.43419826563E+03  0.31606995142E+03  0.71201455122E+03  0.46999998093E+01 0. -1.
       -5    1    3    3    0  502 -0.46745511345E+03  0.43419826563E+03 -0.32308536919E+03  0.71515639042E+03  0.46999998093E+01 0.  1.
</event>
<event>
 5   0  0.2889469E-03  0.1386662E+04  0.7818609E-02  0.8963530E-01
       -2   -1    0    0    0  501  0.00000000000E+00  0.00000000000E+00  0.77557518672E+03  0.77557518672E+03  0.25500000920E-02 0. -1.
        2   -1    0    0  501    0  0.00000000000E+00  0.00000000000E+00 -0.61980810631E+03  0.61980810632E+03  0.25500000920E-02 0.  1.
    10030    2    1    2    0    0  0.00000000000E+00  0.00000000000E+00  0.15576708041E+03  0.13953832930E+04  0.13866618734E+04 0.  0.
        5    1    3    3  502    0 -0.21386789842E+03 -0.64593270219E+03 -0.56059467717E+02  0.68273954598E+03  0.46999998093E+01 0.  1.
       -5    1    3    3    0  502  0.21386789842E+03  0.64593270219E+03  0.21182654812E+03  0.71264374705E+03  0.46999998093E+01 0. -1.
</event>
<event>
 5   0  0.1560957E-03  0.1360324E+04  0.7818609E-02  0.8983050E-01
       -1   -1    0    0    0  501  0.00000000000E+00  0.00000000000E+00  0.27877234117E+03  0.27877234121E+03  0.50400001928E-02 0.  1.
        1   -1    0    0  501    0  0.00000000000E+00  0.00000000000E+00 -0.16594906387E+04  0.16594906387E+04  0.50400001928E-02 0. -1.
    10030    2    1    2    0    0  0.00000000000E+00  0.00000000000E+00 -0.13807182975E+04  0.19382629799E+04  0.13603236240E+04 0.  0.
        5    1    3    3  502    0  0.58023616834E+03 -0.34346239111E+03 -0.56325467371E+03  0.87858883592E+03  0.46999998093E+01 0. -1.
       -5    1    3    3    0  502 -0.58023616834E+03  0.34346239111E+03 -0.81746362377E+03  0.10596741439E+04  0.46999998093E+01 0.  1.
</event>
<event>
 5   0  0.2917809E-03  0.1401802E+04  0.7818609E-02  0.8952515E-01
       -2   -1    0    0    0  501  0.00000000000E+00  0.00000000000E+00  0.52162119882E+03  0.52162119883E+03  0.25500000920E-02 0.  1.
        2   -1    0    0  501    0  0.00000000000E+00  0.00000000000E+00 -0.94179938119E+03  0.94179938119E+03  0.25500000920E-02 0. -1.
    10030    2    1    2    0    0  0.00000000000E+00  0.00000000000E+00 -0.42017818237E+03  0.14634205800E+04  0.14018024430E+04 0.  0.
        2    1    3    3  502    0 -0.26553788480E+02 -0.67163139429E+03 -0.41748906396E+03  0.79125909285E+03  0.25500000920E-02 0. -1.
       -2    1    3    3    0  502  0.26553788480E+02  0.67163139429E+03 -0.26891184037E+01  0.67216148718E+03  0.25500000920E-02 0.  1.
</event>
<event>
 5   0  0.1644571E-03  0.1370854E+04  0.7818609E-02  0.8975191E-01
       -1   -1    0    0    0  501  0.00000000000E+00  0.00000000000E+00  0.37699782554E+03  0.37699782557E+03  0.50400001928E-02 0.  1.
        1   -1    0    0  501    0  0.00000000000E+00  0.00000000000E+00 -0.12461876036E+04  0.12461876036E+04  0.50400001928E-02 0. -1.
    10030    2    1    2    0    0  0.00000000000E+00  0.00000000000E+00 -0.86918977801E+03  0.16231854291E+04  0.13708537731E+04 0.  0.
        4    1    3    3  502    0 -0.42267383234E+03  0.41937304325E+03 -0.32566439793E+02  0.59631292443E+03  0.12699999809E+01 0.  1.
       -4    1    3    3    0  502  0.42267383234E+03 -0.41937304325E+03 -0.83662333822E+03  0.10268725047E+04  0.12699999809E+01 0. -1.
</event>
<event>
 5   0  0.2993993E-03  0.1592120E+04  0.7818609E-02  0.8825404E-01
       -2   -1    0    0    0  501  0.00000000000E+00  0.00000000000E+00  0.34617308996E+03  0.34617308997E+03  0.25500000920E-02 0. -1.
        2   -1    0    0  501    0  0.00000000000E+00  0.00000000000E+00 -0.18306203895E+04  0.18306203895E+04  0.25500000920E-02 0.  1.
    10030    2    1    2    0    0  0.00000000000E+00  0.00000000000E+00 -0.14844472996E+04  0.21767934795E+04  0.15921199914E+04 0.  0.
        3    1    3    3  502    0  0.53720686671E+03  0.56889538491E+03 -0.54184950242E+03  0.95175315607E+03  0.10100000352E+00 0. -1.
       -3    1    3    3    0  502 -0.53720686671E+03 -0.56889538491E+03 -0.94259779714E+03  0.12250403234E+04  0.10100000352E+00 0.  1.
</event>
<event>
 5   0  0.1104538E-03  0.1322287E+04  0.7818609E-02  0.9012076E-01
        4   -1    0    0  501    0  0.00000000000E+00  0.00000000000E+00  0.70260391312E+03  0.70260506092E+03  0.12699999809E+01 0.  1.
       -4   -1    0    0    0  501  0.00000000000E+00  0.00000000000E+00 -0.62212691927E+03  0.62212821554E+03  0.12699999809E+01 0. -1.
    10030    2    1    2    0    0  0.00000000000E+00  0.00000000000E+00  0.80476993851E+02  0.13247332765E+04  0.13222865451E+04 0.  0.
        2    1    3    3  502    0 -0.62655115658E+03  0.20959602515E+03  0.65054903884E+02  0.66387422460E+03  0.25500000920E-02 0.  1.
       -2    1    3    3    0  502  0.62655115658E+03 -0.20959602515E+03  0.15422089967E+02  0.66085905186E+03  0.25500000920E-02 0. -1.
</event>
<event>
 5   0  0.2917809E-03  0.1396161E+04  0.7818609E-02  0.8956602E-01
        2   -1    0    0  501    0  0.00000000000E+00  0.00000000000E+00  0.12419509370E+04  0.12419509370E+04  0.25500000920E-02 0. -1.
       -2   -1    0    0    0  501  0.00000000000E+00  0.00000000000E+00 -0.39237968418E+03  0.39237968419E+03  0.25500000920E-02 0.  1.
    10030    2    1    2    0    0  0.00000000000E+00  0.00000000000E+00  0.84957125285E+03  0.16343306212E+04  0.13961609025E+04 0.  0.
        2    1    3    3  502    0 -0.61484542865E+03  0.32913889034E+03  0.46084672603E+03  0.83591088949E+03  0.25500000920E-02 0. -1.
       -2    1    3    3    0  502  0.61484542865E+03 -0.32913889034E+03  0.38872452682E+03  0.79841973173E+03  0.25500000920E-02 0.  1.
</event>
<event>
 5   0  0.1631380E-03  0.1370062E+04  0.7818609E-02  0.8975779E-01
       -1   -1    0    0    0  501  0.00000000000E+00  0.00000000000E+00  0.26557966250E+03  0.26557966255E+03  0.50400001928E-02 0.  1.
        1   -1    0    0  501    0  0.00000000000E+00  0.00000000000E+00 -0.17669556749E+04  0.17669556750E+04  0.50400001928E-02 0. -1.
    10030    2    1    2    0    0  0.00000000000E+00  0.00000000000E+00 -0.15013760124E+04  0.20325353375E+04  0.13700620305E+04 0.  0.
        3    1    3    3  502    0 -0.29945521518E+03 -0.90232370454E+02 -0.16548564115E+04  0.16841511391E+04  0.10100000352E+00 0. -1.
       -3    1    3    3    0  502  0.29945521518E+03  0.90232370454E+02  0.15348039905E+03  0.34838419837E+03  0.10100000352E+00 0.  1.
</event>
<event>
 5   0  0.2917809E-03  0.1400637E+04  0.7818609E-02  0.8953358E-01
       -2   -1    0    0    0  501  0.00000000000E+00  0.00000000000E+00  0.63363396800E+03  0.63363396800E+03  0.25500000920E-02 0.  1.
        2   -1    0    0  501    0  0.00000000000E+00  0.00000000000E+00 -0.77402104090E+03  0.77402104090E+03  0.25500000920E-02 0. -1.
    10030    2    1    2    0    0  0.00000000000E+00  0.00000000000E+00 -0.14038707290E+03  0.14076550089E+04  0.14006370314E+04 0.  0.
        2    1    3    3  502    0 -0.68522686459E+03 -0.74935525328E+00 -0.21551961337E+03  0.71832104330E+03  0.25500000920E-02 0. -1.
       -2    1    3    3    0  502  0.68522686459E+03  0.74935525328E+00  0.75132540469E+02  0.68933396561E+03  0.25500000920E-02 0.  1.
</event>
<event>
 5   0  0.1560957E-03  0.1404937E+04  0.7818609E-02  0.8950253E-01
        1   -1    0    0  501    0  0.00000000000E+00  0.00000000000E+00  0.84695580378E+03  0.84695580379E+03  0.50400001928E-02 0. -1.
       -1   -1    0    0    0  501  0.00000000000E+00  0.00000000000E+00 -0.58263009068E+03  0.58263009070E+03  0.50400001928E-02 0.  1.
    10030    2    1    2    0    0  0.00000000000E+00  0.00000000000E+00  0.26432571310E+03  0.14295858945E+04  0.14049369193E+04 0.  0.
        5    1    3    3  502    0 -0.30401333384E+03  0.66128534896E+02 -0.50868242801E+03  0.59630276944E+03  0.46999998093E+01 0.  1.
       -5    1    3    3    0  502  0.30401333384E+03 -0.66128534896E+02  0.77300814111E+03  0.83328312505E+03  0.46999998093E+01 0. -1.
</event>
<event>
 5   0  0.1644571E-03  0.1094190E+04  0.7818609E-02  0.9210873E-01
       -1   -1    0    0    0  501  0.00000000000E+00  0.00000000000E+00  0.32345254314E+03  0.32345254318E+03  0.50400001928E-02 0. -1.
        1   -1    0    0  501    0  0.00000000000E+00  0.00000000000E+00 -0.92536973374E+03  0.92536973376E+03  0.50400001928E-02 0.  1.
    10030    2    1    2    0    0  0.00000000000E+00  0.00000000000E+00 -0.60191719060E+03  0.12488222769E+04  0.10941904656E+04 0.  0.
        4    1    3    3  502    0  0.13932510349E+03  0.41900912836E+03  0.67692327964E+02  0.44672586480E+03  0.12699999809E+01 0. -1.
       -4    1    3    3    0  502 -0.13932510349E+03 -0.41900912836E+03 -0.66960951856E+03  0.80209641214E+03  0.12699999809E+01 0.  1.
</event>
<event>
 5   0  0.2993993E-03  0.1359927E+04  0.7818609E-02  0.8983347E-01
       -2   -1    0    0    0  501  0.00000000000E+00  0.00000000000E+00  0.38615164484E+03  0.38615164485E+03  0.25500000920E-02 0.  1.
        2   -1    0    0  501    0  0.00000000000E+00  0.00000000000E+00 -0.11973284986E+04  0.11973284986E+04  0.25500000920E-02 0. -1.
    10030    2    1    2    0    0  0.00000000000E+00  0.00000000000E+00 -0.81117685377E+03  0.15834801435E+04  0.13599270115E+04 0.  0.
        3    1    3    3  502    0 -0.44532256457E+03  0.30783677371E+03 -0.88465187871E+03  0.10371521694E+04  0.10100000352E+00 0. -1.
       -3    1    3    3    0  502  0.44532256457E+03 -0.30783677371E+03  0.73475024947E+02  0.54632797407E+03  0.10100000352E+00 0.  1.
</event>
<event>
 5   0  0.1631380E-03  0.1405766E+04  0.7818609E-02  0.8949655E-01
        1   -1    0    0  501    0  0.00000000000E+00  0.00000000000E+00  0.10017213706E+04  0.10017213706E+04  0.50400001928E-02 0. -1.
       -1   -1    0    0    0  501  0.00000000000E+00  0.00000000000E+00 -0.49319569504E+03  0.49319569507E+03  0.50400001928E-02 0.  1.
    10030    2    1    2    0    0  0.00000000000E+00  0.00000000000E+00  0.50852567560E+03  0.14949170657E+04  0.14057662219E+04 0.  0.
        3    1    3    3  502    0 -0.30455540170E+02  0.49631243535E+03 -0.27402270862E+03  0.56775173135E+03  0.10100000352E+00 0.  1.
       -3    1    3    3    0  502  0.30455540170E+02 -0.49631243535E+03  0.78254838421E+03  0.92716533436E+03  0.10100000352E+00 0. -1.
</event>
<event>
 5   0  0.1700207E-03  0.1415647E+04  0.7818609E-02  0.8942570E-01
       -1   -1    0    0    0  501  0.00000000000E+00  0.00000000000E+00  0.39486717641E+03  0.39486717644E+03  0.50400001928E-02 0. -1.
        1   -1    0    0  501    0  0.00000000000E+00  0.00000000000E+00 -0.12688159071E+04  0.12688159071E+04  0.50400001928E-02 0.  1.
    10030    2    1    2    0    0  0.00000000000E+00  0.00000000000E+00 -0.87394873064E+03  0.16636830835E+04  0.14156465020E+04 0.  0.
        2    1    3    3  502    0  0.39004022342E+03 -0.22492428772E+03 -0.10788282566E+04  0.11690135663E+04  0.25500000920E-02 0.  1.
       -2    1    3    3    0  502 -0.39004022342E+03  0.22492428772E+03  0.20487952591E+03  0.49466951719E+03  0.25500000920E-02 0. -1.
</event>
<event>
 5   0  0.1700207E-03  0.1225163E+04  0.7818609E-02  0.9091112E-01
        1   -1    0    0  501    0  0.00000000000E+00  0.00000000000E+00  0.96293519409E+03  0.96293519411E+03  0.50400001928E-02 0. -1.
       -1   -1    0    0    0  501  0.00000000000E+00  0.00000000000E+00 -0.38970032087E+03  0.38970032090E+03  0.50400001928E-02 0.  1.
    10030    2    1    2    0    0  0.00000000000E+00  0.00000000000E+00  0.57323487322E+03  0.13526355150E+04  0.12251630980E+04 0.  0.
        2    1    3    3  502    0 -0.41013154716E+03  0.36487591721E+03  0.58677531129E+03  0.80352198904E+03  0.25500000920E-02 0. -1.
       -2    1    3    3    0  502  0.41013154716E+03 -0.36487591721E+03 -0.13540438067E+02  0.54911352597E+03  0.25500000920E-02 0.  1.
</event>
<event>
 5   0  0.2760807E-03  0.1342882E+04  0.7818609E-02  0.8996234E-01
        2   -1    0    0  501    0  0.00000000000E+00  0.00000000000E+00  0.47013140032E+03  0.47013140033E+03  0.25500000920E-02 0. -1.
       -2   -1    0    0    0  501  0.00000000000E+00  0.00000000000E+00 -0.95895161452E+03  0.95895161452E+03  0.25500000920E-02 0.  1.
    10030    2    1    2    0    0  0.00000000000E+00  0.00000000000E+00 -0.48882021420E+03  0.14290830148E+04  0.13428823707E+04 0.  0.
        4    1    3    3  502    0  0.56443703873E+03  0.30609284988E+03 -0.45335400836E+03  0.78601111521E+03  0.12699999809E+01 0.  1.
       -4    1    3    3    0  502 -0.56443703873E+03 -0.30609284988E+03 -0.35466205838E+02  0.64307189964E+03  0.12699999809E+01 0. -1.
</event>
<event>
 5   0  0.1586022E-03  0.1380724E+04  0.7818609E-02  0.8967891E-01
       -1   -1    0    0    0  501  0.00000000000E+00  0.00000000000E+00  0.40411101231E+03  0.40411101234E+03  0.50400001928E-02 0. -1.
        1   -1    0    0  501    0  0.00000000000E+00  0.00000000000E+00 -0.11793788992E+04  0.11793788992E+04  0.50400001928E-02 0.  1.
    10030    2    1    2    0    0  0.00000000000E+00  0.00000000000E+00 -0.77526788693E+03  0.15834899116E+04  0.13807244488E+04 0.  0.
        1    1    3    3  502    0 -0.43050867371E+03 -0.53936488849E+03 -0.40902207980E+03  0.80221646883E+03  0.50400001928E-02 0. -1.
       -1    1    3    3    0  502  0.43050867371E+03  0.53936488849E+03 -0.36624580712E+03  0.78127344275E+03  0.50400001928E-02 0.  1.
</event>
<event>
 5   0  0.1586022E-03  0.1375402E+04  0.7818609E-02  0.8971819E-01
        1   -1    0    0  501    0  0.00000000000E+00  0.00000000000E+00  0.79111675807E+03  0.79111675809E+03  0.50400001928E-02 0. -1.
       -1   -1    0    0    0  501  0.00000000000E+00  0.00000000000E+00 -0.59780377603E+03  0.59780377605E+03  0.50400001928E-02 0.  1.
    10030    2    1    2    0    0  0.00000000000E+00  0.00000000000E+00  0.19331298204E+03  0.13889205341E+04  0.13754018835E+04 0.  0.
        1    1    3    3  502    0  0.55069477480E+03 -0.22676546728E+03 -0.25059144920E+03  0.64612954319E+03  0.50400001928E-02 0.  1.
       -1    1    3    3    0  502 -0.55069477480E+03  0.22676546728E+03  0.44390443124E+03  0.74279099095E+03  0.50400001928E-02 0. -1.
</event>
<event>
 5   0  0.2889469E-03  0.1378731E+04  0.7818609E-02  0.8969359E-01
        2   -1    0    0  501    0  0.00000000000E+00  0.00000000000E+00  0.10402192683E+04  0.10402192683E+04  0.25500000920E-02 0. -1.
       -2   -1    0    0    0  501  0.00000000000E+00  0.00000000000E+00 -0.45685084966E+03  0.45685084967E+03  0.25500000920E-02 0.  1.
    10030    2    1    2    0    0  0.00000000000E+00  0.00000000000E+00  0.58336841864E+03  0.14970701180E+04  0.13787313829E+04 0.  0.
        5    1    3    3  502    0  0.16429895280E+03  0.34973407001E+03  0.91155513007E+03  0.99008227475E+03  0.46999998093E+01 0. -1.
       -5    1    3    3    0  502 -0.16429895280E+03 -0.34973407001E+03 -0.32818671143E+03  0.50698784322E+03  0.46999998093E+01 0.  1.
</event>
<event>
 5   0  0.3006737E-03  0.1409482E+04  0.7818609E-02  0.8946983E-01
       -2   -1    0    0    0  501  0.00000000000E+00  0.00000000000E+00  0.21000567425E+03  0.21000567427E+03  0.25500000920E-02 0.  1.
        2   -1    0    0  501    0  0.00000000000E+00  0.00000000000E+00 -0.23649840338E+04  0.23649840338E+04  0.25500000920E-02 0. -1.
    10030    2    1    2    0    0  0.00000000000E+00  0.00000000000E+00 -0.21549783596E+04  0.25749897081E+04  0.14094822690E+04 0.  0.
        1    1    3    3  502    0 -0.20827061829E+03 -0.52822563421E+03 -0.31485528964E+03  0.64925559259E+03  0.50400001928E-02 0.  1.
       -1    1    3    3    0  502  0.20827061829E+03  0.52822563421E+03 -0.18401230699E+04  0.19257341155E+04  0.50400001928E-02 0. -1.
</event>
<event>
 5   0  0.3006737E-03  0.1400601E+04  0.7818609E-02  0.8953383E-01
        2   -1    0    0  501    0  0.00000000000E+00  0.00000000000E+00  0.11319046251E+04  0.11319046251E+04  0.25500000920E-02 0.  1.
       -2   -1    0    0    0  501  0.00000000000E+00  0.00000000000E+00 -0.43327067852E+03  0.43327067852E+03  0.25500000920E-02 0. -1.
    10030    2    1    2    0    0  0.00000000000E+00  0.00000000000E+00  0.69863394659E+03  0.15651753036E+04  0.14006014207E+04 0.  0.
        1    1    3    3  502    0 -0.42018795498E+03  0.42583257800E+03  0.75613966360E+03  0.96417762518E+03  0.50400001928E-02 0.  1.
       -1    1    3    3    0  502  0.42018795498E+03 -0.42583257800E+03 -0.57505717008E+02  0.60099767846E+03  0.50400001928E-02 0. -1.
</event>
<event>
 5   0  0.1631380E-03  0.1421350E+04  0.7818609E-02  0.8938508E-01
        1   -1    0    0  501    0  0.00000000000E+00  0.00000000000E+00  0.94163154669E+03  0.94163154670E+03  0.50400001928E-02 0.  1.
       -1   -1    0    0    0  501  0.00000000000E+00  0.00000000000E+00 -0.53636569564E+03  0.53636569567E+03  0.50400001928E-02 0. -1.
    10030    2    1    2    0    0  0.00000000000E+00  0.00000000000E+00  0.40526585104E+03  0.14779972424E+04  0.14213498649E+04 0.  0.
        3    1    3    3  502    0  0.19616493388E+03 -0.83525204580E+02  0.90759125825E+03  0.93229772248E+03  0.10100000352E+00 0.  1.
       -3    1    3    3    0  502 -0.19616493388E+03  0.83525204580E+02 -0.50232540720E+03  0.54569951989E+03  0.10100000352E+00 0. -1.
</event>
<event>
 5   0  0.2889469E-03  0.1446423E+04  0.7818609E-02  0.8920884E-01
       -2   -1    0    0    0  501  0.00000000000E+00  0.00000000000E+00  0.65036853727E+03  0.65036853727E+03  0.25500000920E-02 0. -1.
        2   -1    0    0  501    0  0.00000000000E+00  0.00000000000E+00 -0.80421355115E+03  0.80421355116E+03  0.25500000920E-02 0.  1.
    10030    2    1    2    0    0  0.00000000000E+00  0.00000000000E+00 -0.15384501389E+03  0.14545820884E+04  0.14464234386E+04 0.  0.
        5    1    3    3  502    0 -0.12912149115E+03  0.62172400874E+03 -0.42499619175E+03  0.76410533012E+03  0.46999998093E+01 0.  1.
       -5    1    3    3    0  502  0.12912149115E+03 -0.62172400874E+03  0.27115117786E+03  0.69047675831E+03  0.46999998093E+01 0. -1.
</event>
<event>
 5   0  0.2917809E-03  0.1371924E+04  0.7818609E-02  0.8974396E-01
        2   -1    0    0  501    0  0.00000000000E+00  0.00000000000E+00  0.20717674819E+04  0.20717674819E+04  0.25500000920E-02 0. -1.
       -2   -1    0    0    0  501  0.00000000000E+00  0.00000000000E+00 -0.22712192928E+03  0.22712192930E+03  0.25500000920E-02 0.  1.
    10030    2    1    2    0    0  0.00000000000E+00  0.00000000000E+00  0.18446455526E+04  0.22988894112E+04  0.13719239447E+04 0.  0.
        2    1    3    3  502    0  0.67504380186E+03 -0.12185973714E+03  0.92759449604E+03  0.11536747718E+04  0.25500000920E-02 0.  1.
       -2    1    3    3    0  502 -0.67504380186E+03  0.12185973714E+03  0.91705105660E+03  0.11452146394E+04  0.25500000920E-02 0. -1.
</event>
<event>
 5   0  0.1560957E-03  0.1200866E+04  0.7818609E-02  0.9112099E-01
       -1   -1    0    0    0  501  0.00000000000E+00  0.00000000000E+00  0.67966147572E+03  0.67966147573E+03  0.50400001928E-02 0.  1.
        1   -1    0    0  501    0  0.00000000000E+00  0.00000000000E+00 -0.53043983565E+03  0.53043983567E+03  0.50400001928E-02 0. -1.
    10030    2    1    2    0    0  0.00000000000E+00  0.00000000000E+00  0.14922164007E+03  0.12101013114E+04  0.12008655570E+04 0.  0.
        5    1    3    3  502    0 -0.52588049269E+03  0.24069678504E+03  0.23713420409E+03  0.62509195777E+03  0.46999998093E+01 0.  1.
       -5    1    3    3    0  502  0.52588049269E+03 -0.24069678504E+03 -0.87912564027E+02  0.58500935363E+03  0.46999998093E+01 0. -1.
</event>
<event>
 5   0  0.3006737E-03  0.1123090E+04  0.7818609E-02  0.9182975E-01
        2   -1    0    0  501    0  0.00000000000E+00  0.00000000000E+00  0.80004998798E+03  0.80004998798E+03  0.25500000920E-02 0.  1.
       -2   -1    0    0    0  501  0.00000000000E+00  0.00000000000E+00 -0.39414116943E+03  0.39414116944E+03  0.25500000920E-02 0. -1.
    10030    2    1    2    0    0  0.00000000000E+00  0.00000000000E+00  0.40590881854E+03  0.11941911574E+04  0.11230897344E+04 0.  0.
        1    1    3    3  502    0 -0.18620765093E+03 -0.49944631644E+03  0.39081048271E+03  0.66094836840E+03  0.50400001928E-02 0.  1.
       -1    1    3    3    0  502  0.18620765093E+03  0.49944631644E+03  0.15098335836E+02  0.53324278902E+03  0.50400001928E-02 0. -1.
</event>
<event>
 5   0  0.2760807E-03  0.1418910E+04  0.7818609E-02  0.8940243E-01
        2   -1    0    0  501    0  0.00000000000E+00  0.00000000000E+00  0.11405119595E+04  0.11405119595E+04  0.25500000920E-02 0.  1.
       -2   -1    0    0    0  501  0.00000000000E+00  0.00000000000E+00 -0.44131613357E+03  0.44131613358E+03  0.25500000920E-02 0. -1.
    10030    2    1    2    0    0  0.00000000000E+00  0.00000000000E+00  0.69919582589E+03  0.15818280930E+04  0.14189099031E+04 0.  0.
        4    1    3    3  502    0 -0.60891880485E+03 -0.35705116062E+03  0.27031965795E+03  0.75587166409E+03  0.12699999809E+01 0. -1.
       -4    1    3    3    0  502  0.60891880485E+03  0.35705116062E+03  0.42887616794E+03  0.82595642895E+03  0.12699999809E+01 0.  1.
</event>
<event>
 5   0  0.3006737E-03  0.1376536E+04  0.7818609E-02  0.8970981E-01
        2   -1    0    0  501    0  0.00000000000E+00  0.00000000000E+00  0.17224474978E+04  0.17224474978E+04  0.25500000920E-02 0.  1.
       -2   -1    0    0    0  501  0.00000000000E+00  0.00000000000E+00 -0.27502295141E+03  0.27502295142E+03  0.25500000920E-02 0. -1.
    10030    2    1    2    0    0  0.00000000000E+00  0.00000000000E+00  0.14474245464E+04  0.19974704492E+04  0.13765356436E+04 0.  0.
        1    1    3    3  502    0 -0.21835889726E+03 -0.26897518954E+03 -0.13926789099E+03  0.37339497331E+03  0.50400001928E-02 0. -1.
       -1    1    3    3    0  502  0.21835889726E+03  0.26897518954E+03  0.15866924374E+04  0.16240754759E+04  0.50400001928E-02 0.  1.
</event>
<event>
 5   0  0.2917809E-03  0.1442914E+04  0.7818609E-02  0.8923328E-01
       -2   -1    0    0    0  501  0.00000000000E+00  0.00000000000E+00  0.94951243695E+03  0.94951243696E+03  0.25500000920E-02 0.  1.
        2   -1    0    0  501    0  0.00000000000E+00  0.00000000000E+00 -0.54817597564E+03  0.54817597564E+03  0.25500000920E-02 0. -1.
    10030    2    1    2    0    0  0.00000000000E+00  0.00000000000E+00  0.40133646131E+03  0.14976884126E+04  0.14429135893E+04 0.  0.
        2    1    3    3  502    0 -0.53151194206E+03  0.17593648887E+03  0.67295921314E+03  0.87540430387E+03  0.25500000920E-02 0.  1.
       -2    1    3    3    0  502  0.53151194206E+03 -0.17593648887E+03 -0.27162275183E+03  0.62228410873E+03  0.25500000920E-02 0. -1.
</event>
<event>
 5   0  0.1700207E-03  0.1415180E+04  0.7818609E-02  0.8942903E-01
       -1   -1    0    0    0  501  0.00000000000E+00  0.00000000000E+00  0.58115356456E+03  0.58115356458E+03  0.50400001928E-02 0. -1.
        1   -1    0    0  501    0  0.00000000000E+00  0.00000000000E+00 -0.86153435872E+03  0.86153435874E+03  0.50400001928E-02 0.  1.
    10030    2    1    2    0    0  0.00000000000E+00  0.00000000000E+00 -0.28038079416E+03  0.14426879233E+04  0.14151802197E+04 0.  0.
        2    1    3    3  502    0  0.56379772210E+02 -0.62309664847E+03 -0.47715369670E+03  0.78683147010E+03  0.25500000920E-02 0.  1.
       -2    1    3    3    0  502 -0.56379772210E+02  0.62309664847E+03  0.19677290254E+03  0.65585645322E+03  0.25500000920E-02 0. -1.
</event>
<event>
 5   0  0.1700207E-03  0.1303281E+04  0.7818609E-02  0.9026968E-01
        1   -1    0    0  501    0  0.00000000000E+00  0.00000000000E+00  0.10506400357E+04  0.10506400357E+04  0.50400001928E-02 0.  1.
       -1   -1    0    0    0  501  0.00000000000E+00  0.00000000000E+00 -0.40416799385E+03  0.40416799388E+03  0.50400001928E-02 0. -1.
    10030    2    1    2    0    0  0.00000000000E+00  0.00000000000E+00  0.64647204184E+03  0.14548080296E+04  0.13032805922E+04 0.  0.
        2    1    3    3  502    0  0.34967589812E+03  0.33077324687E+03 -0.16709702875E+03  0.50951505531E+03  0.25500000920E-02 0. -1.
       -2    1    3    3    0  502 -0.34967589812E+03 -0.33077324687E+03  0.81356907059E+03  0.94529297426E+03  0.25500000920E-02 0.  1.
</event>
<event>
 5   0  0.3006737E-03  0.1444508E+04  0.7818609E-02  0.8922217E-01
       -2   -1    0    0    0  501  0.00000000000E+00  0.00000000000E+00  0.66274215942E+03  0.66274215942E+03  0.25500000920E-02 0.  1.
        2   -1    0    0  501    0  0.00000000000E+00  0.00000000000E+00 -0.78710926168E+03  0.78710926168E+03  0.25500000920E-02 0. -1.
    10030    2    1    2    0    0  0.00000000000E+00  0.00000000000E+00 -0.12436710226E+03  0.14498514211E+04  0.14445075172E+04 0.  0.
        1    1    3    3  502    0  0.44414453771E+03  0.24826499299E+03 -0.57667192192E+03  0.76905811398E+03  0.50400001928E-02 0. -1.
       -1    1    3    3    0  502 -0.44414453771E+03 -0.24826499299E+03  0.45230481966E+03  0.68079330713E+03  0.50400001928E-02 0.  1.
</event>
<event>
 5   0  0.1586022E-03  0.1496491E+04  0.7818609E-02  0.8886790E-01
       -1   -1    0    0    0  501  0.00000000000E+00  0.00000000000E+00  0.47422083730E+03  0.47422083733E+03  0.50400001928E-02 0.  1.
        1   -1    0    0  501    0  0.00000000000E+00  0.00000000000E+00 -0.11806126836E+04  0.11806126836E+04  0.50400001928E-02 0. -1.
    10030    2    1    2    0    0  0.00000000000E+00  0.00000000000E+00 -0.70639184628E+03  0.16548335209E+04  0.14964907422E+04 0.  0.
        1    1    3    3  502    0  0.27265438916E+03 -0.47680150713E+03 -0.91508535046E+03  0.10672681443E+04  0.50400001928E-02 0. -1.
       -1    1    3    3    0  502 -0.27265438916E+03  0.47680150713E+03  0.20869350417E+03  0.58756537665E+03  0.50400001928E-02 0.  1.
</event>
<event>
 5   0  0.1560957E-03  0.1431059E+04  0.7818609E-02  0.8931638E-01
        1   -1    0    0  501    0  0.00000000000E+00  0.00000000000E+00  0.27265590681E+04  0.27265590681E+04  0.50400001928E-02 0.  1.
       -1   -1    0    0    0  501  0.00000000000E+00  0.00000000000E+00 -0.18777616778E+03  0.18777616785E+03  0.50400001928E-02 0. -1.
    10030    2    1    2    0    0  0.00000000000E+00  0.00000000000E+00  0.25387829004E+04  0.29143352360E+04  0.14310594860E+04 0.  0.
        5    1    3    3  502    0 -0.20483651452E+03 -0.60929381090E+03  0.19093924707E+04  0.20146956700E+04  0.46999998093E+01 0.  1.
       -5    1    3    3    0  502  0.20483651452E+03  0.60929381090E+03  0.62939042966E+03  0.89963956596E+03  0.46999998093E+01 0. -1.
</event>
<event>
 5   0  0.3006737E-03  0.1422656E+04  0.7818609E-02  0.8937580E-01
        2   -1    0    0  501    0  0.00000000000E+00  0.00000000000E+00  0.98933868796E+03  0.98933868797E+03  0.25500000920E-02 0. -1.
       -2   -1    0    0    0  501  0.00000000000E+00  0.00000000000E+00 -0.51144035335E+03  0.51144035336E+03  0.25500000920E-02 0.  1.
    10030    2    1    2    0    0  0.00000000000E+00  0.00000000000E+00  0.47789833461E+03  0.15007790413E+04  0.14226562876E+04 0.  0.
        1    1    3    3  502    0  0.40314062018E+03 -0.47874195981E+03 -0.11765444730E+03  0.63683498076E+03  0.50400001928E-02 0.  1.
       -1    1    3    3    0  502 -0.40314062018E+03  0.47874195981E+03  0.59555278191E+03  0.86394406057E+03  0.50400001928E-02 0. -1.
</event>
<event>
 5   0  0.1644571E-03  0.1406346E+04  0.7818609E-02  0.8949238E-01
       -1   -1    0    0    0  501  0.00000000000E+00  0.00000000000E+00  0.11404871326E+04  0.11404871326E+04  0.50400001928E-02 0.  1.
        1   -1    0    0  501    0  0.00000000000E+00  0.00000000000E+00 -0.43354482833E+03  0.43354482836E+03  0.50400001928E-02 0. -1.
    10030    2    1    2    0    0  0.00000000000E+00  0.00000000000E+00  0.70694230423E+03  0.15740319609E+04  0.14063460429E+04 0.  0.
        4    1    3    3  502    0 -0.85743901728E+02  0.11142514461E+03 -0.41765110515E+03  0.44068314929E+03  0.12699999809E+01 0. -1.
       -4    1    3    3    0  502  0.85743901728E+02 -0.11142514461E+03  0.11245934094E+04  0.11333488116E+04  0.12699999809E+01 0.  1.
</event>
<event>
 5   0  0.2917809E-03  0.1414749E+04  0.7818609E-02  0.8943211E-01
       -2   -1    0    0    0  501  0.00000000000E+00  0.00000000000E+00  0.24865558982E+03  0.24865558983E+03  0.25500000920E-02 0. -1.
        2   -1    0    0  501    0  0.00000000000E+00  0.00000000000E+00 -0.20123353333E+04  0.20123353333E+04  0.25500000920E-02 0.  1.
    10030    2    1    2    0    0  0.00000000000E+00  0.00000000000E+00 -0.17636797435E+04  0.22609909231E+04  0.14147486409E+04 0.  0.
        2    1    3    3  502    0 -0.32798955089E+03 -0.38387699549E+03 -0.16735969800E+04  0.17481034136E+04  0.25500000920E-02 0.  1.
       -2    1    3    3    0  502  0.32798955089E+03  0.38387699549E+03 -0.90082763483E+02  0.51288750954E+03  0.25500000920E-02 0. -1.
</event>
<event>
 5   0  0.1644571E-03  0.1406351E+04  0.7818609E-02  0.8949234E-01
        1   -1    0    0  501    0  0.00000000000E+00  0.00000000000E+00  0.28847128866E+03  0.28847128870E+03  0.50400001928E-02 0. -1.
       -1   -1    0    0    0  501  0.00000000000E+00  0.00000000000E+00 -0.17140556909E+04  0.17140556909E+04  0.50400001928E-02 0.  1.
    10030    2    1    2    0    0  0.00000000000E+00  0.00000000000E+00 -0.14255844022E+04  0.20025269796E+04  0.14063510999E+04 0.  0.
        4    1    3    3  502    0 -0.34104526470E+03 -0.21658566967E+03  0.10671246074E+03  0.41786407725E+03  0.12699999809E+01 0. -1.
       -4    1    3    3    0  502  0.34104526470E+03  0.21658566967E+03 -0.15322968630E+04  0.15846629023E+04  0.12699999809E+01 0.  1.
</event>
<event>
 5   0  0.1586022E-03  0.1364136E+04  0.7818609E-02  0.8980196E-01
       -1   -1    0    0    0  501  0.00000000000E+00  0.00000000000E+00  0.19064197116E+04  0.19064197116E+04  0.50400001928E-02 0.  1.
        1   -1    0    0  501    0  0.00000000000E+00  0.00000000000E+00 -0.24402641651E+03  0.24402641656E+03  0.50400001928E-02 0. -1.
    10030    2    1    2    0    0  0.00000000000E+00  0.00000000000E+00  0.16623932951E+04  0.21504461282E+04  0.13641360206E+04 0.  0.
        1    1    3    3  502    0  0.12705081916E+02  0.49966152349E+03  0.15628197359E+04  0.16408012019E+04  0.50400001928E-02 0.  1.
       -1    1    3    3    0  502 -0.12705081916E+02 -0.49966152349E+03  0.99573559174E+02  0.50964492627E+03  0.50400001928E-02 0. -1.
</event>
<event>
 5   0  0.2889469E-03  0.1394781E+04  0.7818609E-02  0.8957605E-01
       -2   -1    0    0    0  501  0.00000000000E+00  0.00000000000E+00  0.23997595102E+03  0.23997595103E+03  0.25500000920E-02 0.  1.
        2   -1    0    0  501    0  0.00000000000E+00  0.00000000000E+00 -0.20266765252E+04  0.20266765252E+04  0.25500000920E-02 0. -1.
    10030    2    1    2    0    0  0.00000000000E+00  0.00000000000E+00 -0.17867005742E+04  0.22666524762E+04  0.13947811679E+04 0.  0.
        5    1    3    3  502    0 -0.40276163436E+03  0.16065799961E+03 -0.17809315353E+04  0.18329667620E+04  0.46999998093E+01 0. -1.
       -5    1    3    3    0  502  0.40276163436E+03 -0.16065799961E+03 -0.57690388555E+01  0.43368571426E+03  0.46999998093E+01 0.  1.
</event>
<event>
 5   0  0.1631380E-03  0.1391346E+04  0.7818609E-02  0.8960107E-01
       -1   -1    0    0    0  501  0.00000000000E+00  0.00000000000E+00  0.42927046360E+03  0.42927046363E+03  0.50400001928E-02 0.  1.
        1   -1    0    0  501    0  0.00000000000E+00  0.00000000000E+00 -0.11274033352E+04  0.11274033352E+04  0.50400001928E-02 0. -1.
    10030    2    1    2    0    0  0.00000000000E+00  0.00000000000E+00 -0.69813287158E+03  0.15566737988E+04  0.13913460424E+04 0.  0.
        3    1    3    3  502    0 -0.45360664632E+03  0.35118215298E+03  0.91235283700E+02  0.58087157044E+03  0.10100000352E+00 0.  1.
       -3    1    3    3    0  502  0.45360664632E+03 -0.35118215298E+03 -0.78936815528E+03  0.97580222839E+03  0.10100000352E+00 0. -1.
</event>
<event>
 5   0  0.1631380E-03  0.1393323E+04  0.7818609E-02  0.8958666E-01
       -1   -1    0    0    0  501  0.00000000000E+00  0.00000000000E+00  0.13709988657E+04  0.13709988657E+04  0.50400001928E-02 0. -1.
        1   -1    0    0  501    0  0.00000000000E+00  0.00000000000E+00 -0.35400240748E+03  0.35400240752E+03  0.50400001928E-02 0.  1.
    10030    2    1    2    0    0  0.00000000000E+00  0.00000000000E+00  0.10169964582E+04  0.17250012732E+04  0.13933225027E+04 0.  0.
        3    1    3    3  502    0  0.32719202147E+01  0.67556797474E+03  0.29790581640E+03  0.73834319906E+03  0.10100000352E+00 0.  1.
       -3    1    3    3    0  502 -0.32719202147E+01 -0.67556797474E+03  0.71909064177E+03  0.98665807413E+03  0.10100000352E+00 0. -1.
</event>
<event>
 5   0  0.2917809E-03  0.1394350E+04  0.7818609E-02  0.8957918E-01
       -2   -1    0    0    0  501  0.00000000000E+00  0.00000000000E+00  0.66443675868E+03  0.66443675869E+03  0.25500000920E-02 0.  1.
        2   -1    0    0  501    0  0.00000000000E+00  0.00000000000E+00 -0.73152671259E+03  0.73152671259E+03  0.25500000920E-02 0. -1.
    10030    2    1    2    0    0  0.00000000000E+00  0.00000000000E+00 -0.67089953909E+02  0.13959634713E+04  0.13943503689E+04 0.  0.
        2    1    3    3  502    0 -0.14451356213E+03  0.24975822797E+03  0.60184655401E+03  0.66744484166E+03  0.25500000920E-02 0.  1.
       -2    1    3    3    0  502  0.14451356213E+03 -0.24975822797E+03 -0.66893650792E+03  0.72851862962E+03  0.25500000920E-02 0. -1.
</event>
<event>
 5   0  0.2760807E-03  0.1393341E+04  0.7818609E-02  0.8958653E-01
        2   -1    0    0  501    0  0.00000000000E+00  0.00000000000E+00  0.95136418815E+03  0.95136418815E+03  0.25500000920E-02 0. -1.
       -2   -1    0    0    0  501  0.00000000000E+00  0.00000000000E+00 -0.51016180288E+03  0.51016180288E+03  0.25500000920E-02 0.  1.
    10030    2    1    2    0    0  0.00000000000E+00  0.00000000000E+00  0.44120238528E+03  0.14615259910E+04  0.13933408333E+04 0.  0.
        4    1    3    3  502    0  0.13308282136E+03  0.28716775934E+03  0.87159425737E+03  0.92728340961E+03  0.12699999809E+01 0. -1.
       -4    1    3    3    0  502 -0.13308282136E+03 -0.28716775934E+03 -0.43039187210E+03  0.53424258143E+03  0.12699999809E+01 0.  1.
</event>
<event>
 5   0  0.1631380E-03  0.1415951E+04  0.7818609E-02  0.8942353E-01
        1   -1    0    0  501    0  0.00000000000E+00  0.00000000000E+00  0.45165075422E+03  0.45165075425E+03  0.50400001928E-02 0.  1.
       -1   -1    0    0    0  501  0.00000000000E+00  0.00000000000E+00 -0.11097722292E+04  0.11097722292E+04  0.50400001928E-02 0. -1.
    10030    2    1    2    0    0  0.00000000000E+00  0.00000000000E+00 -0.65812147501E+03  0.15614229835E+04  0.14159512200E+04 0.  0.
        3    1    3    3  502    0  0.26953205884E+03  0.52479398015E+03 -0.76064308308E+03  0.96261838876E+03  0.10100000352E+00 0. -1.
       -3    1    3    3    0  502 -0.26953205884E+03 -0.52479398015E+03  0.10252160807E+03  0.59880459473E+03  0.10100000352E+00 0.  1.
</event>
<event>
 5   0  0.2917809E-03  0.1412483E+04  0.7818609E-02  0.8944832E-01
       -2   -1    0    0    0  501  0.00000000000E+00  0.00000000000E+00  0.96658466561E+03  0.96658466561E+03  0.25500000920E-02 0. -1.
        2   -1    0    0  501    0  0.00000000000E+00  0.00000000000E+00 -0.51601989800E+03  0.51601989801E+03  0.25500000920E-02 0.  1.
    10030    2    1    2    0    0  0.00000000000E+00  0.00000000000E+00  0.45056476761E+03  0.14826045636E+04  0.14124828078E+04 0.  0.
        2    1    3    3  502    0  0.33613697581E+03  0.16236437388E+03 -0.40400251255E+03  0.55006207519E+03  0.25500000920E-02 0.  1.
       -2    1    3    3    0  502 -0.33613697581E+03 -0.16236437388E+03  0.85456728015E+03  0.93254248843E+03  0.25500000920E-02 0. -1.
</event>
<event>
 5   0  0.2760807E-03  0.1369728E+04  0.7818609E-02  0.8976027E-01
        2   -1    0    0  501    0  0.00000000000E+00  0.00000000000E+00  0.41243634903E+03  0.41243634903E+03  0.25500000920E-02 0.  1.
       -2   -1    0    0    0  501  0.00000000000E+00  0.00000000000E+00 -0.11372384900E+04  0.11372384900E+04  0.25500000920E-02 0. -1.
    10030    2    1    2    0    0  0.00000000000E+00  0.00000000000E+00 -0.72480214097E+03  0.15496748390E+04  0.13697276967E+04 0.  0.
        4    1    3    3  502    0  0.78911387276E+02 -0.29888086187E+03  0.32901596890E+03  0.45145309538E+03  0.12699999809E+01 0.  1.
       -4    1    3    3    0  502 -0.78911387276E+02  0.29888086187E+03 -0.10538181099E+04  0.10982217437E+04  0.12699999809E+01 0. -1.
</event>
<event>
 5   0  0.2993993E-03  0.9161511E+03  0.7818609E-02  0.9405614E-01
       -2   -1    0    0    0  501  0.00000000000E+00  0.00000000000E+00  0.27279309633E+03  0.27279309634E+03  0.25500000920E-02 0.  1.
        2   -1    0    0  501    0  0.00000000000E+00  0.00000000000E+00 -0.76920286704E+03  0.76920286704E+03  0.25500000920E-02 0. -1.
    10030    2    1    2    0    0  0.00000000000E+00  0.00000000000E+00 -0.49640977071E+03  0.10419959634E+04  0.91615114870E+03 0.  0.
        3    1    3    3  502    0  0.27887144923E+03  0.21515052128E+03 -0.58130686816E+03  0.67968869137E+03  0.10100000352E+00 0. -1.
       -3    1    3    3    0  502 -0.27887144923E+03 -0.21515052128E+03  0.84897097448E+02  0.36230727202E+03  0.10100000352E+00 0.  1.
</event>
<event>
 5   0  0.1631380E-03  0.1370605E+04  0.7818609E-02  0.8975375E-01
       -1   -1    0    0    0  501  0.00000000000E+00  0.00000000000E+00  0.32340747010E+03  0.32340747014E+03  0.50400001928E-02 0.  1.
        1   -1    0    0  501    0  0.00000000000E+00  0.00000000000E+00 -0.14521605244E+04  0.14521605245E+04  0.50400001928E-02 0. -1.
    10030    2    1    2    0    0  0.00000000000E+00  0.00000000000E+00 -0.11287530543E+04  0.17755679946E+04  0.13706050656E+04 0.  0.
        3    1    3    3  502    0 -0.46037648334E+02 -0.38265437174E+03  0.16970151312E+03  0.42112046617E+03  0.10100000352E+00 0.  1.
       -3    1    3    3    0  502  0.46037648334E+02  0.38265437174E+03 -0.12984545675E+04  0.13544475284E+04  0.10100000352E+00 0. -1.
</event>
<event>
 5   0  0.2917809E-03  0.1393428E+04  0.7818609E-02  0.8958589E-01
       -2   -1    0    0    0  501  0.00000000000E+00  0.00000000000E+00  0.67057353646E+03  0.67057353646E+03  0.25500000920E-02 0.  1.
        2   -1    0    0  501    0  0.00000000000E+00  0.00000000000E+00 -0.72387391541E+03  0.72387391542E+03  0.25500000920E-02 0. -1.
    10030    2    1    2    0    0  0.00000000000E+00  0.00000000000E+00 -0.53300378952E+02  0.13944474519E+04  0.13934284214E+04 0.  0.
        2    1    3    3  502    0  0.19804961767E+02 -0.12665864620E+03  0.65866888099E+03  0.67102857164E+03  0.25500000920E-02 0.  1.
       -2    1    3    3    0  502 -0.19804961767E+02  0.12665864620E+03 -0.71196925994E+03  0.72341888024E+03  0.25500000920E-02 0. -1.
</event>
<event>
 5   0  0.1560957E-03  0.1377430E+04  0.7818609E-02  0.8970320E-01
       -1   -1    0    0    0  501  0.00000000000E+00  0.00000000000E+00  0.82924903945E+03  0.82924903946E+03  0.50400001928E-02 0.  1.
        1   -1    0    0  501    0  0.00000000000E+00  0.00000000000E+00 -0.57199772771E+03  0.57199772773E+03  0.50400001928E-02 0. -1.
    10030    2    1    2    0    0  0.00000000000E+00  0.00000000000E+00  0.25725131174E+03  0.14012467672E+04  0.13774303123E+04 0.  0.
        5    1    3    3  502    0 -0.40674728102E+03  0.13942530514E+03 -0.41865744832E+03  0.60014907761E+03  0.46999998093E+01 0. -1.
       -5    1    3    3    0  502  0.40674728102E+03 -0.13942530514E+03  0.67590876006E+03  0.80109768958E+03  0.46999998093E+01 0.  1.
</event>
<event>
 5   0  0.1644571E-03  0.1383197E+04  0.7818609E-02  0.8966072E-01
        1   -1    0    0  501    0  0.00000000000E+00  0.00000000000E+00  0.31559702024E+03  0.31559702028E+03  0.50400001928E-02 0. -1.
       -1   -1    0    0    0  501  0.00000000000E+00  0.00000000000E+00 -0.15155674287E+04  0.15155674287E+04  0.50400001928E-02 0.  1.
    10030    2    1    2    0    0  0.00000000000E+00  0.00000000000E+00 -0.11999704085E+04  0.18311644490E+04  0.13831971147E+04 0.  0.
        4    1    3    3  502    0  0.37449691593E+03 -0.35502175500E+03  0.95941075427E+01  0.51612212350E+03  0.12699999809E+01 0. -1.
       -4    1    3    3    0  502 -0.37449691593E+03  0.35502175500E+03 -0.12095645160E+04  0.13150423255E+04  0.12699999809E+01 0.  1.
</event>
<event>
 5   0  0.2917809E-03  0.1445411E+04  0.7818609E-02  0.8921588E-01
       -2   -1    0    0    0  501  0.00000000000E+00  0.00000000000E+00  0.23177338804E+03  0.23177338805E+03  0.25500000920E-02 0.  1.
        2   -1    0    0  501    0  0.00000000000E+00  0.00000000000E+00 -0.22535069974E+04  0.22535069974E+04  0.25500000920E-02 0. -1.
    10030    2    1    2    0    0  0.00000000000E+00  0.00000000000E+00 -0.20217336094E+04  0.24852803855E+04  0.14454106016E+04 0.  0.
        2    1    3    3  502    0  0.14010459369E+03 -0.37473958482E+03  0.24000570647E+02  0.40079306506E+03  0.25500000920E-02 0.  1.
       -2    1    3    3    0  502 -0.14010459369E+03  0.37473958482E+03 -0.20457341800E+04  0.20844873204E+04  0.25500000920E-02 0. -1.
</event>
<event>
 5   0  0.1560957E-03  0.1410289E+04  0.7818609E-02  0.8946405E-01
        1   -1    0    0  501    0  0.00000000000E+00  0.00000000000E+00  0.10541009078E+04  0.10541009078E+04  0.50400001928E-02 0.  1.
       -1   -1    0    0    0  501  0.00000000000E+00  0.00000000000E+00 -0.47170870584E+03  0.47170870587E+03  0.50400001928E-02 0. -1.
    10030    2    1    2    0    0  0.00000000000E+00  0.00000000000E+00  0.58239220199E+03  0.15258096137E+04  0.14102887294E+04 0.  0.
        5    1    3    3  502    0  0.13216565856E+03  0.78777548436E+02  0.10357006487E+04  0.10470776414E+04  0.46999998093E+01 0.  1.
       -5    1    3    3    0  502 -0.13216565856E+03 -0.78777548436E+02 -0.45330844671E+03  0.47873197230E+03  0.46999998093E+01 0. -1.
</event>
<event>
 5   0  0.1560957E-03  0.1428958E+04  0.7818609E-02  0.8933120E-01
        1   -1    0    0  501    0  0.00000000000E+00  0.00000000000E+00  0.62760351537E+03  0.62760351539E+03  0.50400001928E-02 0.  1.
       -1   -1    0    0    0  501  0.00000000000E+00  0.00000000000E+00 -0.81337969540E+03  0.81337969542E+03  0.50400001928E-02 0. -1.
    10030    2    1    2    0    0  0.00000000000E+00  0.00000000000E+00 -0.18577618003E+03  0.14409832108E+04  0.14289576008E+04 0.  0.
        5    1    3    3  502    0  0.33183252935E+03 -0.37406077946E+03  0.42172369019E+03  0.65414620318E+03  0.46999998093E+01 0.  1.
       -5    1    3    3    0  502 -0.33183252935E+03  0.37406077946E+03 -0.60749987022E+03  0.78683700763E+03  0.46999998093E+01 0. -1.
</event>
<event>
 5   0  0.1631380E-03  0.1414819E+04  0.7818609E-02  0.8943161E-01
        1   -1    0    0  501    0  0.00000000000E+00  0.00000000000E+00  0.19428473463E+04  0.19428473463E+04  0.50400001928E-02 0. -1.
       -1   -1    0    0    0  501  0.00000000000E+00  0.00000000000E+00 -0.25757451308E+03  0.25757451313E+03  0.50400001928E-02 0.  1.
    10030    2    1    2    0    0  0.00000000000E+00  0.00000000000E+00  0.16852728332E+04  0.22004218595E+04  0.14148186587E+04 0.  0.
        3    1    3    3  502    0 -0.53440003931E+03  0.36669856484E+03  0.12835670617E+04  0.14379136453E+04  0.10100000352E+00 0.  1.
       -3    1    3    3    0  502  0.53440003931E+03 -0.36669856484E+03  0.40170577156E+03  0.76250821411E+03  0.10100000352E+00 0. -1.
</event>
<event>
 5   0  0.1700207E-03  0.1397462E+04  0.7818609E-02  0.8955657E-01
       -1   -1    0    0    0  501  0.00000000000E+00  0.00000000000E+00  0.43702904188E+03  0.43702904191E+03  0.50400001928E-02 0.  1.
        1   -1    0    0  501    0  0.00000000000E+00  0.00000000000E+00 -0.11171461823E+04  0.11171461823E+04  0.50400001928E-02 0. -1.
    10030    2    1    2    0    0  0.00000000000E+00  0.00000000000E+00 -0.68011714043E+03  0.15541752242E+04  0.13974624513E+04 0.  0.
        2    1    3    3  502    0  0.15475667825E+03  0.10344642498E+03 -0.10890626186E+04  0.11048566330E+04  0.25500000920E-02 0. -1.
       -2    1    3    3    0  502 -0.15475667825E+03 -0.10344642498E+03  0.40894547816E+03  0.44931859122E+03  0.25500000920E-02 0.  1.
</event>
<event>
 5   0  0.2889469E-03  0.1718419E+04  0.7818609E-02  0.8750928E-01
       -2   -1    0    0    0  501  0.00000000000E+00  0.00000000000E+00  0.94609872582E+03  0.94609872582E+03  0.25500000920E-02 0.  1.
        2   -1    0    0  501    0  0.00000000000E+00  0.00000000000E+00 -0.78030045866E+03  0.78030045866E+03  0.25500000920E-02 0. -1.
    10030    2    1    2    0    0  0.00000000000E+00  0.00000000000E+00  0.16579826716E+03  0.17263991845E+04  0.17184193548E+04 0.  0.
        5    1    3    3  502    0  0.84876214578E+03  0.77933158864E+02  0.19179260472E+03  0.87365739886E+03  0.46999998093E+01 0. -1.
       -5    1    3    3    0  502 -0.84876214578E+03 -0.77933158864E+02 -0.25994337560E+02  0.85274178562E+03  0.46999998093E+01 0.  1.
</event>
<event>
 5   0  0.1644571E-03  0.1011439E+04  0.7818609E-02  0.9296087E-01
       -1   -1    0    0    0  501  0.00000000000E+00  0.00000000000E+00  0.29518503481E+03  0.29518503485E+03  0.50400001928E-02 0. -1.
        1   -1    0    0  501    0  0.00000000000E+00  0.00000000000E+00 -0.86641237780E+03  0.86641237781E+03  0.50400001928E-02 0.  1.
    10030    2    1    2    0    0  0.00000000000E+00  0.00000000000E+00 -0.57122734299E+03  0.11615974127E+04  0.10114385160E+04 0.  0.
        4    1    3    3  502    0 -0.47045688690E+03  0.37151693547E+02 -0.49436966633E+03  0.68345659018E+03  0.12699999809E+01 0.  1.
       -4    1    3    3    0  502  0.47045688690E+03 -0.37151693547E+02 -0.76857676657E+02  0.47814082249E+03  0.12699999809E+01 0. -1.
</event>
<event>
 5   0  0.1560957E-03  0.1324202E+04  0.7818609E-02  0.9010590E-01
       -1   -1    0    0    0  501  0.00000000000E+00  0.00000000000E+00  0.86761395021E+03  0.86761395023E+03  0.50400001928E-02 0. -1.
        1   -1    0    0  501    0  0.00000000000E+00  0.00000000000E+00 -0.50526828697E+03  0.50526828700E+03  0.50400001928E-02 0.  1.
    10030    2    1    2    0    0  0.00000000000E+00  0.00000000000E+00  0.36234566324E+03  0.13728822372E+04  0.13242021211E+04 0.  0.
        5    1    3    3  502    0  0.18420580407E+03 -0.46789858299E+03  0.62769697846E+03  0.80429251457E+03  0.46999998093E+01 0. -1.
       -5    1    3    3    0  502 -0.18420580407E+03  0.46789858299E+03 -0.26535131522E+03  0.56858972265E+03  0.46999998093E+01 0.  1.
</event>
<event>
 5   0  0.2917809E-03  0.1410701E+04  0.7818609E-02  0.8946109E-01
        2   -1    0    0  501    0  0.00000000000E+00  0.00000000000E+00  0.80583856410E+03  0.80583856411E+03  0.25500000920E-02 0. -1.
       -2   -1    0    0    0  501  0.00000000000E+00  0.00000000000E+00 -0.61739309446E+03  0.61739309446E+03  0.25500000920E-02 0.  1.
    10030    2    1    2    0    0  0.00000000000E+00  0.00000000000E+00  0.18844546964E+03  0.14232316586E+04  0.14107007687E+04 0.  0.
        2    1    3    3  502    0 -0.23438496961E+03  0.28645850921E+03 -0.51154760874E+03  0.63140775058E+03  0.25500000920E-02 0.  1.
       -2    1    3    3    0  502  0.23438496961E+03 -0.28645850921E+03  0.69999307838E+03  0.79182390799E+03  0.25500000920E-02 0. -1.
</event>
<event>
 5   0  0.1104538E-03  0.1431648E+04  0.7818609E-02  0.8931223E-01
       -4   -1    0    0    0  501  0.00000000000E+00  0.00000000000E+00  0.51426712414E+03  0.51426869229E+03  0.12699999809E+01 0.  1.
        4   -1    0    0  501    0  0.00000000000E+00  0.00000000000E+00 -0.99637395620E+03  0.99637476559E+03  0.12699999809E+01 0. -1.
    10030    2    1    2    0    0  0.00000000000E+00  0.00000000000E+00 -0.48210683207E+03  0.15106434579E+04  0.14316482317E+04 0.  0.
        5    1    3    3  502    0  0.36592136037E+03  0.23208620052E+03 -0.84224520608E+03  0.94718610822E+03  0.46999998093E+01 0. -1.
       -5    1    3    3    0  502 -0.36592136037E+03 -0.23208620052E+03  0.36013837401E+03  0.56345734966E+03  0.46999998093E+01 0.  1.
</event>
<event>
 5   0  0.2889469E-03  0.1372250E+04  0.7818609E-02  0.8974154E-01
        2   -1    0    0  501    0  0.00000000000E+00  0.00000000000E+00  0.14039785991E+04  0.14039785991E+04  0.25500000920E-02 0. -1.
       -2   -1    0    0    0  501  0.00000000000E+00  0.00000000000E+00 -0.33530948486E+03  0.33530948487E+03  0.25500000920E-02 0.  1.
    10030    2    1    2    0    0  0.00000000000E+00  0.00000000000E+00  0.10686691143E+04  0.17392880840E+04  0.13722497453E+04 0.  0.
        5    1    3    3  502    0  0.32826126886E+03 -0.24226591405E+03  0.12335116810E+04  0.12992387737E+04  0.46999998093E+01 0. -1.
       -5    1    3    3    0  502 -0.32826126886E+03  0.24226591405E+03 -0.16484256674E+03  0.44004931036E+03  0.46999998093E+01 0.  1.
</event>
<event>
 5   0  0.1586022E-03  0.1451538E+04  0.7818609E-02  0.8917335E-01
       -1   -1    0    0    0  501  0.00000000000E+00  0.00000000000E+00  0.45641744770E+03  0.45641744773E+03  0.50400001928E-02 0. -1.
        1   -1    0    0  501    0  0.00000000000E+00  0.00000000000E+00 -0.11540759378E+04  0.11540759379E+04  0.50400001928E-02 0.  1.
    10030    2    1    2    0    0  0.00000000000E+00  0.00000000000E+00 -0.69765849014E+03  0.16104933856E+04  0.14515376592E+04 0.  0.
        1    1    3    3  502    0 -0.33277899096E+03  0.40463234469E+03  0.20843923142E+03  0.56384049554E+03  0.50400001928E-02 0. -1.
       -1    1    3    3    0  502  0.33277899096E+03 -0.40463234469E+03 -0.90609772156E+03  0.10466528900E+04  0.50400001928E-02 0.  1.
</event>
<event>
 5   0  0.2993993E-03  0.1403589E+04  0.7818609E-02  0.8951225E-01
        2   -1    0    0  501    0  0.00000000000E+00  0.00000000000E+00  0.57591859582E+03  0.57591859583E+03  0.25500000920E-02 0.  1.
       -2   -1    0    0    0  501  0.00000000000E+00  0.00000000000E+00 -0.85518195524E+03  0.85518195524E+03  0.25500000920E-02 0. -1.
    10030    2    1    2    0    0  0.00000000000E+00  0.00000000000E+00 -0.27926335942E+03  0.14311005511E+04  0.14035885306E+04 0.  0.
        3    1    3    3  502    0 -0.19868873294E+03 -0.32972388541E+02  0.54581852895E+03  0.58179228918E+03  0.10100000352E+00 0.  1.
       -3    1    3    3    0  502  0.19868873294E+03  0.32972388541E+02 -0.82508188837E+03  0.84930826189E+03  0.10100000352E+00 0. -1.
</event>
<event>
 5   0  0.2889469E-03  0.1437598E+04  0.7818609E-02  0.8927044E-01
       -2   -1    0    0    0  501  0.00000000000E+00  0.00000000000E+00  0.60206696821E+03  0.60206696821E+03  0.25500000920E-02 0.  1.
        2   -1    0    0  501    0  0.00000000000E+00  0.00000000000E+00 -0.85816379594E+03  0.85816379594E+03  0.25500000920E-02 0. -1.
    10030    2    1    2    0    0  0.00000000000E+00  0.00000000000E+00 -0.25609682773E+03  0.14602307642E+04  0.14375981008E+04 0.  0.
        5    1    3    3  502    0  0.26026857867E+03  0.38923688273E+03 -0.68198246675E+03  0.82726492666E+03  0.46999998093E+01 0. -1.
       -5    1    3    3    0  502 -0.26026857867E+03 -0.38923688273E+03  0.42588563902E+03  0.63296583750E+03  0.46999998093E+01 0.  1.
</event>
<event>
 5   0  0.1586022E-03  0.1402201E+04  0.7818609E-02  0.8952227E-01
       -1   -1    0    0    0  501  0.00000000000E+00  0.00000000000E+00  0.53448056363E+03  0.53448056366E+03  0.50400001928E-02 0.  1.
        1   -1    0    0  501    0  0.00000000000E+00  0.00000000000E+00 -0.91966320322E+03  0.91966320324E+03  0.50400001928E-02 0. -1.
    10030    2    1    2    0    0  0.00000000000E+00  0.00000000000E+00 -0.38518263959E+03  0.14541437669E+04  0.14022012798E+04 0.  0.
        1    1    3    3  502    0  0.54255132762E+03 -0.43614365243E+03 -0.10608125928E+03  0.70415656089E+03  0.50400001928E-02 0. -1.
       -1    1    3    3    0  502 -0.54255132762E+03  0.43614365243E+03 -0.27910138031E+03  0.74998720600E+03  0.50400001928E-02 0.  1.
</event>
<event>
 5   0  0.2917809E-03  0.9695370E+03  0.7818609E-02  0.9342602E-01
        2   -1    0    0  501    0  0.00000000000E+00  0.00000000000E+00  0.52866415098E+03  0.52866415099E+03  0.25500000920E-02 0. -1.
       -2   -1    0    0    0  501  0.00000000000E+00  0.00000000000E+00 -0.44451757343E+03  0.44451757344E+03  0.25500000920E-02 0.  1.
    10030    2    1    2    0    0  0.00000000000E+00  0.00000000000E+00  0.84146577554E+02  0.97318172443E+03  0.96953701438E+03 0.  0.
        2    1    3    3  502    0  0.33455272840E+03 -0.13962172183E+03  0.36512279465E+03  0.51452347708E+03  0.25500000920E-02 0.  1.
       -2    1    3    3    0  502 -0.33455272840E+03  0.13962172183E+03 -0.28097621710E+03  0.45865824735E+03  0.25500000920E-02 0. -1.
</event>
<event>
 5   0  0.2889469E-03  0.1364174E+04  0.7818609E-02  0.8980168E-01
       -2   -1    0    0    0  501  0.00000000000E+00  0.00000000000E+00  0.48816239667E+03  0.48816239668E+03  0.25500000920E-02 0. -1.
        2   -1    0    0  501    0  0.00000000000E+00  0.00000000000E+00 -0.95304860763E+03  0.95304860763E+03  0.25500000920E-02 0.  1.
    10030    2    1    2    0    0  0.00000000000E+00  0.00000000000E+00 -0.46488621096E+03  0.14412110043E+04  0.13641737315E+04 0.  0.
        5    1    3    3  502    0 -0.12154614436E+03 -0.66741901465E+03 -0.15774826585E+03  0.69651145842E+03  0.46999998093E+01 0. -1.
       -5    1    3    3    0  502  0.12154614436E+03  0.66741901465E+03 -0.30713794511E+03  0.74469954589E+03  0.46999998093E+01 0.  1.
</event>
<event>
 5   0  0.1700207E-03  0.1409909E+04  0.7818609E-02  0.8946677E-01
        1   -1    0    0  501    0  0.00000000000E+00  0.00000000000E+00  0.92834642927E+03  0.92834642928E+03  0.50400001928E-02 0. -1.
       -1   -1    0    0    0  501  0.00000000000E+00  0.00000000000E+00 -0.53531806174E+03  0.53531806176E+03  0.50400001928E-02 0.  1.
    10030    2    1    2    0    0  0.00000000000E+00  0.00000000000E+00  0.39302836753E+03  0.14636644910E+04  0.14099086654E+04 0.  0.
        2    1    3    3  502    0 -0.40722829513E+03  0.13978504502E+03 -0.38296712604E+03  0.57622787402E+03  0.25500000920E-02 0.  1.
       -2    1    3    3    0  502  0.40722829513E+03 -0.13978504502E+03  0.77599549358E+03  0.88743661702E+03  0.25500000920E-02 0. -1.
</event>
<event>
 5   0  0.2889469E-03  0.9876288E+03  0.7818609E-02  0.9322218E-01
       -2   -1    0    0    0  501  0.00000000000E+00  0.00000000000E+00  0.64324100967E+03  0.64324100968E+03  0.25500000920E-02 0. -1.
        2   -1    0    0  501    0  0.00000000000E+00  0.00000000000E+00 -0.37909997167E+03  0.37909997168E+03  0.25500000920E-02 0.  1.
    10030    2    1    2    0    0  0.00000000000E+00  0.00000000000E+00  0.26414103800E+03  0.10223409814E+04  0.98762877348E+03 0.  0.
        5    1    3    3  502    0 -0.24972010094E+03 -0.40811257299E+03  0.25848802626E+03  0.54383283348E+03  0.46999998093E+01 0. -1.
       -5    1    3    3    0  502  0.24972010094E+03  0.40811257299E+03  0.56530117378E+01  0.47850814788E+03  0.46999998093E+01 0.  1.
</event>
<event>
 5   0  0.1644571E-03  0.1431558E+04  0.7818609E-02  0.8931287E-01
       -1   -1    0    0    0  501  0.00000000000E+00  0.00000000000E+00  0.64070430270E+03  0.64070430272E+03  0.50400001928E-02 0.  1.
        1   -1    0    0  501    0  0.00000000000E+00  0.00000000000E+00 -0.79965071308E+03  0.79965071309E+03  0.50400001928E-02 0. -1.
    10030    2    1    2    0    0  0.00000000000E+00  0.00000000000E+00 -0.15894641038E+03  0.14403550158E+04  0.14315581058E+04 0.  0.
        4    1    3    3  502    0  0.36078701499E+03 -0.19774698269E+03  0.50984516383E+03  0.65514490254E+03  0.12699999809E+01 0.  1.
       -4    1    3    3    0  502 -0.36078701499E+03  0.19774698269E+03 -0.66879157421E+03  0.78521011327E+03  0.12699999809E+01 0. -1.
</event>
<event>
 5   0  0.1560957E-03  0.1415001E+04  0.7818609E-02  0.8943031E-01
        1   -1    0    0  501    0  0.00000000000E+00  0.00000000000E+00  0.87890891733E+03  0.87890891735E+03  0.50400001928E-02 0.  1.
       -1   -1    0    0    0  501  0.00000000000E+00  0.00000000000E+00 -0.56952124265E+03  0.56952124267E+03  0.50400001928E-02 0. -1.
    10030    2    1    2    0    0  0.00000000000E+00  0.00000000000E+00  0.30938767468E+03  0.14484301600E+04  0.14150014824E+04 0.  0.
        5    1    3    3  502    0  0.31703351905E+03 -0.94434677705E+02 -0.48546609156E+03  0.58747559661E+03  0.46999998093E+01 0. -1.
       -5    1    3    3    0  502 -0.31703351905E+03  0.94434677705E+02  0.79485376624E+03  0.86095456341E+03  0.46999998093E+01 0.  1.
</event>
<event>
 5   0  0.1560957E-03  0.1386316E+04  0.7818609E-02  0.8963783E-01
       -1   -1    0    0    0  501  0.00000000000E+00  0.00000000000E+00  0.81787362467E+03  0.81787362468E+03  0.50400001928E-02 0. -1.
        1   -1    0    0  501    0  0.00000000000E+00  0.00000000000E+00 -0.58746030723E+03  0.58746030725E+03  0.50400001928E-02 0.  1.
    10030    2    1    2    0    0  0.00000000000E+00  0.00000000000E+00  0.23041331744E+03  0.14053339319E+04  0.13863164009E+04 0.  0.
        5    1    3    3  502    0  0.40065248907E+03  0.52872563210E+03 -0.88480020303E+02  0.66927125669E+03  0.46999998093E+01 0. -1.
       -5    1    3    3    0  502 -0.40065248907E+03 -0.52872563210E+03  0.31889333774E+03  0.73606267525E+03  0.46999998093E+01 0.  1.
</event>
<event>
 5   0  0.1104538E-03  0.1397721E+04  0.7818609E-02  0.8955470E-01
        3   -1    0    0  501    0  0.00000000000E+00  0.00000000000E+00  0.67916765737E+03  0.67916766488E+03  0.10100000352E+00 0.  1.
       -3   -1    0    0    0  501  0.00000000000E+00  0.00000000000E+00 -0.71912474291E+03  0.71912475001E+03  0.10100000352E+00 0. -1.
    10030    2    1    2    0    0  0.00000000000E+00  0.00000000000E+00 -0.39957085548E+02  0.13982924149E+04  0.13977213989E+04 0.  0.
        2    1    3    3  502    0 -0.28544562028E+03 -0.53196532603E+03  0.33221636762E+03  0.68908201628E+03  0.25500000920E-02 0.  1.
       -2    1    3    3    0  502  0.28544562028E+03  0.53196532603E+03 -0.37217345317E+03  0.70921039860E+03  0.25500000920E-02 0. -1.
</event>
<event>
 5   0  0.2993993E-03  0.1380694E+04  0.7818609E-02  0.8967913E-01
       -2   -1    0    0    0  501  0.00000000000E+00  0.00000000000E+00  0.59713135708E+03  0.59713135709E+03  0.25500000920E-02 0. -1.
        2   -1    0    0  501    0  0.00000000000E+00  0.00000000000E+00 -0.79811398479E+03  0.79811398480E+03  0.25500000920E-02 0.  1.
    10030    2    1    2    0    0  0.00000000000E+00  0.00000000000E+00 -0.20098262771E+03  0.13952453419E+04  0.13806938645E+04 0.  0.
        3    1    3    3  502    0 -0.67600221053E+03  0.69210251492E+02 -0.22346953586E+03  0.71533746666E+03  0.10100000352E+00 0.  1.
       -3    1    3    3    0  502  0.67600221053E+03 -0.69210251492E+02  0.22486908146E+02  0.67990787522E+03  0.10100000352E+00 0. -1.
</event>
<event>
 5   0  0.1560957E-03  0.1406592E+04  0.7818609E-02  0.8949061E-01
       -1   -1    0    0    0  501  0.00000000000E+00  0.00000000000E+00  0.52793290841E+03  0.52793290844E+03  0.50400001928E-02 0.  1.
        1   -1    0    0  501    0  0.00000000000E+00  0.00000000000E+00 -0.93690900871E+03  0.93690900873E+03  0.50400001928E-02 0. -1.
    10030    2    1    2    0    0  0.00000000000E+00  0.00000000000E+00 -0.40897610030E+03  0.14648419172E+04  0.14065917644E+04 0.  0.
        5    1    3    3  502    0  0.30389315244E+03  0.50630809275E+02 -0.86287847284E+03  0.91624007544E+03  0.46999998093E+01 0. -1.
       -5    1    3    3    0  502 -0.30389315244E+03 -0.50630809275E+02  0.45390237254E+03  0.54860184173E+03  0.46999998093E+01 0.  1.
</event>
<event>
 5   0  0.1560957E-03  0.1183955E+04  0.7818609E-02  0.9127018E-01
       -1   -1    0    0    0  501  0.00000000000E+00  0.00000000000E+00  0.12339147022E+04  0.12339147022E+04  0.50400001928E-02 0.  1.
        1   -1    0    0  501    0  0.00000000000E+00  0.00000000000E+00 -0.28400458250E+03  0.28400458255E+03  0.50400001928E-02 0. -1.
    10030    2    1    2    0    0  0.00000000000E+00  0.00000000000E+00  0.94991011969E+03  0.15179192848E+04  0.11839551172E+04 0.  0.
        5    1    3    3  502    0  0.92212418334E+02  0.55544866591E+03  0.24068592360E+03  0.61235459856E+03  0.46999998093E+01 0.  1.
       -5    1    3    3    0  502 -0.92212418334E+02 -0.55544866591E+03  0.70922419609E+03  0.90556468619E+03  0.46999998093E+01 0. -1.
</event>
<event>
 5   0  0.2993993E-03  0.1525535E+04  0.7818609E-02  0.8867648E-01
       -2   -1    0    0    0  501  0.00000000000E+00  0.00000000000E+00  0.27226009885E+03  0.27226009886E+03  0.25500000920E-02 0.  1.
        2   -1    0    0  501    0  0.00000000000E+00  0.00000000000E+00 -0.21369788290E+04  0.21369788290E+04  0.25500000920E-02 0. -1.
    10030    2    1    2    0    0  0.00000000000E+00  0.00000000000E+00 -0.18647187302E+04  0.24092389279E+04  0.15255347485E+04 0.  0.
        3    1    3    3  502    0 -0.73107492583E+03  0.13219688539E+02 -0.12753521225E+04  0.14700912740E+04  0.10100000352E+00 0.  1.
       -3    1    3    3    0  502  0.73107492583E+03 -0.13219688539E+02 -0.58936660763E+03  0.93914765385E+03  0.10100000352E+00 0. -1.
</event>
<event>
 5   0  0.3006737E-03  0.1119958E+04  0.7818609E-02  0.9185955E-01
       -2   -1    0    0    0  501  0.00000000000E+00  0.00000000000E+00  0.20096454459E+03  0.20096454460E+03  0.25500000920E-02 0.  1.
        2   -1    0    0  501    0  0.00000000000E+00  0.00000000000E+00 -0.15603565531E+04  0.15603565531E+04  0.25500000920E-02 0. -1.
    10030    2    1    2    0    0  0.00000000000E+00  0.00000000000E+00 -0.13593920085E+04  0.17613210977E+04  0.11199577565E+04 0.  0.
        1    1    3    3  502    0  0.69133014935E+02 -0.45857573446E+03 -0.18610570061E+03  0.49970632357E+03  0.50400001928E-02 0.  1.
       -1    1    3    3    0  502 -0.69133014935E+02  0.45857573446E+03 -0.11732863079E+04  0.12616147741E+04  0.50400001928E-02 0. -1.
</event>
<event>
 5   0  0.2760807E-03  0.1362779E+04  0.7818609E-02  0.8981211E-01
        2   -1    0    0  501    0  0.00000000000E+00  0.00000000000E+00  0.79613243577E+03  0.79613243578E+03  0.25500000920E-02 0.  1.
       -2   -1    0    0    0  501  0.00000000000E+00  0.00000000000E+00 -0.58318398673E+03  0.58318398673E+03  0.25500000920E-02 0. -1.
    10030    2    1    2    0    0  0.00000000000E+00  0.00000000000E+00  0.21294844905E+03  0.13793164225E+04  0.13627790545E+04 0.  0.
        4    1    3    3  502    0 -0.10381694680E+03  0.46483561102E+03  0.59966548551E+03  0.76580050348E+03  0.12699999809E+01 0.  1.
       -4    1    3    3    0  502  0.10381694680E+03 -0.46483561102E+03 -0.38671703646E+03  0.61351591903E+03  0.12699999809E+01 0. -1.
</event>
<event>
 5   0  0.1700207E-03  0.1272079E+04  0.7818609E-02  0.9052004E-01
        1   -1    0    0  501    0  0.00000000000E+00  0.00000000000E+00  0.10236365549E+04  0.10236365549E+04  0.50400001928E-02 0.  1.
       -1   -1    0    0    0  501  0.00000000000E+00  0.00000000000E+00 -0.39520521069E+03  0.39520521072E+03  0.50400001928E-02 0. -1.
    10030    2    1    2    0    0  0.00000000000E+00  0.00000000000E+00  0.62843134419E+03  0.14188417656E+04  0.12720794006E+04 0.  0.
        2    1    3    3  502    0 -0.33702984232E+03  0.18647200831E+03 -0.25032739842E+03  0.45937428194E+03  0.25500000920E-02 0. -1.
       -2    1    3    3    0  502  0.33702984232E+03 -0.18647200831E+03  0.87875874261E+03  0.95946748367E+03  0.25500000920E-02 0.  1.
</event>
<event>
 5   0  0.2889469E-03  0.1345765E+04  0.7818609E-02  0.8994040E-01
       -2   -1    0    0    0  501  0.00000000000E+00  0.00000000000E+00  0.18396090683E+03  0.18396090684E+03  0.25500000920E-02 0.  1.
        2   -1    0    0  501    0  0.00000000000E+00  0.00000000000E+00 -0.24612330119E+04  0.24612330119E+04  0.25500000920E-02 0. -1.
    10030    2    1    2    0    0  0.00000000000E+00  0.00000000000E+00 -0.22772721051E+04  0.26451939187E+04  0.13457646998E+04 0.  0.
        5    1    3    3  502    0  0.58750133948E+03  0.30985493278E+03 -0.13501578389E+04  0.15046980372E+04  0.46999998093E+01 0. -1.
       -5    1    3    3    0  502 -0.58750133948E+03 -0.30985493278E+03 -0.92711426617E+03  0.11404958815E+04  0.46999998093E+01 0.  1.
</event>
<event>
 5   0  0.1644571E-03  0.1391158E+04  0.7818609E-02  0.8960244E-01
       -1   -1    0    0    0  501  0.00000000000E+00  0.00000000000E+00  0.75176021883E+03  0.75176021885E+03  0.50400001928E-02 0. -1.
        1   -1    0    0  501    0  0.00000000000E+00  0.00000000000E+00 -0.64359612902E+03  0.64359612904E+03  0.50400001928E-02 0.  1.
    10030    2    1    2    0    0  0.00000000000E+00  0.00000000000E+00  0.10816408981E+03  0.13953563479E+04  0.13911577435E+04 0.  0.
        4    1    3    3  502    0  0.65052829083E+03 -0.19235459166E+03  0.20830241759E+03  0.70963290240E+03  0.12699999809E+01 0. -1.
       -4    1    3    3    0  502 -0.65052829083E+03  0.19235459166E+03 -0.10013832778E+03  0.68572344549E+03  0.12699999809E+01 0.  1.
</event>
<event>
 5   0  0.3006737E-03  0.1416632E+04  0.7818609E-02  0.8941867E-01
       -2   -1    0    0    0  501  0.00000000000E+00  0.00000000000E+00  0.89145527173E+03  0.89145527173E+03  0.25500000920E-02 0.  1.
        2   -1    0    0  501    0  0.00000000000E+00  0.00000000000E+00 -0.56280062054E+03  0.56280062054E+03  0.25500000920E-02 0. -1.
    10030    2    1    2    0    0  0.00000000000E+00  0.00000000000E+00  0.32865465119E+03  0.14542558923E+04  0.14166320342E+04 0.  0.
        1    1    3    3  502    0  0.91117368578E+02 -0.66328070118E+03 -0.73045175139E+02  0.67348293301E+03  0.50400001928E-02 0. -1.
       -1    1    3    3    0  502 -0.91117368578E+02  0.66328070118E+03  0.40169982633E+03  0.78077295926E+03  0.50400001928E-02 0.  1.
</event>
<event>
 5   0  0.2889469E-03  0.1463054E+04  0.7818609E-02  0.8909400E-01
       -2   -1    0    0    0  501  0.00000000000E+00  0.00000000000E+00  0.71844878245E+03  0.71844878246E+03  0.25500000920E-02 0.  1.
        2   -1    0    0  501    0  0.00000000000E+00  0.00000000000E+00 -0.74484357778E+03  0.74484357779E+03  0.25500000920E-02 0. -1.
    10030    2    1    2    0    0  0.00000000000E+00  0.00000000000E+00 -0.26394795329E+02  0.14632923602E+04  0.14630542869E+04 0.  0.
        5    1    3    3  502    0  0.30606996573E+03 -0.92196022848E+02  0.64488454906E+03  0.71977573047E+03  0.46999998093E+01 0.  1.
       -5    1    3    3    0  502 -0.30606996573E+03  0.92196022848E+02 -0.67127934439E+03  0.74351662978E+03  0.46999998093E+01 0. -1.
</event>
<event>
 5   0  0.2917809E-03  0.1376694E+04  0.7818609E-02  0.8970864E-01
       -2   -1    0    0    0  501  0.00000000000E+00  0.00000000000E+00  0.40911771317E+03  0.40911771318E+03  0.25500000920E-02 0. -1.
        2   -1    0    0  501    0  0.00000000000E+00  0.00000000000E+00 -0.11581538508E+04  0.11581538508E+04  0.25500000920E-02 0.  1.
    10030    2    1    2    0    0  0.00000000000E+00  0.00000000000E+00 -0.74903613763E+03  0.15672715640E+04  0.13766935097E+04 0.  0.
        2    1    3    3  502    0  0.66754690282E+03 -0.86560767506E+02 -0.53834793050E+03  0.86193394655E+03  0.25500000920E-02 0. -1.
       -2    1    3    3    0  502 -0.66754690282E+03  0.86560767506E+02 -0.21068820713E+03  0.70533761743E+03  0.25500000920E-02 0.  1.
</event>
<event>
 5   0  0.1586022E-03  0.7923602E+03  0.7818609E-02  0.9571142E-01
        1   -1    0    0  501    0  0.00000000000E+00  0.00000000000E+00  0.85424272111E+03  0.85424272112E+03  0.50400001928E-02 0.  1.
       -1   -1    0    0    0  501  0.00000000000E+00  0.00000000000E+00 -0.18374011231E+03  0.18374011237E+03  0.50400001928E-02 0. -1.
    10030    2    1    2    0    0  0.00000000000E+00  0.00000000000E+00  0.67050260880E+03  0.10379828335E+04  0.79236015436E+03 0.  0.
        1    1    3    3  502    0  0.22206360919E+03 -0.30465220272E+03  0.49479825855E+03  0.62205347667E+03  0.50400001928E-02 0. -1.
       -1    1    3    3    0  502 -0.22206360919E+03  0.30465220272E+03  0.17570435025E+03  0.41592935682E+03  0.50400001928E-02 0.  1.
</event>
<event>
 5   0  0.1644571E-03  0.8670038E+03  0.7818609E-02  0.9467795E-01
        1   -1    0    0  501    0  0.00000000000E+00  0.00000000000E+00  0.79343567251E+03  0.79343567253E+03  0.50400001928E-02 0.  1.
       -1   -1    0    0    0  501  0.00000000000E+00  0.00000000000E+00 -0.23684828740E+03  0.23684828745E+03  0.50400001928E-02 0. -1.
    10030    2    1    2    0    0  0.00000000000E+00  0.00000000000E+00  0.55658738511E+03  0.10302839600E+04  0.86700376062E+03 0.  0.
        4    1    3    3  502    0  0.84814690171E+02  0.22466426604E+03  0.70717060156E+03  0.74683293762E+03  0.12699999809E+01 0.  1.
       -4    1    3    3    0  502 -0.84814690171E+02 -0.22466426604E+03 -0.15058321645E+03  0.28345102236E+03  0.12699999809E+01 0. -1.
</event>
<event>
 5   0  0.2917809E-03  0.1414363E+04  0.7818609E-02  0.8943487E-01
        2   -1    0    0  501    0  0.00000000000E+00  0.00000000000E+00  0.10982661160E+04  0.10982661161E+04  0.25500000920E-02 0.  1.
       -2   -1    0    0    0  501  0.00000000000E+00  0.00000000000E+00 -0.45535913587E+03  0.45535913588E+03  0.25500000920E-02 0. -1.
    10030    2    1    2    0    0  0.00000000000E+00  0.00000000000E+00  0.64290698018E+03  0.15536252519E+04  0.14143627676E+04 0.  0.
        2    1    3    3  502    0 -0.39773169488E+03  0.13000148722E+03 -0.30478088912E+03  0.51767004759E+03  0.25500000920E-02 0. -1.
       -2    1    3    3    0  502  0.39773169488E+03 -0.13000148722E+03  0.94768786929E+03  0.10359552043E+04  0.25500000920E-02 0.  1.
</event>
<event>
 5   0  0.2889469E-03  0.1415702E+04  0.7818609E-02  0.8942531E-01
       -2   -1    0    0    0  501  0.00000000000E+00  0.00000000000E+00  0.26529822008E+03  0.26529822009E+03  0.25500000920E-02 0. -1.
        2   -1    0    0  501    0  0.00000000000E+00  0.00000000000E+00 -0.18886395394E+04  0.18886395394E+04  0.25500000920E-02 0.  1.
    10030    2    1    2    0    0  0.00000000000E+00  0.00000000000E+00 -0.16233413193E+04  0.21539377594E+04  0.14157015338E+04 0.  0.
        5    1    3    3  502    0 -0.38660325373E+02  0.36967556168E+03  0.10484640582E+03  0.38622467616E+03  0.46999998093E+01 0. -1.
       -5    1    3    3    0  502  0.38660325373E+02 -0.36967556168E+03 -0.17281877251E+04  0.17677130833E+04  0.46999998093E+01 0.  1.
</event>
<event>
 5   0  0.1644571E-03  0.1420619E+04  0.7818609E-02  0.8939028E-01
       -1   -1    0    0    0  501  0.00000000000E+00  0.00000000000E+00  0.30581943155E+03  0.30581943159E+03  0.50400001928E-02 0. -1.
        1   -1    0    0  501    0  0.00000000000E+00  0.00000000000E+00 -0.16497946158E+04  0.16497946159E+04  0.50400001928E-02 0.  1.
    10030    2    1    2    0    0  0.00000000000E+00  0.00000000000E+00 -0.13439751843E+04  0.19556140474E+04  0.14206185296E+04 0.  0.
        4    1    3    3  502    0  0.15025597489E+03 -0.22474906588E+03 -0.15761995049E+04  0.15992171499E+04  0.12699999809E+01 0.  1.
       -4    1    3    3    0  502 -0.15025597489E+03  0.22474906588E+03  0.23222432055E+03  0.35639689752E+03  0.12699999809E+01 0. -1.
</event>
<event>
 5   0  0.1700207E-03  0.8222356E+03  0.7818609E-02  0.9528378E-01
       -1   -1    0    0    0  501  0.00000000000E+00  0.00000000000E+00  0.72472038488E+03  0.72472038489E+03  0.50400001928E-02 0.  1.
        1   -1    0    0  501    0  0.00000000000E+00  0.00000000000E+00 -0.23321800939E+03  0.23321800944E+03  0.50400001928E-02 0. -1.
    10030    2    1    2    0    0  0.00000000000E+00  0.00000000000E+00  0.49150237549E+03  0.95793839434E+03  0.82223560020E+03 0.  0.
        2    1    3    3  502    0  0.42545691319E+02  0.34906841669E+03 -0.23751130625E+01  0.35165968855E+03  0.25500000920E-02 0. -1.
       -2    1    3    3    0  502 -0.42545691319E+02 -0.34906841669E+03  0.49387748855E+03  0.60627870578E+03  0.25500000920E-02 0.  1.
</event>
<event>
 5   0  0.2760807E-03  0.1301879E+04  0.7818609E-02  0.9028077E-01
       -2   -1    0    0    0  501  0.00000000000E+00  0.00000000000E+00  0.78852238383E+03  0.78852238384E+03  0.25500000920E-02 0. -1.
        2   -1    0    0  501    0  0.00000000000E+00  0.00000000000E+00 -0.53736213647E+03  0.53736213648E+03  0.25500000920E-02 0.  1.
    10030    2    1    2    0    0  0.00000000000E+00  0.00000000000E+00  0.25116024736E+03  0.13258845203E+04  0.13018787545E+04 0.  0.
        4    1    3    3  502    0 -0.26101849231E+02 -0.89186539314E+02  0.78173088275E+03  0.78723588033E+03  0.12699999809E+01 0. -1.
       -4    1    3    3    0  502  0.26101849231E+02  0.89186539314E+02 -0.53057063539E+03  0.53864863999E+03  0.12699999809E+01 0.  1.
</event>
<event>
 5   0  0.1560957E-03  0.1263067E+04  0.7818609E-02  0.9059377E-01
       -1   -1    0    0    0  501  0.00000000000E+00  0.00000000000E+00  0.13364684734E+04  0.13364684734E+04  0.50400001928E-02 0. -1.
        1   -1    0    0  501    0  0.00000000000E+00  0.00000000000E+00 -0.29842414322E+03  0.29842414326E+03  0.50400001928E-02 0.  1.
    10030    2    1    2    0    0  0.00000000000E+00  0.00000000000E+00  0.10380443301E+04  0.16348926166E+04  0.12630668377E+04 0.  0.
        5    1    3    3  502    0 -0.23727129387E+03  0.76942077899E+02  0.12699816105E+04  0.12942538898E+04  0.46999998093E+01 0. -1.
       -5    1    3    3    0  502  0.23727129387E+03 -0.76942077899E+02 -0.23193728032E+03  0.34063872688E+03  0.46999998093E+01 0.  1.
</event>
<event>
 5   0  0.2760807E-03  0.1414999E+04  0.7818609E-02  0.8943033E-01
       -2   -1    0    0    0  501  0.00000000000E+00  0.00000000000E+00  0.65645648738E+03  0.65645648739E+03  0.25500000920E-02 0.  1.
        2   -1    0    0  501    0  0.00000000000E+00  0.00000000000E+00 -0.76251122712E+03  0.76251122712E+03  0.25500000920E-02 0. -1.
    10030    2    1    2    0    0  0.00000000000E+00  0.00000000000E+00 -0.10605473973E+03  0.14189677145E+04  0.14149988576E+04 0.  0.
        4    1    3    3  502    0 -0.11273657809E+03 -0.17321257045E+03  0.62551050899E+03  0.65876941364E+03  0.12699999809E+01 0.  1.
       -4    1    3    3    0  502  0.11273657809E+03  0.17321257045E+03 -0.73156524872E+03  0.76019830086E+03  0.12699999809E+01 0. -1.
</event>
<event>
 5   0  0.2760807E-03  0.1386954E+04  0.7818609E-02  0.8963316E-01
       -2   -1    0    0    0  501  0.00000000000E+00  0.00000000000E+00  0.54948913293E+03  0.54948913293E+03  0.25500000920E-02 0. -1.
        2   -1    0    0  501    0  0.00000000000E+00  0.00000000000E+00 -0.87519544844E+03  0.87519544845E+03  0.25500000920E-02 0.  1.
    10030    2    1    2    0    0  0.00000000000E+00  0.00000000000E+00 -0.32570631551E+03  0.14246845814E+04  0.13869540556E+04 0.  0.
        4    1    3    3  502    0  0.51396796658E+03  0.38877860376E+03 -0.42593950627E+03  0.77248815480E+03  0.12699999809E+01 0. -1.
       -4    1    3    3    0  502 -0.51396796658E+03 -0.38877860376E+03  0.10023319076E+03  0.65219642658E+03  0.12699999809E+01 0.  1.
</event>
<event>
 5   0  0.2993993E-03  0.1397343E+04  0.7818609E-02  0.8955744E-01
        2   -1    0    0  501    0  0.00000000000E+00  0.00000000000E+00  0.16285463147E+04  0.16285463147E+04  0.25500000920E-02 0.  1.
       -2   -1    0    0    0  501  0.00000000000E+00  0.00000000000E+00 -0.29974066657E+03  0.29974066658E+03  0.25500000920E-02 0. -1.
    10030    2    1    2    0    0  0.00000000000E+00  0.00000000000E+00  0.13288056481E+04  0.19282869813E+04  0.13973425606E+04 0.  0.
        3    1    3    3  502    0 -0.24083921752E+03 -0.61816418295E+03  0.96677333806E+03  0.11725106324E+04  0.10100000352E+00 0. -1.
       -3    1    3    3    0  502  0.24083921752E+03  0.61816418295E+03  0.36203231008E+03  0.75577634887E+03  0.10100000352E+00 0.  1.
</event>
<event>
 5   0  0.1700207E-03  0.1389103E+04  0.7818609E-02  0.8961744E-01
       -1   -1    0    0    0  501  0.00000000000E+00  0.00000000000E+00  0.80733464039E+03  0.80733464041E+03  0.50400001928E-02 0.  1.
        1   -1    0    0  501    0  0.00000000000E+00  0.00000000000E+00 -0.59752406468E+03  0.59752406470E+03  0.50400001928E-02 0. -1.
    10030    2    1    2    0    0  0.00000000000E+00  0.00000000000E+00  0.20981057571E+03  0.14048587051E+04  0.13891031292E+04 0.  0.
        2    1    3    3  502    0  0.25675767998E+02 -0.69045037395E+03  0.17656737621E+03  0.71313182673E+03  0.25500000920E-02 0. -1.
       -2    1    3    3    0  502 -0.25675767998E+02  0.69045037395E+03  0.33243199499E+02  0.69172687837E+03  0.25500000920E-02 0.  1.
</event>
<event>
 5   0  0.1586022E-03  0.1453045E+04  0.7818609E-02  0.8916292E-01
       -1   -1    0    0    0  501  0.00000000000E+00  0.00000000000E+00  0.70157914372E+03  0.70157914374E+03  0.50400001928E-02 0.  1.
        1   -1    0    0  501    0  0.00000000000E+00  0.00000000000E+00 -0.75235276366E+03  0.75235276368E+03  0.50400001928E-02 0. -1.
    10030    2    1    2    0    0  0.00000000000E+00  0.00000000000E+00 -0.50773619942E+02  0.14539319074E+04  0.14530450891E+04 0.  0.
        1    1    3    3  502    0 -0.48724523295E+03  0.84252630928E+02  0.50722424041E+03  0.70836632679E+03  0.50400001928E-02 0.  1.
       -1    1    3    3    0  502  0.48724523295E+03 -0.84252630928E+02 -0.55799786035E+03  0.74556558063E+03  0.50400001928E-02 0. -1.
</event>
<event>
 5   0  0.1560957E-03  0.1538729E+04  0.7818609E-02  0.8859099E-01
        1   -1    0    0  501    0  0.00000000000E+00  0.00000000000E+00  0.12938830223E+04  0.12938830223E+04  0.50400001928E-02 0. -1.
       -1   -1    0    0    0  501  0.00000000000E+00  0.00000000000E+00 -0.45747698560E+03  0.45747698563E+03  0.50400001928E-02 0.  1.
    10030    2    1    2    0    0  0.00000000000E+00  0.00000000000E+00  0.83640603666E+03  0.17513600079E+04  0.15387289622E+04 0.  0.
        5    1    3    3  502    0  0.32293912510E+02 -0.11166880139E+03 -0.44740742104E+03  0.46228595954E+03  0.46999998093E+01 0.  1.
       -5    1    3    3    0  502 -0.32293912510E+02  0.11166880139E+03  0.12838134577E+04  0.12890740484E+04  0.46999998093E+01 0. -1.
</event>
<event>
 5   0  0.3006737E-03  0.1399422E+04  0.7818609E-02  0.8954237E-01
       -2   -1    0    0    0  501  0.00000000000E+00  0.00000000000E+00  0.64318577084E+03  0.64318577085E+03  0.25500000920E-02 0. -1.
        2   -1    0    0  501    0  0.00000000000E+00  0.00000000000E+00 -0.76120404912E+03  0.76120404913E+03  0.25500000920E-02 0.  1.
    10030    2    1    2    0    0  0.00000000000E+00  0.00000000000E+00 -0.11801827828E+03  0.14043898200E+04  0.13994221852E+04 0.  0.
        1    1    3    3  502    0  0.47883670158E+02  0.11224783823E+03  0.63242368576E+03  0.64409016558E+03  0.50400001928E-02 0. -1.
       -1    1    3    3    0  502 -0.47883670158E+02 -0.11224783823E+03 -0.75044196404E+03  0.76029965440E+03  0.50400001928E-02 0.  1.
</event>
<event>
 5   0  0.2889469E-03  0.1357552E+04  0.7818609E-02  0.8985131E-01
        2   -1    0    0  501    0  0.00000000000E+00  0.00000000000E+00  0.43285521236E+03  0.43285521237E+03  0.25500000920E-02 0. -1.
       -2   -1    0    0    0  501  0.00000000000E+00  0.00000000000E+00 -0.10644133813E+04  0.10644133813E+04  0.25500000920E-02 0.  1.
    10030    2    1    2    0    0  0.00000000000E+00  0.00000000000E+00 -0.63155816898E+03  0.14972685937E+04  0.13575520325E+04 0.  0.
        5    1    3    3  502    0 -0.56384212049E+03 -0.59821640472E+02 -0.72729939677E+03  0.92221638895E+03  0.46999998093E+01 0.  1.
       -5    1    3    3    0  502  0.56384212049E+03  0.59821640472E+02  0.95741227788E+02  0.57505220477E+03  0.46999998093E+01 0. -1.
</event>
<event>
 5   0  0.2760807E-03  0.1391747E+04  0.7818609E-02  0.8959814E-01
       -2   -1    0    0    0  501  0.00000000000E+00  0.00000000000E+00  0.65528391266E+03  0.65528391266E+03  0.25500000920E-02 0. -1.
        2   -1    0    0  501    0  0.00000000000E+00  0.00000000000E+00 -0.73897755266E+03  0.73897755266E+03  0.25500000920E-02 0.  1.
    10030    2    1    2    0    0  0.00000000000E+00  0.00000000000E+00 -0.83693640001E+02  0.13942614653E+04  0.13917472502E+04 0.  0.
        4    1    3    3  502    0  0.44777009130E+03 -0.34506122148E+03  0.36468570663E+03  0.67272771517E+03  0.12699999809E+01 0. -1.
       -4    1    3    3    0  502 -0.44777009130E+03  0.34506122148E+03 -0.44837934663E+03  0.72153375016E+03  0.12699999809E+01 0.  1.
</event>
<event>
 5   0  0.1560957E-03  0.1416548E+04  0.7818609E-02  0.8941927E-01
        1   -1    0    0  501    0  0.00000000000E+00  0.00000000000E+00  0.12511004960E+04  0.12511004960E+04  0.50400001928E-02 0. -1.
       -1   -1    0    0    0  501  0.00000000000E+00  0.00000000000E+00 -0.40096847910E+03  0.40096847913E+03  0.50400001928E-02 0.  1.
    10030    2    1    2    0    0  0.00000000000E+00  0.00000000000E+00  0.85013201692E+03  0.16520689752E+04  0.14165477233E+04 0.  0.
        5    1    3    3  502    0 -0.44486176755E+03 -0.24319581933E+03 -0.15171454418E+03  0.52923113257E+03  0.46999998093E+01 0.  1.
       -5    1    3    3    0  502  0.44486176755E+03  0.24319581933E+03  0.10018465611E+04  0.11228378426E+04  0.46999998093E+01 0. -1.
</event>
<event>
 5   0  0.1586022E-03  0.1437531E+04  0.7818609E-02  0.8927091E-01
        1   -1    0    0  501    0  0.00000000000E+00  0.00000000000E+00  0.19797580309E+04  0.19797580309E+04  0.50400001928E-02 0. -1.
       -1   -1    0    0    0  501  0.00000000000E+00  0.00000000000E+00 -0.26095316257E+03  0.26095316262E+03  0.50400001928E-02 0.  1.
    10030    2    1    2    0    0  0.00000000000E+00  0.00000000000E+00  0.17188048683E+04  0.22407111935E+04  0.14375313831E+04 0.  0.
        1    1    3    3  502    0  0.21093928279E+03  0.30365158890E+03 -0.10136256054E+03  0.38337193059E+03  0.50400001928E-02 0.  1.
       -1    1    3    3    0  502 -0.21093928279E+03 -0.30365158890E+03  0.18201674289E+04  0.18573392629E+04  0.50400001928E-02 0. -1.
</event>
<event>
 5   0  0.1700207E-03  0.1411245E+04  0.7818609E-02  0.8945719E-01
       -1   -1    0    0    0  501  0.00000000000E+00  0.00000000000E+00  0.85912064851E+03  0.85912064852E+03  0.50400001928E-02 0. -1.
        1   -1    0    0  501    0  0.00000000000E+00  0.00000000000E+00 -0.57954985048E+03  0.57954985050E+03  0.50400001928E-02 0.  1.
    10030    2    1    2    0    0  0.00000000000E+00  0.00000000000E+00  0.27957079803E+03  0.14386704990E+04  0.14112451855E+04 0.  0.
        2    1    3    3  502    0  0.56309180889E+03  0.25333553849E+03 -0.20839545866E+03  0.65167472522E+03  0.25500000920E-02 0.  1.
       -2    1    3    3    0  502 -0.56309180889E+03 -0.25333553849E+03  0.48796625670E+03  0.78699577380E+03  0.25500000920E-02 0. -1.
</event>
<event>
 5   0  0.1700207E-03  0.1405180E+04  0.7818609E-02  0.8950077E-01
       -1   -1    0    0    0  501  0.00000000000E+00  0.00000000000E+00  0.80652941399E+03  0.80652941401E+03  0.50400001928E-02 0. -1.
        1   -1    0    0  501    0  0.00000000000E+00  0.00000000000E+00 -0.61204591892E+03  0.61204591894E+03  0.50400001928E-02 0.  1.
    10030    2    1    2    0    0  0.00000000000E+00  0.00000000000E+00  0.19448349507E+03  0.14185753329E+04  0.14051804672E+04 0.  0.
        2    1    3    3  502    0  0.44714272529E+03  0.44608947674E+03  0.40790984729E+03  0.75187956586E+03  0.25500000920E-02 0. -1.
       -2    1    3    3    0  502 -0.44714272529E+03 -0.44608947674E+03 -0.21342635222E+03  0.66669576709E+03  0.25500000920E-02 0.  1.
</event>
<event>
 5   0  0.1560957E-03  0.7855939E+03  0.7818609E-02  0.9581107E-01
        1   -1    0    0  501    0  0.00000000000E+00  0.00000000000E+00  0.56505972504E+03  0.56505972507E+03  0.50400001928E-02 0. -1.
       -1   -1    0    0    0  501  0.00000000000E+00  0.00000000000E+00 -0.27304978473E+03  0.27304978478E+03  0.50400001928E-02 0.  1.
    10030    2    1    2    0    0  0.00000000000E+00  0.00000000000E+00  0.29200994031E+03  0.83810950984E+03  0.78559388061E+03 0.  0.
        5    1    3    3  502    0  0.56892059691E+02  0.33222950697E+03  0.36111237328E+03  0.49400140474E+03  0.46999998093E+01 0. -1.
       -5    1    3    3    0  502 -0.56892059691E+02 -0.33222950697E+03 -0.69102432965E+02  0.34410810510E+03  0.46999998093E+01 0.  1.
</event>
<event>
 5   0  0.3006737E-03  0.1346601E+04  0.7818609E-02  0.8993405E-01
       -2   -1    0    0    0  501  0.00000000000E+00  0.00000000000E+00  0.90226465886E+03  0.90226465886E+03  0.25500000920E-02 0. -1.
        2   -1    0    0  501    0  0.00000000000E+00  0.00000000000E+00 -0.50243982439E+03  0.50243982440E+03  0.25500000920E-02 0.  1.
    10030    2    1    2    0    0  0.00000000000E+00  0.00000000000E+00  0.39982483446E+03  0.14047044833E+04  0.13466011982E+04 0.  0.
        1    1    3    3  502    0  0.55779183558E+03  0.33322573452E+03  0.38405856520E+03  0.75476625754E+03  0.50400001928E-02 0. -1.
       -1    1    3    3    0  502 -0.55779183558E+03 -0.33322573452E+03  0.15766269267E+02  0.64993822573E+03  0.50400001928E-02 0.  1.
</event>
<event>
 5   0  0.1700207E-03  0.1382991E+04  0.7818609E-02  0.8966224E-01
       -1   -1    0    0    0  501  0.00000000000E+00  0.00000000000E+00  0.57948338363E+03  0.57948338365E+03  0.50400001928E-02 0. -1.
        1   -1    0    0  501    0  0.00000000000E+00  0.00000000000E+00 -0.82515872787E+03  0.82515872788E+03  0.50400001928E-02 0.  1.
    10030    2    1    2    0    0  0.00000000000E+00  0.00000000000E+00 -0.24567534424E+03  0.14046421115E+04  0.13829906315E+04 0.  0.
        2    1    3    3  502    0  0.78490664583E+02 -0.49934562432E+03 -0.60209251468E+03  0.78614390107E+03  0.25500000920E-02 0.  1.
       -2    1    3    3    0  502 -0.78490664583E+02  0.49934562432E+03  0.35641717044E+03  0.61849821047E+03  0.25500000920E-02 0. -1.
</event>
<event>
 5   0  0.1586022E-03  0.1361444E+04  0.7818609E-02  0.8982210E-01
       -1   -1    0    0    0  501  0.00000000000E+00  0.00000000000E+00  0.84023260347E+03  0.84023260349E+03  0.50400001928E-02 0.  1.
        1   -1    0    0  501    0  0.00000000000E+00  0.00000000000E+00 -0.55149339598E+03  0.55149339600E+03  0.50400001928E-02 0. -1.
    10030    2    1    2    0    0  0.00000000000E+00  0.00000000000E+00  0.28873920749E+03  0.13917259995E+04  0.13614444270E+04 0.  0.
        1    1    3    3  502    0  0.46862303321E+03  0.46149185551E+03  0.32377370485E+03  0.73308368686E+03  0.50400001928E-02 0.  1.
       -1    1    3    3    0  502 -0.46862303321E+03 -0.46149185551E+03 -0.35034497358E+02  0.65864231263E+03  0.50400001928E-02 0. -1.
</event>
<event>
 5   0  0.2760807E-03  0.1368146E+04  0.7818609E-02  0.8977205E-01
        2   -1    0    0  501    0  0.00000000000E+00  0.00000000000E+00  0.89026097051E+03  0.89026097051E+03  0.25500000920E-02 0. -1.
       -2   -1    0    0    0  501  0.00000000000E+00  0.00000000000E+00 -0.52563874408E+03  0.52563874409E+03  0.25500000920E-02 0.  1.
    10030    2    1    2    0    0  0.00000000000E+00  0.00000000000E+00  0.36462222643E+03  0.14158997146E+04  0.13681456917E+04 0.  0.
        4    1    3    3  502    0  0.10465830320E+03 -0.53037959545E+03  0.61610533804E+03  0.81966046394E+03  0.12699999809E+01 0. -1.
       -4    1    3    3    0  502 -0.10465830320E+03  0.53037959545E+03 -0.25148311161E+03  0.59623925065E+03  0.12699999809E+01 0.  1.
</event>
<event>
 5   0  0.1560957E-03  0.1312571E+04  0.7818609E-02  0.9019655E-01
       -1   -1    0    0    0  501  0.00000000000E+00  0.00000000000E+00  0.34676063976E+03  0.34676063979E+03  0.50400001928E-02 0. -1.
        1   -1    0    0  501    0  0.00000000000E+00  0.00000000000E+00 -0.12420975471E+04  0.12420975471E+04  0.50400001928E-02 0.  1.
    10030    2    1    2    0    0  0.00000000000E+00  0.00000000000E+00 -0.89533690733E+03  0.15888581869E+04  0.13125708211E+04 0.  0.
        5    1    3    3  502    0 -0.13385242885E+03 -0.13111435662E+03  0.31367409948E+03  0.36540522424E+03  0.46999998093E+01 0. -1.
       -5    1    3    3    0  502  0.13385242885E+03  0.13111435662E+03 -0.12090110068E+04  0.12234529626E+04  0.46999998093E+01 0.  1.
</event>
<event>
 5   0  0.1560957E-03  0.1411754E+04  0.7818609E-02  0.8945354E-01
        1   -1    0    0  501    0  0.00000000000E+00  0.00000000000E+00  0.28449838907E+03  0.28449838911E+03  0.50400001928E-02 0. -1.
       -1   -1    0    0    0  501  0.00000000000E+00  0.00000000000E+00 -0.17513715470E+04  0.17513715470E+04  0.50400001928E-02 0.  1.
    10030    2    1    2    0    0  0.00000000000E+00  0.00000000000E+00 -0.14668731579E+04  0.20358699361E+04  0.14117540633E+04 0.  0.
        5    1    3    3  502    0 -0.38483325990E+03  0.89049687316E+02  0.11016959194E+03  0.41010475945E+03  0.46999998093E+01 0. -1.
       -5    1    3    3    0  502  0.38483325990E+03 -0.89049687316E+02 -0.15770427498E+04  0.16257651766E+04  0.46999998093E+01 0.  1.
</event>
<event>
 5   0  0.1700207E-03  0.1342154E+04  0.7818609E-02  0.8996789E-01
       -1   -1    0    0    0  501  0.00000000000E+00  0.00000000000E+00  0.86841622516E+03  0.86841622518E+03  0.50400001928E-02 0. -1.
        1   -1    0    0  501    0  0.00000000000E+00  0.00000000000E+00 -0.51858101349E+03  0.51858101352E+03  0.50400001928E-02 0.  1.
    10030    2    1    2    0    0  0.00000000000E+00  0.00000000000E+00  0.34983521167E+03  0.13869972387E+04  0.13421537411E+04 0.  0.
        2    1    3    3  502    0 -0.65650739564E+03  0.10069884394E+03  0.75785751693E+02  0.66849509936E+03  0.25500000920E-02 0.  1.
       -2    1    3    3    0  502  0.65650739564E+03 -0.10069884394E+03  0.27404945998E+03  0.71850213933E+03  0.25500000920E-02 0. -1.
</event>
<event>
 5   0  0.3006737E-03  0.1409368E+04  0.7818609E-02  0.8947065E-01
       -2   -1    0    0    0  501  0.00000000000E+00  0.00000000000E+00  0.42591291364E+03  0.42591291365E+03  0.25500000920E-02 0.  1.
        2   -1    0    0  501    0  0.00000000000E+00  0.00000000000E+00 -0.11659187005E+04  0.11659187005E+04  0.25500000920E-02 0. -1.
    10030    2    1    2    0    0  0.00000000000E+00  0.00000000000E+00 -0.74000578686E+03  0.15918316142E+04  0.14093684129E+04 0.  0.
        1    1    3    3  502    0 -0.12576121858E+03 -0.10571314320E+03  0.40398006872E+03  0.43610898717E+03  0.50400001928E-02 0.  1.
       -1    1    3    3    0  502  0.12576121858E+03  0.10571314320E+03 -0.11439858556E+04  0.11557226270E+04  0.50400001928E-02 0. -1.
</event>
<event>
 5   0  0.1700207E-03  0.1364592E+04  0.7818609E-02  0.8979855E-01
        1   -1    0    0  501    0  0.00000000000E+00  0.00000000000E+00  0.14841404265E+04  0.14841404265E+04  0.50400001928E-02 0. -1.
       -1   -1    0    0    0  501  0.00000000000E+00  0.00000000000E+00 -0.31366839802E+03  0.31366839806E+03  0.50400001928E-02 0.  1.
    10030    2    1    2    0    0  0.00000000000E+00  0.00000000000E+00  0.11704720285E+04  0.17978088246E+04  0.13645921736E+04 0.  0.
        2    1    3    3  502    0  0.32684753575E+03 -0.26289284848E+03 -0.12373650926E+03  0.43732446208E+03  0.25500000920E-02 0.  1.
       -2    1    3    3    0  502 -0.32684753575E+03  0.26289284848E+03  0.12942085377E+04  0.13604843625E+04  0.25500000920E-02 0. -1.
</event>
<event>
 5   0  0.3006737E-03  0.1345603E+04  0.7818609E-02  0.8994163E-01
        2   -1    0    0  501    0  0.00000000000E+00  0.00000000000E+00  0.68438258982E+03  0.68438258982E+03  0.25500000920E-02 0.  1.
       -2   -1    0    0    0  501  0.00000000000E+00  0.00000000000E+00 -0.66141643432E+03  0.66141643432E+03  0.25500000920E-02 0. -1.
    10030    2    1    2    0    0  0.00000000000E+00  0.00000000000E+00  0.22966155498E+02  0.13457990241E+04  0.13456030503E+04 0.  0.
        1    1    3    3  502    0 -0.38548337443E+03 -0.47173679611E+03  0.29705724492E+03  0.67777285543E+03  0.50400001928E-02 0.  1.
       -1    1    3    3    0  502  0.38548337443E+03  0.47173679611E+03 -0.27409108942E+03  0.66802616872E+03  0.50400001928E-02 0. -1.
</event>
<event>
 5   0  0.2993993E-03  0.1407500E+04  0.7818609E-02  0.8948408E-01
        2   -1    0    0  501    0  0.00000000000E+00  0.00000000000E+00  0.70497597385E+03  0.70497597386E+03  0.25500000920E-02 0.  1.
       -2   -1    0    0    0  501  0.00000000000E+00  0.00000000000E+00 -0.70252600859E+03  0.70252600859E+03  0.25500000920E-02 0. -1.
    10030    2    1    2    0    0  0.00000000000E+00  0.00000000000E+00  0.24499652643E+01  0.14075019824E+04  0.14074998502E+04 0.  0.
        3    1    3    3  502    0 -0.29082483674E+03  0.57661732423E+03  0.28086324811E+03  0.70423774296E+03  0.10100000352E+00 0.  1.
       -3    1    3    3    0  502  0.29082483674E+03 -0.57661732423E+03 -0.27841328285E+03  0.70326423949E+03  0.10100000352E+00 0. -1.
</event>
<event>
 5   0  0.2993993E-03  0.1420302E+04  0.7818609E-02  0.8939252E-01
       -2   -1    0    0    0  501  0.00000000000E+00  0.00000000000E+00  0.47274811013E+03  0.47274811014E+03  0.25500000920E-02 0.  1.
        2   -1    0    0  501    0  0.00000000000E+00  0.00000000000E+00 -0.10667725819E+04  0.10667725819E+04  0.25500000920E-02 0. -1.
    10030    2    1    2    0    0  0.00000000000E+00  0.00000000000E+00 -0.59402447175E+03  0.15395206920E+04  0.14203023932E+04 0.  0.
        3    1    3    3  502    0 -0.33114403709E+03  0.24789890829E+03  0.32867907078E+03  0.52833718760E+03  0.10100000352E+00 0.  1.
       -3    1    3    3    0  502  0.33114403709E+03 -0.24789890829E+03 -0.92270354253E+03  0.10111835044E+04  0.10100000352E+00 0. -1.
</event>
<event>
 5   0  0.1586022E-03  0.1308550E+04  0.7818609E-02  0.9022812E-01
        1   -1    0    0  501    0  0.00000000000E+00  0.00000000000E+00  0.58112628765E+03  0.58112628767E+03  0.50400001928E-02 0.  1.
       -1   -1    0    0    0  501  0.00000000000E+00  0.00000000000E+00 -0.73663151696E+03  0.73663151698E+03  0.50400001928E-02 0. -1.
    10030    2    1    2    0    0  0.00000000000E+00  0.00000000000E+00 -0.15550522931E+03  0.13177578046E+04  0.13085502495E+04 0.  0.
        1    1    3    3  502    0 -0.46376763283E+03  0.39148097264E+03  0.16838112390E+03  0.62983328915E+03  0.50400001928E-02 0. -1.
       -1    1    3    3    0  502  0.46376763283E+03 -0.39148097264E+03 -0.32388635321E+03  0.68792451550E+03  0.50400001928E-02 0.  1.
</event>
<event>
 5   0  0.1560957E-03  0.7455165E+03  0.7818609E-02  0.9642411E-01
        1   -1    0    0  501    0  0.00000000000E+00  0.00000000000E+00  0.18363361438E+03  0.18363361445E+03  0.50400001928E-02 0. -1.
       -1   -1    0    0    0  501  0.00000000000E+00  0.00000000000E+00 -0.75666268965E+03  0.75666268967E+03  0.50400001928E-02 0.  1.
    10030    2    1    2    0    0  0.00000000000E+00  0.00000000000E+00 -0.57302907528E+03  0.94029630412E+03  0.74551647763E+03 0.  0.
        5    1    3    3  502    0  0.12876666427E+03 -0.31913883450E+03 -0.46708378489E+03  0.58018945322E+03  0.46999998093E+01 0.  1.
       -5    1    3    3    0  502 -0.12876666427E+03  0.31913883450E+03 -0.10594529038E+03  0.36010685090E+03  0.46999998093E+01 0. -1.
</event>
<event>
 5   0  0.2993993E-03  0.1395218E+04  0.7818609E-02  0.8957287E-01
       -2   -1    0    0    0  501  0.00000000000E+00  0.00000000000E+00  0.69353771352E+03  0.69353771352E+03  0.25500000920E-02 0.  1.
        2   -1    0    0  501    0  0.00000000000E+00  0.00000000000E+00 -0.70170410173E+03  0.70170410173E+03  0.25500000920E-02 0. -1.
    10030    2    1    2    0    0  0.00000000000E+00  0.00000000000E+00 -0.81663882093E+01  0.13952418153E+04  0.13952179160E+04 0.  0.
        3    1    3    3  502    0  0.67020556253E+03  0.13511630640E+03  0.13457824418E+03  0.69680931847E+03  0.10100000352E+00 0. -1.
       -3    1    3    3    0  502 -0.67020556253E+03 -0.13511630640E+03 -0.14274463239E+03  0.69843249679E+03  0.10100000352E+00 0.  1.
</event>
<event>
 5   0  0.1560957E-03  0.1486159E+04  0.7818609E-02  0.8893709E-01
        1   -1    0    0  501    0  0.00000000000E+00  0.00000000000E+00  0.18760578418E+04  0.18760578418E+04  0.50400001928E-02 0. -1.
       -1   -1    0    0    0  501  0.00000000000E+00  0.00000000000E+00 -0.29432322347E+03  0.29432322351E+03  0.50400001928E-02 0.  1.
    10030    2    1    2    0    0  0.00000000000E+00  0.00000000000E+00  0.15817346184E+04  0.21703810654E+04  0.14861593340E+04 0.  0.
        5    1    3    3  502    0 -0.65533364308E+03  0.30433812768E+03  0.10440741163E+04  0.12697230919E+04  0.46999998093E+01 0. -1.
       -5    1    3    3    0  502  0.65533364308E+03 -0.30433812768E+03  0.53766050205E+03  0.90065797347E+03  0.46999998093E+01 0.  1.
</event>
<event>
 5   0  0.2917809E-03  0.1366836E+04  0.7818609E-02  0.8978180E-01
       -2   -1    0    0    0  501  0.00000000000E+00  0.00000000000E+00  0.33932711700E+03  0.33932711701E+03  0.25500000920E-02 0. -1.
        2   -1    0    0  501    0  0.00000000000E+00  0.00000000000E+00 -0.13764312777E+04  0.13764312777E+04  0.25500000920E-02 0.  1.
    10030    2    1    2    0    0  0.00000000000E+00  0.00000000000E+00 -0.10371041607E+04  0.17157583947E+04  0.13668364309E+04 0.  0.
        2    1    3    3  502    0  0.57461392591E+02  0.18895409645E+03  0.30272437281E+03  0.36145194438E+03  0.25500000920E-02 0. -1.
       -2    1    3    3    0  502 -0.57461392591E+02 -0.18895409645E+03 -0.13398285335E+04  0.13543064504E+04  0.25500000920E-02 0.  1.
</event>
<event>
 5   0  0.1586022E-03  0.1403071E+04  0.7818609E-02  0.8951599E-01
       -1   -1    0    0    0  501  0.00000000000E+00  0.00000000000E+00  0.89542995600E+03  0.89542995601E+03  0.50400001928E-02 0.  1.
        1   -1    0    0  501    0  0.00000000000E+00  0.00000000000E+00 -0.54962645969E+03  0.54962645972E+03  0.50400001928E-02 0. -1.
    10030    2    1    2    0    0  0.00000000000E+00  0.00000000000E+00  0.34580349630E+03  0.14450564157E+04  0.14030709129E+04 0.  0.
        1    1    3    3  502    0 -0.18392253011E+03  0.41843294534E+03  0.72102878455E+03  0.85369557513E+03  0.50400001928E-02 0.  1.
       -1    1    3    3    0  502  0.18392253011E+03 -0.41843294534E+03 -0.37522528824E+03  0.59136084060E+03  0.50400001928E-02 0. -1.
</event>
<event>
 5   0  0.1586022E-03  0.1411584E+04  0.7818609E-02  0.8945476E-01
       -1   -1    0    0    0  501  0.00000000000E+00  0.00000000000E+00  0.82186445600E+03  0.82186445602E+03  0.50400001928E-02 0.  1.
        1   -1    0    0  501    0  0.00000000000E+00  0.00000000000E+00 -0.60611285309E+03  0.60611285311E+03  0.50400001928E-02 0. -1.
    10030    2    1    2    0    0  0.00000000000E+00  0.00000000000E+00  0.21575160291E+03  0.14279773091E+04  0.14115843727E+04 0.  0.
        1    1    3    3  502    0  0.32464901174E+03 -0.13118766283E+03 -0.51205029837E+03  0.62032466644E+03  0.50400001928E-02 0. -1.
       -1    1    3    3    0  502 -0.32464901174E+03  0.13118766283E+03  0.72780190128E+03  0.80765264269E+03  0.50400001928E-02 0.  1.
</event>
<event>
 5   0  0.1644571E-03  0.1142262E+04  0.7818609E-02  0.9164952E-01
        1   -1    0    0  501    0  0.00000000000E+00  0.00000000000E+00  0.72982846256E+03  0.72982846257E+03  0.50400001928E-02 0. -1.
       -1   -1    0    0    0  501  0.00000000000E+00  0.00000000000E+00 -0.44694122940E+03  0.44694122943E+03  0.50400001928E-02 0.  1.
    10030    2    1    2    0    0  0.00000000000E+00  0.00000000000E+00  0.28288723315E+03  0.11767696920E+04  0.11422616694E+04 0.  0.
        4    1    3    3  502    0 -0.77976665843E+02  0.45099045091E+03  0.49340190680E+03  0.67299316621E+03  0.12699999809E+01 0. -1.
       -4    1    3    3    0  502  0.77976665843E+02 -0.45099045091E+03 -0.21051467365E+03  0.50377652580E+03  0.12699999809E+01 0.  1.
</event>
<event>
 5   0  0.2760807E-03  0.1329550E+04  0.7818609E-02  0.9006455E-01
       -2   -1    0    0    0  501  0.00000000000E+00  0.00000000000E+00  0.18822477630E+03  0.18822477631E+03  0.25500000920E-02 0.  1.
        2   -1    0    0  501    0  0.00000000000E+00  0.00000000000E+00 -0.23478607782E+04  0.23478607782E+04  0.25500000920E-02 0. -1.
    10030    2    1    2    0    0  0.00000000000E+00  0.00000000000E+00 -0.21596360019E+04  0.25360855545E+04  0.13295496527E+04 0.  0.
        4    1    3    3  502    0 -0.16483972626E+03  0.42062910998E+03 -0.14959678236E+03  0.47590103352E+03  0.12699999809E+01 0.  1.
       -4    1    3    3    0  502  0.16483972626E+03 -0.42062910998E+03 -0.20100392196E+04  0.20601845210E+04  0.12699999809E+01 0. -1.
</event>
<event>
 5   0  0.1631380E-03  0.1354073E+04  0.7818609E-02  0.8987751E-01
       -1   -1    0    0    0  501  0.00000000000E+00  0.00000000000E+00  0.96508117410E+03  0.96508117411E+03  0.50400001928E-02 0. -1.
        1   -1    0    0  501    0  0.00000000000E+00  0.00000000000E+00 -0.47496335984E+03  0.47496335986E+03  0.50400001928E-02 0.  1.
    10030    2    1    2    0    0  0.00000000000E+00  0.00000000000E+00  0.49011781427E+03  0.14400445340E+04  0.13540726672E+04 0.  0.
        3    1    3    3  502    0 -0.27201682992E+03  0.60300522328E+03  0.39832616763E+03  0.77218663617E+03  0.10100000352E+00 0. -1.
       -3    1    3    3    0  502  0.27201682992E+03 -0.60300522328E+03  0.91791646635E+02  0.66785789780E+03  0.10100000352E+00 0.  1.
</event>
<event>
 5   0  0.1560957E-03  0.1397786E+04  0.7818609E-02  0.8955422E-01
       -1   -1    0    0    0  501  0.00000000000E+00  0.00000000000E+00  0.97181674107E+03  0.97181674109E+03  0.50400001928E-02 0.  1.
        1   -1    0    0  501    0  0.00000000000E+00  0.00000000000E+00 -0.50261706558E+03  0.50261706560E+03  0.50400001928E-02 0. -1.
    10030    2    1    2    0    0  0.00000000000E+00  0.00000000000E+00  0.46919967549E+03  0.14744338067E+04  0.13977863624E+04 0.  0.
        5    1    3    3  502    0  0.10632535154E+03 -0.60888551507E+03 -0.10944929778E+03  0.62773233916E+03  0.46999998093E+01 0. -1.
       -5    1    3    3    0  502 -0.10632535154E+03  0.60888551507E+03  0.57864897328E+03  0.84670146753E+03  0.46999998093E+01 0.  1.
</event>
<event>
 5   0  0.1644571E-03  0.1419485E+04  0.7818609E-02  0.8939834E-01
        1   -1    0    0  501    0  0.00000000000E+00  0.00000000000E+00  0.84283346264E+03  0.84283346266E+03  0.50400001928E-02 0. -1.
       -1   -1    0    0    0  501  0.00000000000E+00  0.00000000000E+00 -0.59766767902E+03  0.59766767904E+03  0.50400001928E-02 0.  1.
    10030    2    1    2    0    0  0.00000000000E+00  0.00000000000E+00  0.24516578363E+03  0.14405011417E+04  0.14194848635E+04 0.  0.
        4    1    3    3  502    0 -0.17807735388E+03 -0.55421397375E+03 -0.28946820111E+03  0.65012162325E+03  0.12699999809E+01 0.  1.
       -4    1    3    3    0  502  0.17807735388E+03  0.55421397375E+03  0.53463398473E+03  0.79037951845E+03  0.12699999809E+01 0. -1.
</event>
<event>
 5   0  0.2917809E-03  0.1369385E+04  0.7818609E-02  0.8976283E-01
        2   -1    0    0  501    0  0.00000000000E+00  0.00000000000E+00  0.17231498948E+04  0.17231498948E+04  0.25500000920E-02 0. -1.
       -2   -1    0    0    0  501  0.00000000000E+00  0.00000000000E+00 -0.27206197241E+03  0.27206197242E+03  0.25500000920E-02 0.  1.
    10030    2    1    2    0    0  0.00000000000E+00  0.00000000000E+00  0.14510879224E+04  0.19952118673E+04  0.13693846197E+04 0.  0.
        2    1    3    3  502    0 -0.66643869426E+03 -0.19855139351E+02  0.95252402795E+03  0.11626851610E+04  0.25500000920E-02 0. -1.
       -2    1    3    3    0  502  0.66643869426E+03  0.19855139351E+02  0.49856389447E+03  0.83252670627E+03  0.25500000920E-02 0.  1.
</event>
<event>
 5   0  0.2760807E-03  0.7460922E+03  0.7818609E-02  0.9641501E-01
        2   -1    0    0  501    0  0.00000000000E+00  0.00000000000E+00  0.42952432443E+03  0.42952432443E+03  0.25500000920E-02 0. -1.
       -2   -1    0    0    0  501  0.00000000000E+00  0.00000000000E+00 -0.32399421444E+03  0.32399421445E+03  0.25500000920E-02 0.  1.
    10030    2    1    2    0    0  0.00000000000E+00  0.00000000000E+00  0.10553010998E+03  0.75351853889E+03  0.74609220900E+03 0.  0.
        4    1    3    3  502    0 -0.23189671739E+02  0.15813603693E+03  0.39319137220E+03  0.42443590226E+03  0.12699999809E+01 0. -1.
       -4    1    3    3    0  502  0.23189671739E+02 -0.15813603693E+03 -0.28766126222E+03  0.32908263663E+03  0.12699999809E+01 0.  1.
</event>
<event>
 5   0  0.2760807E-03  0.1430819E+04  0.7818609E-02  0.8931808E-01
        2   -1    0    0  501    0  0.00000000000E+00  0.00000000000E+00  0.15434996503E+04  0.15434996503E+04  0.25500000920E-02 0.  1.
       -2   -1    0    0    0  501  0.00000000000E+00  0.00000000000E+00 -0.33159094373E+03  0.33159094374E+03  0.25500000920E-02 0. -1.
    10030    2    1    2    0    0  0.00000000000E+00  0.00000000000E+00  0.12119087066E+04  0.18750905940E+04  0.14308186547E+04 0.  0.
        4    1    3    3  502    0 -0.62122875747E+03 -0.32889127987E+03  0.43153324459E+03  0.82481343173E+03  0.12699999809E+01 0. -1.
       -4    1    3    3    0  502  0.62122875747E+03  0.32889127987E+03  0.78037546196E+03  0.10502771623E+04  0.12699999809E+01 0.  1.
</event>
<event>
 5   0  0.1644571E-03  0.1556489E+04  0.7818609E-02  0.8847734E-01
        1   -1    0    0  501    0  0.00000000000E+00  0.00000000000E+00  0.13920970945E+04  0.13920970945E+04  0.50400001928E-02 0.  1.
       -1   -1    0    0    0  501  0.00000000000E+00  0.00000000000E+00 -0.43507322331E+03  0.43507322334E+03  0.50400001928E-02 0. -1.
    10030    2    1    2    0    0  0.00000000000E+00  0.00000000000E+00  0.95702387118E+03  0.18271703178E+04  0.15564885738E+04 0.  0.
        4    1    3    3  502    0 -0.22090077165E+02 -0.69893757852E+03  0.77556913665E+02  0.70357543870E+03  0.12699999809E+01 0. -1.
       -4    1    3    3    0  502  0.22090077165E+02  0.69893757852E+03  0.87946695751E+03  0.11235948791E+04  0.12699999809E+01 0.  1.
</event>
<event>
 5   0  0.2917809E-03  0.1405496E+04  0.7818609E-02  0.8949850E-01
        2   -1    0    0  501    0  0.00000000000E+00  0.00000000000E+00  0.15971258554E+04  0.15971258554E+04  0.25500000920E-02 0. -1.
       -2   -1    0    0    0  501  0.00000000000E+00  0.00000000000E+00 -0.30921458657E+03  0.30921458658E+03  0.25500000920E-02 0.  1.
    10030    2    1    2    0    0  0.00000000000E+00  0.00000000000E+00  0.12879112688E+04  0.19063404419E+04  0.14054958002E+04 0.  0.
        2    1    3    3  502    0  0.37378174000E+02  0.21207171298E+03  0.15512729817E+04  0.15661479506E+04  0.25500000920E-02 0. -1.
       -2    1    3    3    0  502 -0.37378174000E+02 -0.21207171298E+03 -0.26336171292E+03  0.34019249135E+03  0.25500000920E-02 0.  1.
</event>
<event>
 5   0  0.2760807E-03  0.1363453E+04  0.7818609E-02  0.8980706E-01
       -2   -1    0    0    0  501  0.00000000000E+00  0.00000000000E+00  0.72550364954E+03  0.72550364955E+03  0.25500000920E-02 0.  1.
        2   -1    0    0  501    0  0.00000000000E+00  0.00000000000E+00 -0.64059086372E+03  0.64059086372E+03  0.25500000920E-02 0. -1.
    10030    2    1    2    0    0  0.00000000000E+00  0.00000000000E+00  0.84912785827E+02  0.13660945133E+04  0.13634529834E+04 0.  0.
        4    1    3    3  502    0 -0.56454523382E+03  0.30315143836E+03  0.27558136673E+03  0.69753768228E+03  0.12699999809E+01 0.  1.
       -4    1    3    3    0  502  0.56454523382E+03 -0.30315143836E+03 -0.19066858091E+03  0.66855683099E+03  0.12699999809E+01 0. -1.
</event>
<event>
 5   0  0.2889469E-03  0.1216137E+04  0.7818609E-02  0.9098848E-01
       -2   -1    0    0    0  501  0.00000000000E+00  0.00000000000E+00  0.52567530353E+03  0.52567530354E+03  0.25500000920E-02 0. -1.
        2   -1    0    0  501    0  0.00000000000E+00  0.00000000000E+00 -0.70337603829E+03  0.70337603830E+03  0.25500000920E-02 0.  1.
    10030    2    1    2    0    0  0.00000000000E+00  0.00000000000E+00 -0.17770073476E+03  0.12290513418E+04  0.12161371838E+04 0.  0.
        5    1    3    3  502    0  0.40839414860E+03  0.44538741930E+03 -0.15716693003E+03  0.62440312922E+03  0.46999998093E+01 0.  1.
       -5    1    3    3    0  502 -0.40839414860E+03 -0.44538741930E+03 -0.20533804723E+02  0.60464821262E+03  0.46999998093E+01 0. -1.
</event>
<event>
 5   0  0.1104538E-03  0.1406041E+04  0.7818609E-02  0.8949458E-01
        4   -1    0    0  501    0  0.00000000000E+00  0.00000000000E+00  0.57989818499E+03  0.57989957566E+03  0.12699999809E+01 0.  1.
       -4   -1    0    0    0  501  0.00000000000E+00  0.00000000000E+00 -0.85228042550E+03  0.85228137173E+03  0.12699999809E+01 0. -1.
    10030    2    1    2    0    0  0.00000000000E+00  0.00000000000E+00 -0.27238224051E+03  0.14321809474E+04  0.14060406044E+04 0.  0.
        4    1    3    3  502    0 -0.23952207247E+02 -0.30680700995E+03  0.50764545047E+03  0.59364110864E+03  0.12699999809E+01 0.  1.
       -4    1    3    3    0  502  0.23952207247E+02  0.30680700995E+03 -0.78002769097E+03  0.83853983875E+03  0.12699999809E+01 0. -1.
</event>
<event>
 5   0  0.2889469E-03  0.1227486E+04  0.7818609E-02  0.9089132E-01
       -2   -1    0    0    0  501  0.00000000000E+00  0.00000000000E+00  0.16842779084E+03  0.16842779086E+03  0.25500000920E-02 0. -1.
        2   -1    0    0  501    0  0.00000000000E+00  0.00000000000E+00 -0.22364523159E+04  0.22364523159E+04  0.25500000920E-02 0.  1.
    10030    2    1    2    0    0  0.00000000000E+00  0.00000000000E+00 -0.20680245251E+04  0.24048801068E+04  0.12274864120E+04 0.  0.
        5    1    3    3  502    0  0.52710414666E+03  0.27921427579E+03 -0.75105165853E+03  0.95911421479E+03  0.46999998093E+01 0.  1.
       -5    1    3    3    0  502 -0.52710414666E+03 -0.27921427579E+03 -0.13169728665E+04  0.14457658920E+04  0.46999998093E+01 0. -1.
</event>
<event>
 5   0  0.1560957E-03  0.1491025E+04  0.7818609E-02  0.8890443E-01
        1   -1    0    0  501    0  0.00000000000E+00  0.00000000000E+00  0.13681727484E+04  0.13681727484E+04  0.50400001928E-02 0.  1.
       -1   -1    0    0    0  501  0.00000000000E+00  0.00000000000E+00 -0.40622707381E+03  0.40622707384E+03  0.50400001928E-02 0. -1.
    10030    2    1    2    0    0  0.00000000000E+00  0.00000000000E+00  0.96194567454E+03  0.17743998222E+04  0.14910248986E+04 0.  0.
        5    1    3    3  502    0 -0.48197309723E+03 -0.38814689300E+03 -0.13738468074E+02  0.61900477584E+03  0.46999998093E+01 0. -1.
       -5    1    3    3    0  502  0.48197309723E+03  0.38814689300E+03  0.97568414262E+03  0.11553950464E+04  0.46999998093E+01 0.  1.
</event>
<event>
 5   0  0.1700207E-03  0.1379409E+04  0.7818609E-02  0.8968860E-01
       -1   -1    0    0    0  501  0.00000000000E+00  0.00000000000E+00  0.34350238225E+03  0.34350238229E+03  0.50400001928E-02 0.  1.
        1   -1    0    0  501    0  0.00000000000E+00  0.00000000000E+00 -0.13848293274E+04  0.13848293274E+04  0.50400001928E-02 0. -1.
    10030    2    1    2    0    0  0.00000000000E+00  0.00000000000E+00 -0.10413269451E+04  0.17283317097E+04  0.13794088198E+04 0.  0.
        2    1    3    3  502    0 -0.35238154906E+02 -0.36913591164E+03 -0.12493049978E+04  0.13031753629E+04  0.25500000920E-02 0. -1.
       -2    1    3    3    0  502  0.35238154906E+02  0.36913591164E+03  0.20797805269E+03  0.42515634681E+03  0.25500000920E-02 0.  1.
</event>
<event>
 5   0  0.3006737E-03  0.1510197E+04  0.7818609E-02  0.8877700E-01
       -2   -1    0    0    0  501  0.00000000000E+00  0.00000000000E+00  0.34475567532E+03  0.34475567533E+03  0.25500000920E-02 0.  1.
        2   -1    0    0  501    0  0.00000000000E+00  0.00000000000E+00 -0.16538491223E+04  0.16538491223E+04  0.25500000920E-02 0. -1.
    10030    2    1    2    0    0  0.00000000000E+00  0.00000000000E+00 -0.13090934470E+04  0.19986047976E+04  0.15101971673E+04 0.  0.
        1    1    3    3  502    0 -0.12000276912E+03 -0.42876492168E+03  0.15255100707E+03  0.47065043550E+03  0.50400001928E-02 0.  1.
       -1    1    3    3    0  502  0.12000276912E+03  0.42876492168E+03 -0.14616444540E+04  0.15279543621E+04  0.50400001928E-02 0. -1.
</event>
<event>
 5   0  0.1644571E-03  0.1347018E+04  0.7818609E-02  0.8993088E-01
        1   -1    0    0  501    0  0.00000000000E+00  0.00000000000E+00  0.63097643307E+03  0.63097643309E+03  0.50400001928E-02 0. -1.
       -1   -1    0    0    0  501  0.00000000000E+00  0.00000000000E+00 -0.71890869252E+03  0.71890869253E+03  0.50400001928E-02 0.  1.
    10030    2    1    2    0    0  0.00000000000E+00  0.00000000000E+00 -0.87932259443E+02  0.13498851256E+04  0.13470181031E+04 0.  0.
        4    1    3    3  502    0 -0.28419677550E+03 -0.41078270215E+02 -0.65448987152E+03  0.71471241511E+03  0.12699999809E+01 0.  1.
       -4    1    3    3    0  502  0.28419677550E+03  0.41078270215E+02  0.56655761208E+03  0.63517271052E+03  0.12699999809E+01 0. -1.
</event>
<event>
 5   0  0.2993993E-03  0.1408745E+04  0.7818609E-02  0.8947513E-01
        2   -1    0    0  501    0  0.00000000000E+00  0.00000000000E+00  0.10376997244E+04  0.10376997245E+04  0.25500000920E-02 0.  1.
       -2   -1    0    0    0  501  0.00000000000E+00  0.00000000000E+00 -0.47811579482E+03  0.47811579483E+03  0.25500000920E-02 0. -1.
    10030    2    1    2    0    0  0.00000000000E+00  0.00000000000E+00  0.55958392963E+03  0.15158155193E+04  0.14087450139E+04 0.  0.
        3    1    3    3  502    0  0.44477873261E+02 -0.51652071574E+03  0.79286511083E+03  0.94731569456E+03  0.10100000352E+00 0.  1.
       -3    1    3    3    0  502 -0.44477873261E+02  0.51652071574E+03 -0.23328118120E+03  0.56849982472E+03  0.10100000352E+00 0. -1.
</event>
<event>
 5   0  0.1560957E-03  0.1399133E+04  0.7818609E-02  0.8954447E-01
       -1   -1    0    0    0  501  0.00000000000E+00  0.00000000000E+00  0.94605148113E+03  0.94605148114E+03  0.50400001928E-02 0. -1.
        1   -1    0    0  501    0  0.00000000000E+00  0.00000000000E+00 -0.51730075927E+03  0.51730075929E+03  0.50400001928E-02 0.  1.
    10030    2    1    2    0    0  0.00000000000E+00  0.00000000000E+00  0.42875072186E+03  0.14633522404E+04  0.13991328022E+04 0.  0.
        5    1    3    3  502    0 -0.30636206057E+03  0.33372031699E+02 -0.44246253517E+03  0.53922777161E+03  0.46999998093E+01 0.  1.
       -5    1    3    3    0  502  0.30636206057E+03 -0.33372031699E+02  0.87121325703E+03  0.92412446882E+03  0.46999998093E+01 0. -1.
</event>
<event>
 5   0  0.1631380E-03  0.1365543E+04  0.7818609E-02  0.8979145E-01
       -1   -1    0    0    0  501  0.00000000000E+00  0.00000000000E+00  0.31071761548E+03  0.31071761553E+03  0.50400001928E-02 0.  1.
        1   -1    0    0  501    0  0.00000000000E+00  0.00000000000E+00 -0.15003224476E+04  0.15003224476E+04  0.50400001928E-02 0. -1.
    10030    2    1    2    0    0  0.00000000000E+00  0.00000000000E+00 -0.11896048321E+04  0.18110400631E+04  0.13655425492E+04 0.  0.
        3    1    3    3  502    0  0.33691334866E+03 -0.36294611703E+03  0.28582338649E+02  0.49604178116E+03  0.10100000352E+00 0.  1.
       -3    1    3    3    0  502 -0.33691334866E+03  0.36294611703E+03 -0.12181871707E+04  0.13149982819E+04  0.10100000352E+00 0. -1.
</event>
<event>
 5   0  0.1104538E-03  0.1370584E+04  0.7818609E-02  0.8975391E-01
       -3   -1    0    0    0  501  0.00000000000E+00  0.00000000000E+00  0.53028802735E+03  0.53028803697E+03  0.10100000352E+00 0.  1.
        3   -1    0    0  501    0  0.00000000000E+00  0.00000000000E+00 -0.88560340065E+03  0.88560340641E+03  0.10100000352E+00 0. -1.
    10030    2    1    2    0    0  0.00000000000E+00  0.00000000000E+00 -0.35531537330E+03  0.14158914434E+04  0.13705836585E+04 0.  0.
        2    1    3    3  502    0  0.32371589674E+03  0.51572479078E+02 -0.79936010435E+03  0.86396080862E+03  0.25500000920E-02 0. -1.
       -2    1    3    3    0  502 -0.32371589674E+03 -0.51572479078E+02  0.44404473105E+03  0.55193063476E+03  0.25500000920E-02 0.  1.
</event>
<event>
 5   0  0.2917809E-03  0.1337256E+04  0.7818609E-02  0.9000531E-01
       -2   -1    0    0    0  501  0.00000000000E+00  0.00000000000E+00  0.35600521533E+03  0.35600521534E+03  0.25500000920E-02 0.  1.
        2   -1    0    0  501    0  0.00000000000E+00  0.00000000000E+00 -0.12557780256E+04  0.12557780256E+04  0.25500000920E-02 0. -1.
    10030    2    1    2    0    0  0.00000000000E+00  0.00000000000E+00 -0.89977281024E+03  0.16117832409E+04  0.13372561855E+04 0.  0.
        2    1    3    3  502    0 -0.16754397718E+03  0.21861389568E+03  0.28445209906E+03  0.39594951236E+03  0.25500000920E-02 0.  1.
       -2    1    3    3    0  502  0.16754397718E+03 -0.21861389568E+03 -0.11842249093E+04  0.12158337286E+04  0.25500000920E-02 0. -1.
</event>
<event>
 5   0  0.2889469E-03  0.1418048E+04  0.7818609E-02  0.8940857E-01
       -2   -1    0    0    0  501  0.00000000000E+00  0.00000000000E+00  0.31586620179E+03  0.31586620180E+03  0.25500000920E-02 0.  1.
        2   -1    0    0  501    0  0.00000000000E+00  0.00000000000E+00 -0.15915442515E+04  0.15915442515E+04  0.25500000920E-02 0. -1.
    10030    2    1    2    0    0  0.00000000000E+00  0.00000000000E+00 -0.12756780497E+04  0.19074104533E+04  0.14180480072E+04 0.  0.
        5    1    3    3  502    0  0.39784026148E+03 -0.39666556101E+03 -0.12196182480E+04  0.13427997624E+04  0.46999998093E+01 0. -1.
       -5    1    3    3    0  502 -0.39784026148E+03  0.39666556101E+03 -0.56059801708E+02  0.56461069093E+03  0.46999998093E+01 0.  1.
</event>
<event>
 5   0  0.1644571E-03  0.1280602E+04  0.7818609E-02  0.9045091E-01
       -1   -1    0    0    0  501  0.00000000000E+00  0.00000000000E+00  0.11942399916E+04  0.11942399916E+04  0.50400001928E-02 0.  1.
        1   -1    0    0  501    0  0.00000000000E+00  0.00000000000E+00 -0.34330241539E+03  0.34330241543E+03  0.50400001928E-02 0. -1.
    10030    2    1    2    0    0  0.00000000000E+00  0.00000000000E+00  0.85093757618E+03  0.15375424070E+04  0.12806021610E+04 0.  0.
        4    1    3    3  502    0  0.39015740369E+03  0.44914064203E+03  0.70967770303E+03  0.92606380507E+03  0.12699999809E+01 0.  1.
       -4    1    3    3    0  502 -0.39015740369E+03 -0.44914064203E+03  0.14125987315E+03  0.61147860194E+03  0.12699999809E+01 0. -1.
</event>
<event>
 5   0  0.2760807E-03  0.1007988E+04  0.7818609E-02  0.9299827E-01
        2   -1    0    0  501    0  0.00000000000E+00  0.00000000000E+00  0.89977175903E+03  0.89977175903E+03  0.25500000920E-02 0. -1.
       -2   -1    0    0    0  501  0.00000000000E+00  0.00000000000E+00 -0.28230495117E+03  0.28230495118E+03  0.25500000920E-02 0.  1.
    10030    2    1    2    0    0  0.00000000000E+00  0.00000000000E+00  0.61746680786E+03  0.11820767102E+04  0.10079881398E+04 0.  0.
        4    1    3    3  502    0 -0.35253117881E+02 -0.21848006955E+03  0.83974151419E+03  0.86841450164E+03  0.12699999809E+01 0. -1.
       -4    1    3    3    0  502  0.35253117881E+02  0.21848006955E+03 -0.22227470633E+03  0.31366220857E+03  0.12699999809E+01 0.  1.
</event>
<event>
 5   0  0.1560957E-03  0.1374019E+04  0.7818609E-02  0.8972842E-01
       -1   -1    0    0    0  501  0.00000000000E+00  0.00000000000E+00  0.21901545513E+04  0.21901545513E+04  0.50400001928E-02 0. -1.
        1   -1    0    0  501    0  0.00000000000E+00  0.00000000000E+00 -0.21550176536E+03  0.21550176542E+03  0.50400001928E-02 0.  1.
    10030    2    1    2    0    0  0.00000000000E+00  0.00000000000E+00  0.19746527859E+04  0.24056563167E+04  0.13740191735E+04 0.  0.
        5    1    3    3  502    0  0.57986080726E+03 -0.26479387152E+03  0.14357739703E+04  0.15709307222E+04  0.46999998093E+01 0. -1.
       -5    1    3    3    0  502 -0.57986080726E+03  0.26479387152E+03  0.53887881561E+03  0.83472559449E+03  0.46999998093E+01 0.  1.
</event>
<event>
 5   0  0.2917809E-03  0.1375442E+04  0.7818609E-02  0.8971789E-01
        2   -1    0    0  501    0  0.00000000000E+00  0.00000000000E+00  0.73104938056E+03  0.73104938057E+03  0.25500000920E-02 0.  1.
       -2   -1    0    0    0  501  0.00000000000E+00  0.00000000000E+00 -0.64696105503E+03  0.64696105504E+03  0.25500000920E-02 0. -1.
    10030    2    1    2    0    0  0.00000000000E+00  0.00000000000E+00  0.84088325529E+02  0.13780104356E+04  0.13754424431E+04 0.  0.
        2    1    3    3  502    0  0.22263011454E+03  0.28014834938E+03 -0.54634545478E+03  0.65310077440E+03  0.25500000920E-02 0. -1.
       -2    1    3    3    0  502 -0.22263011454E+03 -0.28014834938E+03  0.63043378030E+03  0.72490966121E+03  0.25500000920E-02 0.  1.
</event>
<event>
 5   0  0.2993993E-03  0.1442787E+04  0.7818609E-02  0.8923416E-01
        2   -1    0    0  501    0  0.00000000000E+00  0.00000000000E+00  0.46939841844E+03  0.46939841844E+03  0.25500000920E-02 0.  1.
       -2   -1    0    0    0  501  0.00000000000E+00  0.00000000000E+00 -0.11086715155E+04  0.11086715155E+04  0.25500000920E-02 0. -1.
    10030    2    1    2    0    0  0.00000000000E+00  0.00000000000E+00 -0.63927309706E+03  0.15780699339E+04  0.14427871027E+04 0.  0.
        3    1    3    3  502    0  0.84106595395E+02 -0.70621748772E+03 -0.45175858212E+03  0.84255734883E+03  0.10100000352E+00 0. -1.
       -3    1    3    3    0  502 -0.84106595395E+02  0.70621748772E+03 -0.18751451494E+03  0.73551258511E+03  0.10100000352E+00 0.  1.
</event>
<event>
 5   0  0.1700207E-03  0.1399227E+04  0.7818609E-02  0.8954378E-01
        1   -1    0    0  501    0  0.00000000000E+00  0.00000000000E+00  0.80757264675E+03  0.80757264676E+03  0.50400001928E-02 0.  1.
       -1   -1    0    0    0  501  0.00000000000E+00  0.00000000000E+00 -0.60608682228E+03  0.60608682230E+03  0.50400001928E-02 0. -1.
    10030    2    1    2    0    0  0.00000000000E+00  0.00000000000E+00  0.20148582446E+03  0.14136594691E+04  0.13992271285E+04 0.  0.
        2    1    3    3  502    0 -0.34209664821E+02  0.41952143922E+03 -0.46385081139E+03  0.62635941309E+03  0.25500000920E-02 0. -1.
       -2    1    3    3    0  502  0.34209664821E+02 -0.41952143922E+03  0.66533663585E+03  0.78730005598E+03  0.25500000920E-02 0.  1.
</event>
<event>
 5   0  0.1560957E-03  0.1417962E+04  0.7818609E-02  0.8940918E-01
       -1   -1    0    0    0  501  0.00000000000E+00  0.00000000000E+00  0.65064108393E+03  0.65064108395E+03  0.50400001928E-02 0.  1.
        1   -1    0    0  501    0  0.00000000000E+00  0.00000000000E+00 -0.77255202455E+03  0.77255202457E+03  0.50400001928E-02 0. -1.
    10030    2    1    2    0    0  0.00000000000E+00  0.00000000000E+00 -0.12191094062E+03  0.14231931085E+04  0.14179620399E+04 0.  0.
        5    1    3    3  502    0 -0.28211354486E+03 -0.95781637411E+02 -0.70665594829E+03  0.76690735654E+03  0.46999998093E+01 0. -1.
       -5    1    3    3    0  502  0.28211354486E+03  0.95781637411E+02  0.58474500767E+03  0.65628575198E+03  0.46999998093E+01 0.  1.
</event>
<event>
 5   0  0.2993993E-03  0.1489077E+04  0.7818609E-02  0.8891749E-01
       -2   -1    0    0    0  501  0.00000000000E+00  0.00000000000E+00  0.65631489649E+03  0.65631489650E+03  0.25500000920E-02 0.  1.
        2   -1    0    0  501    0  0.00000000000E+00  0.00000000000E+00 -0.84462156688E+03  0.84462156689E+03  0.25500000920E-02 0. -1.
    10030    2    1    2    0    0  0.00000000000E+00  0.00000000000E+00 -0.18830667039E+03  0.15009364634E+04  0.14890771857E+04 0.  0.
        3    1    3    3  502    0 -0.31169132907E+01 -0.31436078380E+03  0.58613309855E+03  0.66511986660E+03  0.10100000352E+00 0.  1.
       -3    1    3    3    0  502  0.31169132907E+01  0.31436078380E+03 -0.77443976894E+03  0.83581659678E+03  0.10100000352E+00 0. -1.
</event>
<event>
 5   0  0.2993993E-03  0.1345305E+04  0.7818609E-02  0.8994389E-01
        2   -1    0    0  501    0  0.00000000000E+00  0.00000000000E+00  0.13367333444E+04  0.13367333444E+04  0.25500000920E-02 0.  1.
       -2   -1    0    0    0  501  0.00000000000E+00  0.00000000000E+00 -0.33848309602E+03  0.33848309603E+03  0.25500000920E-02 0. -1.
    10030    2    1    2    0    0  0.00000000000E+00  0.00000000000E+00  0.99825024839E+03  0.16752164404E+04  0.13453053794E+04 0.  0.
        3    1    3    3  502    0  0.28244958787E+03 -0.28508425546E+03  0.11713319071E+04  0.12381717366E+04  0.10100000352E+00 0.  1.
       -3    1    3    3    0  502 -0.28244958787E+03  0.28508425546E+03 -0.17308165872E+03  0.43704470388E+03  0.10100000352E+00 0. -1.
</event>
<event>
 5   0  0.2917809E-03  0.1223622E+04  0.7818609E-02  0.9092428E-01
       -2   -1    0    0    0  501  0.00000000000E+00  0.00000000000E+00  0.27553455084E+03  0.27553455085E+03  0.25500000920E-02 0.  1.
        2   -1    0    0  501    0  0.00000000000E+00  0.00000000000E+00 -0.13584972386E+04  0.13584972386E+04  0.25500000920E-02 0. -1.
    10030    2    1    2    0    0  0.00000000000E+00  0.00000000000E+00 -0.10829626878E+04  0.16340317895E+04  0.12236223706E+04 0.  0.
        2    1    3    3  502    0 -0.57909177035E+03 -0.88441119927E+02 -0.30581421685E+03  0.66082633529E+03  0.25500000920E-02 0.  1.
       -2    1    3    3    0  502  0.57909177035E+03  0.88441119927E+02 -0.77714847093E+03  0.97320545419E+03  0.25500000920E-02 0. -1.
</event>
<event>
 5   0  0.1586022E-03  0.1075315E+04  0.7818609E-02  0.9229591E-01
       -1   -1    0    0    0  501  0.00000000000E+00  0.00000000000E+00  0.90690008282E+03  0.90690008283E+03  0.50400001928E-02 0.  1.
        1   -1    0    0  501    0  0.00000000000E+00  0.00000000000E+00 -0.31875145150E+03  0.31875145154E+03  0.50400001928E-02 0. -1.
    10030    2    1    2    0    0  0.00000000000E+00  0.00000000000E+00  0.58814863132E+03  0.12256515344E+04  0.10753152427E+04 0.  0.
        1    1    3    3  502    0 -0.83988367673E+02  0.32775885768E+03  0.77033870611E+03  0.84136890652E+03  0.50400001928E-02 0.  1.
       -1    1    3    3    0  502  0.83988367673E+02 -0.32775885768E+03 -0.18219007480E+03  0.38428262786E+03  0.50400001928E-02 0. -1.
</event>
<event>
 5   0  0.2760807E-03  0.1401996E+04  0.7818609E-02  0.8952375E-01
       -2   -1    0    0    0  501  0.00000000000E+00  0.00000000000E+00  0.33124257988E+03  0.33124257989E+03  0.25500000920E-02 0. -1.
        2   -1    0    0  501    0  0.00000000000E+00  0.00000000000E+00 -0.14834996732E+04  0.14834996732E+04  0.25500000920E-02 0.  1.
    10030    2    1    2    0    0  0.00000000000E+00  0.00000000000E+00 -0.11522570933E+04  0.18147422531E+04  0.14019960899E+04 0.  0.
        4    1    3    3  502    0  0.57871376725E+03  0.36294624938E+03 -0.77979407286E+03  0.10366870373E+04  0.12699999809E+01 0.  1.
       -4    1    3    3    0  502 -0.57871376725E+03 -0.36294624938E+03 -0.37246302049E+03  0.77805521583E+03  0.12699999809E+01 0. -1.
</event>
<event>
 5   0  0.2993993E-03  0.1441728E+04  0.7818609E-02  0.8924155E-01
        2   -1    0    0  501    0  0.00000000000E+00  0.00000000000E+00  0.19468000867E+04  0.19468000867E+04  0.25500000920E-02 0.  1.
       -2   -1    0    0    0  501  0.00000000000E+00  0.00000000000E+00 -0.26692259777E+03  0.26692259779E+03  0.25500000920E-02 0. -1.
    10030    2    1    2    0    0  0.00000000000E+00  0.00000000000E+00  0.16798774889E+04  0.22137226845E+04  0.14417280416E+04 0.  0.
        3    1    3    3  502    0  0.34869120860E+03 -0.25107640934E+03 -0.48802304195E+02  0.43244259432E+03  0.10100000352E+00 0. -1.
       -3    1    3    3    0  502 -0.34869120860E+03  0.25107640934E+03  0.17286797931E+04  0.17812800902E+04  0.10100000352E+00 0.  1.
</event>
<event>
 5   0  0.1700207E-03  0.1401561E+04  0.7818609E-02  0.8952690E-01
       -1   -1    0    0    0  501  0.00000000000E+00  0.00000000000E+00  0.75616416618E+03  0.75616416620E+03  0.50400001928E-02 0. -1.
        1   -1    0    0  501    0  0.00000000000E+00  0.00000000000E+00 -0.64945295456E+03  0.64945295458E+03  0.50400001928E-02 0.  1.
    10030    2    1    2    0    0  0.00000000000E+00  0.00000000000E+00  0.10671121162E+03  0.14056171208E+04  0.14015606328E+04 0.  0.
        2    1    3    3  502    0 -0.30470764668E+03  0.32579922044E+03  0.59538369841E+03  0.74395808371E+03  0.25500000920E-02 0. -1.
       -2    1    3    3    0  502  0.30470764668E+03 -0.32579922044E+03 -0.48867248679E+03  0.66165903707E+03  0.25500000920E-02 0.  1.
</event>
<event>
 5   0  0.1586022E-03  0.1147870E+04  0.7818609E-02  0.9159750E-01
        1   -1    0    0  501    0  0.00000000000E+00  0.00000000000E+00  0.47307582136E+03  0.47307582139E+03  0.50400001928E-02 0.  1.
       -1   -1    0    0    0  501  0.00000000000E+00  0.00000000000E+00 -0.69629780529E+03  0.69629780531E+03  0.50400001928E-02 0. -1.
    10030    2    1    2    0    0  0.00000000000E+00  0.00000000000E+00 -0.22322198392E+03  0.11693736267E+04  0.11478704738E+04 0.  0.
        1    1    3    3  502    0  0.34041110874E+03 -0.29349035204E+03  0.25198588664E+03  0.51527972674E+03  0.50400001928E-02 0.  1.
       -1    1    3    3    0  502 -0.34041110874E+03  0.29349035204E+03 -0.47520787056E+03  0.65409389996E+03  0.50400001928E-02 0. -1.
</event>
<event>
 5   0  0.3006737E-03  0.1434343E+04  0.7818609E-02  0.8929328E-01
       -2   -1    0    0    0  501  0.00000000000E+00  0.00000000000E+00  0.10746314770E+04  0.10746314770E+04  0.25500000920E-02 0.  1.
        2   -1    0    0  501    0  0.00000000000E+00  0.00000000000E+00 -0.47861513106E+03  0.47861513107E+03  0.25500000920E-02 0. -1.
    10030    2    1    2    0    0  0.00000000000E+00  0.00000000000E+00  0.59601634591E+03  0.15532466080E+04  0.14343428951E+04 0.  0.
        1    1    3    3  502    0 -0.80054630125E+02  0.55448697491E+03 -0.18684750578E+03  0.59057306034E+03  0.50400001928E-02 0. -1.
       -1    1    3    3    0  502  0.80054630125E+02 -0.55448697491E+03  0.78286385169E+03  0.96267354771E+03  0.50400001928E-02 0.  1.
</event>
<event>
 5   0  0.1560957E-03  0.1279232E+04  0.7818609E-02  0.9046198E-01
       -1   -1    0    0    0  501  0.00000000000E+00  0.00000000000E+00  0.11075118519E+04  0.11075118519E+04  0.50400001928E-02 0.  1.
        1   -1    0    0  501    0  0.00000000000E+00  0.00000000000E+00 -0.36939443195E+03  0.36939443198E+03  0.50400001928E-02 0. -1.
    10030    2    1    2    0    0  0.00000000000E+00  0.00000000000E+00  0.73811741992E+03  0.14769062839E+04  0.12792321313E+04 0.  0.
        5    1    3    3  502    0  0.38520913456E+03 -0.62234524152E+02 -0.21603342935E+03  0.44604007212E+03  0.46999998093E+01 0. -1.
       -5    1    3    3    0  502 -0.38520913456E+03  0.62234524152E+02  0.95415084928E+03  0.10308662117E+04  0.46999998093E+01 0.  1.
</event>
<event>
 5   0  0.1586022E-03  0.1385591E+04  0.7818609E-02  0.8964315E-01
        1   -1    0    0  501    0  0.00000000000E+00  0.00000000000E+00  0.97430929547E+03  0.97430929548E+03  0.50400001928E-02 0. -1.
       -1   -1    0    0    0  501  0.00000000000E+00  0.00000000000E+00 -0.49262137350E+03  0.49262137352E+03  0.50400001928E-02 0.  1.
    10030    2    1    2    0    0  0.00000000000E+00  0.00000000000E+00  0.48168792197E+03  0.14669306690E+04  0.13855909690E+04 0.  0.
        1    1    3    3  502    0  0.51997464217E+03  0.13578135785E+02  0.72531827087E+03  0.89254948790E+03  0.50400001928E-02 0. -1.
       -1    1    3    3    0  502 -0.51997464217E+03 -0.13578135785E+02 -0.24363034890E+03  0.57438118110E+03  0.50400001928E-02 0.  1.
</event>
<event>
 5   0  0.2993993E-03  0.1401821E+04  0.7818609E-02  0.8952501E-01
        2   -1    0    0  501    0  0.00000000000E+00  0.00000000000E+00  0.11294647009E+04  0.11294647009E+04  0.25500000920E-02 0. -1.
       -2   -1    0    0    0  501  0.00000000000E+00  0.00000000000E+00 -0.43496331352E+03  0.43496331353E+03  0.25500000920E-02 0.  1.
    10030    2    1    2    0    0  0.00000000000E+00  0.00000000000E+00  0.69450138736E+03  0.15644280144E+04  0.14018212565E+04 0.  0.
        3    1    3    3  502    0 -0.42584221673E+03  0.43268478169E+03  0.73819694268E+03  0.95576798976E+03  0.10100000352E+00 0. -1.
       -3    1    3    3    0  502  0.42584221673E+03 -0.43268478169E+03 -0.43695555319E+02  0.60866002466E+03  0.10100000352E+00 0.  1.
</event>
<event>
 5   0  0.1586022E-03  0.1453692E+04  0.7818609E-02  0.8915845E-01
       -1   -1    0    0    0  501  0.00000000000E+00  0.00000000000E+00  0.11237476949E+04  0.11237476949E+04  0.50400001928E-02 0.  1.
        1   -1    0    0  501    0  0.00000000000E+00  0.00000000000E+00 -0.47012818394E+03  0.47012818397E+03  0.50400001928E-02 0. -1.
    10030    2    1    2    0    0  0.00000000000E+00  0.00000000000E+00  0.65361951097E+03  0.15938758789E+04  0.14536924889E+04 0.  0.
        1    1    3    3  502    0 -0.55889841055E+03 -0.10042629246E+03  0.82427199309E+03  0.10009381560E+04  0.50400001928E-02 0.  1.
       -1    1    3    3    0  502  0.55889841055E+03  0.10042629246E+03 -0.17065248213E+03  0.59293772288E+03  0.50400001928E-02 0. -1.
</event>
<event>
 5   0  0.1586022E-03  0.1363182E+04  0.7818609E-02  0.8980909E-01
        1   -1    0    0  501    0  0.00000000000E+00  0.00000000000E+00  0.12437383121E+04  0.12437383122E+04  0.50400001928E-02 0.  1.
       -1   -1    0    0    0  501  0.00000000000E+00  0.00000000000E+00 -0.37352419916E+03  0.37352419919E+03  0.50400001928E-02 0. -1.
    10030    2    1    2    0    0  0.00000000000E+00  0.00000000000E+00  0.87021411299E+03  0.16172625113E+04  0.13631820965E+04 0.  0.
        1    1    3    3  502    0 -0.11194354465E+03 -0.63897265689E+03  0.18695925542E+03  0.67510827032E+03  0.50400001928E-02 0.  1.
       -1    1    3    3    0  502  0.11194354465E+03  0.63897265689E+03  0.68325485757E+03  0.94215424102E+03  0.50400001928E-02 0. -1.
</event>
<event>
 5   0  0.1700207E-03  0.1425238E+04  0.7818609E-02  0.8935750E-01
        1   -1    0    0  501    0  0.00000000000E+00  0.00000000000E+00  0.98025330267E+03  0.98025330269E+03  0.50400001928E-02 0. -1.
       -1   -1    0    0    0  501  0.00000000000E+00  0.00000000000E+00 -0.51805543885E+03  0.51805543888E+03  0.50400001928E-02 0.  1.
    10030    2    1    2    0    0  0.00000000000E+00  0.00000000000E+00  0.46219786382E+03  0.14983087416E+04  0.14252376011E+04 0.  0.
        2    1    3    3  502    0  0.17385414648E+03  0.48860082729E+02 -0.49360094973E+03  0.52559915288E+03  0.25500000920E-02 0.  1.
       -2    1    3    3    0  502 -0.17385414648E+03 -0.48860082729E+02  0.95579881354E+03  0.97270958868E+03  0.25500000920E-02 0. -1.
</event>
<event>
 5   0  0.3006737E-03  0.1389157E+04  0.7818609E-02  0.8961705E-01
        2   -1    0    0  501    0  0.00000000000E+00  0.00000000000E+00  0.19409141128E+04  0.19409141128E+04  0.25500000920E-02 0.  1.
       -2   -1    0    0    0  501  0.00000000000E+00  0.00000000000E+00 -0.24856288431E+03  0.24856288432E+03  0.25500000920E-02 0. -1.
    10030    2    1    2    0    0  0.00000000000E+00  0.00000000000E+00  0.16923512285E+04  0.21894769971E+04  0.13891568811E+04 0.  0.
        1    1    3    3  502    0 -0.37049428201E+03 -0.14538914109E+03  0.17433671834E+04  0.17882206663E+04  0.50400001928E-02 0.  1.
       -1    1    3    3    0  502  0.37049428201E+03  0.14538914109E+03 -0.51015954869E+02  0.40125633082E+03  0.50400001928E-02 0. -1.
</event>
<event>
 5   0  0.1104538E-03  0.1287601E+04  0.7818609E-02  0.9039456E-01
       -3   -1    0    0    0  501  0.00000000000E+00  0.00000000000E+00  0.51244594331E+03  0.51244595327E+03  0.10100000352E+00 0.  1.
        3   -1    0    0  501    0  0.00000000000E+00  0.00000000000E+00 -0.80882479284E+03  0.80882479915E+03  0.10100000352E+00 0. -1.
    10030    2    1    2    0    0  0.00000000000E+00  0.00000000000E+00 -0.29637884953E+03  0.13212707524E+04  0.12876008616E+04 0.  0.
        2    1    3    3  502    0 -0.17187385146E+03  0.62042384085E+03 -0.14454239614E+03  0.65981729850E+03  0.25500000920E-02 0. -1.
       -2    1    3    3    0  502  0.17187385146E+03 -0.62042384085E+03 -0.15183645339E+03  0.66145345391E+03  0.25500000920E-02 0.  1.
</event>
<event>
 5   0  0.2993993E-03  0.1356299E+04  0.7818609E-02  0.8986074E-01
       -2   -1    0    0    0  501  0.00000000000E+00  0.00000000000E+00  0.18442240076E+04  0.18442240076E+04  0.25500000920E-02 0. -1.
        2   -1    0    0  501    0  0.00000000000E+00  0.00000000000E+00 -0.24936592367E+03  0.24936592368E+03  0.25500000920E-02 0.  1.
    10030    2    1    2    0    0  0.00000000000E+00  0.00000000000E+00  0.15948580839E+04  0.20935899313E+04  0.13562988212E+04 0.  0.
        3    1    3    3  502    0 -0.26248371406E+03  0.59485344652E+03  0.49995629228E+03  0.82018572737E+03  0.10100000352E+00 0.  1.
       -3    1    3    3    0  502  0.26248371406E+03 -0.59485344652E+03  0.10949017916E+04  0.12734042039E+04  0.10100000352E+00 0. -1.
</event>
<event>
 5   0  0.2917809E-03  0.1447530E+04  0.7818609E-02  0.8920115E-01
       -2   -1    0    0    0  501  0.00000000000E+00  0.00000000000E+00  0.73340472377E+03  0.73340472378E+03  0.25500000920E-02 0. -1.
        2   -1    0    0  501    0  0.00000000000E+00  0.00000000000E+00 -0.71425216725E+03  0.71425216725E+03  0.25500000920E-02 0.  1.
    10030    2    1    2    0    0  0.00000000000E+00  0.00000000000E+00  0.19152556522E+02  0.14476568910E+04  0.14475301910E+04 0.  0.
        2    1    3    3  502    0 -0.23951027258E+03 -0.67362772135E+03 -0.10311204623E+03  0.72233757463E+03  0.25500000920E-02 0.  1.
       -2    1    3    3    0  502  0.23951027258E+03  0.67362772135E+03  0.12226460275E+03  0.72531931640E+03  0.25500000920E-02 0. -1.
</event>
<event>
 5   0  0.2760807E-03  0.1706654E+04  0.7818609E-02  0.8757578E-01
       -2   -1    0    0    0  501  0.00000000000E+00  0.00000000000E+00  0.77534709126E+03  0.77534709126E+03  0.25500000920E-02 0.  1.
        2   -1    0    0  501    0  0.00000000000E+00  0.00000000000E+00 -0.93914977679E+03  0.93914977680E+03  0.25500000920E-02 0. -1.
    10030    2    1    2    0    0  0.00000000000E+00  0.00000000000E+00 -0.16380268554E+03  0.17144968681E+04  0.17066540923E+04 0.  0.
        4    1    3    3  502    0  0.32866871522E+02 -0.16389415452E+03 -0.92254058118E+03  0.93756293759E+03  0.12699999809E+01 0. -1.
       -4    1    3    3    0  502 -0.32866871522E+02  0.16389415452E+03  0.75873789564E+03  0.77693393047E+03  0.12699999809E+01 0.  1.
</event>
<event>
 5   0  0.2993993E-03  0.1366858E+04  0.7818609E-02  0.8978164E-01
       -2   -1    0    0    0  501  0.00000000000E+00  0.00000000000E+00  0.36400334897E+03  0.36400334897E+03  0.25500000920E-02 0.  1.
        2   -1    0    0  501    0  0.00000000000E+00  0.00000000000E+00 -0.12831612080E+04  0.12831612080E+04  0.25500000920E-02 0. -1.
    10030    2    1    2    0    0  0.00000000000E+00  0.00000000000E+00 -0.91915785908E+03  0.16471645570E+04  0.13668576766E+04 0.  0.
        3    1    3    3  502    0 -0.12359480292E+03 -0.17245490888E+03  0.32330984764E+03  0.38671131182E+03  0.10100000352E+00 0.  1.
       -3    1    3    3    0  502  0.12359480292E+03  0.17245490888E+03 -0.12424677067E+04  0.12604532452E+04  0.10100000352E+00 0. -1.
</event>
<event>
 5   0  0.1586022E-03  0.1390938E+04  0.7818609E-02  0.8960404E-01
       -1   -1    0    0    0  501  0.00000000000E+00  0.00000000000E+00  0.14480108600E+04  0.14480108600E+04  0.50400001928E-02 0.  1.
        1   -1    0    0  501    0  0.00000000000E+00  0.00000000000E+00 -0.33402861954E+03  0.33402861958E+03  0.50400001928E-02 0. -1.
    10030    2    1    2    0    0  0.00000000000E+00  0.00000000000E+00  0.11139822404E+04  0.17820394796E+04  0.13909379119E+04 0.  0.
        1    1    3    3  502    0 -0.91533025865E+02 -0.68567517252E+03  0.64891806642E+03  0.94848478849E+03  0.50400001928E-02 0. -1.
       -1    1    3    3    0  502  0.91533025865E+02  0.68567517252E+03  0.46506417401E+03  0.83355469107E+03  0.50400001928E-02 0.  1.
</event>
<event>
 5   0  0.1104538E-03  0.1330064E+04  0.7818609E-02  0.9006058E-01
       -3   -1    0    0    0  501  0.00000000000E+00  0.00000000000E+00  0.12406641189E+04  0.12406641230E+04  0.10100000352E+00 0. -1.
        3   -1    0    0  501    0  0.00000000000E+00  0.00000000000E+00 -0.35647658466E+03  0.35647659897E+03  0.10100000352E+00 0.  1.
    10030    2    1    2    0    0  0.00000000000E+00  0.00000000000E+00  0.88418753422E+03  0.15971407220E+04  0.13300642428E+04 0.  0.
        2    1    3    3  502    0 -0.34060488115E+03 -0.52042265049E+03  0.15941750711E+03  0.64207893735E+03  0.25500000920E-02 0.  1.
       -2    1    3    3    0  502  0.34060488115E+03  0.52042265049E+03  0.72477002711E+03  0.95506178460E+03  0.25500000920E-02 0. -1.
</event>
<event>
 5   0  0.1104538E-03  0.1404055E+04  0.7818609E-02  0.8950888E-01
        3   -1    0    0  501    0  0.00000000000E+00  0.00000000000E+00  0.13633420252E+04  0.13633420290E+04  0.10100000352E+00 0.  1.
       -3   -1    0    0    0  501  0.00000000000E+00  0.00000000000E+00 -0.36149609759E+03  0.36149611170E+03  0.10100000352E+00 0. -1.
    10030    2    1    2    0    0  0.00000000000E+00  0.00000000000E+00  0.10018459276E+04  0.17248381407E+04  0.14040553226E+04 0.  0.
        1    1    3    3  502    0 -0.68915781755E+03 -0.89811821034E+02  0.62277181285E+03  0.93319311592E+03  0.50400001928E-02 0. -1.
       -1    1    3    3    0  502  0.68915781755E+03  0.89811821034E+02  0.37907411479E+03  0.79164502476E+03  0.50400001928E-02 0.  1.
</event>
<event>
 5   0  0.2760807E-03  0.1359164E+04  0.7818609E-02  0.8983920E-01
       -2   -1    0    0    0  501  0.00000000000E+00  0.00000000000E+00  0.41315922584E+03  0.41315922585E+03  0.25500000920E-02 0. -1.
        2   -1    0    0  501    0  0.00000000000E+00  0.00000000000E+00 -0.11178054718E+04  0.11178054718E+04  0.25500000920E-02 0.  1.
    10030    2    1    2    0    0  0.00000000000E+00  0.00000000000E+00 -0.70464624592E+03  0.15309646976E+04  0.13591639244E+04 0.  0.
        4    1    3    3  502    0 -0.34401874127E+03  0.53038500250E+03 -0.71460563826E+02  0.63621173386E+03  0.12699999809E+01 0. -1.
       -4    1    3    3    0  502  0.34401874127E+03 -0.53038500250E+03 -0.63318568209E+03  0.89475296374E+03  0.12699999809E+01 0.  1.
</event>
<event>
 5   0  0.2917809E-03  0.1430470E+04  0.7818609E-02  0.8932053E-01
       -2   -1    0    0    0  501  0.00000000000E+00  0.00000000000E+00  0.25942715727E+03  0.25942715728E+03  0.25500000920E-02 0.  1.
        2   -1    0    0  501    0  0.00000000000E+00  0.00000000000E+00 -0.19718882564E+04  0.19718882564E+04  0.25500000920E-02 0. -1.
    10030    2    1    2    0    0  0.00000000000E+00  0.00000000000E+00 -0.17124610992E+04  0.22313154137E+04  0.14304703630E+04 0.  0.
        2    1    3    3  502    0 -0.38122176598E+03  0.19840391237E+03  0.35570099694E+02  0.43123007699E+03  0.25500000920E-02 0.  1.
       -2    1    3    3    0  502  0.38122176598E+03 -0.19840391237E+03 -0.17480311989E+04  0.18000853367E+04  0.25500000920E-02 0. -1.
</event>
<event>
 5   0  0.1700207E-03  0.1438672E+04  0.7818609E-02  0.8926292E-01
        1   -1    0    0  501    0  0.00000000000E+00  0.00000000000E+00  0.15624280845E+04  0.15624280846E+04  0.50400001928E-02 0. -1.
       -1   -1    0    0    0  501  0.00000000000E+00  0.00000000000E+00 -0.33117980598E+03  0.33117980602E+03  0.50400001928E-02 0.  1.
    10030    2    1    2    0    0  0.00000000000E+00  0.00000000000E+00  0.12312482786E+04  0.18936078906E+04  0.14386724852E+04 0.  0.
        2    1    3    3  502    0 -0.49699176392E+03  0.20075486803E+03 -0.15806130353E+02  0.53623983832E+03  0.25500000920E-02 0.  1.
       -2    1    3    3    0  502  0.49699176392E+03 -0.20075486803E+03  0.12470544089E+04  0.13573680522E+04  0.25500000920E-02 0. -1.
</event>
<event>
 5   0  0.1104538E-03  0.1392034E+04  0.7818609E-02  0.8959605E-01
        4   -1    0    0  501    0  0.00000000000E+00  0.00000000000E+00  0.61067573999E+03  0.61067706058E+03  0.12699999809E+01 0.  1.
       -4   -1    0    0    0  501  0.00000000000E+00  0.00000000000E+00 -0.79328201929E+03  0.79328303589E+03  0.12699999809E+01 0. -1.
    10030    2    1    2    0    0  0.00000000000E+00  0.00000000000E+00 -0.18260627930E+03  0.14039600965E+04  0.13920340869E+04 0.  0.
        1    1    3    3  502    0  0.45454554018E+03  0.50341108560E+03 -0.24886368094E+03  0.72247318353E+03  0.50400001928E-02 0. -1.
       -1    1    3    3    0  502 -0.45454554018E+03 -0.50341108560E+03  0.66257401648E+02  0.68148691293E+03  0.50400001928E-02 0.  1.
</event>
<event>
 5   0  0.3006737E-03  0.1362940E+04  0.7818609E-02  0.8981090E-01
        2   -1    0    0  501    0  0.00000000000E+00  0.00000000000E+00  0.17303167826E+04  0.17303167826E+04  0.25500000920E-02 0. -1.
       -2   -1    0    0    0  501  0.00000000000E+00  0.00000000000E+00 -0.26839089338E+03  0.26839089339E+03  0.25500000920E-02 0.  1.
    10030    2    1    2    0    0  0.00000000000E+00  0.00000000000E+00  0.14619258892E+04  0.19987076760E+04  0.13629398624E+04 0.  0.
        1    1    3    3  502    0  0.32519214615E+03 -0.46476140542E+03  0.12848302005E+04  0.14044720503E+04  0.50400001928E-02 0. -1.
       -1    1    3    3    0  502 -0.32519214615E+03  0.46476140542E+03  0.17709568872E+03  0.59423562572E+03  0.50400001928E-02 0.  1.
</event>
<event>
 5   0  0.1586022E-03  0.1361186E+04  0.7818609E-02  0.8982403E-01
       -1   -1    0    0    0  501  0.00000000000E+00  0.00000000000E+00  0.49118358966E+03  0.49118358969E+03  0.50400001928E-02 0. -1.
        1   -1    0    0  501    0  0.00000000000E+00  0.00000000000E+00 -0.94304228625E+03  0.94304228626E+03  0.50400001928E-02 0.  1.
    10030    2    1    2    0    0  0.00000000000E+00  0.00000000000E+00 -0.45185869658E+03  0.14342258759E+04  0.13611860937E+04 0.  0.
        1    1    3    3  502    0  0.19408702736E+03 -0.62853081743E+03 -0.40990113157E+03  0.77507399668E+03  0.50400001928E-02 0.  1.
       -1    1    3    3    0  502 -0.19408702736E+03  0.62853081743E+03 -0.41957565014E+02  0.65915187926E+03  0.50400001928E-02 0. -1.
</event>
<event>
 5   0  0.1560957E-03  0.1283868E+04  0.7818609E-02  0.9042457E-01
        1   -1    0    0  501    0  0.00000000000E+00  0.00000000000E+00  0.72076089515E+03  0.72076089517E+03  0.50400001928E-02 0.  1.
       -1   -1    0    0    0  501  0.00000000000E+00  0.00000000000E+00 -0.57172776534E+03  0.57172776536E+03  0.50400001928E-02 0. -1.
    10030    2    1    2    0    0  0.00000000000E+00  0.00000000000E+00  0.14903312982E+03  0.12924886605E+04  0.12838676193E+04 0.  0.
        5    1    3    3  502    0  0.28308774910E+03  0.50043198858E+03 -0.21285791692E+03  0.61310800980E+03  0.46999998093E+01 0. -1.
       -5    1    3    3    0  502 -0.28308774910E+03 -0.50043198858E+03  0.36189104674E+03  0.67938065073E+03  0.46999998093E+01 0.  1.
</event>
<event>
 5   0  0.1586022E-03  0.1383833E+04  0.7818609E-02  0.8965605E-01
        1   -1    0    0  501    0  0.00000000000E+00  0.00000000000E+00  0.85513163586E+03  0.85513163588E+03  0.50400001928E-02 0. -1.
       -1   -1    0    0    0  501  0.00000000000E+00  0.00000000000E+00 -0.55985327607E+03  0.55985327610E+03  0.50400001928E-02 0.  1.
    10030    2    1    2    0    0  0.00000000000E+00  0.00000000000E+00  0.29527835979E+03  0.14149849120E+04  0.13838327180E+04 0.  0.
        1    1    3    3  502    0  0.68548379874E+03  0.73248146959E+02  0.20808784822E+03  0.72010685455E+03  0.50400001928E-02 0.  1.
       -1    1    3    3    0  502 -0.68548379874E+03 -0.73248146959E+02  0.87190511572E+02  0.69487805743E+03  0.50400001928E-02 0. -1.
</event>
<event>
 5   0  0.1631380E-03  0.1407492E+04  0.7818609E-02  0.8948413E-01
        1   -1    0    0  501    0  0.00000000000E+00  0.00000000000E+00  0.72046494215E+03  0.72046494217E+03  0.50400001928E-02 0. -1.
       -1   -1    0    0    0  501  0.00000000000E+00  0.00000000000E+00 -0.68741539483E+03  0.68741539485E+03  0.50400001928E-02 0.  1.
    10030    2    1    2    0    0  0.00000000000E+00  0.00000000000E+00  0.33049547323E+02  0.14078803370E+04  0.14074923697E+04 0.  0.
        3    1    3    3  502    0  0.40345984974E+03 -0.23778915900E+03  0.54196486434E+03  0.71627470908E+03  0.10100000352E+00 0. -1.
       -3    1    3    3    0  502 -0.40345984974E+03  0.23778915900E+03 -0.50891531702E+03  0.69160562793E+03  0.10100000352E+00 0.  1.
</event>
<event>
 5   0  0.2993993E-03  0.1408164E+04  0.7818609E-02  0.8947930E-01
       -2   -1    0    0    0  501  0.00000000000E+00  0.00000000000E+00  0.58219498005E+03  0.58219498005E+03  0.25500000920E-02 0. -1.
        2   -1    0    0  501    0  0.00000000000E+00  0.00000000000E+00 -0.85148664935E+03  0.85148664936E+03  0.25500000920E-02 0.  1.
    10030    2    1    2    0    0  0.00000000000E+00  0.00000000000E+00 -0.26929166931E+03  0.14336816294E+04  0.14081637019E+04 0.  0.
        3    1    3    3  502    0 -0.37759516069E+03  0.54249062250E+03 -0.38164692127E+03  0.76323558853E+03  0.10100000352E+00 0.  1.
       -3    1    3    3    0  502  0.37759516069E+03 -0.54249062250E+03  0.11235525197E+03  0.67044604088E+03  0.10100000352E+00 0. -1.
</event>
<event>
 5   0  0.3006737E-03  0.1363424E+04  0.7818609E-02  0.8980728E-01
       -2   -1    0    0    0  501  0.00000000000E+00  0.00000000000E+00  0.30443457742E+03  0.30443457743E+03  0.25500000920E-02 0. -1.
        2   -1    0    0  501    0  0.00000000000E+00  0.00000000000E+00 -0.15265396825E+04  0.15265396825E+04  0.25500000920E-02 0.  1.
    10030    2    1    2    0    0  0.00000000000E+00  0.00000000000E+00 -0.12221051051E+04  0.18309742600E+04  0.13634243113E+04 0.  0.
        1    1    3    3  502    0  0.36419768216E+03 -0.41378157678E+03 -0.11496908944E+04  0.12750075677E+04  0.50400001928E-02 0.  1.
       -1    1    3    3    0  502 -0.36419768216E+03  0.41378157678E+03 -0.72414210697E+02  0.55596669227E+03  0.50400001928E-02 0. -1.
</event>
<event>
 5   0  0.1104538E-03  0.9608250E+03  0.7818609E-02  0.9352587E-01
        3   -1    0    0  501    0  0.00000000000E+00  0.00000000000E+00  0.11677845146E+03  0.11677849514E+03  0.10100000352E+00 0.  1.
       -3   -1    0    0    0  501  0.00000000000E+00  0.00000000000E+00 -0.19763586650E+04  0.19763586676E+04  0.10100000352E+00 0. -1.
    10030    2    1    2    0    0  0.00000000000E+00  0.00000000000E+00 -0.18595802135E+04  0.20931371627E+04  0.96082496396E+03 0.  0.
        4    1    3    3  502    0  0.25557461119E+03 -0.46604886471E+02 -0.18101333009E+04  0.18286811032E+04  0.12699999809E+01 0. -1.
       -4    1    3    3    0  502 -0.25557461119E+03  0.46604886471E+02 -0.49446912611E+02  0.26445605947E+03  0.12699999809E+01 0.  1.
</event>
<event>
 5   0  0.2760807E-03  0.1387294E+04  0.7818609E-02  0.8963067E-01
        2   -1    0    0  501    0  0.00000000000E+00  0.00000000000E+00  0.18365179321E+04  0.18365179321E+04  0.25500000920E-02 0. -1.
       -2   -1    0    0    0  501  0.00000000000E+00  0.00000000000E+00 -0.26198837564E+03  0.26198837566E+03  0.25500000920E-02 0.  1.
    10030    2    1    2    0    0  0.00000000000E+00  0.00000000000E+00  0.15745295564E+04  0.20985063077E+04  0.13872942729E+04 0.  0.
        4    1    3    3  502    0  0.22018395492E+03  0.31482812286E+03  0.16608800461E+04  0.17047351294E+04  0.12699999809E+01 0. -1.
       -4    1    3    3    0  502 -0.22018395492E+03 -0.31482812286E+03 -0.86350489647E+02  0.39377117836E+03  0.12699999809E+01 0.  1.
</event>
<event>
 5   0  0.1700207E-03  0.1403003E+04  0.7818609E-02  0.8951648E-01
       -1   -1    0    0    0  501  0.00000000000E+00  0.00000000000E+00  0.73107538526E+03  0.73107538528E+03  0.50400001928E-02 0.  1.
        1   -1    0    0  501    0  0.00000000000E+00  0.00000000000E+00 -0.67312412542E+03  0.67312412544E+03  0.50400001928E-02 0. -1.
    10030    2    1    2    0    0  0.00000000000E+00  0.00000000000E+00  0.57951259842E+02  0.14041995107E+04  0.14030031780E+04 0.  0.
        2    1    3    3  502    0  0.25860550812E+03 -0.77028456454E+01 -0.62362970488E+03  0.67516675827E+03  0.25500000920E-02 0. -1.
       -2    1    3    3    0  502 -0.25860550812E+03  0.77028456454E+01  0.68158096472E+03  0.72903275245E+03  0.25500000920E-02 0.  1.
</event>
<event>
 5   0  0.2889469E-03  0.1358692E+04  0.7818609E-02  0.8984274E-01
        2   -1    0    0  501    0  0.00000000000E+00  0.00000000000E+00  0.14115633233E+04  0.14115633233E+04  0.25500000920E-02 0.  1.
       -2   -1    0    0    0  501  0.00000000000E+00  0.00000000000E+00 -0.32695024577E+03  0.32695024578E+03  0.25500000920E-02 0. -1.
    10030    2    1    2    0    0  0.00000000000E+00  0.00000000000E+00  0.10846130775E+04  0.17385135691E+04  0.13586919820E+04 0.  0.
        5    1    3    3  502    0 -0.18983848927E+03  0.14868269597E+03 -0.27032693074E+03  0.36227604885E+03  0.46999998093E+01 0. -1.
       -5    1    3    3    0  502  0.18983848927E+03 -0.14868269597E+03  0.13549400083E+04  0.13762375202E+04  0.46999998093E+01 0.  1.
</event>
<event>
 5   0  0.2889469E-03  0.1442502E+04  0.7818609E-02  0.8923615E-01
        2   -1    0    0  501    0  0.00000000000E+00  0.00000000000E+00  0.21557657912E+04  0.21557657912E+04  0.25500000920E-02 0.  1.
       -2   -1    0    0    0  501  0.00000000000E+00  0.00000000000E+00 -0.24130772425E+03  0.24130772427E+03  0.25500000920E-02 0. -1.
    10030    2    1    2    0    0  0.00000000000E+00  0.00000000000E+00  0.19144580670E+04  0.23970735155E+04  0.14425019059E+04 0.  0.
        5    1    3    3  502    0 -0.43209629294E+03  0.45421339711E+03  0.15498087186E+04  0.16718092507E+04  0.46999998093E+01 0.  1.
       -5    1    3    3    0  502  0.43209629294E+03 -0.45421339711E+03  0.36464934831E+03  0.72526426473E+03  0.46999998093E+01 0. -1.
</event>
<event>
 5   0  0.2993993E-03  0.1347621E+04  0.7818609E-02  0.8992631E-01
        2   -1    0    0  501    0  0.00000000000E+00  0.00000000000E+00  0.13145612394E+04  0.13145612394E+04  0.25500000920E-02 0. -1.
       -2   -1    0    0    0  501  0.00000000000E+00  0.00000000000E+00 -0.34537785081E+03  0.34537785081E+03  0.25500000920E-02 0.  1.
    10030    2    1    2    0    0  0.00000000000E+00  0.00000000000E+00  0.96918338855E+03  0.16599390902E+04  0.13476206226E+04 0.  0.
        3    1    3    3  502    0 -0.43112400851E+03  0.17107734106E+02  0.11220888120E+04  0.12021829717E+04  0.10100000352E+00 0. -1.
       -3    1    3    3    0  502  0.43112400851E+03 -0.17107734106E+02 -0.15290542343E+03  0.45775611847E+03  0.10100000352E+00 0.  1.
</event>
<event>
 5   0  0.2889469E-03  0.1346018E+04  0.7818609E-02  0.8993848E-01
       -2   -1    0    0    0  501  0.00000000000E+00  0.00000000000E+00  0.25837305111E+03  0.25837305112E+03  0.25500000920E-02 0. -1.
        2   -1    0    0  501    0  0.00000000000E+00  0.00000000000E+00 -0.17530502012E+04  0.17530502012E+04  0.25500000920E-02 0.  1.
    10030    2    1    2    0    0  0.00000000000E+00  0.00000000000E+00 -0.14946771501E+04  0.20114232523E+04  0.13460177253E+04 0.  0.
        5    1    3    3  502    0 -0.20983590100E+03 -0.22099096080E+02  0.20764349070E+03  0.29606989821E+03  0.46999998093E+01 0. -1.
       -5    1    3    3    0  502  0.20983590100E+03  0.22099096080E+02 -0.17023206408E+04  0.17153533541E+04  0.46999998093E+01 0.  1.
</event>
<event>
 5   0  0.2917809E-03  0.1389620E+04  0.7818609E-02  0.8961367E-01
       -2   -1    0    0    0  501  0.00000000000E+00  0.00000000000E+00  0.67094743003E+03  0.67094743004E+03  0.25500000920E-02 0.  1.
        2   -1    0    0  501    0  0.00000000000E+00  0.00000000000E+00 -0.71952094509E+03  0.71952094509E+03  0.25500000920E-02 0. -1.
    10030    2    1    2    0    0  0.00000000000E+00  0.00000000000E+00 -0.48573515057E+02  0.13904683751E+04  0.13896197019E+04 0.  0.
        2    1    3    3  502    0  0.42806072251E+03  0.79065418336E+02 -0.56616472687E+03  0.71416372107E+03  0.25500000920E-02 0. -1.
       -2    1    3    3    0  502 -0.42806072251E+03 -0.79065418336E+02  0.51759121182E+03  0.67630465405E+03  0.25500000920E-02 0.  1.
</event>
<event>
 5   0  0.2889469E-03  0.1350888E+04  0.7818609E-02  0.8990156E-01
        2   -1    0    0  501    0  0.00000000000E+00  0.00000000000E+00  0.89503764708E+03  0.89503764708E+03  0.25500000920E-02 0.  1.
       -2   -1    0    0    0  501  0.00000000000E+00  0.00000000000E+00 -0.50972694998E+03  0.50972694999E+03  0.25500000920E-02 0. -1.
    10030    2    1    2    0    0  0.00000000000E+00  0.00000000000E+00  0.38531069710E+03  0.14047645971E+04  0.13508883151E+04 0.  0.
        5    1    3    3  502    0  0.20373988839E+03  0.64396499586E+03  0.19123639139E+03  0.70199309498E+03  0.46999998093E+01 0. -1.
       -5    1    3    3    0  502 -0.20373988839E+03 -0.64396499586E+03  0.19407430571E+03  0.70277150209E+03  0.46999998093E+01 0.  1.
</event>
<event>
 5   0  0.2917809E-03  0.1401177E+04  0.7818609E-02  0.8952967E-01
       -2   -1    0    0    0  501  0.00000000000E+00  0.00000000000E+00  0.70897183247E+03  0.70897183247E+03  0.25500000920E-02 0. -1.
        2   -1    0    0  501    0  0.00000000000E+00  0.00000000000E+00 -0.69230448111E+03  0.69230448112E+03  0.25500000920E-02 0.  1.
    10030    2    1    2    0    0  0.00000000000E+00  0.00000000000E+00  0.16667351357E+02  0.14012763136E+04  0.14011771860E+04 0.  0.
        2    1    3    3  502    0  0.64181401196E+03  0.48829195551E+02 -0.26829908980E+03  0.69734777398E+03  0.25500000920E-02 0. -1.
       -2    1    3    3    0  502 -0.64181401196E+03 -0.48829195551E+02  0.28496644116E+03  0.70392853961E+03  0.25500000920E-02 0.  1.
</event>
<event>
 5   0  0.2760807E-03  0.1399806E+04  0.7818609E-02  0.8953959E-01
       -2   -1    0    0    0  501  0.00000000000E+00  0.00000000000E+00  0.65080275196E+03  0.65080275196E+03  0.25500000920E-02 0.  1.
        2   -1    0    0  501    0  0.00000000000E+00  0.00000000000E+00 -0.75270787133E+03  0.75270787134E+03  0.25500000920E-02 0. -1.
    10030    2    1    2    0    0  0.00000000000E+00  0.00000000000E+00 -0.10190511938E+03  0.14035106233E+04  0.13998062067E+04 0.  0.
        4    1    3    3  502    0  0.24017608670E+02  0.20485189559E+03  0.61963844344E+03  0.65306550831E+03  0.12699999809E+01 0.  1.
       -4    1    3    3    0  502 -0.24017608670E+02 -0.20485189559E+03 -0.72154356282E+03  0.75044511499E+03  0.12699999809E+01 0. -1.
</event>
<event>
 5   0  0.3006737E-03  0.1419102E+04  0.7818609E-02  0.8940106E-01
        2   -1    0    0  501    0  0.00000000000E+00  0.00000000000E+00  0.69844015278E+03  0.69844015279E+03  0.25500000920E-02 0.  1.
       -2   -1    0    0    0  501  0.00000000000E+00  0.00000000000E+00 -0.72083874175E+03  0.72083874176E+03  0.25500000920E-02 0. -1.
    10030    2    1    2    0    0  0.00000000000E+00  0.00000000000E+00 -0.22398588967E+02  0.14192788945E+04  0.14191021400E+04 0.  0.
        1    1    3    3  502    0  0.21805234957E+03  0.93609785460E+02 -0.67997765686E+03  0.72019388566E+03  0.50400001928E-02 0. -1.
       -1    1    3    3    0  502 -0.21805234957E+03 -0.93609785460E+02  0.65757906789E+03  0.69908500888E+03  0.50400001928E-02 0.  1.
</event>
<event>
 5   0  0.1586022E-03  0.9020663E+03  0.7818609E-02  0.9423002E-01
       -1   -1    0    0    0  501  0.00000000000E+00  0.00000000000E+00  0.74292236417E+03  0.74292236419E+03  0.50400001928E-02 0.  1.
        1   -1    0    0  501    0  0.00000000000E+00  0.00000000000E+00 -0.27382524342E+03  0.27382524346E+03  0.50400001928E-02 0. -1.
    10030    2    1    2    0    0  0.00000000000E+00  0.00000000000E+00  0.46909712075E+03  0.10167476077E+04  0.90206628857E+03 0.  0.
        1    1    3    3  502    0 -0.15022138095E+03 -0.32414859739E+03 -0.75754983711E+02  0.36520897315E+03  0.50400001928E-02 0. -1.
       -1    1    3    3    0  502  0.15022138095E+03  0.32414859739E+03  0.54485210446E+03  0.65153863450E+03  0.50400001928E-02 0.  1.
</event>
<event>
 5   0  0.1560957E-03  0.1400925E+04  0.7818609E-02  0.8953149E-01
       -1   -1    0    0    0  501  0.00000000000E+00  0.00000000000E+00  0.46354130690E+03  0.46354130693E+03  0.50400001928E-02 0. -1.
        1   -1    0    0  501    0  0.00000000000E+00  0.00000000000E+00 -0.10584769097E+04  0.10584769097E+04  0.50400001928E-02 0.  1.
    10030    2    1    2    0    0  0.00000000000E+00  0.00000000000E+00 -0.59493560281E+03  0.15220182166E+04  0.14009250802E+04 0.  0.
        5    1    3    3  502    0 -0.30372953008E+02  0.67668664163E+03 -0.49120242893E+03  0.83673726069E+03  0.46999998093E+01 0. -1.
       -5    1    3    3    0  502  0.30372953008E+02 -0.67668664163E+03 -0.10373317388E+03  0.68528095596E+03  0.46999998093E+01 0.  1.
</event>
<event>
 5   0  0.1700207E-03  0.1374577E+04  0.7818609E-02  0.8972429E-01
       -1   -1    0    0    0  501  0.00000000000E+00  0.00000000000E+00  0.23957205012E+03  0.23957205017E+03  0.50400001928E-02 0.  1.
        1   -1    0    0  501    0  0.00000000000E+00  0.00000000000E+00 -0.19717062103E+04  0.19717062103E+04  0.50400001928E-02 0. -1.
    10030    2    1    2    0    0  0.00000000000E+00  0.00000000000E+00 -0.17321341602E+04  0.22112782604E+04  0.13745773155E+04 0.  0.
        2    1    3    3  502    0 -0.11920583433E+02 -0.68070191601E+03 -0.10175624349E+04  0.12243081751E+04  0.25500000920E-02 0.  1.
       -2    1    3    3    0  502  0.11920583433E+02  0.68070191601E+03 -0.71457172524E+03  0.98697008531E+03  0.25500000920E-02 0. -1.
</event>
<event>
 5   0  0.1560957E-03  0.1366469E+04  0.7818609E-02  0.8978454E-01
        1   -1    0    0  501    0  0.00000000000E+00  0.00000000000E+00  0.93503514034E+03  0.93503514036E+03  0.50400001928E-02 0. -1.
       -1   -1    0    0    0  501  0.00000000000E+00  0.00000000000E+00 -0.49924243851E+03  0.49924243854E+03  0.50400001928E-02 0.  1.
    10030    2    1    2    0    0  0.00000000000E+00  0.00000000000E+00  0.43579270183E+03  0.14342775789E+04  0.13664687682E+04 0.  0.
        5    1    3    3  502    0  0.24027774998E+03  0.60120316356E+03  0.44691756618E+03  0.78672488327E+03  0.46999998093E+01 0. -1.
       -5    1    3    3    0  502 -0.24027774998E+03 -0.60120316356E+03 -0.11124864343E+02  0.64755269562E+03  0.46999998093E+01 0.  1.
</event>
<event>
 5   0  0.3006737E-03  0.1368835E+04  0.7818609E-02  0.8976691E-01
       -2   -1    0    0    0  501  0.00000000000E+00  0.00000000000E+00  0.52831811702E+03  0.52831811702E+03  0.25500000920E-02 0.  1.
        2   -1    0    0  501    0  0.00000000000E+00  0.00000000000E+00 -0.88663903966E+03  0.88663903966E+03  0.25500000920E-02 0. -1.
    10030    2    1    2    0    0  0.00000000000E+00  0.00000000000E+00 -0.35832092264E+03  0.14149571567E+04  0.13688352244E+04 0.  0.
        1    1    3    3  502    0 -0.27713217014E+03  0.12943202617E+03  0.45373787570E+03  0.54720466829E+03  0.50400001928E-02 0.  1.
       -1    1    3    3    0  502  0.27713217014E+03 -0.12943202617E+03 -0.81205879835E+03  0.86775248840E+03  0.50400001928E-02 0. -1.
</event>
<event>
 5   0  0.2760807E-03  0.1462845E+04  0.7818609E-02  0.8909543E-01
       -2   -1    0    0    0  501  0.00000000000E+00  0.00000000000E+00  0.59479019761E+03  0.59479019762E+03  0.25500000920E-02 0.  1.
        2   -1    0    0  501    0  0.00000000000E+00  0.00000000000E+00 -0.89944173988E+03  0.89944173988E+03  0.25500000920E-02 0. -1.
    10030    2    1    2    0    0  0.00000000000E+00  0.00000000000E+00 -0.30465154227E+03  0.14942319375E+04  0.14628453510E+04 0.  0.
        4    1    3    3  502    0 -0.11831286365E+03  0.10951957373E+03  0.57641339378E+03  0.59853695305E+03  0.12699999809E+01 0.  1.
       -4    1    3    3    0  502  0.11831286365E+03 -0.10951957373E+03 -0.88106493605E+03  0.89569498445E+03  0.12699999809E+01 0. -1.
</event>
<event>
 5   0  0.1644571E-03  0.1397699E+04  0.7818609E-02  0.8955486E-01
        1   -1    0    0  501    0  0.00000000000E+00  0.00000000000E+00  0.74549835502E+03  0.74549835504E+03  0.50400001928E-02 0.  1.
       -1   -1    0    0    0  501  0.00000000000E+00  0.00000000000E+00 -0.65511981572E+03  0.65511981574E+03  0.50400001928E-02 0. -1.
    10030    2    1    2    0    0  0.00000000000E+00  0.00000000000E+00  0.90378539299E+02  0.14006181708E+04  0.13976991736E+04 0.  0.
        4    1    3    3  502    0  0.39237696134E+03  0.53099751009E+03 -0.18435482171E+03  0.68549715441E+03  0.12699999809E+01 0.  1.
       -4    1    3    3    0  502 -0.39237696134E+03 -0.53099751009E+03  0.27473336100E+03  0.71512101637E+03  0.12699999809E+01 0. -1.
</event>
<event>
 5   0  0.1700207E-03  0.1348485E+04  0.7818609E-02  0.8991976E-01
       -1   -1    0    0    0  501  0.00000000000E+00  0.00000000000E+00  0.56280241822E+03  0.56280241824E+03  0.50400001928E-02 0. -1.
        1   -1    0    0  501    0  0.00000000000E+00  0.00000000000E+00 -0.80774826466E+03  0.80774826468E+03  0.50400001928E-02 0.  1.
    10030    2    1    2    0    0  0.00000000000E+00  0.00000000000E+00 -0.24494584644E+03  0.13705506829E+04  0.13484845964E+04 0.  0.
        2    1    3    3  502    0 -0.36464248599E+03 -0.50468022541E+03  0.14048139042E+03  0.63827994922E+03  0.25500000920E-02 0. -1.
       -2    1    3    3    0  502  0.36464248599E+03  0.50468022541E+03 -0.38542723686E+03  0.73227073370E+03  0.25500000920E-02 0.  1.
</event>
<event>
 5   0  0.1700207E-03  0.1337305E+04  0.7818609E-02  0.9000494E-01
        1   -1    0    0  501    0  0.00000000000E+00  0.00000000000E+00  0.13085044346E+04  0.13085044346E+04  0.50400001928E-02 0.  1.
       -1   -1    0    0    0  501  0.00000000000E+00  0.00000000000E+00 -0.34168465996E+03  0.34168466000E+03  0.50400001928E-02 0. -1.
    10030    2    1    2    0    0  0.00000000000E+00  0.00000000000E+00  0.96681977460E+03  0.16501890946E+04  0.13373045918E+04 0.  0.
        2    1    3    3  502    0 -0.28610480688E+03  0.72333001624E+02 -0.25697811712E+03  0.39131288802E+03  0.25500000920E-02 0. -1.
       -2    1    3    3    0  502  0.28610480688E+03 -0.72333001624E+02  0.12237978917E+04  0.12588762066E+04  0.25500000920E-02 0.  1.
</event>
<event>
 5   0  0.2917809E-03  0.1399297E+04  0.7818609E-02  0.8954327E-01
        2   -1    0    0  501    0  0.00000000000E+00  0.00000000000E+00  0.50744620153E+03  0.50744620154E+03  0.25500000920E-02 0. -1.
       -2   -1    0    0    0  501  0.00000000000E+00  0.00000000000E+00 -0.96465027531E+03  0.96465027531E+03  0.25500000920E-02 0.  1.
    10030    2    1    2    0    0  0.00000000000E+00  0.00000000000E+00 -0.45720407377E+03  0.14720964769E+04  0.13992971350E+04 0.  0.
        2    1    3    3  502    0  0.30157056620E+03 -0.36479552781E+03 -0.77066332846E+03  0.90440176324E+03  0.25500000920E-02 0.  1.
       -2    1    3    3    0  502 -0.30157056620E+03  0.36479552781E+03  0.31345925469E+03  0.56769471361E+03  0.25500000920E-02 0. -1.
</event>
<event>
 5   0  0.1586022E-03  0.9959570E+03  0.7818609E-02  0.9312990E-01
        1   -1    0    0  501    0  0.00000000000E+00  0.00000000000E+00  0.75934784715E+03  0.75934784717E+03  0.50400001928E-02 0. -1.
       -1   -1    0    0    0  501  0.00000000000E+00  0.00000000000E+00 -0.32657310687E+03  0.32657310691E+03  0.50400001928E-02 0.  1.
    10030    2    1    2    0    0  0.00000000000E+00  0.00000000000E+00  0.43277474028E+03  0.10859209541E+04  0.99595699841E+03 0.  0.
        1    1    3    3  502    0  0.99850757625E+02  0.27153124068E+03 -0.22554335706E+03  0.36683674081E+03  0.50400001928E-02 0.  1.
       -1    1    3    3    0  502 -0.99850757625E+02 -0.27153124068E+03  0.65831809734E+03  0.71908421327E+03  0.50400001928E-02 0. -1.
</event>
<event>
 5   0  0.1700207E-03  0.1422136E+04  0.7818609E-02  0.8937949E-01
       -1   -1    0    0    0  501  0.00000000000E+00  0.00000000000E+00  0.49126426647E+03  0.49126426649E+03  0.50400001928E-02 0.  1.
        1   -1    0    0  501    0  0.00000000000E+00  0.00000000000E+00 -0.10292173852E+04  0.10292173853E+04  0.50400001928E-02 0. -1.
    10030    2    1    2    0    0  0.00000000000E+00  0.00000000000E+00 -0.53795311878E+03  0.15204816518E+04  0.14221360326E+04 0.  0.
        2    1    3    3  502    0  0.21033679843E+03 -0.54299463809E+03  0.16732841820E+03  0.60587419924E+03  0.25500000920E-02 0.  1.
       -2    1    3    3    0  502 -0.21033679843E+03  0.54299463809E+03 -0.70528153698E+03  0.91460745251E+03  0.25500000920E-02 0. -1.
</event>
<event>
 5   0  0.1631380E-03  0.1429268E+04  0.7818609E-02  0.8932901E-01
       -1   -1    0    0    0  501  0.00000000000E+00  0.00000000000E+00  0.55053169064E+03  0.55053169066E+03  0.50400001928E-02 0.  1.
        1   -1    0    0  501    0  0.00000000000E+00  0.00000000000E+00 -0.92765248781E+03  0.92765248782E+03  0.50400001928E-02 0. -1.
    10030    2    1    2    0    0  0.00000000000E+00  0.00000000000E+00 -0.37712079717E+03  0.14781841785E+04  0.14292684737E+04 0.  0.
        3    1    3    3  502    0 -0.27545964234E+03 -0.99289876437E+02 -0.86276485273E+03  0.91109807125E+03  0.10100000352E+00 0. -1.
       -3    1    3    3    0  502  0.27545964234E+03  0.99289876437E+02  0.48564405556E+03  0.56708610724E+03  0.10100000352E+00 0.  1.
</event>
<event>
 5   0  0.1644571E-03  0.1322909E+04  0.7818609E-02  0.9011593E-01
       -1   -1    0    0    0  501  0.00000000000E+00  0.00000000000E+00  0.26919162676E+03  0.26919162681E+03  0.50400001928E-02 0.  1.
        1   -1    0    0  501    0  0.00000000000E+00  0.00000000000E+00 -0.16253173141E+04  0.16253173141E+04  0.50400001928E-02 0. -1.
    10030    2    1    2    0    0  0.00000000000E+00  0.00000000000E+00 -0.13561256874E+04  0.18945089409E+04  0.13229086315E+04 0.  0.
        4    1    3    3  502    0 -0.11025066330E+03 -0.32790633576E+03 -0.14854330928E+04  0.15251855166E+04  0.12699999809E+01 0. -1.
       -4    1    3    3    0  502  0.11025066330E+03  0.32790633576E+03  0.12930740545E+03  0.36932342438E+03  0.12699999809E+01 0.  1.
</event>
<event>
 5   0  0.2760807E-03  0.1414436E+04  0.7818609E-02  0.8943435E-01
       -2   -1    0    0    0  501  0.00000000000E+00  0.00000000000E+00  0.35384040950E+03  0.35384040951E+03  0.25500000920E-02 0. -1.
        2   -1    0    0  501    0  0.00000000000E+00  0.00000000000E+00 -0.14135110845E+04  0.14135110845E+04  0.25500000920E-02 0.  1.
    10030    2    1    2    0    0  0.00000000000E+00  0.00000000000E+00 -0.10596706750E+04  0.17673514941E+04  0.14144360586E+04 0.  0.
        4    1    3    3  502    0  0.45321847012E+01 -0.31752537403E+03  0.25974484768E+03  0.41025833647E+03  0.12699999809E+01 0. -1.
       -4    1    3    3    0  502 -0.45321847012E+01  0.31752537403E+03 -0.13194155227E+04  0.13570931576E+04  0.12699999809E+01 0.  1.
</event>
<event>
 5   0  0.2917809E-03  0.1349909E+04  0.7818609E-02  0.8990897E-01
        2   -1    0    0  501    0  0.00000000000E+00  0.00000000000E+00  0.63371603376E+03  0.63371603376E+03  0.25500000920E-02 0.  1.
       -2   -1    0    0    0  501  0.00000000000E+00  0.00000000000E+00 -0.71887690859E+03  0.71887690859E+03  0.25500000920E-02 0. -1.
    10030    2    1    2    0    0  0.00000000000E+00  0.00000000000E+00 -0.85160874831E+02  0.13525929424E+04  0.13499093648E+04 0.  0.
        2    1    3    3  502    0  0.15226993167E+03  0.12627013145E+03 -0.68917993057E+03  0.71700715122E+03  0.25500000920E-02 0. -1.
       -2    1    3    3    0  502 -0.15226993167E+03 -0.12627013145E+03  0.60401905574E+03  0.63558579114E+03  0.25500000920E-02 0.  1.
</event>
<event>
 5   0  0.2889469E-03  0.1534807E+04  0.7818609E-02  0.8861631E-01
       -2   -1    0    0    0  501  0.00000000000E+00  0.00000000000E+00  0.36448884597E+03  0.36448884598E+03  0.25500000920E-02 0. -1.
        2   -1    0    0  501    0  0.00000000000E+00  0.00000000000E+00 -0.16157085812E+04  0.16157085812E+04  0.25500000920E-02 0.  1.
    10030    2    1    2    0    0  0.00000000000E+00  0.00000000000E+00 -0.12512197352E+04  0.19801974272E+04  0.15348065105E+04 0.  0.
        5    1    3    3  502    0  0.67576243101E+03 -0.33483959082E+03 -0.80858665610E+03  0.11057155535E+04  0.46999998093E+01 0. -1.
       -5    1    3    3    0  502 -0.67576243101E+03  0.33483959082E+03 -0.44263307914E+03  0.87448187374E+03  0.46999998093E+01 0.  1.
</event>
<event>
 5   0  0.2993993E-03  0.1391782E+04  0.7818609E-02  0.8959789E-01
        2   -1    0    0  501    0  0.00000000000E+00  0.00000000000E+00  0.12866279244E+04  0.12866279244E+04  0.25500000920E-02 0. -1.
       -2   -1    0    0    0  501  0.00000000000E+00  0.00000000000E+00 -0.37638261274E+03  0.37638261274E+03  0.25500000920E-02 0.  1.
    10030    2    1    2    0    0  0.00000000000E+00  0.00000000000E+00  0.91024531168E+03  0.16630105372E+04  0.13917821379E+04 0.  0.
        3    1    3    3  502    0 -0.18744797103E+02  0.43482249414E+03 -0.19368910253E+03  0.47637952041E+03  0.10100000352E+00 0.  1.
       -3    1    3    3    0  502  0.18744797103E+02 -0.43482249414E+03  0.11039344142E+04  0.11866310167E+04  0.10100000352E+00 0. -1.
</event>
<event>
 5   0  0.3006737E-03  0.1454571E+04  0.7818609E-02  0.8915238E-01
       -2   -1    0    0    0  501  0.00000000000E+00  0.00000000000E+00  0.45830988819E+03  0.45830988820E+03  0.25500000920E-02 0.  1.
        2   -1    0    0  501    0  0.00000000000E+00  0.00000000000E+00 -0.11541183655E+04  0.11541183655E+04  0.25500000920E-02 0. -1.
    10030    2    1    2    0    0  0.00000000000E+00  0.00000000000E+00 -0.69580847732E+03  0.16124282537E+04  0.14545705333E+04 0.  0.
        1    1    3    3  502    0  0.61736975156E+03  0.21487205089E+03  0.54849561326E+01  0.65371667652E+03  0.50400001928E-02 0.  1.
       -1    1    3    3    0  502 -0.61736975156E+03 -0.21487205089E+03 -0.70129343345E+03  0.95871157718E+03  0.50400001928E-02 0. -1.
</event>
<event>
 5   0  0.1631380E-03  0.1361759E+04  0.7818609E-02  0.8981974E-01
       -1   -1    0    0    0  501  0.00000000000E+00  0.00000000000E+00  0.57549630157E+03  0.57549630159E+03  0.50400001928E-02 0.  1.
        1   -1    0    0  501    0  0.00000000000E+00  0.00000000000E+00 -0.80556048687E+03  0.80556048688E+03  0.50400001928E-02 0. -1.
    10030    2    1    2    0    0  0.00000000000E+00  0.00000000000E+00 -0.23006418530E+03  0.13810567885E+04  0.13617592752E+04 0.  0.
        3    1    3    3  502    0  0.31149708904E+03  0.17323819876E+02 -0.72880795576E+03  0.79277461979E+03  0.10100000352E+00 0. -1.
       -3    1    3    3    0  502 -0.31149708904E+03 -0.17323819876E+02  0.49874377046E+03  0.58828216868E+03  0.10100000352E+00 0.  1.
</event>
<event>
 5   0  0.1631380E-03  0.1490476E+04  0.7818609E-02  0.8890811E-01
        1   -1    0    0  501    0  0.00000000000E+00  0.00000000000E+00  0.14033435924E+04  0.14033435924E+04  0.50400001928E-02 0.  1.
       -1   -1    0    0    0  501  0.00000000000E+00  0.00000000000E+00 -0.39575447329E+03  0.39575447332E+03  0.50400001928E-02 0. -1.
    10030    2    1    2    0    0  0.00000000000E+00  0.00000000000E+00  0.10075891191E+04  0.17990980657E+04  0.14904757687E+04 0.  0.
        3    1    3    3  502    0  0.49395698821E+03  0.39986978405E+03  0.33984723019E+02  0.63643092476E+03  0.10100000352E+00 0. -1.
       -3    1    3    3    0  502 -0.49395698821E+03 -0.39986978405E+03  0.97360439607E+03  0.11626671410E+04  0.10100000352E+00 0.  1.
</event>
<event>
 5   0  0.2889469E-03  0.1397739E+04  0.7818609E-02  0.8955457E-01
       -2   -1    0    0    0  501  0.00000000000E+00  0.00000000000E+00  0.28378024205E+03  0.28378024207E+03  0.25500000920E-02 0. -1.
        2   -1    0    0  501    0  0.00000000000E+00  0.00000000000E+00 -0.17211151709E+04  0.17211151709E+04  0.25500000920E-02 0.  1.
    10030    2    1    2    0    0  0.00000000000E+00  0.00000000000E+00 -0.14373349288E+04  0.20048954129E+04  0.13977388594E+04 0.  0.
        5    1    3    3  502    0  0.62881201411E+03 -0.14508117775E+03 -0.11034017035E+04  0.12782685581E+04  0.46999998093E+01 0.  1.
       -5    1    3    3    0  502 -0.62881201411E+03  0.14508117775E+03 -0.33393322525E+03  0.72662685483E+03  0.46999998093E+01 0. -1.
</event>
<event>
 5   0  0.1644571E-03  0.1413874E+04  0.7818609E-02  0.8943836E-01
        1   -1    0    0  501    0  0.00000000000E+00  0.00000000000E+00  0.86186722741E+03  0.86186722743E+03  0.50400001928E-02 0.  1.
       -1   -1    0    0    0  501  0.00000000000E+00  0.00000000000E+00 -0.57985743993E+03  0.57985743996E+03  0.50400001928E-02 0. -1.
    10030    2    1    2    0    0  0.00000000000E+00  0.00000000000E+00  0.28200978748E+03  0.14417246674E+04  0.14138742859E+04 0.  0.
        4    1    3    3  502    0  0.61134987527E+03  0.32329510737E+02  0.50147156089E+03  0.79137172463E+03  0.12699999809E+01 0.  1.
       -4    1    3    3    0  502 -0.61134987527E+03 -0.32329510737E+02 -0.21946177341E+03  0.65035294275E+03  0.12699999809E+01 0. -1.
</event>
<event>
 5   0  0.3006737E-03  0.1388609E+04  0.7818609E-02  0.8962106E-01
        2   -1    0    0  501    0  0.00000000000E+00  0.00000000000E+00  0.10295023880E+04  0.10295023880E+04  0.25500000920E-02 0. -1.
       -2   -1    0    0    0  501  0.00000000000E+00  0.00000000000E+00 -0.46824425191E+03  0.46824425192E+03  0.25500000920E-02 0.  1.
    10030    2    1    2    0    0  0.00000000000E+00  0.00000000000E+00  0.56125813604E+03  0.14977466399E+04  0.13886087649E+04 0.  0.
        1    1    3    3  502    0  0.19760388243E+03 -0.58917109360E+03 -0.53367631514E+02  0.62371305582E+03  0.50400001928E-02 0.  1.
       -1    1    3    3    0  502 -0.19760388243E+03  0.58917109360E+03  0.61462576756E+03  0.87403358405E+03  0.50400001928E-02 0. -1.
</event>
<event>
 5   0  0.2993993E-03  0.1414485E+04  0.7818609E-02  0.8943400E-01
        2   -1    0    0  501    0  0.00000000000E+00  0.00000000000E+00  0.13238550112E+04  0.13238550112E+04  0.25500000920E-02 0. -1.
       -2   -1    0    0    0  501  0.00000000000E+00  0.00000000000E+00 -0.37782968160E+03  0.37782968161E+03  0.25500000920E-02 0.  1.
    10030    2    1    2    0    0  0.00000000000E+00  0.00000000000E+00  0.94602532957E+03  0.17016846928E+04  0.14144846657E+04 0.  0.
        3    1    3    3  502    0 -0.35314845559E+03  0.10305710367E+03  0.11996910707E+04  0.12548279856E+04  0.10100000352E+00 0. -1.
       -3    1    3    3    0  502  0.35314845559E+03 -0.10305710367E+03 -0.25366574110E+03  0.44685670714E+03  0.10100000352E+00 0.  1.
</event>
<event>
 5   0  0.1586022E-03  0.1545924E+04  0.7818609E-02  0.8854475E-01
       -1   -1    0    0    0  501  0.00000000000E+00  0.00000000000E+00  0.42932973117E+03  0.42932973120E+03  0.50400001928E-02 0. -1.
        1   -1    0    0  501    0  0.00000000000E+00  0.00000000000E+00 -0.13916354559E+04  0.13916354559E+04  0.50400001928E-02 0.  1.
    10030    2    1    2    0    0  0.00000000000E+00  0.00000000000E+00 -0.96230572473E+03  0.18209651871E+04  0.15459242882E+04 0.  0.
        1    1    3    3  502    0 -0.12956787703E+03  0.75748869846E+02 -0.13743071327E+04  0.13824781449E+04  0.50400001928E-02 0.  1.
       -1    1    3    3    0  502  0.12956787703E+03 -0.75748869846E+02  0.41200140796E+03  0.43848704225E+03  0.50400001928E-02 0. -1.
</event>
<event>
 5   0  0.2993993E-03  0.1503835E+04  0.7818609E-02  0.8881906E-01
        2   -1    0    0  501    0  0.00000000000E+00  0.00000000000E+00  0.55521219225E+03  0.55521219226E+03  0.25500000920E-02 0.  1.
       -2   -1    0    0    0  501  0.00000000000E+00  0.00000000000E+00 -0.10183138161E+04  0.10183138161E+04  0.25500000920E-02 0. -1.
    10030    2    1    2    0    0  0.00000000000E+00  0.00000000000E+00 -0.46310162387E+03  0.15735260084E+04  0.15038354248E+04 0.  0.
        3    1    3    3  502    0 -0.29095997500E+03 -0.22534152763E+03  0.45453655402E+03  0.58484185920E+03  0.10100000352E+00 0.  1.
       -3    1    3    3    0  502  0.29095997500E+03  0.22534152763E+03 -0.91763817789E+03  0.98868414918E+03  0.10100000352E+00 0. -1.
</event>
<event>
 5   0  0.3006737E-03  0.1419069E+04  0.7818609E-02  0.8940130E-01
        2   -1    0    0  501    0  0.00000000000E+00  0.00000000000E+00  0.62738474205E+03  0.62738474206E+03  0.25500000920E-02 0. -1.
       -2   -1    0    0    0  501  0.00000000000E+00  0.00000000000E+00 -0.80244090238E+03  0.80244090238E+03  0.25500000920E-02 0.  1.
    10030    2    1    2    0    0  0.00000000000E+00  0.00000000000E+00 -0.17505616033E+03  0.14298256444E+04  0.14190689604E+04 0.  0.
        1    1    3    3  502    0  0.31421200524E+03  0.55660751019E+03  0.22286231957E+03  0.67691115972E+03  0.50400001928E-02 0. -1.
       -1    1    3    3    0  502 -0.31421200524E+03 -0.55660751019E+03 -0.39791847990E+03  0.75291448473E+03  0.50400001928E-02 0.  1.
</event>
<event>
 5   0  0.1700207E-03  0.1398961E+04  0.7818609E-02  0.8954571E-01
        1   -1    0    0  501    0  0.00000000000E+00  0.00000000000E+00  0.10372105670E+04  0.10372105670E+04  0.50400001928E-02 0. -1.
       -1   -1    0    0    0  501  0.00000000000E+00  0.00000000000E+00 -0.47171972294E+03  0.47171972297E+03  0.50400001928E-02 0.  1.
    10030    2    1    2    0    0  0.00000000000E+00  0.00000000000E+00  0.56549084405E+03  0.15089302900E+04  0.13989605875E+04 0.  0.
        2    1    3    3  502    0 -0.45167061598E+03 -0.48801724787E+03  0.48646445914E+02  0.66673357218E+03  0.25500000920E-02 0.  1.
       -2    1    3    3    0  502  0.45167061598E+03  0.48801724787E+03  0.51684439814E+03  0.84219671779E+03  0.25500000920E-02 0. -1.
</event>
<event>
 5   0  0.2760807E-03  0.1394188E+04  0.7818609E-02  0.8958037E-01
        2   -1    0    0  501    0  0.00000000000E+00  0.00000000000E+00  0.39362652333E+03  0.39362652334E+03  0.25500000920E-02 0. -1.
       -2   -1    0    0    0  501  0.00000000000E+00  0.00000000000E+00 -0.12345201216E+04  0.12345201216E+04  0.25500000920E-02 0.  1.
    10030    2    1    2    0    0  0.00000000000E+00  0.00000000000E+00 -0.84089359831E+03  0.16281466450E+04  0.13941877398E+04 0.  0.
        4    1    3    3  502    0  0.24783557090E+03 -0.12404920661E+03 -0.11674141764E+04  0.11998617204E+04  0.12699999809E+01 0.  1.
       -4    1    3    3    0  502 -0.24783557090E+03  0.12404920661E+03  0.32652057807E+03  0.42828492463E+03  0.12699999809E+01 0. -1.
</event>
<event>
 5   0  0.2917809E-03  0.1172783E+04  0.7818609E-02  0.9137019E-01
        2   -1    0    0  501    0  0.00000000000E+00  0.00000000000E+00  0.14824101929E+04  0.14824101929E+04  0.25500000920E-02 0.  1.
       -2   -1    0    0    0  501  0.00000000000E+00  0.00000000000E+00 -0.23195677056E+03  0.23195677057E+03  0.25500000920E-02 0. -1.
    10030    2    1    2    0    0  0.00000000000E+00  0.00000000000E+00  0.12504534223E+04  0.17143669634E+04  0.11727831530E+04 0.  0.
        2    1    3    3  502    0  0.15370107870E+03 -0.19884423987E+03  0.13996904871E+04  0.14220747213E+04  0.25500000920E-02 0.  1.
       -2    1    3    3    0  502 -0.15370107870E+03  0.19884423987E+03 -0.14923706476E+03  0.29229224216E+03  0.25500000920E-02 0. -1.
</event>
<event>
 5   0  0.1631380E-03  0.7253601E+03  0.7818609E-02  0.9674820E-01
       -1   -1    0    0    0  501  0.00000000000E+00  0.00000000000E+00  0.11851563718E+03  0.11851563729E+03  0.50400001928E-02 0.  1.
        1   -1    0    0  501    0  0.00000000000E+00  0.00000000000E+00 -0.11098689984E+04  0.11098689984E+04  0.50400001928E-02 0. -1.
    10030    2    1    2    0    0  0.00000000000E+00  0.00000000000E+00 -0.99135336124E+03  0.12283846357E+04  0.72536013569E+03 0.  0.
        3    1    3    3  502    0  0.26289590118E+03  0.24756122453E+03 -0.55275499398E+03  0.66025669880E+03  0.10100000352E+00 0. -1.
       -3    1    3    3    0  502 -0.26289590118E+03 -0.24756122453E+03 -0.43859836727E+03  0.56812793693E+03  0.10100000352E+00 0.  1.
</event>
<event>
 5   0  0.1644571E-03  0.1385210E+04  0.7818609E-02  0.8964594E-01
       -1   -1    0    0    0  501  0.00000000000E+00  0.00000000000E+00  0.85950762674E+03  0.85950762676E+03  0.50400001928E-02 0. -1.
        1   -1    0    0  501    0  0.00000000000E+00  0.00000000000E+00 -0.55811245310E+03  0.55811245312E+03  0.50400001928E-02 0.  1.
    10030    2    1    2    0    0  0.00000000000E+00  0.00000000000E+00  0.30139517365E+03  0.14176200799E+04  0.13852103234E+04 0.  0.
        4    1    3    3  502    0 -0.29114781270E+03 -0.12684164753E+03  0.78060192342E+03  0.84273176523E+03  0.12699999809E+01 0. -1.
       -4    1    3    3    0  502  0.29114781270E+03  0.12684164753E+03 -0.47920674977E+03  0.57488831465E+03  0.12699999809E+01 0.  1.
</event>
<event>
 5   0  0.1560957E-03  0.1446992E+04  0.7818609E-02  0.8920488E-01
       -1   -1    0    0    0  501  0.00000000000E+00  0.00000000000E+00  0.21525711504E+03  0.21525711510E+03  0.50400001928E-02 0.  1.
        1   -1    0    0  501    0  0.00000000000E+00  0.00000000000E+00 -0.24317277990E+04  0.24317277990E+04  0.50400001928E-02 0. -1.
    10030    2    1    2    0    0  0.00000000000E+00  0.00000000000E+00 -0.22164706839E+04  0.26469849141E+04  0.14469923437E+04 0.  0.
        5    1    3    3  502    0 -0.49062045139E+03 -0.33416999463E+03 -0.35167692715E+03  0.68998316191E+03  0.46999998093E+01 0.  1.
       -5    1    3    3    0  502  0.49062045139E+03  0.33416999463E+03 -0.18647937568E+04  0.19570017521E+04  0.46999998093E+01 0. -1.
</event>
<event>
 5   0  0.1644571E-03  0.1266704E+04  0.7818609E-02  0.9056394E-01
       -1   -1    0    0    0  501  0.00000000000E+00  0.00000000000E+00  0.62325275607E+03  0.62325275609E+03  0.50400001928E-02 0.  1.
        1   -1    0    0  501    0  0.00000000000E+00  0.00000000000E+00 -0.64361531198E+03  0.64361531200E+03  0.50400001928E-02 0. -1.
    10030    2    1    2    0    0  0.00000000000E+00  0.00000000000E+00 -0.20362555906E+02  0.12668680681E+04  0.12667044123E+04 0.  0.
        4    1    3    3  502    0  0.54883628188E+03 -0.30997155041E+03  0.51711915971E+02  0.63243921568E+03  0.12699999809E+01 0. -1.
       -4    1    3    3    0  502 -0.54883628188E+03  0.30997155041E+03 -0.72074471876E+02  0.63442885241E+03  0.12699999809E+01 0.  1.
</event>
<event>
 5   0  0.1586022E-03  0.1429719E+04  0.7818609E-02  0.8932583E-01
        1   -1    0    0  501    0  0.00000000000E+00  0.00000000000E+00  0.63643685503E+03  0.63643685505E+03  0.50400001928E-02 0.  1.
       -1   -1    0    0    0  501  0.00000000000E+00  0.00000000000E+00 -0.80294597934E+03  0.80294597936E+03  0.50400001928E-02 0. -1.
    10030    2    1    2    0    0  0.00000000000E+00  0.00000000000E+00 -0.16650912431E+03  0.14393828344E+04  0.14297194324E+04 0.  0.
        1    1    3    3  502    0  0.10222669488E+03  0.70698376258E+03 -0.11079040702E+03  0.72287678895E+03  0.50400001928E-02 0.  1.
       -1    1    3    3    0  502 -0.10222669488E+03 -0.70698376258E+03 -0.55718717286E+02  0.71650604546E+03  0.50400001928E-02 0. -1.
</event>
<event>
 5   0  0.2889469E-03  0.1401818E+04  0.7818609E-02  0.8952503E-01
       -2   -1    0    0    0  501  0.00000000000E+00  0.00000000000E+00  0.44203180896E+03  0.44203180897E+03  0.25500000920E-02 0. -1.
        2   -1    0    0  501    0  0.00000000000E+00  0.00000000000E+00 -0.11113988624E+04  0.11113988624E+04  0.25500000920E-02 0.  1.
    10030    2    1    2    0    0  0.00000000000E+00  0.00000000000E+00 -0.66936705344E+03  0.15534306714E+04  0.14018183187E+04 0.  0.
        5    1    3    3  502    0  0.41727764198E+03 -0.43821579089E+03 -0.72662847135E+03  0.94560284224E+03  0.46999998093E+01 0. -1.
       -5    1    3    3    0  502 -0.41727764198E+03  0.43821579089E+03  0.57261417914E+02  0.60782782912E+03  0.46999998093E+01 0.  1.
</event>
<event>
 5   0  0.1644571E-03  0.1408116E+04  0.7818609E-02  0.8947965E-01
       -1   -1    0    0    0  501  0.00000000000E+00  0.00000000000E+00  0.27211392863E+03  0.27211392868E+03  0.50400001928E-02 0.  1.
        1   -1    0    0  501    0  0.00000000000E+00  0.00000000000E+00 -0.18216539129E+04  0.18216539129E+04  0.50400001928E-02 0. -1.
    10030    2    1    2    0    0  0.00000000000E+00  0.00000000000E+00 -0.15495399842E+04  0.20937678415E+04  0.14081156244E+04 0.  0.
        4    1    3    3  502    0  0.57761115105E+03 -0.23044793405E+03 -0.12655802001E+04  0.14101190545E+04  0.12699999809E+01 0.  1.
       -4    1    3    3    0  502 -0.57761115105E+03  0.23044793405E+03 -0.28395978416E+03  0.68364878706E+03  0.12699999809E+01 0. -1.
</event>
<event>
 5   0  0.1104538E-03  0.1373572E+04  0.7818609E-02  0.8973174E-01
       -4   -1    0    0    0  501  0.00000000000E+00  0.00000000000E+00  0.86986698067E+03  0.86986790777E+03  0.12699999809E+01 0.  1.
        4   -1    0    0  501    0  0.00000000000E+00  0.00000000000E+00 -0.54223598529E+03  0.54223747255E+03  0.12699999809E+01 0. -1.
    10030    2    1    2    0    0  0.00000000000E+00  0.00000000000E+00  0.32763099538E+03  0.14121053803E+04  0.13735718168E+04 0.  0.
        2    1    3    3  502    0 -0.70957789127E+02  0.66558168393E+03  0.57461275913E+01  0.66937807240E+03  0.25500000920E-02 0. -1.
       -2    1    3    3    0  502  0.70957789127E+02 -0.66558168393E+03  0.32188486779E+03  0.74272730792E+03  0.25500000920E-02 0.  1.
</event>
<event>
 5   0  0.2993993E-03  0.1117601E+04  0.7818609E-02  0.9188204E-01
        2   -1    0    0  501    0  0.00000000000E+00  0.00000000000E+00  0.61390607113E+03  0.61390607113E+03  0.25500000920E-02 0.  1.
       -2   -1    0    0    0  501  0.00000000000E+00  0.00000000000E+00 -0.50864152283E+03  0.50864152284E+03  0.25500000920E-02 0. -1.
    10030    2    1    2    0    0  0.00000000000E+00  0.00000000000E+00  0.10526454830E+03  0.11225475940E+04  0.11176012149E+04 0.  0.
        3    1    3    3  502    0  0.11176361307E+03 -0.22564939394E+03  0.55368814767E+03  0.60825926155E+03  0.10100000352E+00 0.  1.
       -3    1    3    3    0  502 -0.11176361307E+03  0.22564939394E+03 -0.44842359937E+03  0.51428833242E+03  0.10100000352E+00 0. -1.
</event>
<event>
 5   0  0.2993993E-03  0.1377877E+04  0.7818609E-02  0.8969990E-01
       -2   -1    0    0    0  501  0.00000000000E+00  0.00000000000E+00  0.31379228462E+03  0.31379228463E+03  0.25500000920E-02 0. -1.
        2   -1    0    0  501    0  0.00000000000E+00  0.00000000000E+00 -0.15125799537E+04  0.15125799537E+04  0.25500000920E-02 0.  1.
    10030    2    1    2    0    0  0.00000000000E+00  0.00000000000E+00 -0.11987876690E+04  0.18263722383E+04  0.13778765102E+04 0.  0.
        3    1    3    3  502    0 -0.55821861892E+02  0.84734507195E+02  0.30383334710E+03  0.32032909638E+03  0.10100000352E+00 0. -1.
       -3    1    3    3    0  502  0.55821861892E+02 -0.84734507195E+02 -0.15026210161E+04  0.15060431419E+04  0.10100000352E+00 0.  1.
</event>
<event>
 5   0  0.1560957E-03  0.1382881E+04  0.7818609E-02  0.8966304E-01
       -1   -1    0    0    0  501  0.00000000000E+00  0.00000000000E+00  0.67947479414E+03  0.67947479416E+03  0.50400001928E-02 0. -1.
        1   -1    0    0  501    0  0.00000000000E+00  0.00000000000E+00 -0.70361676763E+03  0.70361676765E+03  0.50400001928E-02 0.  1.
    10030    2    1    2    0    0  0.00000000000E+00  0.00000000000E+00 -0.24141973496E+02  0.13830915618E+04  0.13828808457E+04 0.  0.
        5    1    3    3  502    0 -0.23978570919E+03 -0.39260266541E+03  0.50417985428E+03  0.68253458131E+03  0.46999998093E+01 0. -1.
       -5    1    3    3    0  502  0.23978570919E+03  0.39260266541E+03 -0.52832182778E+03  0.70055698050E+03  0.46999998093E+01 0.  1.
</event>
<event>
 5   0  0.2889469E-03  0.1399853E+04  0.7818609E-02  0.8953925E-01
       -2   -1    0    0    0  501  0.00000000000E+00  0.00000000000E+00  0.34491964173E+03  0.34491964174E+03  0.25500000920E-02 0. -1.
        2   -1    0    0  501    0  0.00000000000E+00  0.00000000000E+00 -0.14203218058E+04  0.14203218058E+04  0.25500000920E-02 0.  1.
    10030    2    1    2    0    0  0.00000000000E+00  0.00000000000E+00 -0.10754021641E+04  0.17652414476E+04  0.13998526900E+04 0.  0.
        5    1    3    3  502    0  0.31978497049E+03 -0.20649731436E+03  0.20294924442E+03  0.43140938099E+03  0.46999998093E+01 0. -1.
       -5    1    3    3    0  502 -0.31978497049E+03  0.20649731436E+03 -0.12783514085E+04  0.13338320666E+04  0.46999998093E+01 0.  1.
</event>
<event>
 5   0  0.2993993E-03  0.1366924E+04  0.7818609E-02  0.8978114E-01
        2   -1    0    0  501    0  0.00000000000E+00  0.00000000000E+00  0.10705637591E+04  0.10705637591E+04  0.25500000920E-02 0. -1.
       -2   -1    0    0    0  501  0.00000000000E+00  0.00000000000E+00 -0.43633144099E+03  0.43633144099E+03  0.25500000920E-02 0.  1.
    10030    2    1    2    0    0  0.00000000000E+00  0.00000000000E+00  0.63423231815E+03  0.15068952001E+04  0.13669244715E+04 0.  0.
        3    1    3    3  502    0 -0.21046940220E+03  0.41268264322E+03 -0.23684998829E+03  0.52029055385E+03  0.10100000352E+00 0.  1.
       -3    1    3    3    0  502  0.21046940220E+03 -0.41268264322E+03  0.87108230643E+03  0.98660464628E+03  0.10100000352E+00 0. -1.
</event>
<event>
 5   0  0.1631380E-03  0.1383664E+04  0.7818609E-02  0.8965729E-01
       -1   -1    0    0    0  501  0.00000000000E+00  0.00000000000E+00  0.11876410106E+04  0.11876410106E+04  0.50400001928E-02 0.  1.
        1   -1    0    0  501    0  0.00000000000E+00  0.00000000000E+00 -0.40301039394E+03  0.40301039397E+03  0.50400001928E-02 0. -1.
    10030    2    1    2    0    0  0.00000000000E+00  0.00000000000E+00  0.78463061667E+03  0.15906514046E+04  0.13836642246E+04 0.  0.
        3    1    3    3  502    0  0.55192034541E+03 -0.41183019618E+03  0.46867015639E+03  0.83298973814E+03  0.10100000352E+00 0.  1.
       -3    1    3    3    0  502 -0.55192034541E+03  0.41183019618E+03  0.31596046029E+03  0.75766166646E+03  0.10100000352E+00 0. -1.
</event>
<event>
 5   0  0.1631380E-03  0.1421764E+04  0.7818609E-02  0.8938214E-01
        1   -1    0    0  501    0  0.00000000000E+00  0.00000000000E+00  0.19257625994E+04  0.19257625994E+04  0.50400001928E-02 0. -1.
       -1   -1    0    0    0  501  0.00000000000E+00  0.00000000000E+00 -0.26241723425E+03  0.26241723430E+03  0.50400001928E-02 0.  1.
    10030    2    1    2    0    0  0.00000000000E+00  0.00000000000E+00  0.16633453651E+04  0.21881798337E+04  0.14217641087E+04 0.  0.
        3    1    3    3  502    0  0.50945685642E+02  0.39952643522E+03  0.17332207595E+04  0.17794018790E+04  0.10100000352E+00 0. -1.
       -3    1    3    3    0  502 -0.50945685642E+02 -0.39952643522E+03 -0.69875394410E+02  0.40877795473E+03  0.10100000352E+00 0.  1.
</event>
<event>
 5   0  0.1644571E-03  0.1417974E+04  0.7818609E-02  0.8940910E-01
        1   -1    0    0  501    0  0.00000000000E+00  0.00000000000E+00  0.17711063420E+04  0.17711063420E+04  0.50400001928E-02 0.  1.
       -1   -1    0    0    0  501  0.00000000000E+00  0.00000000000E+00 -0.28381288544E+03  0.28381288548E+03  0.50400001928E-02 0. -1.
    10030    2    1    2    0    0  0.00000000000E+00  0.00000000000E+00  0.14872934565E+04  0.20549192274E+04  0.14179743318E+04 0.  0.
        4    1    3    3  502    0  0.66224779374E+03  0.23338080548E+03  0.60148942752E+03  0.92457010821E+03  0.12699999809E+01 0.  1.
       -4    1    3    3    0  502 -0.66224779374E+03 -0.23338080548E+03  0.88580402900E+03  0.11303491192E+04  0.12699999809E+01 0. -1.
</event>
<event>
 5   0  0.3006737E-03  0.1413693E+04  0.7818609E-02  0.8943966E-01
       -2   -1    0    0    0  501  0.00000000000E+00  0.00000000000E+00  0.30066820910E+03  0.30066820911E+03  0.25500000920E-02 0. -1.
        2   -1    0    0  501    0  0.00000000000E+00  0.00000000000E+00 -0.16617378151E+04  0.16617378152E+04  0.25500000920E-02 0.  1.
    10030    2    1    2    0    0  0.00000000000E+00  0.00000000000E+00 -0.13610696060E+04  0.19624060243E+04  0.14136926581E+04 0.  0.
        1    1    3    3  502    0  0.47333888915E+03  0.45651202715E+02  0.45422269381E+02  0.47769961155E+03  0.50400001928E-02 0. -1.
       -1    1    3    3    0  502 -0.47333888915E+03 -0.45651202715E+02 -0.14064918754E+04  0.14847064127E+04  0.50400001928E-02 0.  1.
</event>
<event>
 5   0  0.2889469E-03  0.1376717E+04  0.7818609E-02  0.8970846E-01
        2   -1    0    0  501    0  0.00000000000E+00  0.00000000000E+00  0.12708429126E+04  0.12708429126E+04  0.25500000920E-02 0.  1.
       -2   -1    0    0    0  501  0.00000000000E+00  0.00000000000E+00 -0.37285304187E+03  0.37285304188E+03  0.25500000920E-02 0. -1.
    10030    2    1    2    0    0  0.00000000000E+00  0.00000000000E+00  0.89798987076E+03  0.16436959545E+04  0.13767173214E+04 0.  0.
        5    1    3    3  502    0 -0.30274746318E+03  0.20700380209E+03 -0.24646861069E+03  0.44189983774E+03  0.46999998093E+01 0. -1.
       -5    1    3    3    0  502  0.30274746318E+03 -0.20700380209E+03  0.11444584814E+04  0.12017961168E+04  0.46999998093E+01 0.  1.
</event>
<event>
 5   0  0.2917809E-03  0.1391492E+04  0.7818609E-02  0.8960000E-01
       -2   -1    0    0    0  501  0.00000000000E+00  0.00000000000E+00  0.19810512592E+03  0.19810512594E+03  0.25500000920E-02 0.  1.
        2   -1    0    0  501    0  0.00000000000E+00  0.00000000000E+00 -0.24434622237E+04  0.24434622237E+04  0.25500000920E-02 0. -1.
    10030    2    1    2    0    0  0.00000000000E+00  0.00000000000E+00 -0.22453570978E+04  0.26415673496E+04  0.13914918491E+04 0.  0.
        2    1    3    3  502    0  0.31558665846E+03  0.56864527478E+03 -0.65339300377E+03  0.92188654666E+03  0.25500000920E-02 0.  1.
       -2    1    3    3    0  502 -0.31558665846E+03 -0.56864527478E+03 -0.15919640940E+04  0.17196808030E+04  0.25500000920E-02 0. -1.
</event>
<event>
 5   0  0.2993993E-03  0.1032996E+04  0.7818609E-02  0.9273078E-01
        2   -1    0    0  501    0  0.00000000000E+00  0.00000000000E+00  0.68962689922E+03  0.68962689922E+03  0.25500000920E-02 0.  1.
       -2   -1    0    0    0  501  0.00000000000E+00  0.00000000000E+00 -0.38683238111E+03  0.38683238112E+03  0.25500000920E-02 0. -1.
    10030    2    1    2    0    0  0.00000000000E+00  0.00000000000E+00  0.30279451810E+03  0.10764592803E+04  0.10329956738E+04 0.  0.
        3    1    3    3  502    0 -0.32152502900E+03 -0.38273724040E+03  0.15911976230E+02  0.50011932641E+03  0.10100000352E+00 0. -1.
       -3    1    3    3    0  502  0.32152502900E+03  0.38273724040E+03  0.28688254187E+03  0.57633995393E+03  0.10100000352E+00 0.  1.
</event>
<event>
 5   0  0.1700207E-03  0.1435095E+04  0.7818609E-02  0.8928799E-01
       -1   -1    0    0    0  501  0.00000000000E+00  0.00000000000E+00  0.44118943927E+03  0.44118943929E+03  0.50400001928E-02 0.  1.
        1   -1    0    0  501    0  0.00000000000E+00  0.00000000000E+00 -0.11670151766E+04  0.11670151766E+04  0.50400001928E-02 0. -1.
    10030    2    1    2    0    0  0.00000000000E+00  0.00000000000E+00 -0.72582573732E+03  0.16082046159E+04  0.14350954970E+04 0.  0.
        2    1    3    3  502    0 -0.63192624642E+03  0.32982722736E+02 -0.74203578129E+03  0.97521061399E+03  0.25500000920E-02 0. -1.
       -2    1    3    3    0  502  0.63192624642E+03 -0.32982722736E+02  0.16210043970E+02  0.63299400190E+03  0.25500000920E-02 0.  1.
</event>
<event>
 5   0  0.1586022E-03  0.1403432E+04  0.7818609E-02  0.8951338E-01
        1   -1    0    0  501    0  0.00000000000E+00  0.00000000000E+00  0.12299244407E+04  0.12299244407E+04  0.50400001928E-02 0. -1.
       -1   -1    0    0    0  501  0.00000000000E+00  0.00000000000E+00 -0.40035427588E+03  0.40035427591E+03  0.50400001928E-02 0.  1.
    10030    2    1    2    0    0  0.00000000000E+00  0.00000000000E+00  0.82957016478E+03  0.16302787166E+04  0.14034322340E+04 0.  0.
        1    1    3    3  502    0  0.28016087114E+02 -0.61438319113E+03  0.22306653370E+02  0.61542602601E+03  0.50400001928E-02 0.  1.
       -1    1    3    3    0  502 -0.28016087114E+02  0.61438319113E+03  0.80726351141E+03  0.10148526906E+04  0.50400001928E-02 0. -1.
</event>
<event>
 5   0  0.2993993E-03  0.1455714E+04  0.7818609E-02  0.8914449E-01
        2   -1    0    0  501    0  0.00000000000E+00  0.00000000000E+00  0.41345949157E+03  0.41345949158E+03  0.25500000920E-02 0. -1.
       -2   -1    0    0    0  501  0.00000000000E+00  0.00000000000E+00 -0.12813248014E+04  0.12813248014E+04  0.25500000920E-02 0.  1.
    10030    2    1    2    0    0  0.00000000000E+00  0.00000000000E+00 -0.86786530984E+03  0.16947842930E+04  0.14557141216E+04 0.  0.
        3    1    3    3  502    0  0.72033742706E+03  0.91576381539E+01 -0.31290873646E+03  0.78541820625E+03  0.10100000352E+00 0. -1.
       -3    1    3    3    0  502 -0.72033742706E+03 -0.91576381539E+01 -0.55495657338E+03  0.90936608674E+03  0.10100000352E+00 0.  1.
</event>
<event>
 5   0  0.2889469E-03  0.1392588E+04  0.7818609E-02  0.8959201E-01
       -2   -1    0    0    0  501  0.00000000000E+00  0.00000000000E+00  0.44594908783E+03  0.44594908784E+03  0.25500000920E-02 0.  1.
        2   -1    0    0  501    0  0.00000000000E+00  0.00000000000E+00 -0.10871771065E+04  0.10871771065E+04  0.25500000920E-02 0. -1.
    10030    2    1    2    0    0  0.00000000000E+00  0.00000000000E+00 -0.64122801863E+03  0.15331261943E+04  0.13925884373E+04 0.  0.
        5    1    3    3  502    0  0.36497193619E+03 -0.21308460558E+03  0.28857694623E+03  0.51176977953E+03  0.46999998093E+01 0.  1.
       -5    1    3    3    0  502 -0.36497193619E+03  0.21308460558E+03 -0.92980496486E+03  0.10213564148E+04  0.46999998093E+01 0. -1.
</event>
<event>
 5   0  0.1631380E-03  0.1491239E+04  0.7818609E-02  0.8890300E-01
        1   -1    0    0  501    0  0.00000000000E+00  0.00000000000E+00  0.13622308233E+04  0.13622308233E+04  0.50400001928E-02 0.  1.
       -1   -1    0    0    0  501  0.00000000000E+00  0.00000000000E+00 -0.40811620756E+03  0.40811620759E+03  0.50400001928E-02 0. -1.
    10030    2    1    2    0    0  0.00000000000E+00  0.00000000000E+00  0.95411461572E+03  0.17703470309E+04  0.14912390519E+04 0.  0.
        3    1    3    3  502    0  0.69775957507E+03  0.11103286508E+03  0.19424340798E+03  0.73275318728E+03  0.10100000352E+00 0. -1.
       -3    1    3    3    0  502 -0.69775957507E+03 -0.11103286508E+03  0.75987120774E+03  0.10375938436E+04  0.10100000352E+00 0.  1.
</event>
<event>
 5   0  0.1700207E-03  0.1336992E+04  0.7818609E-02  0.9000734E-01
       -1   -1    0    0    0  501  0.00000000000E+00  0.00000000000E+00  0.67757248318E+03  0.67757248320E+03  0.50400001928E-02 0. -1.
        1   -1    0    0  501    0  0.00000000000E+00  0.00000000000E+00 -0.65954089203E+03  0.65954089205E+03  0.50400001928E-02 0.  1.
    10030    2    1    2    0    0  0.00000000000E+00  0.00000000000E+00  0.18031591148E+02  0.13371133752E+04  0.13369917876E+04 0.  0.
        2    1    3    3  502    0 -0.51868299171E+02 -0.21768822181E+03 -0.62096869104E+03  0.66006105599E+03  0.25500000920E-02 0.  1.
       -2    1    3    3    0  502  0.51868299171E+02  0.21768822181E+03  0.63900028219E+03  0.67705231926E+03  0.25500000920E-02 0. -1.
</event>
<event>
 5   0  0.1700207E-03  0.1458800E+04  0.7818609E-02  0.8912322E-01
       -1   -1    0    0    0  501  0.00000000000E+00  0.00000000000E+00  0.30809716612E+03  0.30809716616E+03  0.50400001928E-02 0.  1.
        1   -1    0    0  501    0  0.00000000000E+00  0.00000000000E+00 -0.17268082015E+04  0.17268082015E+04  0.50400001928E-02 0. -1.
    10030    2    1    2    0    0  0.00000000000E+00  0.00000000000E+00 -0.14187110354E+04  0.20349053677E+04  0.14588004845E+04 0.  0.
        2    1    3    3  502    0 -0.23017016444E+03  0.28830433442E+03  0.16836426883E+03  0.40551722635E+03  0.25500000920E-02 0.  1.
       -2    1    3    3    0  502  0.23017016444E+03 -0.28830433442E+03 -0.15870753042E+04  0.16293881414E+04  0.25500000920E-02 0. -1.
</event>
<event>
 5   0  0.2760807E-03  0.1395520E+04  0.7818609E-02  0.8957068E-01
        2   -1    0    0  501    0  0.00000000000E+00  0.00000000000E+00  0.11199137884E+04  0.11199137884E+04  0.25500000920E-02 0.  1.
       -2   -1    0    0    0  501  0.00000000000E+00  0.00000000000E+00 -0.43473797152E+03  0.43473797153E+03  0.25500000920E-02 0. -1.
    10030    2    1    2    0    0  0.00000000000E+00  0.00000000000E+00  0.68517581690E+03  0.15546517600E+04  0.13955200445E+04 0.  0.
        4    1    3    3  502    0 -0.56759560109E+03 -0.17917796158E+03 -0.63075104572E+02  0.59853954757E+03  0.12699999809E+01 0. -1.
       -4    1    3    3    0  502  0.56759560109E+03  0.17917796158E+03  0.74825092147E+03  0.95611221238E+03  0.12699999809E+01 0.  1.
</event>
<event>
 5   0  0.1560957E-03  0.1401442E+04  0.7818609E-02  0.8952776E-01
        1   -1    0    0  501    0  0.00000000000E+00  0.00000000000E+00  0.12445626466E+04  0.12445626467E+04  0.50400001928E-02 0. -1.
       -1   -1    0    0    0  501  0.00000000000E+00  0.00000000000E+00 -0.39452396282E+03  0.39452396285E+03  0.50400001928E-02 0.  1.
    10030    2    1    2    0    0  0.00000000000E+00  0.00000000000E+00  0.85003868383E+03  0.16390866095E+04  0.14014418109E+04 0.  0.
        5    1    3    3  502    0 -0.45910204448E+03 -0.51882966326E+03  0.54784547477E+03  0.88324156432E+03  0.46999998093E+01 0. -1.
       -5    1    3    3    0  502  0.45910204448E+03  0.51882966326E+03  0.30219320907E+03  0.75584504518E+03  0.46999998093E+01 0.  1.
</event>
<event>
 5   0  0.2889469E-03  0.1182742E+04  0.7818609E-02  0.9128098E-01
        2   -1    0    0  501    0  0.00000000000E+00  0.00000000000E+00  0.75320156178E+03  0.75320156179E+03  0.25500000920E-02 0.  1.
       -2   -1    0    0    0  501  0.00000000000E+00  0.00000000000E+00 -0.46431077369E+03  0.46431077369E+03  0.25500000920E-02 0. -1.
    10030    2    1    2    0    0  0.00000000000E+00  0.00000000000E+00  0.28889078809E+03  0.12175123355E+04  0.11827418990E+04 0.  0.
        5    1    3    3  502    0 -0.58013043596E+03 -0.10219885546E+03  0.90940637275E+02  0.59606058273E+03  0.46999998093E+01 0. -1.
       -5    1    3    3    0  502  0.58013043596E+03  0.10219885546E+03  0.19795015082E+03  0.62145175275E+03  0.46999998093E+01 0.  1.
</event>
<event>
 5   0  0.1700207E-03  0.1479684E+04  0.7818609E-02  0.8898076E-01
        1   -1    0    0  501    0  0.00000000000E+00  0.00000000000E+00  0.14492384483E+04  0.14492384483E+04  0.50400001928E-02 0. -1.
       -1   -1    0    0    0  501  0.00000000000E+00  0.00000000000E+00 -0.37769222535E+03  0.37769222539E+03  0.50400001928E-02 0.  1.
    10030    2    1    2    0    0  0.00000000000E+00  0.00000000000E+00  0.10715462229E+04  0.18269306737E+04  0.14796838779E+04 0.  0.
        2    1    3    3  502    0 -0.25544776176E+03 -0.32335707068E+03  0.12944239446E+04  0.13584353877E+04  0.25500000920E-02 0. -1.
       -2    1    3    3    0  502  0.25544776176E+03  0.32335707068E+03 -0.22287772169E+03  0.46849528598E+03  0.25500000920E-02 0.  1.
</event>
<event>
 5   0  0.3006737E-03  0.1269788E+04  0.7818609E-02  0.9053872E-01
        2   -1    0    0  501    0  0.00000000000E+00  0.00000000000E+00  0.11016390343E+04  0.11016390343E+04  0.25500000920E-02 0.  1.
       -2   -1    0    0    0  501  0.00000000000E+00  0.00000000000E+00 -0.36590074897E+03  0.36590074897E+03  0.25500000920E-02 0. -1.
    10030    2    1    2    0    0  0.00000000000E+00  0.00000000000E+00  0.73573828533E+03  0.14675397833E+04  0.12697882465E+04 0.  0.
        1    1    3    3  502    0  0.48801601809E+03 -0.18638994886E+03  0.78487955104E+03  0.94283442693E+03  0.50400001928E-02 0.  1.
       -1    1    3    3    0  502 -0.48801601809E+03  0.18638994886E+03 -0.49141265709E+02  0.52470535634E+03  0.50400001928E-02 0. -1.
</event>
<event>
 5   0  0.1560957E-03  0.1259019E+04  0.7818609E-02  0.9062710E-01
        1   -1    0    0  501    0  0.00000000000E+00  0.00000000000E+00  0.78034863136E+03  0.78034863138E+03  0.50400001928E-02 0.  1.
       -1   -1    0    0    0  501  0.00000000000E+00  0.00000000000E+00 -0.50782685012E+03  0.50782685015E+03  0.50400001928E-02 0. -1.
    10030    2    1    2    0    0  0.00000000000E+00  0.00000000000E+00  0.27252178124E+03  0.12881754815E+04  0.12590186456E+04 0.  0.
        5    1    3    3  502    0  0.78644408993E+02  0.35246805684E+02 -0.50174429863E+03  0.50911365291E+03  0.46999998093E+01 0. -1.
       -5    1    3    3    0  502 -0.78644408993E+02 -0.35246805684E+02  0.77426607987E+03  0.77906182862E+03  0.46999998093E+01 0.  1.
</event>
<event>
 5   0  0.1104538E-03  0.1405603E+04  0.7818609E-02  0.8949773E-01
       -4   -1    0    0    0  501  0.00000000000E+00  0.00000000000E+00  0.43649957183E+03  0.43650141937E+03  0.12699999809E+01 0. -1.
        4   -1    0    0  501    0  0.00000000000E+00  0.00000000000E+00 -0.11315659267E+04  0.11315666394E+04  0.12699999809E+01 0.  1.
    10030    2    1    2    0    0  0.00000000000E+00  0.00000000000E+00 -0.69506635488E+03  0.15680680588E+04  0.14056031443E+04 0.  0.
        3    1    3    3  502    0 -0.13805514963E+03 -0.49388286515E+03 -0.88365276002E+03  0.10216759365E+04  0.10100000352E+00 0.  1.
       -3    1    3    3    0  502  0.13805514963E+03  0.49388286515E+03  0.18858640513E+03  0.54639212223E+03  0.10100000352E+00 0. -1.
</event>
<event>
 5   0  0.2917809E-03  0.1465501E+04  0.7818609E-02  0.8907724E-01
        2   -1    0    0  501    0  0.00000000000E+00  0.00000000000E+00  0.97608052316E+03  0.97608052316E+03  0.25500000920E-02 0. -1.
       -2   -1    0    0    0  501  0.00000000000E+00  0.00000000000E+00 -0.55008103434E+03  0.55008103435E+03  0.25500000920E-02 0.  1.
    10030    2    1    2    0    0  0.00000000000E+00  0.00000000000E+00  0.42599948882E+03  0.15261615575E+04  0.14655011208E+04 0.  0.
        2    1    3    3  502    0 -0.17771036949E+03 -0.23935309439E+03  0.91007362444E+03  0.95765593045E+03  0.25500000920E-02 0. -1.
       -2    1    3    3    0  502  0.17771036949E+03  0.23935309439E+03 -0.48407413562E+03  0.56850562706E+03  0.25500000920E-02 0.  1.
</event>
<event>
 5   0  0.2917809E-03  0.1410291E+04  0.7818609E-02  0.8946403E-01
       -2   -1    0    0    0  501  0.00000000000E+00  0.00000000000E+00  0.65313010760E+03  0.65313010761E+03  0.25500000920E-02 0. -1.
        2   -1    0    0  501    0  0.00000000000E+00  0.00000000000E+00 -0.76130320231E+03  0.76130320232E+03  0.25500000920E-02 0.  1.
    10030    2    1    2    0    0  0.00000000000E+00  0.00000000000E+00 -0.10817309471E+03  0.14144333099E+04  0.14102908104E+04 0.  0.
        2    1    3    3  502    0 -0.10969079621E+03  0.44502585890E+03  0.48335121328E+03  0.66611446557E+03  0.25500000920E-02 0. -1.
       -2    1    3    3    0  502  0.10969079621E+03 -0.44502585890E+03 -0.59152430799E+03  0.74831884435E+03  0.25500000920E-02 0.  1.
</event>
<event>
 5   0  0.2760807E-03  0.1402082E+04  0.7818609E-02  0.8952313E-01
        2   -1    0    0  501    0  0.00000000000E+00  0.00000000000E+00  0.12887370154E+04  0.12887370154E+04  0.25500000920E-02 0. -1.
       -2   -1    0    0    0  501  0.00000000000E+00  0.00000000000E+00 -0.38134875955E+03  0.38134875955E+03  0.25500000920E-02 0.  1.
    10030    2    1    2    0    0  0.00000000000E+00  0.00000000000E+00  0.90738825590E+03  0.16700857750E+04  0.14020816841E+04 0.  0.
        4    1    3    3  502    0  0.34901642264E+03  0.13685344530E+03  0.11593072127E+04  0.12184154279E+04  0.12699999809E+01 0. -1.
       -4    1    3    3    0  502 -0.34901642264E+03 -0.13685344530E+03 -0.25191895676E+03  0.45167034709E+03  0.12699999809E+01 0.  1.
</event>
<event>
 5   0  0.2917809E-03  0.1286483E+04  0.7818609E-02  0.9040354E-01
        2   -1    0    0  501    0  0.00000000000E+00  0.00000000000E+00  0.23572448378E+04  0.23572448378E+04  0.25500000920E-02 0.  1.
       -2   -1    0    0    0  501  0.00000000000E+00  0.00000000000E+00 -0.17552667679E+03  0.17552667681E+03  0.25500000920E-02 0. -1.
    10030    2    1    2    0    0  0.00000000000E+00  0.00000000000E+00  0.21817181610E+04  0.25327715146E+04  0.12864825732E+04 0.  0.
        2    1    3    3  502    0  0.52266092849E+03  0.35635043787E+03  0.86127068330E+03  0.10686193292E+04  0.25500000920E-02 0. -1.
       -2    1    3    3    0  502 -0.52266092849E+03 -0.35635043787E+03  0.13204474777E+04  0.14641521854E+04  0.25500000920E-02 0.  1.
</event>
<event>
 5   0  0.2917809E-03  0.1428435E+04  0.7818609E-02  0.8933489E-01
       -2   -1    0    0    0  501  0.00000000000E+00  0.00000000000E+00  0.42762215924E+03  0.42762215924E+03  0.25500000920E-02 0.  1.
        2   -1    0    0  501    0  0.00000000000E+00  0.00000000000E+00 -0.11928907368E+04  0.11928907368E+04  0.25500000920E-02 0. -1.
    10030    2    1    2    0    0  0.00000000000E+00  0.00000000000E+00 -0.76526857756E+03  0.16205128960E+04  0.14284348254E+04 0.  0.
        2    1    3    3  502    0  0.39001655544E+03  0.21554184544E+03  0.25057270328E+03  0.51123172856E+03  0.25500000920E-02 0.  1.
       -2    1    3    3    0  502 -0.39001655544E+03 -0.21554184544E+03 -0.10158412808E+04  0.11092811675E+04  0.25500000920E-02 0. -1.
</event>
<event>
 5   0  0.2993993E-03  0.1403740E+04  0.7818609E-02  0.8951116E-01
       -2   -1    0    0    0  501  0.00000000000E+00  0.00000000000E+00  0.64449519332E+03  0.64449519333E+03  0.25500000920E-02 0. -1.
        2   -1    0    0  501    0  0.00000000000E+00  0.00000000000E+00 -0.76435264391E+03  0.76435264391E+03  0.25500000920E-02 0.  1.
    10030    2    1    2    0    0  0.00000000000E+00  0.00000000000E+00 -0.11985745059E+03  0.14088478372E+04  0.14037401540E+04 0.  0.
        3    1    3    3  502    0  0.46790133875E+03 -0.25895394771E+03 -0.51615152053E+03  0.74323698252E+03  0.10100000352E+00 0.  1.
       -3    1    3    3    0  502 -0.46790133875E+03  0.25895394771E+03  0.39629406994E+03  0.66561085472E+03  0.10100000352E+00 0. -1.
</event>
<event>
 5   0  0.1644571E-03  0.1427762E+04  0.7818609E-02  0.8933965E-01
       -1   -1    0    0    0  501  0.00000000000E+00  0.00000000000E+00  0.76657711693E+03  0.76657711695E+03  0.50400001928E-02 0.  1.
        1   -1    0    0  501    0  0.00000000000E+00  0.00000000000E+00 -0.66480730503E+03  0.66480730505E+03  0.50400001928E-02 0. -1.
    10030    2    1    2    0    0  0.00000000000E+00  0.00000000000E+00  0.10176981191E+03  0.14313844220E+04  0.14277619791E+04 0.  0.
        4    1    3    3  502    0  0.42890458001E+03 -0.54284898040E+03 -0.12557387867E+03  0.70314619118E+03  0.12699999809E+01 0. -1.
       -4    1    3    3    0  502 -0.42890458001E+03  0.54284898040E+03  0.22734369058E+03  0.72823823081E+03  0.12699999809E+01 0.  1.
</event>
<event>
 5   0  0.1586022E-03  0.1449089E+04  0.7818609E-02  0.8919032E-01
        1   -1    0    0  501    0  0.00000000000E+00  0.00000000000E+00  0.14346799982E+04  0.14346799983E+04  0.50400001928E-02 0. -1.
       -1   -1    0    0    0  501  0.00000000000E+00  0.00000000000E+00 -0.36591074964E+03  0.36591074968E+03  0.50400001928E-02 0.  1.
    10030    2    1    2    0    0  0.00000000000E+00  0.00000000000E+00  0.10687692486E+04  0.18005907479E+04  0.14490891397E+04 0.  0.
        1    1    3    3  502    0 -0.22613342075E+03  0.39751453551E+03  0.12326706250E+04  0.13147741250E+04  0.50400001928E-02 0. -1.
       -1    1    3    3    0  502  0.22613342075E+03 -0.39751453551E+03 -0.16390137641E+03  0.48581662295E+03  0.50400001928E-02 0.  1.
</event>
<event>
 5   0  0.1631380E-03  0.1457339E+04  0.7818609E-02  0.8913328E-01
        1   -1    0    0  501    0  0.00000000000E+00  0.00000000000E+00  0.57836043626E+03  0.57836043628E+03  0.50400001928E-02 0.  1.
       -1   -1    0    0    0  501  0.00000000000E+00  0.00000000000E+00 -0.91804255718E+03  0.91804255719E+03  0.50400001928E-02 0. -1.
    10030    2    1    2    0    0  0.00000000000E+00  0.00000000000E+00 -0.33968212092E+03  0.14964029935E+04  0.14573393481E+04 0.  0.
        3    1    3    3  502    0  0.12069148404E+03 -0.58656582105E+03 -0.59609935311E+03  0.84496174217E+03  0.10100000352E+00 0. -1.
       -3    1    3    3    0  502 -0.12069148404E+03  0.58656582105E+03  0.25641723219E+03  0.65144125131E+03  0.10100000352E+00 0.  1.
</event>
<event>
 5   0  0.1700207E-03  0.1408437E+04  0.7818609E-02  0.8947734E-01
        1   -1    0    0  501    0  0.00000000000E+00  0.00000000000E+00  0.60769336961E+03  0.60769336963E+03  0.50400001928E-02 0. -1.
       -1   -1    0    0    0  501  0.00000000000E+00  0.00000000000E+00 -0.81607590255E+03  0.81607590256E+03  0.50400001928E-02 0.  1.
    10030    2    1    2    0    0  0.00000000000E+00  0.00000000000E+00 -0.20838253293E+03  0.14237692722E+04  0.14084373115E+04 0.  0.
        2    1    3    3  502    0  0.55420148402E+03  0.37435511768E+03  0.11876091022E+03  0.67925340841E+03  0.25500000920E-02 0. -1.
       -2    1    3    3    0  502 -0.55420148402E+03 -0.37435511768E+03 -0.32714344315E+03  0.74451586379E+03  0.25500000920E-02 0.  1.
</event>
<event>
 5   0  0.1586022E-03  0.1451086E+04  0.7818609E-02  0.8917648E-01
       -1   -1    0    0    0  501  0.00000000000E+00  0.00000000000E+00  0.10172685597E+04  0.10172685598E+04  0.50400001928E-02 0.  1.
        1   -1    0    0  501    0  0.00000000000E+00  0.00000000000E+00 -0.51747639349E+03  0.51747639352E+03  0.50400001928E-02 0. -1.
    10030    2    1    2    0    0  0.00000000000E+00  0.00000000000E+00  0.49979216625E+03  0.15347449533E+04  0.14510857529E+04 0.  0.
        1    1    3    3  502    0 -0.62169054738E+03  0.36864280182E+03  0.31692001511E+03  0.78919892805E+03  0.50400001928E-02 0. -1.
       -1    1    3    3    0  502  0.62169054738E+03 -0.36864280182E+03  0.18287215114E+03  0.74554602522E+03  0.50400001928E-02 0.  1.
</event>
<event>
 5   0  0.2760807E-03  0.1400002E+04  0.7818609E-02  0.8953817E-01
       -2   -1    0    0    0  501  0.00000000000E+00  0.00000000000E+00  0.47699075603E+03  0.47699075603E+03  0.25500000920E-02 0.  1.
        2   -1    0    0  501    0  0.00000000000E+00  0.00000000000E+00 -0.10272762090E+04  0.10272762090E+04  0.25500000920E-02 0. -1.
    10030    2    1    2    0    0  0.00000000000E+00  0.00000000000E+00 -0.55028545294E+03  0.15042669650E+04  0.14000017937E+04 0.  0.
        4    1    3    3  502    0  0.45877120942E+03 -0.28438534074E+03 -0.75404240309E+03  0.92732281498E+03  0.12699999809E+01 0. -1.
       -4    1    3    3    0  502 -0.45877120942E+03  0.28438534074E+03  0.20375695015E+03  0.57694415003E+03  0.12699999809E+01 0.  1.
</event>
<event>
 5   0  0.2760807E-03  0.1377274E+04  0.7818609E-02  0.8970435E-01
       -2   -1    0    0    0  501  0.00000000000E+00  0.00000000000E+00  0.26638745144E+03  0.26638745145E+03  0.25500000920E-02 0. -1.
        2   -1    0    0  501    0  0.00000000000E+00  0.00000000000E+00 -0.17801927082E+04  0.17801927082E+04  0.25500000920E-02 0.  1.
    10030    2    1    2    0    0  0.00000000000E+00  0.00000000000E+00 -0.15138052568E+04  0.20465801597E+04  0.13772741174E+04 0.  0.
        4    1    3    3  502    0 -0.14645041252E+03  0.35824084069E+03 -0.16032961531E+04  0.16493466557E+04  0.12699999809E+01 0.  1.
       -4    1    3    3    0  502  0.14645041252E+03 -0.35824084069E+03  0.89490896304E+02  0.39723350398E+03  0.12699999809E+01 0. -1.
</event>
<event>
 5   0  0.2917809E-03  0.1412490E+04  0.7818609E-02  0.8944827E-01
       -2   -1    0    0    0  501  0.00000000000E+00  0.00000000000E+00  0.10417924121E+04  0.10417924121E+04  0.25500000920E-02 0.  1.
        2   -1    0    0  501    0  0.00000000000E+00  0.00000000000E+00 -0.47877317549E+03  0.47877317550E+03  0.25500000920E-02 0. -1.
    10030    2    1    2    0    0  0.00000000000E+00  0.00000000000E+00  0.56301923665E+03  0.15205655876E+04  0.14124903700E+04 0.  0.
        2    1    3    3  502    0  0.70215562151E+03  0.32590478394E+02  0.20772634429E+03  0.73296308926E+03  0.25500000920E-02 0. -1.
       -2    1    3    3    0  502 -0.70215562151E+03 -0.32590478394E+02  0.35529289236E+03  0.78760249839E+03  0.25500000920E-02 0.  1.
</event>
<event>
 5   0  0.1104538E-03  0.1396262E+04  0.7818609E-02  0.8956529E-01
       -3   -1    0    0    0  501  0.00000000000E+00  0.00000000000E+00  0.10753321981E+04  0.10753322028E+04  0.10100000352E+00 0. -1.
        3   -1    0    0  501    0  0.00000000000E+00  0.00000000000E+00 -0.45324294428E+03  0.45324295553E+03  0.10100000352E+00 0.  1.
    10030    2    1    2    0    0  0.00000000000E+00  0.00000000000E+00  0.62208925382E+03  0.15285751584E+04  0.13962617860E+04 0.  0.
        2    1    3    3  502    0  0.36488327601E+03  0.14537905996E+03  0.94289609364E+03  0.10214342463E+04  0.25500000920E-02 0. -1.
       -2    1    3    3    0  502 -0.36488327601E+03 -0.14537905996E+03 -0.32080683982E+03  0.50714091204E+03  0.25500000920E-02 0.  1.
</event>
<event>
 5   0  0.1644571E-03  0.1304072E+04  0.7818609E-02  0.9026342E-01
       -1   -1    0    0    0  501  0.00000000000E+00  0.00000000000E+00  0.17838533687E+03  0.17838533694E+03  0.50400001928E-02 0. -1.
        1   -1    0    0  501    0  0.00000000000E+00  0.00000000000E+00 -0.23833305629E+04  0.23833305629E+04  0.50400001928E-02 0.  1.
    10030    2    1    2    0    0  0.00000000000E+00  0.00000000000E+00 -0.22049452260E+04  0.25617158998E+04  0.13040724296E+04 0.  0.
        4    1    3    3  502    0  0.84928089133E+02 -0.50216445717E+03 -0.30267667604E+03  0.59244974933E+03  0.12699999809E+01 0.  1.
       -4    1    3    3    0  502 -0.84928089133E+02  0.50216445717E+03 -0.19022685500E+04  0.19692661505E+04  0.12699999809E+01 0. -1.
</event>
<event>
 5   0  0.1631380E-03  0.1329939E+04  0.7818609E-02  0.9006154E-01
        1   -1    0    0  501    0  0.00000000000E+00  0.00000000000E+00  0.28995032542E+03  0.28995032546E+03  0.50400001928E-02 0.  1.
       -1   -1    0    0    0  501  0.00000000000E+00  0.00000000000E+00 -0.15250361067E+04  0.15250361067E+04  0.50400001928E-02 0. -1.
    10030    2    1    2    0    0  0.00000000000E+00  0.00000000000E+00 -0.12350857813E+04  0.18149864322E+04  0.13299394204E+04 0.  0.
        3    1    3    3  502    0 -0.23346908821E+03 -0.20629536491E+03 -0.14192690039E+04  0.14530623208E+04  0.10100000352E+00 0. -1.
       -3    1    3    3    0  502  0.23346908821E+03  0.20629536491E+03  0.18418322253E+03  0.36192411137E+03  0.10100000352E+00 0.  1.
</event>
<event>
 5   0  0.1644571E-03  0.1390666E+04  0.7818609E-02  0.8960603E-01
       -1   -1    0    0    0  501  0.00000000000E+00  0.00000000000E+00  0.31931179796E+03  0.31931179800E+03  0.50400001928E-02 0. -1.
        1   -1    0    0  501    0  0.00000000000E+00  0.00000000000E+00 -0.15141564889E+04  0.15141564889E+04  0.50400001928E-02 0.  1.
    10030    2    1    2    0    0  0.00000000000E+00  0.00000000000E+00 -0.11948446909E+04  0.18334682869E+04  0.13906660719E+04 0.  0.
        4    1    3    3  502    0 -0.64782480441E+03 -0.21967077602E+03 -0.43299492018E+03  0.80957917515E+03  0.12699999809E+01 0. -1.
       -4    1    3    3    0  502  0.64782480441E+03  0.21967077602E+03 -0.76184977074E+03  0.10238891117E+04  0.12699999809E+01 0.  1.
</event>
<event>
 5   0  0.1644571E-03  0.1383877E+04  0.7818609E-02  0.8965572E-01
       -1   -1    0    0    0  501  0.00000000000E+00  0.00000000000E+00  0.56948784814E+03  0.56948784816E+03  0.50400001928E-02 0.  1.
        1   -1    0    0  501    0  0.00000000000E+00  0.00000000000E+00 -0.84071889880E+03  0.84071889882E+03  0.50400001928E-02 0. -1.
    10030    2    1    2    0    0  0.00000000000E+00  0.00000000000E+00 -0.27123105066E+03  0.14102067470E+04  0.13838774463E+04 0.  0.
        4    1    3    3  502    0 -0.19042385910E+03  0.53890337839E+03 -0.53303489517E+03  0.78154072813E+03  0.12699999809E+01 0. -1.
       -4    1    3    3    0  502  0.19042385910E+03 -0.53890337839E+03  0.26180384451E+03  0.62866601885E+03  0.12699999809E+01 0.  1.
</event>
<event>
 5   0  0.3006737E-03  0.1401285E+04  0.7818609E-02  0.8952889E-01
        2   -1    0    0  501    0  0.00000000000E+00  0.00000000000E+00  0.12191991785E+04  0.12191991785E+04  0.25500000920E-02 0.  1.
       -2   -1    0    0    0  501  0.00000000000E+00  0.00000000000E+00 -0.40264140928E+03  0.40264140929E+03  0.25500000920E-02 0. -1.
    10030    2    1    2    0    0  0.00000000000E+00  0.00000000000E+00  0.81655776924E+03  0.16218405878E+04  0.14012852321E+04 0.  0.
        1    1    3    3  502    0 -0.38360118342E+02 -0.65103298483E+03  0.70468192497E+03  0.96015210328E+03  0.50400001928E-02 0.  1.
       -1    1    3    3    0  502  0.38360118342E+02  0.65103298483E+03  0.11187584427E+03  0.66168848454E+03  0.50400001928E-02 0. -1.
</event>
<event>
 5   0  0.2917809E-03  0.1387470E+04  0.7818609E-02  0.8962939E-01
        2   -1    0    0  501    0  0.00000000000E+00  0.00000000000E+00  0.11098848415E+04  0.11098848415E+04  0.25500000920E-02 0. -1.
       -2   -1    0    0    0  501  0.00000000000E+00  0.00000000000E+00 -0.43361981766E+03  0.43361981766E+03  0.25500000920E-02 0.  1.
    10030    2    1    2    0    0  0.00000000000E+00  0.00000000000E+00  0.67626502386E+03  0.15435046592E+04  0.13874697296E+04 0.  0.
        2    1    3    3  502    0 -0.19542472016E+03  0.46916933938E+03  0.86341793195E+03  0.10018988050E+04  0.25500000920E-02 0. -1.
       -2    1    3    3    0  502  0.19542472016E+03 -0.46916933938E+03 -0.18715290809E+03  0.54160585417E+03  0.25500000920E-02 0.  1.
</event>
<event>
 5   0  0.2993993E-03  0.1418381E+04  0.7818609E-02  0.8940620E-01
       -2   -1    0    0    0  501  0.00000000000E+00  0.00000000000E+00  0.17528447034E+04  0.17528447034E+04  0.25500000920E-02 0. -1.
        2   -1    0    0  501    0  0.00000000000E+00  0.00000000000E+00 -0.28693439428E+03  0.28693439429E+03  0.25500000920E-02 0.  1.
    10030    2    1    2    0    0  0.00000000000E+00  0.00000000000E+00  0.14659103091E+04  0.20397790977E+04  0.14183813778E+04 0.  0.
        3    1    3    3  502    0 -0.21862149443E+02  0.32472107165E+03 -0.17319801008E+03  0.36867233264E+03  0.10100000352E+00 0.  1.
       -3    1    3    3    0  502  0.21862149443E+02 -0.32472107165E+03  0.16391083192E+04  0.16711067650E+04  0.10100000352E+00 0. -1.
</event>
<event>
 5   0  0.2889469E-03  0.1309184E+04  0.7818609E-02  0.9022314E-01
       -2   -1    0    0    0  501  0.00000000000E+00  0.00000000000E+00  0.67340577347E+03  0.67340577348E+03  0.25500000920E-02 0.  1.
        2   -1    0    0  501    0  0.00000000000E+00  0.00000000000E+00 -0.63630388642E+03  0.63630388642E+03  0.25500000920E-02 0. -1.
    10030    2    1    2    0    0  0.00000000000E+00  0.00000000000E+00  0.37101887056E+02  0.13097096599E+04  0.13091840372E+04 0.  0.
        5    1    3    3  502    0  0.53840632024E+03  0.37116570378E+03 -0.10153353624E+02  0.65404168516E+03  0.46999998093E+01 0. -1.
       -5    1    3    3    0  502 -0.53840632024E+03 -0.37116570378E+03  0.47255240680E+02  0.65566797474E+03  0.46999998093E+01 0.  1.
</event>
<event>
 5   0  0.1560957E-03  0.1421575E+04  0.7818609E-02  0.8938348E-01
       -1   -1    0    0    0  501  0.00000000000E+00  0.00000000000E+00  0.36332490940E+03  0.36332490943E+03  0.50400001928E-02 0.  1.
        1   -1    0    0  501    0  0.00000000000E+00  0.00000000000E+00 -0.13905425003E+04  0.13905425003E+04  0.50400001928E-02 0. -1.
    10030    2    1    2    0    0  0.00000000000E+00  0.00000000000E+00 -0.10272175909E+04  0.17538674097E+04  0.14215748000E+04 0.  0.
        5    1    3    3  502    0 -0.24913840613E+03 -0.51584472549E+03  0.54918811862E+01  0.57290311309E+03  0.46999998093E+01 0.  1.
       -5    1    3    3    0  502  0.24913840613E+03  0.51584472549E+03 -0.10327094721E+04  0.11809642966E+04  0.46999998093E+01 0. -1.
</event>
<event>
 5   0  0.1700207E-03  0.1431575E+04  0.7818609E-02  0.8931275E-01
       -1   -1    0    0    0  501  0.00000000000E+00  0.00000000000E+00  0.10391857572E+04  0.10391857572E+04  0.50400001928E-02 0.  1.
        1   -1    0    0  501    0  0.00000000000E+00  0.00000000000E+00 -0.49303214144E+03  0.49303214146E+03  0.50400001928E-02 0. -1.
    10030    2    1    2    0    0  0.00000000000E+00  0.00000000000E+00  0.54615361573E+03  0.15322178986E+04  0.14315753270E+04 0.  0.
        2    1    3    3  502    0 -0.22141017456E+03  0.18418106521E+03 -0.42828289580E+03  0.51611177958E+03  0.25500000920E-02 0. -1.
       -2    1    3    3    0  502  0.22141017456E+03 -0.18418106521E+03  0.97443651154E+03  0.10161061191E+04  0.25500000920E-02 0.  1.
</event>
<event>
 5   0  0.1560957E-03  0.1782037E+04  0.7818609E-02  0.8715911E-01
        1   -1    0    0  501    0  0.00000000000E+00  0.00000000000E+00  0.10561619012E+04  0.10561619013E+04  0.50400001928E-02 0.  1.
       -1   -1    0    0    0  501  0.00000000000E+00  0.00000000000E+00 -0.75169749091E+03  0.75169749093E+03  0.50400001928E-02 0. -1.
    10030    2    1    2    0    0  0.00000000000E+00  0.00000000000E+00  0.30446441033E+03  0.18078593922E+04  0.17820373186E+04 0.  0.
        5    1    3    3  502    0 -0.71292405003E+02  0.13570518764E+03  0.10426712687E+04  0.10538899229E+04  0.46999998093E+01 0.  1.
       -5    1    3    3    0  502  0.71292405003E+02 -0.13570518764E+03 -0.73820685835E+03  0.75396946933E+03  0.46999998093E+01 0. -1.
</event>
<event>
 5   0  0.2917809E-03  0.1397217E+04  0.7818609E-02  0.8955836E-01
       -2   -1    0    0    0  501  0.00000000000E+00  0.00000000000E+00  0.60966182339E+03  0.60966182340E+03  0.25500000920E-02 0. -1.
        2   -1    0    0  501    0  0.00000000000E+00  0.00000000000E+00 -0.80053155791E+03  0.80053155791E+03  0.25500000920E-02 0.  1.
    10030    2    1    2    0    0  0.00000000000E+00  0.00000000000E+00 -0.19086973452E+03  0.14101933813E+04  0.13972165606E+04 0.  0.
        2    1    3    3  502    0 -0.46764832597E+03 -0.22235785150E+03 -0.56874186478E+03  0.76915881303E+03  0.25500000920E-02 0.  1.
       -2    1    3    3    0  502  0.46764832597E+03  0.22235785150E+03  0.37787213026E+03  0.64103456828E+03  0.25500000920E-02 0. -1.
</event>
<event>
 5   0  0.3006737E-03  0.1386839E+04  0.7818609E-02  0.8963401E-01
        2   -1    0    0  501    0  0.00000000000E+00  0.00000000000E+00  0.18976891335E+04  0.18976891335E+04  0.25500000920E-02 0.  1.
       -2   -1    0    0    0  501  0.00000000000E+00  0.00000000000E+00 -0.25337688469E+03  0.25337688470E+03  0.25500000920E-02 0. -1.
    10030    2    1    2    0    0  0.00000000000E+00  0.00000000000E+00  0.16443122488E+04  0.21510660182E+04  0.13868389391E+04 0.  0.
        1    1    3    3  502    0 -0.42646939516E+03 -0.15485774362E+03  0.16354979931E+04  0.16972656690E+04  0.50400001928E-02 0.  1.
       -1    1    3    3    0  502  0.42646939516E+03  0.15485774362E+03  0.88142556706E+01  0.45380034915E+03  0.50400001928E-02 0. -1.
</event>
<event>
 5   0  0.3006737E-03  0.9648334E+03  0.7818609E-02  0.9347979E-01
        2   -1    0    0  501    0  0.00000000000E+00  0.00000000000E+00  0.68490668830E+03  0.68490668831E+03  0.25500000920E-02 0.  1.
       -2   -1    0    0    0  501  0.00000000000E+00  0.00000000000E+00 -0.33979210167E+03  0.33979210168E+03  0.25500000920E-02 0. -1.
    10030    2    1    2    0    0  0.00000000000E+00  0.00000000000E+00  0.34511458663E+03  0.10246987900E+04  0.96483342205E+03 0.  0.
        1    1    3    3  502    0 -0.11734344451E+03 -0.18436099032E+03  0.62932091601E+03  0.66618561533E+03  0.50400001928E-02 0.  1.
       -1    1    3    3    0  502  0.11734344451E+03  0.18436099032E+03 -0.28420632938E+03  0.35851317466E+03  0.50400001928E-02 0. -1.
</event>
<event>
 5   0  0.2993993E-03  0.1401742E+04  0.7818609E-02  0.8952558E-01
        2   -1    0    0  501    0  0.00000000000E+00  0.00000000000E+00  0.24229946685E+04  0.24229946685E+04  0.25500000920E-02 0. -1.
       -2   -1    0    0    0  501  0.00000000000E+00  0.00000000000E+00 -0.20273276972E+03  0.20273276974E+03  0.25500000920E-02 0.  1.
    10030    2    1    2    0    0  0.00000000000E+00  0.00000000000E+00  0.22202618988E+04  0.26257274382E+04  0.14017423732E+04 0.  0.
        3    1    3    3  502    0 -0.13304965783E+03  0.57835647252E+03  0.41170045997E+03  0.72228505432E+03  0.10100000352E+00 0.  1.
       -3    1    3    3    0  502  0.13304965783E+03 -0.57835647252E+03  0.18085614388E+04  0.19034423839E+04  0.10100000352E+00 0. -1.
</event>
<event>
 5   0  0.1644571E-03  0.1404798E+04  0.7818609E-02  0.8950353E-01
        1   -1    0    0  501    0  0.00000000000E+00  0.00000000000E+00  0.11816414234E+04  0.11816414234E+04  0.50400001928E-02 0.  1.
       -1   -1    0    0    0  501  0.00000000000E+00  0.00000000000E+00 -0.41752449701E+03  0.41752449704E+03  0.50400001928E-02 0. -1.
    10030    2    1    2    0    0  0.00000000000E+00  0.00000000000E+00  0.76411692641E+03  0.15991659205E+04  0.14047978374E+04 0.  0.
        4    1    3    3  502    0 -0.67827183606E+03  0.37318196258E+02  0.58543120638E+03  0.89675896520E+03  0.12699999809E+01 0.  1.
       -4    1    3    3    0  502  0.67827183606E+03 -0.37318196258E+02  0.17868572003E+03  0.70240695527E+03  0.12699999809E+01 0. -1.
</event>
<event>
 5   0  0.2993993E-03  0.1454952E+04  0.7818609E-02  0.8914974E-01
        2   -1    0    0  501    0  0.00000000000E+00  0.00000000000E+00  0.14462686535E+04  0.14462686535E+04  0.25500000920E-02 0.  1.
       -2   -1    0    0    0  501  0.00000000000E+00  0.00000000000E+00 -0.36592207189E+03  0.36592207189E+03  0.25500000920E-02 0. -1.
    10030    2    1    2    0    0  0.00000000000E+00  0.00000000000E+00  0.10803465816E+04  0.18121907254E+04  0.14549524009E+04 0.  0.
        3    1    3    3  502    0 -0.24973353972E+03 -0.29904600174E+03 -0.22502003732E+03  0.44992152584E+03  0.10100000352E+00 0. -1.
       -3    1    3    3    0  502  0.24973353972E+03  0.29904600174E+03  0.13053666190E+04  0.13622691996E+04  0.10100000352E+00 0.  1.
</event>
<event>
 5   0  0.1700207E-03  0.1424960E+04  0.7818609E-02  0.8935947E-01
        1   -1    0    0  501    0  0.00000000000E+00  0.00000000000E+00  0.67956991474E+03  0.67956991476E+03  0.50400001928E-02 0. -1.
       -1   -1    0    0    0  501  0.00000000000E+00  0.00000000000E+00 -0.74698388096E+03  0.74698388098E+03  0.50400001928E-02 0.  1.
    10030    2    1    2    0    0  0.00000000000E+00  0.00000000000E+00 -0.67413966223E+02  0.14265537957E+04  0.14249600308E+04 0.  0.
        2    1    3    3  502    0 -0.32481175700E+03 -0.11824840187E+03  0.59000059390E+03  0.68380264905E+03  0.25500000920E-02 0. -1.
       -2    1    3    3    0  502  0.32481175700E+03  0.11824840187E+03 -0.65741456013E+03  0.74275114669E+03  0.25500000920E-02 0.  1.
</event>
<event>
 5   0  0.2889469E-03  0.1409407E+04  0.7818609E-02  0.8947037E-01
       -2   -1    0    0    0  501  0.00000000000E+00  0.00000000000E+00  0.51978042303E+03  0.51978042304E+03  0.25500000920E-02 0.  1.
        2   -1    0    0  501    0  0.00000000000E+00  0.00000000000E+00 -0.95541687293E+03  0.95541687293E+03  0.25500000920E-02 0. -1.
    10030    2    1    2    0    0  0.00000000000E+00  0.00000000000E+00 -0.43563644990E+03  0.14751972960E+04  0.14094069482E+04 0.  0.
        5    1    3    3  502    0 -0.33159962813E+03  0.42086794891E+03  0.26125549421E+03  0.59612470763E+03  0.46999998093E+01 0.  1.
       -5    1    3    3    0  502  0.33159962813E+03 -0.42086794891E+03 -0.69689194410E+03  0.87907258833E+03  0.46999998093E+01 0. -1.
</event>
<event>
 5   0  0.2993993E-03  0.1406491E+04  0.7818609E-02  0.8949134E-01
       -2   -1    0    0    0  501  0.00000000000E+00  0.00000000000E+00  0.45737658575E+03  0.45737658576E+03  0.25500000920E-02 0. -1.
        2   -1    0    0  501    0  0.00000000000E+00  0.00000000000E+00 -0.10812839528E+04  0.10812839528E+04  0.25500000920E-02 0.  1.
    10030    2    1    2    0    0  0.00000000000E+00  0.00000000000E+00 -0.62390736701E+03  0.15386605385E+04  0.14064906150E+04 0.  0.
        3    1    3    3  502    0 -0.43360945887E+03 -0.48721909323E+03 -0.59963768596E+03  0.88598248982E+03  0.10100000352E+00 0.  1.
       -3    1    3    3    0  502  0.43360945887E+03  0.48721909323E+03 -0.24269681047E+02  0.65267804870E+03  0.10100000352E+00 0. -1.
</event>
<event>
 5   0  0.1700207E-03  0.1369087E+04  0.7818609E-02  0.8976504E-01
        1   -1    0    0  501    0  0.00000000000E+00  0.00000000000E+00  0.66435848692E+03  0.66435848694E+03  0.50400001928E-02 0. -1.
       -1   -1    0    0    0  501  0.00000000000E+00  0.00000000000E+00 -0.70534156342E+03  0.70534156344E+03  0.50400001928E-02 0.  1.
    10030    2    1    2    0    0  0.00000000000E+00  0.00000000000E+00 -0.40983076499E+02  0.13697000504E+04  0.13690867816E+04 0.  0.
        2    1    3    3  502    0  0.45893312370E+03  0.45233450573E+03  0.21063908227E+03  0.67793431842E+03  0.25500000920E-02 0. -1.
       -2    1    3    3    0  502 -0.45893312370E+03 -0.45233450573E+03 -0.25162215877E+03  0.69176573195E+03  0.25500000920E-02 0.  1.
</event>
<event>
 5   0  0.1700207E-03  0.1337045E+04  0.7818609E-02  0.9000693E-01
       -1   -1    0    0    0  501  0.00000000000E+00  0.00000000000E+00  0.16752626635E+03  0.16752626642E+03  0.50400001928E-02 0.  1.
        1   -1    0    0  501    0  0.00000000000E+00  0.00000000000E+00 -0.26677740058E+04  0.26677740058E+04  0.50400001928E-02 0. -1.
    10030    2    1    2    0    0  0.00000000000E+00  0.00000000000E+00 -0.25002477395E+04  0.28353002723E+04  0.13370448291E+04 0.  0.
        2    1    3    3  502    0 -0.36703424708E+03 -0.11989907828E+03 -0.24074052937E+04  0.24381735327E+04  0.25500000920E-02 0. -1.
       -2    1    3    3    0  502  0.36703424708E+03  0.11989907828E+03 -0.92842445759E+02  0.39712673952E+03  0.25500000920E-02 0.  1.
</event>
<event>
 5   0  0.1560957E-03  0.1381264E+04  0.7818609E-02  0.8967494E-01
        1   -1    0    0  501    0  0.00000000000E+00  0.00000000000E+00  0.37659385814E+03  0.37659385817E+03  0.50400001928E-02 0.  1.
       -1   -1    0    0    0  501  0.00000000000E+00  0.00000000000E+00 -0.12665432355E+04  0.12665432355E+04  0.50400001928E-02 0. -1.
    10030    2    1    2    0    0  0.00000000000E+00  0.00000000000E+00 -0.88994937732E+03  0.16431370936E+04  0.13812637743E+04 0.  0.
        5    1    3    3  502    0  0.38631970266E+03  0.55598801369E+03 -0.60714647511E+03  0.90940338479E+03  0.46999998093E+01 0.  1.
       -5    1    3    3    0  502 -0.38631970266E+03 -0.55598801369E+03 -0.28280290221E+03  0.73373370886E+03  0.46999998093E+01 0. -1.
</event>
<event>
 5   0  0.2917809E-03  0.1326840E+04  0.7818609E-02  0.9008548E-01
        2   -1    0    0  501    0  0.00000000000E+00  0.00000000000E+00  0.45342582277E+03  0.45342582278E+03  0.25500000920E-02 0.  1.
       -2   -1    0    0    0  501  0.00000000000E+00  0.00000000000E+00 -0.97066801701E+03  0.97066801701E+03  0.25500000920E-02 0. -1.
    10030    2    1    2    0    0  0.00000000000E+00  0.00000000000E+00 -0.51724219424E+03  0.14240938398E+04  0.13268397707E+04 0.  0.
        2    1    3    3  502    0 -0.32598093544E+03 -0.31525387577E+03 -0.77834248832E+03  0.90081385735E+03  0.25500000920E-02 0. -1.
       -2    1    3    3    0  502  0.32598093544E+03  0.31525387577E+03  0.26110029408E+03  0.52327998245E+03  0.25500000920E-02 0.  1.
</event>
<event>
 5   0  0.2917809E-03  0.1230249E+04  0.7818609E-02  0.9086784E-01
        2   -1    0    0  501    0  0.00000000000E+00  0.00000000000E+00  0.11253353414E+04  0.11253353414E+04  0.25500000920E-02 0.  1.
       -2   -1    0    0    0  501  0.00000000000E+00  0.00000000000E+00 -0.33623595612E+03  0.33623595613E+03  0.25500000920E-02 0. -1.
    10030    2    1    2    0    0  0.00000000000E+00  0.00000000000E+00  0.78909938523E+03  0.14615712975E+04  0.12302490877E+04 0.  0.
        2    1    3    3  502    0 -0.15437671003E+03  0.30030233338E+02 -0.31194716868E+03  0.34934942331E+03  0.25500000920E-02 0. -1.
       -2    1    3    3    0  502  0.15437671003E+03 -0.30030233338E+02  0.11010465539E+04  0.11122218742E+04  0.25500000920E-02 0.  1.
</event>
<event>
 5   0  0.1631380E-03  0.1301626E+04  0.7818609E-02  0.9028277E-01
       -1   -1    0    0    0  501  0.00000000000E+00  0.00000000000E+00  0.38646695758E+03  0.38646695762E+03  0.50400001928E-02 0.  1.
        1   -1    0    0  501    0  0.00000000000E+00  0.00000000000E+00 -0.10959728396E+04  0.10959728396E+04  0.50400001928E-02 0. -1.
    10030    2    1    2    0    0  0.00000000000E+00  0.00000000000E+00 -0.70950588201E+03  0.14824397972E+04  0.13016255820E+04 0.  0.
        3    1    3    3  502    0  0.14707721749E+03  0.14325455866E+03 -0.10581222950E+04  0.10778573086E+04  0.10100000352E+00 0. -1.
       -3    1    3    3    0  502 -0.14707721749E+03 -0.14325455866E+03  0.34861641296E+03  0.40458248858E+03  0.10100000352E+00 0.  1.
</event>
<event>
 5   0  0.2760807E-03  0.1453444E+04  0.7818609E-02  0.8916017E-01
       -2   -1    0    0    0  501  0.00000000000E+00  0.00000000000E+00  0.20067884702E+03  0.20067884703E+03  0.25500000920E-02 0. -1.
        2   -1    0    0  501    0  0.00000000000E+00  0.00000000000E+00 -0.26316908259E+04  0.26316908259E+04  0.25500000920E-02 0.  1.
    10030    2    1    2    0    0  0.00000000000E+00  0.00000000000E+00 -0.24310119789E+04  0.28323696729E+04  0.14534437460E+04 0.  0.
        4    1    3    3  502    0  0.59681450195E+03  0.27811964971E+02 -0.40928258697E+03  0.72420639601E+03  0.12699999809E+01 0. -1.
       -4    1    3    3    0  502 -0.59681450195E+03 -0.27811964971E+02 -0.20217293919E+04  0.21081632769E+04  0.12699999809E+01 0.  1.
</event>
<event>
 5   0  0.1586022E-03  0.1343078E+04  0.7818609E-02  0.8996084E-01
        1   -1    0    0  501    0  0.00000000000E+00  0.00000000000E+00  0.72304782268E+03  0.72304782270E+03  0.50400001928E-02 0. -1.
       -1   -1    0    0    0  501  0.00000000000E+00  0.00000000000E+00 -0.62369996420E+03  0.62369996422E+03  0.50400001928E-02 0.  1.
    10030    2    1    2    0    0  0.00000000000E+00  0.00000000000E+00  0.99347858477E+02  0.13467477869E+04  0.13430784060E+04 0.  0.
        1    1    3    3  502    0 -0.41176745152E+03  0.19913337050E+03  0.54270655764E+03  0.70974427867E+03  0.50400001928E-02 0. -1.
       -1    1    3    3    0  502  0.41176745152E+03 -0.19913337050E+03 -0.44335869916E+03  0.63700350825E+03  0.50400001928E-02 0.  1.
</event>
<event>
 5   0  0.2917809E-03  0.1416256E+04  0.7818609E-02  0.8942135E-01
       -2   -1    0    0    0  501  0.00000000000E+00  0.00000000000E+00  0.11358122327E+04  0.11358122327E+04  0.25500000920E-02 0. -1.
        2   -1    0    0  501    0  0.00000000000E+00  0.00000000000E+00 -0.44148631134E+03  0.44148631135E+03  0.25500000920E-02 0.  1.
    10030    2    1    2    0    0  0.00000000000E+00  0.00000000000E+00  0.69432592133E+03  0.15772985440E+04  0.14162564076E+04 0.  0.
        2    1    3    3  502    0 -0.76706181255E+02 -0.18006797803E+03  0.11050890653E+04  0.11222879119E+04  0.25500000920E-02 0. -1.
       -2    1    3    3    0  502  0.76706181255E+02  0.18006797803E+03 -0.41076314393E+03  0.45501063216E+03  0.25500000920E-02 0.  1.
</event>
<event>
 5   0  0.1631380E-03  0.1331127E+04  0.7818609E-02  0.9005239E-01
       -1   -1    0    0    0  501  0.00000000000E+00  0.00000000000E+00  0.72111678804E+03  0.72111678806E+03  0.50400001928E-02 0. -1.
        1   -1    0    0  501    0  0.00000000000E+00  0.00000000000E+00 -0.61429011037E+03  0.61429011039E+03  0.50400001928E-02 0.  1.
    10030    2    1    2    0    0  0.00000000000E+00  0.00000000000E+00  0.10682667767E+03  0.13354068984E+04  0.13311272086E+04 0.  0.
        3    1    3    3  502    0 -0.27296839336E+03  0.60537358684E+03  0.98120926865E+02  0.67127985960E+03  0.10100000352E+00 0. -1.
       -3    1    3    3    0  502  0.27296839336E+03 -0.60537358684E+03  0.87057508056E+01  0.66412703884E+03  0.10100000352E+00 0.  1.
</event>
<event>
 5   0  0.3006737E-03  0.1395291E+04  0.7818609E-02  0.8957234E-01
        2   -1    0    0  501    0  0.00000000000E+00  0.00000000000E+00  0.66356857578E+03  0.66356857578E+03  0.25500000920E-02 0.  1.
       -2   -1    0    0    0  501  0.00000000000E+00  0.00000000000E+00 -0.73347292842E+03  0.73347292843E+03  0.25500000920E-02 0. -1.
    10030    2    1    2    0    0  0.00000000000E+00  0.00000000000E+00 -0.69904352645E+02  0.13970415042E+04  0.13952914914E+04 0.  0.
        1    1    3    3  502    0 -0.14546192679E+02 -0.46677445197E+03 -0.55388747907E+03  0.72448693585E+03  0.50400001928E-02 0. -1.
       -1    1    3    3    0  502  0.14546192679E+02  0.46677445197E+03  0.48398312642E+03  0.67255456836E+03  0.50400001928E-02 0.  1.
</event>
<event>
 5   0  0.2889469E-03  0.1393205E+04  0.7818609E-02  0.8958752E-01
        2   -1    0    0  501    0  0.00000000000E+00  0.00000000000E+00  0.61738616369E+03  0.61738616369E+03  0.25500000920E-02 0.  1.
       -2   -1    0    0    0  501  0.00000000000E+00  0.00000000000E+00 -0.78598262503E+03  0.78598262503E+03  0.25500000920E-02 0. -1.
    10030    2    1    2    0    0  0.00000000000E+00  0.00000000000E+00 -0.16859646134E+03  0.14033687887E+04  0.13932046477E+04 0.  0.
        5    1    3    3  502    0 -0.39469579738E+02 -0.69543400845E+03 -0.91159662652E+02  0.70250870595E+03  0.46999998093E+01 0. -1.
       -5    1    3    3    0  502  0.39469579738E+02  0.69543400845E+03 -0.77436798687E+02  0.70086008278E+03  0.46999998093E+01 0.  1.
</event>
<event>
 5   0  0.1586022E-03  0.1365517E+04  0.7818609E-02  0.8979164E-01
        1   -1    0    0  501    0  0.00000000000E+00  0.00000000000E+00  0.12232564594E+04  0.12232564594E+04  0.50400001928E-02 0. -1.
       -1   -1    0    0    0  501  0.00000000000E+00  0.00000000000E+00 -0.38108064343E+03  0.38108064346E+03  0.50400001928E-02 0.  1.
    10030    2    1    2    0    0  0.00000000000E+00  0.00000000000E+00  0.84217581599E+03  0.16043371029E+04  0.13655172773E+04 0.  0.
        1    1    3    3  502    0  0.61185775025E+02 -0.52228555715E+03  0.93271779777E+03  0.10707419823E+04  0.50400001928E-02 0.  1.
       -1    1    3    3    0  502 -0.61185775025E+02  0.52228555715E+03 -0.90541981778E+02  0.53359512063E+03  0.50400001928E-02 0. -1.
</event>
<event>
 5   0  0.1644571E-03  0.1318660E+04  0.7818609E-02  0.9014897E-01
        1   -1    0    0  501    0  0.00000000000E+00  0.00000000000E+00  0.72794276958E+03  0.72794276959E+03  0.50400001928E-02 0.  1.
       -1   -1    0    0    0  501  0.00000000000E+00  0.00000000000E+00 -0.59718433908E+03  0.59718433910E+03  0.50400001928E-02 0. -1.
    10030    2    1    2    0    0  0.00000000000E+00  0.00000000000E+00  0.13075843049E+03  0.13251271087E+04  0.13186599588E+04 0.  0.
        4    1    3    3  502    0  0.14654940501E+03 -0.19871010125E+03  0.67973007241E+03  0.72318532665E+03  0.12699999809E+01 0.  1.
       -4    1    3    3    0  502 -0.14654940501E+03  0.19871010125E+03 -0.54897164191E+03  0.60194178205E+03  0.12699999809E+01 0. -1.
</event>
<event>
 5   0  0.1644571E-03  0.1406396E+04  0.7818609E-02  0.8949202E-01
        1   -1    0    0  501    0  0.00000000000E+00  0.00000000000E+00  0.47703641445E+03  0.47703641447E+03  0.50400001928E-02 0. -1.
       -1   -1    0    0    0  501  0.00000000000E+00  0.00000000000E+00 -0.10365819184E+04  0.10365819184E+04  0.50400001928E-02 0.  1.
    10030    2    1    2    0    0  0.00000000000E+00  0.00000000000E+00 -0.55954550394E+03  0.15136183329E+04  0.14063958499E+04 0.  0.
        4    1    3    3  502    0 -0.18795694805E+03 -0.33498332976E+03 -0.91369870652E+03  0.99115517692E+03  0.12699999809E+01 0.  1.
       -4    1    3    3    0  502  0.18795694805E+03  0.33498332976E+03  0.35415320258E+03  0.52246315596E+03  0.12699999809E+01 0. -1.
</event>
<event>
 5   0  0.2917809E-03  0.1395421E+04  0.7818609E-02  0.8957139E-01
        2   -1    0    0  501    0  0.00000000000E+00  0.00000000000E+00  0.25482187062E+04  0.25482187062E+04  0.25500000920E-02 0. -1.
       -2   -1    0    0    0  501  0.00000000000E+00  0.00000000000E+00 -0.19103548437E+03  0.19103548439E+03  0.25500000920E-02 0.  1.
    10030    2    1    2    0    0  0.00000000000E+00  0.00000000000E+00  0.23571832218E+04  0.27392541906E+04  0.13954213627E+04 0.  0.
        2    1    3    3  502    0 -0.63197943822E+03 -0.25336355645E+03  0.14776500413E+04  0.16269728782E+04  0.25500000920E-02 0. -1.
       -2    1    3    3    0  502  0.63197943822E+03  0.25336355645E+03  0.87953318058E+03  0.11122813124E+04  0.25500000920E-02 0.  1.
</event>
<event>
 5   0  0.2917809E-03  0.1423041E+04  0.7818609E-02  0.8937307E-01
        2   -1    0    0  501    0  0.00000000000E+00  0.00000000000E+00  0.91470065006E+03  0.91470065006E+03  0.25500000920E-02 0.  1.
       -2   -1    0    0    0  501  0.00000000000E+00  0.00000000000E+00 -0.55347227147E+03  0.55347227148E+03  0.25500000920E-02 0. -1.
    10030    2    1    2    0    0  0.00000000000E+00  0.00000000000E+00  0.36122837859E+03  0.14681729215E+04  0.14230410346E+04 0.  0.
        2    1    3    3  502    0  0.65980314214E+03  0.26629763299E+03  0.17791772171E+03  0.73342302351E+03  0.25500000920E-02 0. -1.
       -2    1    3    3    0  502 -0.65980314214E+03 -0.26629763299E+03  0.18331065688E+03  0.73474989802E+03  0.25500000920E-02 0.  1.
</event>
<event>
 5   0  0.2760807E-03  0.1327386E+04  0.7818609E-02  0.9008125E-01
       -2   -1    0    0    0  501  0.00000000000E+00  0.00000000000E+00  0.31149315222E+03  0.31149315223E+03  0.25500000920E-02 0.  1.
        2   -1    0    0  501    0  0.00000000000E+00  0.00000000000E+00 -0.14141195194E+04  0.14141195194E+04  0.25500000920E-02 0. -1.
    10030    2    1    2    0    0  0.00000000000E+00  0.00000000000E+00 -0.11026263671E+04  0.17256126716E+04  0.13273862237E+04 0.  0.
        4    1    3    3  502    0  0.17179633402E+03 -0.56663887063E+03 -0.16154195076E+03  0.61375158236E+03  0.12699999809E+01 0.  1.
       -4    1    3    3    0  502 -0.17179633402E+03  0.56663887063E+03 -0.94108441638E+03  0.11118610892E+04  0.12699999809E+01 0. -1.
</event>
<event>
 5   0  0.2889469E-03  0.1397180E+04  0.7818609E-02  0.8955862E-01
       -2   -1    0    0    0  501  0.00000000000E+00  0.00000000000E+00  0.25180353081E+03  0.25180353082E+03  0.25500000920E-02 0.  1.
        2   -1    0    0  501    0  0.00000000000E+00  0.00000000000E+00 -0.19381309458E+04  0.19381309458E+04  0.25500000920E-02 0. -1.
    10030    2    1    2    0    0  0.00000000000E+00  0.00000000000E+00 -0.16863274150E+04  0.21899344766E+04  0.13971803253E+04 0.  0.
        5    1    3    3  502    0 -0.23300619282E+03  0.49011732884E+03 -0.15326383449E+04  0.16258872249E+04  0.46999998093E+01 0. -1.
       -5    1    3    3    0  502  0.23300619282E+03 -0.49011732884E+03 -0.15368907015E+03  0.56404725175E+03  0.46999998093E+01 0.  1.
</event>
<event>
 5   0  0.2917809E-03  0.1386089E+04  0.7818609E-02  0.8963950E-01
       -2   -1    0    0    0  501  0.00000000000E+00  0.00000000000E+00  0.35601456566E+03  0.35601456567E+03  0.25500000920E-02 0. -1.
        2   -1    0    0  501    0  0.00000000000E+00  0.00000000000E+00 -0.13491314118E+04  0.13491314118E+04  0.25500000920E-02 0.  1.
    10030    2    1    2    0    0  0.00000000000E+00  0.00000000000E+00 -0.99311684615E+03  0.17051459775E+04  0.13860886460E+04 0.  0.
        2    1    3    3  502    0  0.27353720999E+03 -0.58902475290E+03 -0.79419634965E+03  0.10259242694E+04  0.25500000920E-02 0.  1.
       -2    1    3    3    0  502 -0.27353720999E+03  0.58902475290E+03 -0.19892049651E+03  0.67922170807E+03  0.25500000920E-02 0. -1.
</event>
<event>
 5   0  0.3006737E-03  0.1380754E+04  0.7818609E-02  0.8967869E-01
        2   -1    0    0  501    0  0.00000000000E+00  0.00000000000E+00  0.73104640498E+03  0.73104640498E+03  0.25500000920E-02 0. -1.
       -2   -1    0    0    0  501  0.00000000000E+00  0.00000000000E+00 -0.65197032594E+03  0.65197032594E+03  0.25500000920E-02 0.  1.
    10030    2    1    2    0    0  0.00000000000E+00  0.00000000000E+00  0.79076079040E+02  0.13830167309E+04  0.13807542329E+04 0.  0.
        1    1    3    3  502    0  0.44968921884E+03  0.37893282185E+03 -0.32273137241E+03  0.67079506242E+03  0.50400001928E-02 0.  1.
       -1    1    3    3    0  502 -0.44968921884E+03 -0.37893282185E+03  0.40180745145E+03  0.71222166850E+03  0.50400001928E-02 0. -1.
</event>
<event>
 5   0  0.2760807E-03  0.1390866E+04  0.7818609E-02  0.8960457E-01
        2   -1    0    0  501    0  0.00000000000E+00  0.00000000000E+00  0.71296318403E+03  0.71296318404E+03  0.25500000920E-02 0.  1.
       -2   -1    0    0    0  501  0.00000000000E+00  0.00000000000E+00 -0.67833358314E+03  0.67833358314E+03  0.25500000920E-02 0. -1.
    10030    2    1    2    0    0  0.00000000000E+00  0.00000000000E+00  0.34629600895E+02  0.13912967672E+04  0.13908657322E+04 0.  0.
        4    1    3    3  502    0  0.28604011573E+03  0.62847134362E+03  0.99984715243E+02  0.69770605110E+03  0.12699999809E+01 0.  1.
       -4    1    3    3    0  502 -0.28604011573E+03 -0.62847134362E+03 -0.65355114348E+02  0.69359071608E+03  0.12699999809E+01 0. -1.
</event>
<event>
 5   0  0.2760807E-03  0.1406846E+04  0.7818609E-02  0.8948878E-01
        2   -1    0    0  501    0  0.00000000000E+00  0.00000000000E+00  0.15261107886E+04  0.15261107886E+04  0.25500000920E-02 0.  1.
       -2   -1    0    0    0  501  0.00000000000E+00  0.00000000000E+00 -0.32422553348E+03  0.32422553349E+03  0.25500000920E-02 0. -1.
    10030    2    1    2    0    0  0.00000000000E+00  0.00000000000E+00  0.12018852551E+04  0.18503363220E+04  0.14068462383E+04 0.  0.
        4    1    3    3  502    0 -0.14618495279E+03  0.11123955108E+03 -0.29211999379E+03  0.34507967460E+03  0.12699999809E+01 0. -1.
       -4    1    3    3    0  502  0.14618495279E+03 -0.11123955108E+03  0.14940052489E+04  0.15052566474E+04  0.12699999809E+01 0.  1.
</event>
<event>
 5   0  0.2889469E-03  0.1444221E+04  0.7818609E-02  0.8922417E-01
       -2   -1    0    0    0  501  0.00000000000E+00  0.00000000000E+00  0.66306413579E+03  0.66306413579E+03  0.25500000920E-02 0. -1.
        2   -1    0    0  501    0  0.00000000000E+00  0.00000000000E+00 -0.78641444966E+03  0.78641444966E+03  0.25500000920E-02 0.  1.
    10030    2    1    2    0    0  0.00000000000E+00  0.00000000000E+00 -0.12335031387E+03  0.14494785855E+04  0.14442205059E+04 0.  0.
        5    1    3    3  502    0 -0.38509200364E+03  0.34504554761E+03  0.44421240780E+03  0.68168837047E+03  0.46999998093E+01 0. -1.
       -5    1    3    3    0  502  0.38509200364E+03 -0.34504554761E+03 -0.56756272167E+03  0.76779021498E+03  0.46999998093E+01 0.  1.
</event>
<event>
 5   0  0.1644571E-03  0.1352220E+04  0.7818609E-02  0.8989149E-01
        1   -1    0    0  501    0  0.00000000000E+00  0.00000000000E+00  0.65956403678E+03  0.65956403680E+03  0.50400001928E-02 0.  1.
       -1   -1    0    0    0  501  0.00000000000E+00  0.00000000000E+00 -0.69307096584E+03  0.69307096586E+03  0.50400001928E-02 0. -1.
    10030    2    1    2    0    0  0.00000000000E+00  0.00000000000E+00 -0.33506929059E+02  0.13526350027E+04  0.13522199289E+04 0.  0.
        4    1    3    3  502    0 -0.56073520414E+02 -0.65831265274E+03 -0.16033596096E+03  0.67987426906E+03  0.12699999809E+01 0. -1.
       -4    1    3    3    0  502  0.56073520414E+02  0.65831265274E+03  0.12682903190E+03  0.67276073361E+03  0.12699999809E+01 0.  1.
</event>
<event>
 5   0  0.2889469E-03  0.1418381E+04  0.7818609E-02  0.8940620E-01
       -2   -1    0    0    0  501  0.00000000000E+00  0.00000000000E+00  0.43363177711E+03  0.43363177712E+03  0.25500000920E-02 0.  1.
        2   -1    0    0  501    0  0.00000000000E+00  0.00000000000E+00 -0.11598583505E+04  0.11598583505E+04  0.25500000920E-02 0. -1.
    10030    2    1    2    0    0  0.00000000000E+00  0.00000000000E+00 -0.72622657337E+03  0.15934901276E+04  0.14183813842E+04 0.  0.
        5    1    3    3  502    0  0.50520410418E+03  0.44179674448E+03 -0.62056338781E+03  0.91407688878E+03  0.46999998093E+01 0. -1.
       -5    1    3    3    0  502 -0.50520410418E+03 -0.44179674448E+03 -0.10566318556E+03  0.67941323883E+03  0.46999998093E+01 0.  1.
</event>
<event>
 5   0  0.2993993E-03  0.1313641E+04  0.7818609E-02  0.9018817E-01
       -2   -1    0    0    0  501  0.00000000000E+00  0.00000000000E+00  0.29726838674E+03  0.29726838675E+03  0.25500000920E-02 0. -1.
        2   -1    0    0  501    0  0.00000000000E+00  0.00000000000E+00 -0.14512590201E+04  0.14512590201E+04  0.25500000920E-02 0.  1.
    10030    2    1    2    0    0  0.00000000000E+00  0.00000000000E+00 -0.11539906334E+04  0.17485274069E+04  0.13136413935E+04 0.  0.
        3    1    3    3  502    0  0.92359201285E+02  0.54265082914E+03 -0.10001486900E+03  0.55946682534E+03  0.10100000352E+00 0. -1.
       -3    1    3    3    0  502 -0.92359201285E+02 -0.54265082914E+03 -0.10539757644E+04  0.11890605815E+04  0.10100000352E+00 0.  1.
</event>
<event>
 5   0  0.1104538E-03  0.1401986E+04  0.7818609E-02  0.8952382E-01
       -4   -1    0    0    0  501  0.00000000000E+00  0.00000000000E+00  0.42443966186E+03  0.42444156189E+03  0.12699999809E+01 0. -1.
        4   -1    0    0  501    0  0.00000000000E+00  0.00000000000E+00 -0.11577362254E+04  0.11577369220E+04  0.12699999809E+01 0.  1.
    10030    2    1    2    0    0  0.00000000000E+00  0.00000000000E+00 -0.73329656358E+03  0.15821784839E+04  0.14019860573E+04 0.  0.
        2    1    3    3  502    0  0.38919182277E+03 -0.21269617975E+03 -0.97926389083E+03  0.10750198639E+04  0.25500000920E-02 0.  1.
       -2    1    3    3    0  502 -0.38919182277E+03  0.21269617975E+03  0.24596732726E+03  0.50715862004E+03  0.25500000920E-02 0. -1.
</event>
<event>
 5   0  0.1586022E-03  0.1385954E+04  0.7818609E-02  0.8964049E-01
       -1   -1    0    0    0  501  0.00000000000E+00  0.00000000000E+00  0.67638446127E+03  0.67638446129E+03  0.50400001928E-02 0. -1.
        1   -1    0    0  501    0  0.00000000000E+00  0.00000000000E+00 -0.70997655167E+03  0.70997655169E+03  0.50400001928E-02 0.  1.
    10030    2    1    2    0    0  0.00000000000E+00  0.00000000000E+00 -0.33592090404E+02  0.13863610130E+04  0.13859539782E+04 0.  0.
        1    1    3    3  502    0 -0.46745040795E+02  0.47338746623E+03  0.48727289074E+03  0.68096671145E+03  0.50400001928E-02 0. -1.
       -1    1    3    3    0  502  0.46745040795E+02 -0.47338746623E+03 -0.52086498114E+03  0.70539430153E+03  0.50400001928E-02 0.  1.
</event>
<event>
 5   0  0.1560957E-03  0.1435730E+04  0.7818609E-02  0.8928354E-01
        1   -1    0    0  501    0  0.00000000000E+00  0.00000000000E+00  0.46459061976E+03  0.46459061979E+03  0.50400001928E-02 0.  1.
       -1   -1    0    0    0  501  0.00000000000E+00  0.00000000000E+00 -0.11092137172E+04  0.11092137172E+04  0.50400001928E-02 0. -1.
    10030    2    1    2    0    0  0.00000000000E+00  0.00000000000E+00 -0.64462309744E+03  0.15738043370E+04  0.14357301813E+04 0.  0.
        5    1    3    3  502    0  0.33339512153E+03  0.63309840804E+03 -0.25893910858E+03  0.76094510529E+03  0.46999998093E+01 0. -1.
       -5    1    3    3    0  502 -0.33339512153E+03 -0.63309840804E+03 -0.38568398886E+03  0.81285923171E+03  0.46999998093E+01 0.  1.
</event>
<event>
 5   0  0.1560957E-03  0.1062238E+04  0.7818609E-02  0.9242800E-01
        1   -1    0    0  501    0  0.00000000000E+00  0.00000000000E+00  0.84684669263E+03  0.84684669264E+03  0.50400001928E-02 0.  1.
       -1   -1    0    0    0  501  0.00000000000E+00  0.00000000000E+00 -0.33310304666E+03  0.33310304670E+03  0.50400001928E-02 0. -1.
    10030    2    1    2    0    0  0.00000000000E+00  0.00000000000E+00  0.51374364597E+03  0.11799497393E+04  0.10622376634E+04 0.  0.
        5    1    3    3  502    0 -0.17135652608E+03  0.35553858813E+03 -0.13788879452E+03  0.41809826158E+03  0.46999998093E+01 0. -1.
       -5    1    3    3    0  502  0.17135652608E+03 -0.35553858813E+03  0.65163244048E+03  0.76185147776E+03  0.46999998093E+01 0.  1.
</event>
<event>
 5   0  0.3006737E-03  0.1303893E+04  0.7818609E-02  0.9026483E-01
        2   -1    0    0  501    0  0.00000000000E+00  0.00000000000E+00  0.49266090116E+03  0.49266090117E+03  0.25500000920E-02 0.  1.
       -2   -1    0    0    0  501  0.00000000000E+00  0.00000000000E+00 -0.86273224133E+03  0.86273224134E+03  0.25500000920E-02 0. -1.
    10030    2    1    2    0    0  0.00000000000E+00  0.00000000000E+00 -0.37007134017E+03  0.13553931425E+04  0.13038933139E+04 0.  0.
        1    1    3    3  502    0  0.53216320261E+03 -0.30728765848E+03 -0.41137659045E+03  0.73949582721E+03  0.50400001928E-02 0. -1.
       -1    1    3    3    0  502 -0.53216320261E+03  0.30728765848E+03  0.41305250273E+02  0.61589731530E+03  0.50400001928E-02 0.  1.
</event>
<event>
 5   0  0.3006737E-03  0.1396983E+04  0.7818609E-02  0.8956006E-01
       -2   -1    0    0    0  501  0.00000000000E+00  0.00000000000E+00  0.54566612515E+03  0.54566612516E+03  0.25500000920E-02 0. -1.
        2   -1    0    0  501    0  0.00000000000E+00  0.00000000000E+00 -0.89411843504E+03  0.89411843504E+03  0.25500000920E-02 0.  1.
    10030    2    1    2    0    0  0.00000000000E+00  0.00000000000E+00 -0.34845230988E+03  0.14397845602E+04  0.13969826654E+04 0.  0.
        1    1    3    3  502    0 -0.54220249725E+03 -0.43501052173E+03 -0.10377658387E+03  0.70284228773E+03  0.50400001928E-02 0. -1.
       -1    1    3    3    0  502  0.54220249725E+03  0.43501052173E+03 -0.24467572602E+03  0.73694227247E+03  0.50400001928E-02 0.  1.
</event>
<event>
 5   0  0.1644571E-03  0.9040258E+03  0.7818609E-02  0.9420563E-01
        1   -1    0    0  501    0  0.00000000000E+00  0.00000000000E+00  0.52914853409E+03  0.52914853412E+03  0.50400001928E-02 0.  1.
       -1   -1    0    0    0  501  0.00000000000E+00  0.00000000000E+00 -0.38612155946E+03  0.38612155949E+03  0.50400001928E-02 0. -1.
    10030    2    1    2    0    0  0.00000000000E+00  0.00000000000E+00  0.14302697464E+03  0.91527009361E+03  0.90402578989E+03 0.  0.
        4    1    3    3  502    0 -0.94766197435E+02  0.41972752551E+03 -0.68635938440E+02  0.43573424561E+03  0.12699999809E+01 0. -1.
       -4    1    3    3    0  502  0.94766197435E+02 -0.41972752551E+03  0.21166291308E+03  0.47953584800E+03  0.12699999809E+01 0.  1.
</event>
<event>
 5   0  0.2917809E-03  0.1346865E+04  0.7818609E-02  0.8993205E-01
        2   -1    0    0  501    0  0.00000000000E+00  0.00000000000E+00  0.71996251990E+03  0.71996251990E+03  0.25500000920E-02 0. -1.
       -2   -1    0    0    0  501  0.00000000000E+00  0.00000000000E+00 -0.62990930402E+03  0.62990930402E+03  0.25500000920E-02 0.  1.
    10030    2    1    2    0    0  0.00000000000E+00  0.00000000000E+00  0.90053215878E+02  0.13498718239E+04  0.13468646403E+04 0.  0.
        2    1    3    3  502    0  0.28104052860E+03 -0.26320070834E+03  0.59875696921E+03  0.71187660431E+03  0.25500000920E-02 0. -1.
       -2    1    3    3    0  502 -0.28104052860E+03  0.26320070834E+03 -0.50870375333E+03  0.63799521961E+03  0.25500000920E-02 0.  1.
</event>
<event>
 5   0  0.1104538E-03  0.1388820E+04  0.7818609E-02  0.8961951E-01
        3   -1    0    0  501    0  0.00000000000E+00  0.00000000000E+00  0.58207518129E+03  0.58207519005E+03  0.10100000352E+00 0.  1.
       -3   -1    0    0    0  501  0.00000000000E+00  0.00000000000E+00 -0.82842457791E+03  0.82842458406E+03  0.10100000352E+00 0. -1.
    10030    2    1    2    0    0  0.00000000000E+00  0.00000000000E+00 -0.24634939662E+03  0.14104997741E+04  0.13888202143E+04 0.  0.
        4    1    3    3  502    0 -0.38821209110E+03 -0.31272072432E+03  0.36779782599E+03  0.61949958256E+03  0.12699999809E+01 0.  1.
       -4    1    3    3    0  502  0.38821209110E+03  0.31272072432E+03 -0.61414722261E+03  0.79100019155E+03  0.12699999809E+01 0. -1.
</event>
<event>
 5   0  0.2889469E-03  0.1492628E+04  0.7818609E-02  0.8889370E-01
        2   -1    0    0  501    0  0.00000000000E+00  0.00000000000E+00  0.82444810425E+03  0.82444810425E+03  0.25500000920E-02 0.  1.
       -2   -1    0    0    0  501  0.00000000000E+00  0.00000000000E+00 -0.67558433536E+03  0.67558433537E+03  0.25500000920E-02 0. -1.
    10030    2    1    2    0    0  0.00000000000E+00  0.00000000000E+00  0.14886376888E+03  0.15000324396E+04  0.14926275149E+04 0.  0.
        5    1    3    3  502    0 -0.29448852695E+03  0.42495941688E+03  0.61529152741E+03  0.80369132894E+03  0.46999998093E+01 0.  1.
       -5    1    3    3    0  502  0.29448852695E+03 -0.42495941688E+03 -0.46642775853E+03  0.69634111068E+03  0.46999998093E+01 0. -1.
</event>
<event>
 5   0  0.2889469E-03  0.1402727E+04  0.7818609E-02  0.8951847E-01
       -2   -1    0    0    0  501  0.00000000000E+00  0.00000000000E+00  0.29821944920E+03  0.29821944921E+03  0.25500000920E-02 0. -1.
        2   -1    0    0  501    0  0.00000000000E+00  0.00000000000E+00 -0.16494926748E+04  0.16494926748E+04  0.25500000920E-02 0.  1.
    10030    2    1    2    0    0  0.00000000000E+00  0.00000000000E+00 -0.13512732256E+04  0.19477121240E+04  0.14027270539E+04 0.  0.
        5    1    3    3  502    0  0.31276633976E+03  0.29872472420E+03  0.90983245409E+02  0.44199466635E+03  0.46999998093E+01 0. -1.
       -5    1    3    3    0  502 -0.31276633976E+03 -0.29872472420E+03 -0.14422564710E+04  0.15057174577E+04  0.46999998093E+01 0.  1.
</event>
<event>
 5   0  0.1586022E-03  0.1329563E+04  0.7818609E-02  0.9006445E-01
        1   -1    0    0  501    0  0.00000000000E+00  0.00000000000E+00  0.41847388796E+03  0.41847388799E+03  0.50400001928E-02 0.  1.
       -1   -1    0    0    0  501  0.00000000000E+00  0.00000000000E+00 -0.10560619524E+04  0.10560619524E+04  0.50400001928E-02 0. -1.
    10030    2    1    2    0    0  0.00000000000E+00  0.00000000000E+00 -0.63758806445E+03  0.14745358404E+04  0.13295628623E+04 0.  0.
        1    1    3    3  502    0  0.48099607771E+03  0.20568593980E+03 -0.77373007414E+03  0.93398188433E+03  0.50400001928E-02 0. -1.
       -1    1    3    3    0  502 -0.48099607771E+03 -0.20568593980E+03  0.13614200969E+03  0.54055395608E+03  0.50400001928E-02 0.  1.
</event>
<event>
 5   0  0.1644571E-03  0.1395915E+04  0.7818609E-02  0.8956781E-01
       -1   -1    0    0    0  501  0.00000000000E+00  0.00000000000E+00  0.13183455173E+04  0.13183455173E+04  0.50400001928E-02 0. -1.
        1   -1    0    0  501    0  0.00000000000E+00  0.00000000000E+00 -0.36951197858E+03  0.36951197861E+03  0.50400001928E-02 0.  1.
    10030    2    1    2    0    0  0.00000000000E+00  0.00000000000E+00  0.94883353872E+03  0.16878574959E+04  0.13959146974E+04 0.  0.
        4    1    3    3  502    0  0.15271365690E+03  0.66053552336E+03  0.27385164679E+03  0.73118053583E+03  0.12699999809E+01 0.  1.
       -4    1    3    3    0  502 -0.15271365690E+03 -0.66053552336E+03  0.67498189193E+03  0.95667696009E+03  0.12699999809E+01 0. -1.
</event>
<event>
 5   0  0.2993993E-03  0.1421345E+04  0.7818609E-02  0.8938511E-01
       -2   -1    0    0    0  501  0.00000000000E+00  0.00000000000E+00  0.50609860540E+03  0.50609860541E+03  0.25500000920E-02 0.  1.
        2   -1    0    0  501    0  0.00000000000E+00  0.00000000000E+00 -0.99793893701E+03  0.99793893701E+03  0.25500000920E-02 0. -1.
    10030    2    1    2    0    0  0.00000000000E+00  0.00000000000E+00 -0.49184033160E+03  0.15040375424E+04  0.14213451436E+04 0.  0.
        3    1    3    3  502    0  0.50831560405E+03  0.27842596896E+03  0.18928572909E+03  0.60970064043E+03  0.10100000352E+00 0.  1.
       -3    1    3    3    0  502 -0.50831560405E+03 -0.27842596896E+03 -0.68112606069E+03  0.89433690199E+03  0.10100000352E+00 0. -1.
</event>
<event>
 5   0  0.3006737E-03  0.1413074E+04  0.7818609E-02  0.8944409E-01
       -2   -1    0    0    0  501  0.00000000000E+00  0.00000000000E+00  0.41132377155E+03  0.41132377156E+03  0.25500000920E-02 0. -1.
        2   -1    0    0  501    0  0.00000000000E+00  0.00000000000E+00 -0.12136296025E+04  0.12136296025E+04  0.25500000920E-02 0.  1.
    10030    2    1    2    0    0  0.00000000000E+00  0.00000000000E+00 -0.80230583090E+03  0.16249533740E+04  0.14130742448E+04 0.  0.
        1    1    3    3  502    0 -0.15317025114E+03  0.60486785751E+03 -0.19988428497E+02  0.62428021608E+03  0.50400001928E-02 0. -1.
       -1    1    3    3    0  502  0.15317025114E+03 -0.60486785751E+03 -0.78231740240E+03  0.10006731579E+04  0.50400001928E-02 0.  1.
</event>
<event>
 5   0  0.2889469E-03  0.1385845E+04  0.7818609E-02  0.8964129E-01
        2   -1    0    0  501    0  0.00000000000E+00  0.00000000000E+00  0.53437952547E+03  0.53437952547E+03  0.25500000920E-02 0.  1.
       -2   -1    0    0    0  501  0.00000000000E+00  0.00000000000E+00 -0.89850347764E+03  0.89850347765E+03  0.25500000920E-02 0. -1.
    10030    2    1    2    0    0  0.00000000000E+00  0.00000000000E+00 -0.36412395218E+03  0.14328830031E+04  0.13858453911E+04 0.  0.
        5    1    3    3  502    0  0.16041768904E+03  0.48540376559E+03 -0.66566494744E+03  0.83933459529E+03  0.46999998093E+01 0. -1.
       -5    1    3    3    0  502 -0.16041768904E+03 -0.48540376559E+03  0.30154099526E+03  0.59354840782E+03  0.46999998093E+01 0.  1.
</event>
<event>
 5   0  0.1104538E-03  0.1416797E+04  0.7818609E-02  0.8941749E-01
        4   -1    0    0  501    0  0.00000000000E+00  0.00000000000E+00  0.56259890484E+03  0.56260033828E+03  0.12699999809E+01 0.  1.
       -4   -1    0    0    0  501  0.00000000000E+00  0.00000000000E+00 -0.89197937927E+03  0.89198028338E+03  0.12699999809E+01 0. -1.
    10030    2    1    2    0    0  0.00000000000E+00  0.00000000000E+00 -0.32938047442E+03  0.14545806217E+04  0.14167968408E+04 0.  0.
        4    1    3    3  502    0  0.57119127968E+02  0.30096226875E+03  0.49108159162E+03  0.57879497624E+03  0.12699999809E+01 0.  1.
       -4    1    3    3    0  502 -0.57119127968E+02 -0.30096226875E+03 -0.82046206605E+03  0.87578564541E+03  0.12699999809E+01 0. -1.
</event>
<event>
 5   0  0.2993993E-03  0.1383874E+04  0.7818609E-02  0.8965575E-01
        2   -1    0    0  501    0  0.00000000000E+00  0.00000000000E+00  0.13809864324E+04  0.13809864324E+04  0.25500000920E-02 0.  1.
       -2   -1    0    0    0  501  0.00000000000E+00  0.00000000000E+00 -0.34669166407E+03  0.34669166407E+03  0.25500000920E-02 0. -1.
    10030    2    1    2    0    0  0.00000000000E+00  0.00000000000E+00  0.10342947684E+04  0.17276780965E+04  0.13838735265E+04 0.  0.
        3    1    3    3  502    0  0.57976074902E+03 -0.71108980441E+02  0.98024403053E+03  0.11410772905E+04  0.10100000352E+00 0.  1.
       -3    1    3    3    0  502 -0.57976074902E+03  0.71108980441E+02  0.54050737839E+02  0.58660080606E+03  0.10100000352E+00 0. -1.
</event>
<event>
 5   0  0.2760807E-03  0.1389813E+04  0.7818609E-02  0.8961225E-01
       -2   -1    0    0    0  501  0.00000000000E+00  0.00000000000E+00  0.55071252122E+03  0.55071252122E+03  0.25500000920E-02 0.  1.
        2   -1    0    0  501    0  0.00000000000E+00  0.00000000000E+00 -0.87685521343E+03  0.87685521343E+03  0.25500000920E-02 0. -1.
    10030    2    1    2    0    0  0.00000000000E+00  0.00000000000E+00 -0.32614269221E+03  0.14275677347E+04  0.13898131462E+04 0.  0.
        4    1    3    3  502    0  0.10220453099E+02  0.69268584187E+03 -0.21910035398E+03  0.72658427674E+03  0.12699999809E+01 0. -1.
       -4    1    3    3    0  502 -0.10220453099E+02 -0.69268584187E+03 -0.10704233823E+03  0.70098345791E+03  0.12699999809E+01 0.  1.
</event>
<event>
 5   0  0.1560957E-03  0.1538609E+04  0.7818609E-02  0.8859177E-01
       -1   -1    0    0    0  501  0.00000000000E+00  0.00000000000E+00  0.47190889596E+03  0.47190889599E+03  0.50400001928E-02 0. -1.
        1   -1    0    0  501    0  0.00000000000E+00  0.00000000000E+00 -0.12541179732E+04  0.12541179732E+04  0.50400001928E-02 0.  1.
    10030    2    1    2    0    0  0.00000000000E+00  0.00000000000E+00 -0.78220907721E+03  0.17260268692E+04  0.15386090188E+04 0.  0.
        5    1    3    3  502    0  0.26425549078E+03  0.28055291197E+03  0.35577696259E+03  0.52453811866E+03  0.46999998093E+01 0. -1.
       -5    1    3    3    0  502 -0.26425549078E+03 -0.28055291197E+03 -0.11379860398E+04  0.12014887505E+04  0.46999998093E+01 0.  1.
</event>
<event>
 5   0  0.2993993E-03  0.1420960E+04  0.7818609E-02  0.8938785E-01
        2   -1    0    0  501    0  0.00000000000E+00  0.00000000000E+00  0.17298423236E+04  0.17298423236E+04  0.25500000920E-02 0. -1.
       -2   -1    0    0    0  501  0.00000000000E+00  0.00000000000E+00 -0.29180791482E+03  0.29180791483E+03  0.25500000920E-02 0.  1.
    10030    2    1    2    0    0  0.00000000000E+00  0.00000000000E+00  0.14380344088E+04  0.20216502384E+04  0.14209597903E+04 0.  0.
        3    1    3    3  502    0  0.46464691124E+03 -0.29026387776E+03  0.75424969863E+02  0.55302694974E+03  0.10100000352E+00 0.  1.
       -3    1    3    3    0  502 -0.46464691124E+03  0.29026387776E+03  0.13626094389E+04  0.14686232887E+04  0.10100000352E+00 0. -1.
</event>
<event>
 5   0  0.2760807E-03  0.1405468E+04  0.7818609E-02  0.8949870E-01
        2   -1    0    0  501    0  0.00000000000E+00  0.00000000000E+00  0.67731107176E+03  0.67731107177E+03  0.25500000920E-02 0. -1.
       -2   -1    0    0    0  501  0.00000000000E+00  0.00000000000E+00 -0.72911134389E+03  0.72911134389E+03  0.25500000920E-02 0.  1.
    10030    2    1    2    0    0  0.00000000000E+00  0.00000000000E+00 -0.51800272122E+02  0.14064224157E+04  0.14054681580E+04 0.  0.
        4    1    3    3  502    0  0.30296890402E+03 -0.13787090149E+03  0.59341831082E+03  0.68040094562E+03  0.12699999809E+01 0. -1.
       -4    1    3    3    0  502 -0.30296890402E+03  0.13787090149E+03 -0.64521858294E+03  0.72602147004E+03  0.12699999809E+01 0.  1.
</event>
<event>
 5   0  0.3006737E-03  0.1403027E+04  0.7818609E-02  0.8951630E-01
       -2   -1    0    0    0  501  0.00000000000E+00  0.00000000000E+00  0.67158476361E+03  0.67158476362E+03  0.25500000920E-02 0. -1.
        2   -1    0    0  501    0  0.00000000000E+00  0.00000000000E+00 -0.73277641353E+03  0.73277641353E+03  0.25500000920E-02 0.  1.
    10030    2    1    2    0    0  0.00000000000E+00  0.00000000000E+00 -0.61191649918E+02  0.14043611771E+04  0.14030274045E+04 0.  0.
        1    1    3    3  502    0 -0.94714036990E+02 -0.28507250379E+03 -0.66514200168E+03  0.72982940722E+03  0.50400001928E-02 0.  1.
       -1    1    3    3    0  502  0.94714036990E+02  0.28507250379E+03  0.60395035176E+03  0.67453176993E+03  0.50400001928E-02 0. -1.
</event>
<event>
 5   0  0.1644571E-03  0.1392529E+04  0.7818609E-02  0.8959244E-01
        1   -1    0    0  501    0  0.00000000000E+00  0.00000000000E+00  0.15926401970E+04  0.15926401970E+04  0.50400001928E-02 0.  1.
       -1   -1    0    0    0  501  0.00000000000E+00  0.00000000000E+00 -0.30439021633E+03  0.30439021637E+03  0.50400001928E-02 0. -1.
    10030    2    1    2    0    0  0.00000000000E+00  0.00000000000E+00  0.12882499807E+04  0.18970304134E+04  0.13925287705E+04 0.  0.
        4    1    3    3  502    0 -0.43607562624E+03  0.53174220121E+03  0.79255078947E+03  0.10493093382E+04  0.12699999809E+01 0.  1.
       -4    1    3    3    0  502  0.43607562624E+03 -0.53174220121E+03  0.49569919124E+03  0.84772107526E+03  0.12699999809E+01 0. -1.
</event>
<event>
 5   0  0.2993993E-03  0.1443263E+04  0.7818609E-02  0.8923085E-01
        2   -1    0    0  501    0  0.00000000000E+00  0.00000000000E+00  0.18787989419E+04  0.18787989419E+04  0.25500000920E-02 0. -1.
       -2   -1    0    0    0  501  0.00000000000E+00  0.00000000000E+00 -0.27717273030E+03  0.27717273031E+03  0.25500000920E-02 0.  1.
    10030    2    1    2    0    0  0.00000000000E+00  0.00000000000E+00  0.16016262116E+04  0.21559716722E+04  0.14432627376E+04 0.  0.
        3    1    3    3  502    0 -0.46605510157E+03 -0.48774135226E+03  0.41805499467E+03  0.79364284988E+03  0.10100000352E+00 0.  1.
       -3    1    3    3    0  502  0.46605510157E+03  0.48774135226E+03  0.11835712169E+04  0.13623288223E+04  0.10100000352E+00 0. -1.
</event>
<event>
 5   0  0.2889469E-03  0.1369407E+04  0.7818609E-02  0.8976266E-01
       -2   -1    0    0    0  501  0.00000000000E+00  0.00000000000E+00  0.35678557918E+03  0.35678557919E+03  0.25500000920E-02 0.  1.
        2   -1    0    0  501    0  0.00000000000E+00  0.00000000000E+00 -0.13140070605E+04  0.13140070605E+04  0.25500000920E-02 0. -1.
    10030    2    1    2    0    0  0.00000000000E+00  0.00000000000E+00 -0.95722148132E+03  0.16707926397E+04  0.13694068353E+04 0.  0.
        5    1    3    3  502    0  0.44565293499E+03  0.13945670829E+03 -0.10895577981E+04  0.11854168032E+04  0.46999998093E+01 0. -1.
       -5    1    3    3    0  502 -0.44565293499E+03 -0.13945670829E+03  0.13233631674E+03  0.48537583652E+03  0.46999998093E+01 0.  1.
</event>
<event>
 5   0  0.1631380E-03  0.1450052E+04  0.7818609E-02  0.8918364E-01
       -1   -1    0    0    0  501  0.00000000000E+00  0.00000000000E+00  0.13312222620E+04  0.13312222620E+04  0.50400001928E-02 0. -1.
        1   -1    0    0  501    0  0.00000000000E+00  0.00000000000E+00 -0.39487240101E+03  0.39487240104E+03  0.50400001928E-02 0.  1.
    10030    2    1    2    0    0  0.00000000000E+00  0.00000000000E+00  0.93634986103E+03  0.17260946631E+04  0.14500523176E+04 0.  0.
        3    1    3    3  502    0  0.21275933471E+03  0.89133183492E+02 -0.35002535830E+03  0.41920045391E+03  0.10100000352E+00 0.  1.
       -3    1    3    3    0  502 -0.21275933471E+03 -0.89133183492E+02  0.12863752193E+04  0.13068942092E+04  0.10100000352E+00 0. -1.
</event>
<event>
 5   0  0.1104538E-03  0.1400653E+04  0.7818609E-02  0.8953346E-01
        3   -1    0    0  501    0  0.00000000000E+00  0.00000000000E+00  0.75301723563E+03  0.75301724240E+03  0.10100000352E+00 0. -1.
       -3   -1    0    0    0  501  0.00000000000E+00  0.00000000000E+00 -0.65132247485E+03  0.65132248268E+03  0.10100000352E+00 0.  1.
    10030    2    1    2    0    0  0.00000000000E+00  0.00000000000E+00  0.10169476078E+03  0.14043397251E+04  0.14006527903E+04 0.  0.
        5    1    3    3  502    0 -0.25756359334E+03 -0.37325912633E+03  0.58589390224E+03  0.74091506577E+03  0.46999998093E+01 0. -1.
       -5    1    3    3    0  502  0.25756359334E+03  0.37325912633E+03 -0.48419914146E+03  0.66342465932E+03  0.46999998093E+01 0.  1.
</event>
<event>
 5   0  0.1644571E-03  0.1656844E+04  0.7818609E-02  0.8786368E-01
       -1   -1    0    0    0  501  0.00000000000E+00  0.00000000000E+00  0.10164994190E+04  0.10164994190E+04  0.50400001928E-02 0. -1.
        1   -1    0    0  501    0  0.00000000000E+00  0.00000000000E+00 -0.67514367756E+03  0.67514367758E+03  0.50400001928E-02 0.  1.
    10030    2    1    2    0    0  0.00000000000E+00  0.00000000000E+00  0.34135574147E+03  0.16916430966E+04  0.16568441762E+04 0.  0.
        4    1    3    3  502    0  0.38735036757E+03  0.94746893315E+02  0.91205851457E+03  0.99542434567E+03  0.12699999809E+01 0. -1.
       -4    1    3    3    0  502 -0.38735036757E+03 -0.94746893315E+02 -0.57070277310E+03  0.69621875095E+03  0.12699999809E+01 0.  1.
</event>
<event>
 5   0  0.2760807E-03  0.1406626E+04  0.7818609E-02  0.8949036E-01
        2   -1    0    0  501    0  0.00000000000E+00  0.00000000000E+00  0.54728866781E+03  0.54728866782E+03  0.25500000920E-02 0.  1.
       -2   -1    0    0    0  501  0.00000000000E+00  0.00000000000E+00 -0.90381815158E+03  0.90381815159E+03  0.25500000920E-02 0. -1.
    10030    2    1    2    0    0  0.00000000000E+00  0.00000000000E+00 -0.35652948377E+03  0.14511068194E+04  0.14066263642E+04 0.  0.
        4    1    3    3  502    0 -0.12033309047E+03  0.54731339553E+03  0.26016349388E+03  0.61783384662E+03  0.12699999809E+01 0. -1.
       -4    1    3    3    0  502  0.12033309047E+03 -0.54731339553E+03 -0.61669297765E+03  0.83327297278E+03  0.12699999809E+01 0.  1.
</event>
<event>
 5   0  0.1631380E-03  0.1343578E+04  0.7818609E-02  0.8995704E-01
       -1   -1    0    0    0  501  0.00000000000E+00  0.00000000000E+00  0.42053605398E+03  0.42053605401E+03  0.50400001928E-02 0. -1.
        1   -1    0    0  501    0  0.00000000000E+00  0.00000000000E+00 -0.10731556591E+04  0.10731556591E+04  0.50400001928E-02 0.  1.
    10030    2    1    2    0    0  0.00000000000E+00  0.00000000000E+00 -0.65261960507E+03  0.14936917131E+04  0.13435782764E+04 0.  0.
        3    1    3    3  502    0  0.36670011518E+03  0.21466016102E+01 -0.95207171729E+03  0.10202520019E+04  0.10100000352E+00 0.  1.
       -3    1    3    3    0  502 -0.36670011518E+03 -0.21466016102E+01  0.29945211222E+03  0.47343971114E+03  0.10100000352E+00 0. -1.
</event>
<event>
 5   0  0.2889469E-03  0.1434177E+04  0.7818609E-02  0.8929445E-01
       -2   -1    0    0    0  501  0.00000000000E+00  0.00000000000E+00  0.75681688323E+03  0.75681688323E+03  0.25500000920E-02 0. -1.
        2   -1    0    0  501    0  0.00000000000E+00  0.00000000000E+00 -0.67944543623E+03  0.67944543624E+03  0.25500000920E-02 0.  1.
    10030    2    1    2    0    0  0.00000000000E+00  0.00000000000E+00  0.77371446998E+02  0.14362623195E+04  0.14341768055E+04 0.  0.
        5    1    3    3  502    0 -0.28530282290E+02  0.48980844401E+03 -0.48501581768E+03  0.68991935923E+03  0.46999998093E+01 0.  1.
       -5    1    3    3    0  502  0.28530282290E+02 -0.48980844401E+03  0.56238726468E+03  0.74634296024E+03  0.46999998093E+01 0. -1.
</event>
<event>
 5   0  0.2917809E-03  0.1346447E+04  0.7818609E-02  0.8993522E-01
       -2   -1    0    0    0  501  0.00000000000E+00  0.00000000000E+00  0.24458282030E+03  0.24458282031E+03  0.25500000920E-02 0. -1.
        2   -1    0    0  501    0  0.00000000000E+00  0.00000000000E+00 -0.18530737700E+04  0.18530737700E+04  0.25500000920E-02 0.  1.
    10030    2    1    2    0    0  0.00000000000E+00  0.00000000000E+00 -0.16084909497E+04  0.20976565903E+04  0.13464471900E+04 0.  0.
        2    1    3    3  502    0  0.57015000011E+03  0.13379023800E+03 -0.28693365291E+03  0.65215164769E+03  0.25500000920E-02 0. -1.
       -2    1    3    3    0  502 -0.57015000011E+03 -0.13379023800E+03 -0.13215572968E+04  0.14455049426E+04  0.25500000920E-02 0.  1.
</event>
<event>
 5   0  0.2889469E-03  0.1455873E+04  0.7818609E-02  0.8914339E-01
        2   -1    0    0  501    0  0.00000000000E+00  0.00000000000E+00  0.11876844352E+04  0.11876844352E+04  0.25500000920E-02 0. -1.
       -2   -1    0    0    0  501  0.00000000000E+00  0.00000000000E+00 -0.44615513942E+03  0.44615513943E+03  0.25500000920E-02 0.  1.
    10030    2    1    2    0    0  0.00000000000E+00  0.00000000000E+00  0.74152929581E+03  0.16338395747E+04  0.14558729543E+04 0.  0.
        5    1    3    3  502    0 -0.62037840671E+03 -0.29824904448E+03  0.10508131742E+03  0.69633758574E+03  0.46999998093E+01 0. -1.
       -5    1    3    3    0  502  0.62037840671E+03  0.29824904448E+03  0.63644797840E+03  0.93750198893E+03  0.46999998093E+01 0.  1.
</event>
<event>
 5   0  0.1560957E-03  0.1159672E+04  0.7818609E-02  0.9148907E-01
       -1   -1    0    0    0  501  0.00000000000E+00  0.00000000000E+00  0.22129042151E+03  0.22129042157E+03  0.50400001928E-02 0.  1.
        1   -1    0    0  501    0  0.00000000000E+00  0.00000000000E+00 -0.15193144800E+04  0.15193144800E+04  0.50400001928E-02 0. -1.
    10030    2    1    2    0    0  0.00000000000E+00  0.00000000000E+00 -0.12980240585E+04  0.17406049016E+04  0.11596719221E+04 0.  0.
        5    1    3    3  502    0  0.85685442911E+02 -0.12811623899E+03  0.18995083009E+03  0.24466134486E+03  0.46999998093E+01 0.  1.
       -5    1    3    3    0  502 -0.85685442911E+02  0.12811623899E+03 -0.14879748886E+04  0.14959435567E+04  0.46999998093E+01 0. -1.
</event>
<event>
 5   0  0.1644571E-03  0.8155233E+03  0.7818609E-02  0.9537816E-01
       -1   -1    0    0    0  501  0.00000000000E+00  0.00000000000E+00  0.31795583285E+03  0.31795583289E+03  0.50400001928E-02 0.  1.
        1   -1    0    0  501    0  0.00000000000E+00  0.00000000000E+00 -0.52293283947E+03  0.52293283950E+03  0.50400001928E-02 0. -1.
    10030    2    1    2    0    0  0.00000000000E+00  0.00000000000E+00 -0.20497700662E+03  0.84088867239E+03  0.81552325908E+03 0.  0.
        4    1    3    3  502    0 -0.13196397229E+03 -0.15106335779E+03 -0.46854221413E+03  0.50967445235E+03  0.12699999809E+01 0. -1.
       -4    1    3    3    0  502  0.13196397229E+03  0.15106335779E+03  0.26356520751E+03  0.33121422004E+03  0.12699999809E+01 0.  1.
</event>
<event>
 5   0  0.2993993E-03  0.1507766E+04  0.7818609E-02  0.8879305E-01
        2   -1    0    0  501    0  0.00000000000E+00  0.00000000000E+00  0.78780739573E+03  0.78780739574E+03  0.25500000920E-02 0. -1.
       -2   -1    0    0    0  501  0.00000000000E+00  0.00000000000E+00 -0.72141972190E+03  0.72141972190E+03  0.25500000920E-02 0.  1.
    10030    2    1    2    0    0  0.00000000000E+00  0.00000000000E+00  0.66387673839E+02  0.15092271176E+04  0.15077662847E+04 0.  0.
        3    1    3    3  502    0 -0.24648975469E+03  0.11894786352E+03  0.73632298646E+03  0.78554270666E+03  0.10100000352E+00 0. -1.
       -3    1    3    3    0  502  0.24648975469E+03 -0.11894786352E+03 -0.66993531262E+03  0.72368441098E+03  0.10100000352E+00 0.  1.
</event>
<event>
 5   0  0.1700207E-03  0.1404304E+04  0.7818609E-02  0.8950709E-01
       -1   -1    0    0    0  501  0.00000000000E+00  0.00000000000E+00  0.76166320491E+03  0.76166320492E+03  0.50400001928E-02 0. -1.
        1   -1    0    0  501    0  0.00000000000E+00  0.00000000000E+00 -0.64729099484E+03  0.64729099485E+03  0.50400001928E-02 0.  1.
    10030    2    1    2    0    0  0.00000000000E+00  0.00000000000E+00  0.11437221007E+03  0.14089541998E+04  0.14043044309E+04 0.  0.
        2    1    3    3  502    0  0.68655438914E+03  0.13159403296E+03 -0.89397445070E+01  0.69910931749E+03  0.25500000920E-02 0. -1.
       -2    1    3    3    0  502 -0.68655438914E+03 -0.13159403296E+03  0.12331195458E+03  0.70984488229E+03  0.25500000920E-02 0.  1.
</event>
<event>
 5   0  0.2760807E-03  0.1390292E+04  0.7818609E-02  0.8960876E-01
        2   -1    0    0  501    0  0.00000000000E+00  0.00000000000E+00  0.50115969490E+03  0.50115969491E+03  0.25500000920E-02 0.  1.
       -2   -1    0    0    0  501  0.00000000000E+00  0.00000000000E+00 -0.96422003086E+03  0.96422003086E+03  0.25500000920E-02 0. -1.
    10030    2    1    2    0    0  0.00000000000E+00  0.00000000000E+00 -0.46306033596E+03  0.14653797258E+04  0.13902923671E+04 0.  0.
        4    1    3    3  502    0 -0.11577096595E+03  0.30281141261E+03 -0.87966296176E+03  0.93749997726E+03  0.12699999809E+01 0. -1.
       -4    1    3    3    0  502  0.11577096595E+03 -0.30281141261E+03  0.41660262580E+03  0.52787974851E+03  0.12699999809E+01 0.  1.
</event>
<event>
 5   0  0.1644571E-03  0.1357453E+04  0.7818609E-02  0.8985205E-01
        1   -1    0    0  501    0  0.00000000000E+00  0.00000000000E+00  0.56653074239E+03  0.56653074242E+03  0.50400001928E-02 0. -1.
       -1   -1    0    0    0  501  0.00000000000E+00  0.00000000000E+00 -0.81314189932E+03  0.81314189934E+03  0.50400001928E-02 0.  1.
    10030    2    1    2    0    0  0.00000000000E+00  0.00000000000E+00 -0.24661115693E+03  0.13796726418E+04  0.13574533273E+04 0.  0.
        4    1    3    3  502    0 -0.18488458174E+03  0.40925881672E+03  0.39393824464E+03  0.59738098490E+03  0.12699999809E+01 0. -1.
       -4    1    3    3    0  502  0.18488458174E+03 -0.40925881672E+03 -0.64054940157E+03  0.78229165685E+03  0.12699999809E+01 0.  1.
</event>
<event>
 5   0  0.1586022E-03  0.1494952E+04  0.7818609E-02  0.8887817E-01
       -1   -1    0    0    0  501  0.00000000000E+00  0.00000000000E+00  0.50241776313E+03  0.50241776315E+03  0.50400001928E-02 0.  1.
        1   -1    0    0  501    0  0.00000000000E+00  0.00000000000E+00 -0.11120637093E+04  0.11120637093E+04  0.50400001928E-02 0. -1.
    10030    2    1    2    0    0  0.00000000000E+00  0.00000000000E+00 -0.60964594613E+03  0.16144814724E+04  0.14949522551E+04 0.  0.
        1    1    3    3  502    0  0.28063553573E+01 -0.34544698648E+03 -0.10206785671E+04  0.10775556753E+04  0.50400001928E-02 0. -1.
       -1    1    3    3    0  502 -0.28063553573E+01  0.34544698648E+03  0.41103262093E+03  0.53692579711E+03  0.50400001928E-02 0.  1.
</event>
<event>
 5   0  0.1560957E-03  0.1382053E+04  0.7818609E-02  0.8966913E-01
        1   -1    0    0  501    0  0.00000000000E+00  0.00000000000E+00  0.10580185856E+04  0.10580185856E+04  0.50400001928E-02 0.  1.
       -1   -1    0    0    0  501  0.00000000000E+00  0.00000000000E+00 -0.45133182761E+03  0.45133182764E+03  0.50400001928E-02 0. -1.
    10030    2    1    2    0    0  0.00000000000E+00  0.00000000000E+00  0.60668675797E+03  0.15093504132E+04  0.13820527659E+04 0.  0.
        5    1    3    3  502    0 -0.12231180838E+02  0.45964417263E+03  0.86667724501E+03  0.98110850788E+03  0.46999998093E+01 0.  1.
       -5    1    3    3    0  502  0.12231180838E+02 -0.45964417263E+03 -0.25999048704E+03  0.52824190535E+03  0.46999998093E+01 0. -1.
</event>
<event>
 5   0  0.1631380E-03  0.1346132E+04  0.7818609E-02  0.8993761E-01
        1   -1    0    0  501    0  0.00000000000E+00  0.00000000000E+00  0.77229187683E+03  0.77229187685E+03  0.50400001928E-02 0.  1.
       -1   -1    0    0    0  501  0.00000000000E+00  0.00000000000E+00 -0.58658892125E+03  0.58658892127E+03  0.50400001928E-02 0. -1.
    10030    2    1    2    0    0  0.00000000000E+00  0.00000000000E+00  0.18570295559E+03  0.13588807981E+04  0.13461320276E+04 0.  0.
        3    1    3    3  502    0 -0.32088158036E+03  0.59161511812E+03  0.86124119566E+02  0.67852104667E+03  0.10100000352E+00 0.  1.
       -3    1    3    3    0  502  0.32088158036E+03 -0.59161511812E+03  0.99578836020E+02  0.68035975145E+03  0.10100000352E+00 0. -1.
</event>
<event>
 5   0  0.2917809E-03  0.1404538E+04  0.7818609E-02  0.8950540E-01
        2   -1    0    0  501    0  0.00000000000E+00  0.00000000000E+00  0.20921710101E+04  0.20921710101E+04  0.25500000920E-02 0.  1.
       -2   -1    0    0    0  501  0.00000000000E+00  0.00000000000E+00 -0.23572730651E+03  0.23572730653E+03  0.25500000920E-02 0. -1.
    10030    2    1    2    0    0  0.00000000000E+00  0.00000000000E+00  0.18564437036E+04  0.23278983166E+04  0.14045381262E+04 0.  0.
        2    1    3    3  502    0 -0.30401400048E+03 -0.55661140827E+03  0.14280382388E+04  0.15625408743E+04  0.25500000920E-02 0. -1.
       -2    1    3    3    0  502  0.30401400048E+03  0.55661140827E+03  0.42840546481E+03  0.76535744237E+03  0.25500000920E-02 0.  1.
</event>
<event>
 5   0  0.1644571E-03  0.1423250E+04  0.7818609E-02  0.8937159E-01
       -1   -1    0    0    0  501  0.00000000000E+00  0.00000000000E+00  0.54591221064E+03  0.54591221066E+03  0.50400001928E-02 0.  1.
        1   -1    0    0  501    0  0.00000000000E+00  0.00000000000E+00 -0.92763971489E+03  0.92763971491E+03  0.50400001928E-02 0. -1.
    10030    2    1    2    0    0  0.00000000000E+00  0.00000000000E+00 -0.38172750425E+03  0.14735519256E+04  0.14232495880E+04 0.  0.
        4    1    3    3  502    0 -0.45483712688E+03 -0.31709322079E+03 -0.65270498628E+03  0.85641714992E+03  0.12699999809E+01 0. -1.
       -4    1    3    3    0  502  0.45483712688E+03  0.31709322079E+03  0.27097748203E+03  0.61713477565E+03  0.12699999809E+01 0.  1.
</event>
<event>
 5   0  0.2993993E-03  0.8583991E+03  0.7818609E-02  0.9479133E-01
        2   -1    0    0  501    0  0.00000000000E+00  0.00000000000E+00  0.46454421018E+03  0.46454421019E+03  0.25500000920E-02 0. -1.
       -2   -1    0    0    0  501  0.00000000000E+00  0.00000000000E+00 -0.39654405162E+03  0.39654405163E+03  0.25500000920E-02 0.  1.
    10030    2    1    2    0    0  0.00000000000E+00  0.00000000000E+00  0.68000158561E+02  0.86108826181E+03  0.85839907564E+03 0.  0.
        3    1    3    3  502    0 -0.21403353100E+02  0.39427595965E+03  0.20275491546E+03  0.44387070395E+03  0.10100000352E+00 0. -1.
       -3    1    3    3    0  502  0.21403353100E+02 -0.39427595965E+03 -0.13475475690E+03  0.41721755786E+03  0.10100000352E+00 0.  1.
</event>
<event>
 5   0  0.1104538E-03  0.1155583E+04  0.7818609E-02  0.9152648E-01
       -3   -1    0    0    0  501  0.00000000000E+00  0.00000000000E+00  0.18639806362E+04  0.18639806390E+04  0.10100000352E+00 0.  1.
        3   -1    0    0  501    0  0.00000000000E+00  0.00000000000E+00 -0.17910216418E+03  0.17910219266E+03  0.10100000352E+00 0. -1.
    10030    2    1    2    0    0  0.00000000000E+00  0.00000000000E+00  0.16848784720E+04  0.20430828316E+04  0.11555829660E+04 0.  0.
        5    1    3    3  502    0  0.73021735627E+02 -0.54083816023E+03  0.50706288795E+03  0.74496506749E+03  0.46999998093E+01 0. -1.
       -5    1    3    3    0  502 -0.73021735627E+02  0.54083816023E+03  0.11778155841E+04  0.12981177641E+04  0.46999998093E+01 0.  1.
</event>
<event>
 5   0  0.2760807E-03  0.1394940E+04  0.7818609E-02  0.8957490E-01
       -2   -1    0    0    0  501  0.00000000000E+00  0.00000000000E+00  0.88007133786E+03  0.88007133787E+03  0.25500000920E-02 0. -1.
        2   -1    0    0  501    0  0.00000000000E+00  0.00000000000E+00 -0.55275539434E+03  0.55275539434E+03  0.25500000920E-02 0.  1.
    10030    2    1    2    0    0  0.00000000000E+00  0.00000000000E+00  0.32731594353E+03  0.14328267322E+04  0.13949396824E+04 0.  0.
        4    1    3    3  502    0  0.42277031360E+03 -0.13174660393E+03 -0.38983818923E+03  0.58997231493E+03  0.12699999809E+01 0.  1.
       -4    1    3    3    0  502 -0.42277031360E+03  0.13174660393E+03  0.71715413275E+03  0.84285441728E+03  0.12699999809E+01 0. -1.
</event>
<event>
 5   0  0.1586022E-03  0.1279451E+04  0.7818609E-02  0.9046022E-01
        1   -1    0    0  501    0  0.00000000000E+00  0.00000000000E+00  0.46577712284E+03  0.46577712286E+03  0.50400001928E-02 0.  1.
       -1   -1    0    0    0  501  0.00000000000E+00  0.00000000000E+00 -0.87863591361E+03  0.87863591363E+03  0.50400001928E-02 0. -1.
    10030    2    1    2    0    0  0.00000000000E+00  0.00000000000E+00 -0.41285879078E+03  0.13444130365E+04  0.12794506757E+04 0.  0.
        1    1    3    3  502    0 -0.13007347803E+03 -0.62566626951E+03 -0.17541612939E+03  0.66268258538E+03  0.50400001928E-02 0. -1.
       -1    1    3    3    0  502  0.13007347803E+03  0.62566626951E+03 -0.23744266139E+03  0.68173045111E+03  0.50400001928E-02 0.  1.
</event>
<event>
 5   0  0.2889469E-03  0.1394627E+04  0.7818609E-02  0.8957717E-01
       -2   -1    0    0    0  501  0.00000000000E+00  0.00000000000E+00  0.41014831356E+03  0.41014831356E+03  0.25500000920E-02 0. -1.
        2   -1    0    0  501    0  0.00000000000E+00  0.00000000000E+00 -0.11855374970E+04  0.11855374970E+04  0.25500000920E-02 0.  1.
    10030    2    1    2    0    0  0.00000000000E+00  0.00000000000E+00 -0.77538918346E+03  0.15956858106E+04  0.13946271259E+04 0.  0.
        5    1    3    3  502    0 -0.10579504275E+03 -0.68407378230E+03 -0.29145810945E+03  0.75107885756E+03  0.46999998093E+01 0. -1.
       -5    1    3    3    0  502  0.10579504275E+03  0.68407378230E+03 -0.48393107402E+03  0.84460695303E+03  0.46999998093E+01 0.  1.
</event>
<event>
 5   0  0.1104538E-03  0.1366608E+04  0.7818609E-02  0.8978350E-01
        3   -1    0    0  501    0  0.00000000000E+00  0.00000000000E+00  0.57875060174E+03  0.57875061055E+03  0.10100000352E+00 0. -1.
       -3   -1    0    0    0  501  0.00000000000E+00  0.00000000000E+00 -0.80674534092E+03  0.80674534724E+03  0.10100000352E+00 0.  1.
    10030    2    1    2    0    0  0.00000000000E+00  0.00000000000E+00 -0.22799473917E+03  0.13854959578E+04  0.13666080082E+04 0.  0.
        3    1    3    3  502    0 -0.61252923392E+03  0.31965350555E+01  0.19301146637E+03  0.64222715342E+03  0.10100000352E+00 0. -1.
       -3    1    3    3    0  502  0.61252923392E+03 -0.31965350555E+01 -0.42100620554E+03  0.74326880437E+03  0.10100000352E+00 0.  1.
</event>
<event>
 5   0  0.3006737E-03  0.1445967E+04  0.7818609E-02  0.8921201E-01
       -2   -1    0    0    0  501  0.00000000000E+00  0.00000000000E+00  0.43460045586E+03  0.43460045587E+03  0.25500000920E-02 0. -1.
        2   -1    0    0  501    0  0.00000000000E+00  0.00000000000E+00 -0.12027260083E+04  0.12027260083E+04  0.25500000920E-02 0.  1.
    10030    2    1    2    0    0  0.00000000000E+00  0.00000000000E+00 -0.76812555243E+03  0.16373264642E+04  0.14459671801E+04 0.  0.
        1    1    3    3  502    0  0.12636682475E+03 -0.76315182804E+02 -0.11854785069E+04  0.11946346186E+04  0.50400001928E-02 0.  1.
       -1    1    3    3    0  502 -0.12636682475E+03  0.76315182804E+02  0.41735295448E+03  0.44269184560E+03  0.50400001928E-02 0. -1.
</event>
<event>
 5   0  0.2993993E-03  0.1456778E+04  0.7818609E-02  0.8913715E-01
       -2   -1    0    0    0  501  0.00000000000E+00  0.00000000000E+00  0.25718577259E+03  0.25718577261E+03  0.25500000920E-02 0. -1.
        2   -1    0    0  501    0  0.00000000000E+00  0.00000000000E+00 -0.20629068915E+04  0.20629068915E+04  0.25500000920E-02 0.  1.
    10030    2    1    2    0    0  0.00000000000E+00  0.00000000000E+00 -0.18057211189E+04  0.23200926641E+04  0.14567776806E+04 0.  0.
        3    1    3    3  502    0 -0.10518709842E+02  0.64564348404E+03 -0.14396091348E+04  0.15777961284E+04  0.10100000352E+00 0. -1.
       -3    1    3    3    0  502  0.10518709842E+02 -0.64564348404E+03 -0.36611198411E+03  0.74229653566E+03  0.10100000352E+00 0.  1.
</event>
<event>
 5   0  0.1586022E-03  0.1407891E+04  0.7818609E-02  0.8948127E-01
       -1   -1    0    0    0  501  0.00000000000E+00  0.00000000000E+00  0.62329012882E+03  0.62329012884E+03  0.50400001928E-02 0. -1.
        1   -1    0    0  501    0  0.00000000000E+00  0.00000000000E+00 -0.79503757959E+03  0.79503757960E+03  0.50400001928E-02 0.  1.
    10030    2    1    2    0    0  0.00000000000E+00  0.00000000000E+00 -0.17174745077E+03  0.14183277084E+04  0.14078907279E+04 0.  0.
        1    1    3    3  502    0 -0.15833681879E+03 -0.52898744349E+03  0.35398739691E+03  0.65590040460E+03  0.50400001928E-02 0. -1.
       -1    1    3    3    0  502  0.15833681879E+03  0.52898744349E+03 -0.52573484768E+03  0.76242730384E+03  0.50400001928E-02 0.  1.
</event>
<event>
 5   0  0.1700207E-03  0.1405040E+04  0.7818609E-02  0.8950179E-01
       -1   -1    0    0    0  501  0.00000000000E+00  0.00000000000E+00  0.18180294169E+03  0.18180294176E+03  0.50400001928E-02 0.  1.
        1   -1    0    0  501    0  0.00000000000E+00  0.00000000000E+00 -0.27146659457E+04  0.27146659457E+04  0.50400001928E-02 0. -1.
    10030    2    1    2    0    0  0.00000000000E+00  0.00000000000E+00 -0.25328630040E+04  0.28964688875E+04  0.14050398638E+04 0.  0.
        2    1    3    3  502    0 -0.26064144783E+03  0.31895440134E+03 -0.93251919023E+02  0.42232901258E+03  0.25500000920E-02 0.  1.
       -2    1    3    3    0  502  0.26064144783E+03 -0.31895440134E+03 -0.24396110850E+04  0.24741398749E+04  0.25500000920E-02 0. -1.
</event>
<event>
 5   0  0.3006737E-03  0.1300269E+04  0.7818609E-02  0.9029352E-01
       -2   -1    0    0    0  501  0.00000000000E+00  0.00000000000E+00  0.11289615590E+04  0.11289615590E+04  0.25500000920E-02 0. -1.
        2   -1    0    0  501    0  0.00000000000E+00  0.00000000000E+00 -0.37439286471E+03  0.37439286472E+03  0.25500000920E-02 0.  1.
    10030    2    1    2    0    0  0.00000000000E+00  0.00000000000E+00  0.75456869427E+03  0.15033544237E+04  0.13002694370E+04 0.  0.
        1    1    3    3  502    0 -0.52807115595E+03  0.33634882435E+03  0.57981671918E+03  0.85333293927E+03  0.50400001928E-02 0. -1.
       -1    1    3    3    0  502  0.52807115595E+03 -0.33634882435E+03  0.17475197509E+03  0.65002148442E+03  0.50400001928E-02 0.  1.
</event>
<event>
 5   0  0.2993993E-03  0.1401857E+04  0.7818609E-02  0.8952476E-01
        2   -1    0    0  501    0  0.00000000000E+00  0.00000000000E+00  0.11686132202E+04  0.11686132202E+04  0.25500000920E-02 0. -1.
       -2   -1    0    0    0  501  0.00000000000E+00  0.00000000000E+00 -0.42041325940E+03  0.42041325941E+03  0.25500000920E-02 0.  1.
    10030    2    1    2    0    0  0.00000000000E+00  0.00000000000E+00  0.74819996077E+03  0.15890264796E+04  0.14018566159E+04 0.  0.
        3    1    3    3  502    0  0.20337491126E+03  0.23055466810E+03  0.10881102126E+04  0.11307080324E+04  0.10100000352E+00 0. -1.
       -3    1    3    3    0  502 -0.20337491126E+03 -0.23055466810E+03 -0.33991025186E+03  0.45831844719E+03  0.10100000352E+00 0.  1.
</event>
<event>
 5   0  0.1560957E-03  0.1371326E+04  0.7818609E-02  0.8974840E-01
        1   -1    0    0  501    0  0.00000000000E+00  0.00000000000E+00  0.57008449683E+03  0.57008449685E+03  0.50400001928E-02 0. -1.
       -1   -1    0    0    0  501  0.00000000000E+00  0.00000000000E+00 -0.82467367130E+03  0.82467367131E+03  0.50400001928E-02 0.  1.
    10030    2    1    2    0    0  0.00000000000E+00  0.00000000000E+00 -0.25458917447E+03  0.13947581682E+04  0.13713258912E+04 0.  0.
        5    1    3    3  502    0 -0.53136262804E+03  0.32482303102E+03  0.16440800688E+03  0.64413378011E+03  0.46999998093E+01 0. -1.
       -5    1    3    3    0  502  0.53136262804E+03 -0.32482303102E+03 -0.41899718135E+03  0.75062438805E+03  0.46999998093E+01 0.  1.
</event>
<event>
 5   0  0.2993993E-03  0.1529242E+04  0.7818609E-02  0.8865237E-01
       -2   -1    0    0    0  501  0.00000000000E+00  0.00000000000E+00  0.41791835154E+03  0.41791835155E+03  0.25500000920E-02 0.  1.
        2   -1    0    0  501    0  0.00000000000E+00  0.00000000000E+00 -0.13989456760E+04  0.13989456760E+04  0.25500000920E-02 0. -1.
    10030    2    1    2    0    0  0.00000000000E+00  0.00000000000E+00 -0.98102732448E+03  0.18168640276E+04  0.15292417348E+04 0.  0.
        3    1    3    3  502    0  0.69091973606E+03 -0.10258703689E+03 -0.86006411924E+03  0.11079731410E+04  0.10100000352E+00 0. -1.
       -3    1    3    3    0  502 -0.69091973606E+03  0.10258703689E+03 -0.12096320524E+03  0.70889088656E+03  0.10100000352E+00 0.  1.
</event>
<event>
 5   0  0.1644571E-03  0.1419883E+04  0.7818609E-02  0.8939551E-01
        1   -1    0    0  501    0  0.00000000000E+00  0.00000000000E+00  0.41408550661E+03  0.41408550664E+03  0.50400001928E-02 0.  1.
       -1   -1    0    0    0  501  0.00000000000E+00  0.00000000000E+00 -0.12171803363E+04  0.12171803364E+04  0.50400001928E-02 0. -1.
    10030    2    1    2    0    0  0.00000000000E+00  0.00000000000E+00 -0.80309482974E+03  0.16312658430E+04  0.14198827223E+04 0.  0.
        4    1    3    3  502    0 -0.57530875246E+03  0.41562585231E+03 -0.42111585917E+03  0.82526673840E+03  0.12699999809E+01 0. -1.
       -4    1    3    3    0  502  0.57530875246E+03 -0.41562585231E+03 -0.38197897057E+03  0.80599910460E+03  0.12699999809E+01 0.  1.
</event>
<event>
 5   0  0.1644571E-03  0.1355410E+04  0.7818609E-02  0.8986743E-01
        1   -1    0    0  501    0  0.00000000000E+00  0.00000000000E+00  0.23939332123E+04  0.23939332123E+04  0.50400001928E-02 0. -1.
       -1   -1    0    0    0  501  0.00000000000E+00  0.00000000000E+00 -0.19185339647E+03  0.19185339654E+03  0.50400001928E-02 0.  1.
    10030    2    1    2    0    0  0.00000000000E+00  0.00000000000E+00  0.22020798158E+04  0.25857866088E+04  0.13554102225E+04 0.  0.
        4    1    3    3  502    0  0.30357937245E+03  0.54985490487E+03  0.61547390309E+03  0.87938079924E+03  0.12699999809E+01 0.  1.
       -4    1    3    3    0  502 -0.30357937245E+03 -0.54985490487E+03  0.15866059127E+04  0.17064058096E+04  0.12699999809E+01 0. -1.
</event>
<event>
 5   0  0.2993993E-03  0.1391613E+04  0.7818609E-02  0.8959912E-01
        2   -1    0    0  501    0  0.00000000000E+00  0.00000000000E+00  0.46779405259E+03  0.46779405259E+03  0.25500000920E-02 0. -1.
       -2   -1    0    0    0  501  0.00000000000E+00  0.00000000000E+00 -0.10349576233E+04  0.10349576233E+04  0.25500000920E-02 0.  1.
    10030    2    1    2    0    0  0.00000000000E+00  0.00000000000E+00 -0.56716357071E+03  0.15027516759E+04  0.13916134821E+04 0.  0.
        3    1    3    3  502    0  0.31860934544E+03  0.59627223715E+03 -0.46133165177E+03  0.81846160504E+03  0.10100000352E+00 0.  1.
       -3    1    3    3    0  502 -0.31860934544E+03 -0.59627223715E+03 -0.10583191894E+03  0.68429007085E+03  0.10100000352E+00 0. -1.
</event>
<event>
 5   0  0.1631380E-03  0.1464535E+04  0.7818609E-02  0.8908385E-01
        1   -1    0    0  501    0  0.00000000000E+00  0.00000000000E+00  0.75582042833E+03  0.75582042834E+03  0.50400001928E-02 0.  1.
       -1   -1    0    0    0  501  0.00000000000E+00  0.00000000000E+00 -0.70944894034E+03  0.70944894036E+03  0.50400001928E-02 0. -1.
    10030    2    1    2    0    0  0.00000000000E+00  0.00000000000E+00  0.46371487981E+02  0.14652693687E+04  0.14645354239E+04 0.  0.
        3    1    3    3  502    0  0.67990850595E+03 -0.15804605982E+03 -0.19819841216E+03  0.72562852361E+03  0.10100000352E+00 0. -1.
       -3    1    3    3    0  502 -0.67990850595E+03  0.15804605982E+03  0.24456990014E+03  0.73964084510E+03  0.10100000352E+00 0.  1.
</event>
<event>
 5   0  0.1586022E-03  0.1401685E+04  0.7818609E-02  0.8952599E-01
        1   -1    0    0  501    0  0.00000000000E+00  0.00000000000E+00  0.50917476121E+03  0.50917476123E+03  0.50400001928E-02 0.  1.
       -1   -1    0    0    0  501  0.00000000000E+00  0.00000000000E+00 -0.96466003326E+03  0.96466003327E+03  0.50400001928E-02 0. -1.
    10030    2    1    2    0    0  0.00000000000E+00  0.00000000000E+00 -0.45548527205E+03  0.14738347945E+04  0.14016854741E+04 0.  0.
        1    1    3    3  502    0 -0.27101417904E+03  0.31565701496E+03  0.36528502521E+03  0.55364355501E+03  0.50400001928E-02 0.  1.
       -1    1    3    3    0  502  0.27101417904E+03 -0.31565701496E+03 -0.82077029726E+03  0.92019123949E+03  0.50400001928E-02 0. -1.
</event>
<event>
 5   0  0.1644571E-03  0.1497990E+04  0.7818609E-02  0.8885790E-01
       -1   -1    0    0    0  501  0.00000000000E+00  0.00000000000E+00  0.82952760731E+03  0.82952760733E+03  0.50400001928E-02 0.  1.
        1   -1    0    0  501    0  0.00000000000E+00  0.00000000000E+00 -0.67628105312E+03  0.67628105314E+03  0.50400001928E-02 0. -1.
    10030    2    1    2    0    0  0.00000000000E+00  0.00000000000E+00  0.15324655419E+03  0.15058086605E+04  0.14979903923E+04 0.  0.
        4    1    3    3  502    0  0.51213298108E+03 -0.49844682519E+03 -0.14874041164E+03  0.72996900675E+03  0.12699999809E+01 0.  1.
       -4    1    3    3    0  502 -0.51213298108E+03  0.49844682519E+03  0.30198696583E+03  0.77583965372E+03  0.12699999809E+01 0. -1.
</event>
<event>
 5   0  0.2917809E-03  0.1348173E+04  0.7818609E-02  0.8992212E-01
        2   -1    0    0  501    0  0.00000000000E+00  0.00000000000E+00  0.16224485672E+04  0.16224485672E+04  0.25500000920E-02 0.  1.
       -2   -1    0    0    0  501  0.00000000000E+00  0.00000000000E+00 -0.28006594486E+03  0.28006594487E+03  0.25500000920E-02 0. -1.
    10030    2    1    2    0    0  0.00000000000E+00  0.00000000000E+00  0.13423826224E+04  0.19025145121E+04  0.13481729725E+04 0.  0.
        2    1    3    3  502    0  0.13409671525E+03 -0.19724266666E+02  0.16030206314E+04  0.16087405386E+04  0.25500000920E-02 0.  1.
       -2    1    3    3    0  502 -0.13409671525E+03  0.19724266666E+02 -0.26063800906E+03  0.29377397350E+03  0.25500000920E-02 0. -1.
</event>
<event>
 5   0  0.2917809E-03  0.1395889E+04  0.7818609E-02  0.8956800E-01
       -2   -1    0    0    0  501  0.00000000000E+00  0.00000000000E+00  0.87175665082E+03  0.87175665082E+03  0.25500000920E-02 0.  1.
        2   -1    0    0  501    0  0.00000000000E+00  0.00000000000E+00 -0.55878690303E+03  0.55878690303E+03  0.25500000920E-02 0. -1.
    10030    2    1    2    0    0  0.00000000000E+00  0.00000000000E+00  0.31296974779E+03  0.14305435539E+04  0.13958885330E+04 0.  0.
        2    1    3    3  502    0  0.18490700153E+03 -0.64241890080E+02 -0.53007895671E+03  0.56506753580E+03  0.25500000920E-02 0. -1.
       -2    1    3    3    0  502 -0.18490700153E+03  0.64241890080E+02  0.84304870450E+03  0.86547601805E+03  0.25500000920E-02 0.  1.
</event>
<event>
 5   0  0.2917809E-03  0.1356180E+04  0.7818609E-02  0.8986163E-01
        2   -1    0    0  501    0  0.00000000000E+00  0.00000000000E+00  0.23126168697E+04  0.23126168697E+04  0.25500000920E-02 0. -1.
       -2   -1    0    0    0  501  0.00000000000E+00  0.00000000000E+00 -0.19882503803E+03  0.19882503805E+03  0.25500000920E-02 0.  1.
    10030    2    1    2    0    0  0.00000000000E+00  0.00000000000E+00  0.21137918317E+04  0.25114419078E+04  0.13561801312E+04 0.  0.
        2    1    3    3  502    0  0.46524978695E+03 -0.18841065023E+03  0.19011651870E+04  0.19663125402E+04  0.25500000920E-02 0. -1.
       -2    1    3    3    0  502 -0.46524978695E+03  0.18841065023E+03  0.21262664470E+03  0.54512936761E+03  0.25500000920E-02 0.  1.
</event>
<event>
 5   0  0.1700207E-03  0.1147757E+04  0.7818609E-02  0.9159855E-01
       -1   -1    0    0    0  501  0.00000000000E+00  0.00000000000E+00  0.19049872895E+03  0.19049872902E+03  0.50400001928E-02 0. -1.
        1   -1    0    0  501    0  0.00000000000E+00  0.00000000000E+00 -0.17288134877E+04  0.17288134877E+04  0.50400001928E-02 0.  1.
    10030    2    1    2    0    0  0.00000000000E+00  0.00000000000E+00 -0.15383147588E+04  0.19193122168E+04  0.11477574170E+04 0.  0.
        2    1    3    3  502    0 -0.47741342074E+03 -0.29587224038E+03 -0.57219747746E+03  0.80179418191E+03  0.25500000920E-02 0. -1.
       -2    1    3    3    0  502  0.47741342074E+03  0.29587224038E+03 -0.96611728133E+03  0.11175180349E+04  0.25500000920E-02 0.  1.
</event>
<event>
 5   0  0.1644571E-03  0.1097261E+04  0.7818609E-02  0.9207865E-01
        1   -1    0    0  501    0  0.00000000000E+00  0.00000000000E+00  0.25816108033E+03  0.25816108037E+03  0.50400001928E-02 0. -1.
       -1   -1    0    0    0  501  0.00000000000E+00  0.00000000000E+00 -0.11659212872E+04  0.11659212873E+04  0.50400001928E-02 0.  1.
    10030    2    1    2    0    0  0.00000000000E+00  0.00000000000E+00 -0.90776020692E+03  0.14240823676E+04  0.10972611342E+04 0.  0.
        4    1    3    3  502    0 -0.34744647171E+03 -0.41910437160E+03 -0.54215655814E+03  0.76831170200E+03  0.12699999809E+01 0. -1.
       -4    1    3    3    0  502  0.34744647171E+03  0.41910437160E+03 -0.36560364879E+03  0.65577066563E+03  0.12699999809E+01 0.  1.
</event>
<event>
 5   0  0.1631380E-03  0.1418842E+04  0.7818609E-02  0.8940292E-01
        1   -1    0    0  501    0  0.00000000000E+00  0.00000000000E+00  0.18016571778E+04  0.18016571778E+04  0.50400001928E-02 0. -1.
       -1   -1    0    0    0  501  0.00000000000E+00  0.00000000000E+00 -0.27934182982E+03  0.27934182987E+03  0.50400001928E-02 0.  1.
    10030    2    1    2    0    0  0.00000000000E+00  0.00000000000E+00  0.15223153480E+04  0.20809990077E+04  0.14188420812E+04 0.  0.
        3    1    3    3  502    0 -0.62631926695E+03  0.31641549598E+03  0.91416927000E+03  0.11524322343E+04  0.10100000352E+00 0. -1.
       -3    1    3    3    0  502  0.62631926695E+03 -0.31641549598E+03  0.60814607798E+03  0.92856677337E+03  0.10100000352E+00 0.  1.
</event>
<event>
 5   0  0.2889469E-03  0.1373981E+04  0.7818609E-02  0.8972871E-01
       -2   -1    0    0    0  501  0.00000000000E+00  0.00000000000E+00  0.76085052799E+03  0.76085052800E+03  0.25500000920E-02 0.  1.
        2   -1    0    0  501    0  0.00000000000E+00  0.00000000000E+00 -0.62030048712E+03  0.62030048712E+03  0.25500000920E-02 0. -1.
    10030    2    1    2    0    0  0.00000000000E+00  0.00000000000E+00  0.14055004087E+03  0.13811510151E+04  0.13739810088E+04 0.  0.
        5    1    3    3  502    0 -0.28333896190E+03 -0.15658981448E+03  0.67935155503E+03  0.75255694977E+03  0.46999998093E+01 0.  1.
       -5    1    3    3    0  502  0.28333896190E+03  0.15658981448E+03 -0.53880151416E+03  0.62859406534E+03  0.46999998093E+01 0. -1.
</event>
<event>
 5   0  0.1644571E-03  0.1415289E+04  0.7818609E-02  0.8942826E-01
       -1   -1    0    0    0  501  0.00000000000E+00  0.00000000000E+00  0.26803693780E+03  0.26803693785E+03  0.50400001928E-02 0.  1.
        1   -1    0    0  501    0  0.00000000000E+00  0.00000000000E+00 -0.18682515607E+04  0.18682515607E+04  0.50400001928E-02 0. -1.
    10030    2    1    2    0    0  0.00000000000E+00  0.00000000000E+00 -0.16002146229E+04  0.21362884985E+04  0.14152885606E+04 0.  0.
        4    1    3    3  502    0  0.63928870701E+03 -0.23754437202E+03 -0.51514167243E+03  0.85468703931E+03  0.12699999809E+01 0.  1.
       -4    1    3    3    0  502 -0.63928870701E+03  0.23754437202E+03 -0.10850729504E+04  0.12816014592E+04  0.12699999809E+01 0. -1.
</event>
<event>
 5   0  0.2889469E-03  0.1002185E+04  0.7818609E-02  0.9306152E-01
        2   -1    0    0  501    0  0.00000000000E+00  0.00000000000E+00  0.27946584178E+03  0.27946584179E+03  0.25500000920E-02 0. -1.
       -2   -1    0    0    0  501  0.00000000000E+00  0.00000000000E+00 -0.89847704100E+03  0.89847704100E+03  0.25500000920E-02 0.  1.
    10030    2    1    2    0    0  0.00000000000E+00  0.00000000000E+00 -0.61901119922E+03  0.11779428828E+04  0.10021848983E+04 0.  0.
        5    1    3    3  502    0  0.63959636630E+01 -0.19744453850E+03 -0.85074789370E+03  0.87339528438E+03  0.46999998093E+01 0.  1.
       -5    1    3    3    0  502 -0.63959636630E+01  0.19744453850E+03  0.23173669448E+03  0.30454759842E+03  0.46999998093E+01 0. -1.
</event>
<event>
 5   0  0.1644571E-03  0.1396595E+04  0.7818609E-02  0.8956287E-01
       -1   -1    0    0    0  501  0.00000000000E+00  0.00000000000E+00  0.38072848764E+03  0.38072848768E+03  0.50400001928E-02 0. -1.
        1   -1    0    0  501    0  0.00000000000E+00  0.00000000000E+00 -0.12807533355E+04  0.12807533356E+04  0.50400001928E-02 0.  1.
    10030    2    1    2    0    0  0.00000000000E+00  0.00000000000E+00 -0.90002484791E+03  0.16614818232E+04  0.13965948310E+04 0.  0.
        4    1    3    3  502    0 -0.36439554846E+03  0.38363583292E+03 -0.99213632649E+03  0.11244094767E+04  0.12699999809E+01 0.  1.
       -4    1    3    3    0  502  0.36439554846E+03 -0.38363583292E+03  0.92111478586E+02  0.53707234654E+03  0.12699999809E+01 0. -1.
</event>
<event>
 5   0  0.1560957E-03  0.1398681E+04  0.7818609E-02  0.8954774E-01
        1   -1    0    0  501    0  0.00000000000E+00  0.00000000000E+00  0.68341463580E+03  0.68341463582E+03  0.50400001928E-02 0. -1.
       -1   -1    0    0    0  501  0.00000000000E+00  0.00000000000E+00 -0.71563706683E+03  0.71563706684E+03  0.50400001928E-02 0.  1.
    10030    2    1    2    0    0  0.00000000000E+00  0.00000000000E+00 -0.32222431028E+02  0.13990517027E+04  0.13986805860E+04 0.  0.
        5    1    3    3  502    0  0.30277294517E+03 -0.44516951121E+03 -0.46255620894E+03  0.70980820400E+03  0.46999998093E+01 0.  1.
       -5    1    3    3    0  502 -0.30277294517E+03  0.44516951121E+03  0.43033377791E+03  0.68924349866E+03  0.46999998093E+01 0. -1.
</event>
<event>
 5   0  0.1631380E-03  0.1381492E+04  0.7818609E-02  0.8967326E-01
       -1   -1    0    0    0  501  0.00000000000E+00  0.00000000000E+00  0.34407360289E+03  0.34407360293E+03  0.50400001928E-02 0.  1.
        1   -1    0    0  501    0  0.00000000000E+00  0.00000000000E+00 -0.13867084856E+04  0.13867084856E+04  0.50400001928E-02 0. -1.
    10030    2    1    2    0    0  0.00000000000E+00  0.00000000000E+00 -0.10426348827E+04  0.17307820886E+04  0.13814916357E+04 0.  0.
        3    1    3    3  502    0  0.60628004252E+03 -0.15068642873E+03 -0.15210718628E+03  0.64297627956E+03  0.10100000352E+00 0.  1.
       -3    1    3    3    0  502 -0.60628004252E+03  0.15068642873E+03 -0.89052769646E+03  0.10878058090E+04  0.10100000352E+00 0. -1.
</event>
<event>
 5   0  0.1586022E-03  0.1404267E+04  0.7818609E-02  0.8950736E-01
       -1   -1    0    0    0  501  0.00000000000E+00  0.00000000000E+00  0.88586301024E+03  0.88586301025E+03  0.50400001928E-02 0.  1.
        1   -1    0    0  501    0  0.00000000000E+00  0.00000000000E+00 -0.55650944184E+03  0.55650944186E+03  0.50400001928E-02 0. -1.
    10030    2    1    2    0    0  0.00000000000E+00  0.00000000000E+00  0.32935356840E+03  0.14423724521E+04  0.14042665408E+04 0.  0.
        1    1    3    3  502    0  0.32711940943E+03  0.24232464748E+03 -0.42291563358E+03  0.58701445975E+03  0.50400001928E-02 0. -1.
       -1    1    3    3    0  502 -0.32711940943E+03 -0.24232464748E+03  0.75226920199E+03  0.85535799236E+03  0.50400001928E-02 0.  1.
</event>
<event>
 5   0  0.2760807E-03  0.1403563E+04  0.7818609E-02  0.8951243E-01
        2   -1    0    0  501    0  0.00000000000E+00  0.00000000000E+00  0.16700392676E+04  0.16700392677E+04  0.25500000920E-02 0.  1.
       -2   -1    0    0    0  501  0.00000000000E+00  0.00000000000E+00 -0.29490178728E+03  0.29490178729E+03  0.25500000920E-02 0. -1.
    10030    2    1    2    0    0  0.00000000000E+00  0.00000000000E+00  0.13751374804E+04  0.19649410549E+04  0.14035634148E+04 0.  0.
        4    1    3    3  502    0 -0.74902048754E+02  0.33477855226E+03  0.15446509235E+04  0.15822879271E+04  0.12699999809E+01 0.  1.
       -4    1    3    3    0  502  0.74902048754E+02 -0.33477855226E+03 -0.16951344309E+03  0.38265312785E+03  0.12699999809E+01 0. -1.
</event>
<event>
 5   0  0.2917809E-03  0.1224001E+04  0.7818609E-02  0.9092104E-01
       -2   -1    0    0    0  501  0.00000000000E+00  0.00000000000E+00  0.39865649342E+03  0.39865649342E+03  0.25500000920E-02 0. -1.
        2   -1    0    0  501    0  0.00000000000E+00  0.00000000000E+00 -0.93951729171E+03  0.93951729172E+03  0.25500000920E-02 0.  1.
    10030    2    1    2    0    0  0.00000000000E+00  0.00000000000E+00 -0.54086079830E+03  0.13381737851E+04  0.12240010932E+04 0.  0.
        2    1    3    3  502    0 -0.43651305946E+03  0.38588946773E+03 -0.47522781831E+03  0.75186156418E+03  0.25500000920E-02 0. -1.
       -2    1    3    3    0  502  0.43651305946E+03 -0.38588946773E+03 -0.65632979991E+02  0.58631222097E+03  0.25500000920E-02 0.  1.
</event>
<event>
 5   0  0.1631380E-03  0.1405140E+04  0.7818609E-02  0.8950106E-01
       -1   -1    0    0    0  501  0.00000000000E+00  0.00000000000E+00  0.86922748694E+03  0.86922748696E+03  0.50400001928E-02 0. -1.
        1   -1    0    0  501    0  0.00000000000E+00  0.00000000000E+00 -0.56786598906E+03  0.56786598908E+03  0.50400001928E-02 0.  1.
    10030    2    1    2    0    0  0.00000000000E+00  0.00000000000E+00  0.30136149788E+03  0.14370934760E+04  0.14051401732E+04 0.  0.
        3    1    3    3  502    0  0.44583093767E+03  0.31551210597E+03  0.60264819171E+03  0.81332525300E+03  0.10100000352E+00 0. -1.
       -3    1    3    3    0  502 -0.44583093767E+03 -0.31551210597E+03 -0.30128669382E+03  0.62376822304E+03  0.10100000352E+00 0.  1.
</event>
<event>
 5   0  0.2993993E-03  0.1403397E+04  0.7818609E-02  0.8951363E-01
       -2   -1    0    0    0  501  0.00000000000E+00  0.00000000000E+00  0.37577156609E+03  0.37577156610E+03  0.25500000920E-02 0.  1.
        2   -1    0    0  501    0  0.00000000000E+00  0.00000000000E+00 -0.13103203362E+04  0.13103203362E+04  0.25500000920E-02 0. -1.
    10030    2    1    2    0    0  0.00000000000E+00  0.00000000000E+00 -0.93454877012E+03  0.16860919023E+04  0.14033974844E+04 0.  0.
        3    1    3    3  502    0  0.38885962988E+03  0.33278233993E+03  0.10944633080E+03  0.52338743493E+03  0.10100000352E+00 0.  1.
       -3    1    3    3    0  502 -0.38885962988E+03 -0.33278233993E+03 -0.10439951009E+04  0.11627044674E+04  0.10100000352E+00 0. -1.
</event>
<event>
 5   0  0.1586022E-03  0.1393905E+04  0.7818609E-02  0.8958242E-01
        1   -1    0    0  501    0  0.00000000000E+00  0.00000000000E+00  0.13128308408E+04  0.13128308408E+04  0.50400001928E-02 0. -1.
       -1   -1    0    0    0  501  0.00000000000E+00  0.00000000000E+00 -0.36999630609E+03  0.36999630612E+03  0.50400001928E-02 0.  1.
    10030    2    1    2    0    0  0.00000000000E+00  0.00000000000E+00  0.94283453470E+03  0.16828271469E+04  0.13939046763E+04 0.  0.
        1    1    3    3  502    0  0.14849459936E+03 -0.58442219643E+03  0.49487626827E+02  0.60501981369E+03  0.50400001928E-02 0.  1.
       -1    1    3    3    0  502 -0.14849459936E+03  0.58442219643E+03  0.89334690788E+03  0.10778073332E+04  0.50400001928E-02 0. -1.
</event>
<event>
 5   0  0.1644571E-03  0.1404283E+04  0.7818609E-02  0.8950724E-01
        1   -1    0    0  501    0  0.00000000000E+00  0.00000000000E+00  0.16564039726E+04  0.16564039726E+04  0.50400001928E-02 0. -1.
       -1   -1    0    0    0  501  0.00000000000E+00  0.00000000000E+00 -0.29763416667E+03  0.29763416671E+03  0.50400001928E-02 0.  1.
    10030    2    1    2    0    0  0.00000000000E+00  0.00000000000E+00  0.13587698059E+04  0.19540381393E+04  0.14042826156E+04 0.  0.
        4    1    3    3  502    0 -0.23500655911E+03  0.43404148312E+03 -0.15495311852E+02  0.49382366234E+03  0.12699999809E+01 0.  1.
       -4    1    3    3    0  502  0.23500655911E+03 -0.43404148312E+03  0.13742651178E+04  0.14602144769E+04  0.12699999809E+01 0. -1.
</event>
<event>
 5   0  0.1560957E-03  0.1360304E+04  0.7818609E-02  0.8983065E-01
       -1   -1    0    0    0  501  0.00000000000E+00  0.00000000000E+00  0.10486448006E+04  0.10486448006E+04  0.50400001928E-02 0. -1.
        1   -1    0    0  501    0  0.00000000000E+00  0.00000000000E+00 -0.44114714966E+03  0.44114714969E+03  0.50400001928E-02 0.  1.
    10030    2    1    2    0    0  0.00000000000E+00  0.00000000000E+00  0.60749765096E+03  0.14897919503E+04  0.13603038849E+04 0.  0.
        5    1    3    3  502    0 -0.36655299324E+03  0.14854965586E+03  0.90973317972E+03  0.99200032530E+03  0.46999998093E+01 0. -1.
       -5    1    3    3    0  502  0.36655299324E+03 -0.14854965586E+03 -0.30223552875E+03  0.49779162503E+03  0.46999998093E+01 0.  1.
</event>
<event>
 5   0  0.2993993E-03  0.8202978E+03  0.7818609E-02  0.9531093E-01
       -2   -1    0    0    0  501  0.00000000000E+00  0.00000000000E+00  0.28746349418E+03  0.28746349419E+03  0.25500000920E-02 0.  1.
        2   -1    0    0  501    0  0.00000000000E+00  0.00000000000E+00 -0.58519466945E+03  0.58519466946E+03  0.25500000920E-02 0. -1.
    10030    2    1    2    0    0  0.00000000000E+00  0.00000000000E+00 -0.29773117527E+03  0.87265816365E+03  0.82029776171E+03 0.  0.
        3    1    3    3  502    0 -0.20356863041E+03  0.31248567616E+02 -0.52619645114E+03  0.56506581533E+03  0.10100000352E+00 0. -1.
       -3    1    3    3    0  502  0.20356863041E+03 -0.31248567616E+02  0.22846527587E+03  0.30759234832E+03  0.10100000352E+00 0.  1.
</event>
<event>
 5   0  0.1586022E-03  0.1333409E+04  0.7818609E-02  0.9003483E-01
       -1   -1    0    0    0  501  0.00000000000E+00  0.00000000000E+00  0.55598222485E+03  0.55598222487E+03  0.50400001928E-02 0.  1.
        1   -1    0    0  501    0  0.00000000000E+00  0.00000000000E+00 -0.79947680425E+03  0.79947680426E+03  0.50400001928E-02 0. -1.
    10030    2    1    2    0    0  0.00000000000E+00  0.00000000000E+00 -0.24349457940E+03  0.13554590291E+04  0.13334090031E+04 0.  0.
        1    1    3    3  502    0 -0.34579067875E+03 -0.34044828747E+03  0.34299858540E+03  0.59424259320E+03  0.50400001928E-02 0.  1.
       -1    1    3    3    0  502  0.34579067875E+03  0.34044828747E+03 -0.58649316480E+03  0.76121643594E+03  0.50400001928E-02 0. -1.
</event>
<event>
 5   0  0.3006737E-03  0.1358977E+04  0.7818609E-02  0.8984061E-01
        2   -1    0    0  501    0  0.00000000000E+00  0.00000000000E+00  0.16879813871E+04  0.16879813871E+04  0.25500000920E-02 0.  1.
       -2   -1    0    0    0  501  0.00000000000E+00  0.00000000000E+00 -0.27352451151E+03  0.27352451152E+03  0.25500000920E-02 0. -1.
    10030    2    1    2    0    0  0.00000000000E+00  0.00000000000E+00  0.14144568756E+04  0.19615058986E+04  0.13589765036E+04 0.  0.
        1    1    3    3  502    0  0.46565921464E+03  0.47047264344E+03  0.48586388829E+03  0.82112528300E+03  0.50400001928E-02 0. -1.
       -1    1    3    3    0  502 -0.46565921464E+03 -0.47047264344E+03  0.92859298727E+03  0.11403806156E+04  0.50400001928E-02 0.  1.
</event>
<event>
 5   0  0.1644571E-03  0.1413346E+04  0.7818609E-02  0.8944214E-01
       -1   -1    0    0    0  501  0.00000000000E+00  0.00000000000E+00  0.45060105523E+03  0.45060105526E+03  0.50400001928E-02 0. -1.
        1   -1    0    0  501    0  0.00000000000E+00  0.00000000000E+00 -0.11082677591E+04  0.11082677591E+04  0.50400001928E-02 0.  1.
    10030    2    1    2    0    0  0.00000000000E+00  0.00000000000E+00 -0.65766670388E+03  0.15588688144E+04  0.14133458484E+04 0.  0.
        4    1    3    3  502    0 -0.30639630266E+02  0.37237821416E+02 -0.11064496239E+04  0.11075007113E+04  0.12699999809E+01 0.  1.
       -4    1    3    3    0  502  0.30639630266E+02 -0.37237821416E+02  0.44878292004E+03  0.45136810312E+03  0.12699999809E+01 0. -1.
</event>
<event>
 5   0  0.1560957E-03  0.1417179E+04  0.7818609E-02  0.8941476E-01
        1   -1    0    0  501    0  0.00000000000E+00  0.00000000000E+00  0.10932102401E+04  0.10932102401E+04  0.50400001928E-02 0.  1.
       -1   -1    0    0    0  501  0.00000000000E+00  0.00000000000E+00 -0.45928878991E+03  0.45928878994E+03  0.50400001928E-02 0. -1.
    10030    2    1    2    0    0  0.00000000000E+00  0.00000000000E+00  0.63392145020E+03  0.15524990301E+04  0.14171791818E+04 0.  0.
        5    1    3    3  502    0 -0.37603392948E+03  0.91379237388E+02  0.96720804865E+03  0.10417606157E+04  0.46999998093E+01 0.  1.
       -5    1    3    3    0  502  0.37603392948E+03 -0.91379237388E+02 -0.33328659845E+03  0.51073841431E+03  0.46999998093E+01 0. -1.
</event>
<event>
 5   0  0.1700207E-03  0.1034925E+04  0.7818609E-02  0.9271048E-01
       -1   -1    0    0    0  501  0.00000000000E+00  0.00000000000E+00  0.47504840465E+03  0.47504840467E+03  0.50400001928E-02 0. -1.
        1   -1    0    0  501    0  0.00000000000E+00  0.00000000000E+00 -0.56366376910E+03  0.56366376912E+03  0.50400001928E-02 0.  1.
    10030    2    1    2    0    0  0.00000000000E+00  0.00000000000E+00 -0.88615364449E+02  0.10387121738E+04  0.10349252616E+04 0.  0.
        2    1    3    3  502    0 -0.22454852669E+03  0.89675537491E+02  0.41486371067E+03  0.48018292483E+03  0.25500000920E-02 0. -1.
       -2    1    3    3    0  502  0.22454852669E+03 -0.89675537491E+02 -0.50347907512E+03  0.55852924896E+03  0.25500000920E-02 0.  1.
</event>
<event>
 5   0  0.1700207E-03  0.1378139E+04  0.7818609E-02  0.8969796E-01
        1   -1    0    0  501    0  0.00000000000E+00  0.00000000000E+00  0.71723082558E+03  0.71723082560E+03  0.50400001928E-02 0. -1.
       -1   -1    0    0    0  501  0.00000000000E+00  0.00000000000E+00 -0.66201409984E+03  0.66201409986E+03  0.50400001928E-02 0.  1.
    10030    2    1    2    0    0  0.00000000000E+00  0.00000000000E+00  0.55216725744E+02  0.13792449255E+04  0.13781392083E+04 0.  0.
        2    1    3    3  502    0  0.37842709235E+03  0.48584483248E+03  0.33699172291E+03  0.70200832388E+03  0.25500000920E-02 0. -1.
       -2    1    3    3    0  502 -0.37842709235E+03 -0.48584483248E+03 -0.28177499717E+03  0.67723660157E+03  0.25500000920E-02 0.  1.
</event>
<event>
 5   0  0.1560957E-03  0.1333876E+04  0.7818609E-02  0.9003124E-01
        1   -1    0    0  501    0  0.00000000000E+00  0.00000000000E+00  0.65199405811E+03  0.65199405813E+03  0.50400001928E-02 0. -1.
       -1   -1    0    0    0  501  0.00000000000E+00  0.00000000000E+00 -0.68222428850E+03  0.68222428852E+03  0.50400001928E-02 0.  1.
    10030    2    1    2    0    0  0.00000000000E+00  0.00000000000E+00 -0.30230230396E+02  0.13342183466E+04  0.13338758299E+04 0.  0.
        5    1    3    3  502    0  0.21093901501E+03  0.12658102868E+03 -0.63516627350E+03  0.68115806526E+03  0.46999998093E+01 0.  1.
       -5    1    3    3    0  502 -0.21093901501E+03 -0.12658102868E+03  0.60493604311E+03  0.65306028139E+03  0.46999998093E+01 0. -1.
</event>
<event>
 5   0  0.2917809E-03  0.1379181E+04  0.7818609E-02  0.8969028E-01
        2   -1    0    0  501    0  0.00000000000E+00  0.00000000000E+00  0.19240524063E+04  0.19240524063E+04  0.25500000920E-02 0. -1.
       -2   -1    0    0    0  501  0.00000000000E+00  0.00000000000E+00 -0.24715296354E+03  0.24715296355E+03  0.25500000920E-02 0.  1.
    10030    2    1    2    0    0  0.00000000000E+00  0.00000000000E+00  0.16768994428E+04  0.21712053699E+04  0.13791812850E+04 0.  0.
        2    1    3    3  502    0 -0.42779749314E+02 -0.51477383330E+03  0.15576574558E+04  0.16410725018E+04  0.25500000920E-02 0. -1.
       -2    1    3    3    0  502  0.42779749314E+02  0.51477383330E+03  0.11924198699E+03  0.53013286813E+03  0.25500000920E-02 0.  1.
</event>
<event>
 5   0  0.1586022E-03  0.1354486E+04  0.7818609E-02  0.8987439E-01
       -1   -1    0    0    0  501  0.00000000000E+00  0.00000000000E+00  0.26420113052E+03  0.26420113057E+03  0.50400001928E-02 0. -1.
        1   -1    0    0  501    0  0.00000000000E+00  0.00000000000E+00 -0.17360191318E+04  0.17360191318E+04  0.50400001928E-02 0.  1.
    10030    2    1    2    0    0  0.00000000000E+00  0.00000000000E+00 -0.14718180013E+04  0.20002202624E+04  0.13544862012E+04 0.  0.
        1    1    3    3  502    0 -0.48385776657E+03  0.45044603929E+03 -0.95313622408E+03  0.11599519965E+04  0.50400001928E-02 0.  1.
       -1    1    3    3    0  502  0.48385776657E+03 -0.45044603929E+03 -0.51868177721E+03  0.84026826586E+03  0.50400001928E-02 0. -1.
</event>
<event>
 5   0  0.1586022E-03  0.1366523E+04  0.7818609E-02  0.8978414E-01
        1   -1    0    0  501    0  0.00000000000E+00  0.00000000000E+00  0.50989479633E+03  0.50989479636E+03  0.50400001928E-02 0. -1.
       -1   -1    0    0    0  501  0.00000000000E+00  0.00000000000E+00 -0.91557416532E+03  0.91557416533E+03  0.50400001928E-02 0.  1.
    10030    2    1    2    0    0  0.00000000000E+00  0.00000000000E+00 -0.40567936899E+03  0.14254689617E+04  0.13665233296E+04 0.  0.
        1    1    3    3  502    0 -0.56176823369E+03 -0.22363184124E+03  0.12908686556E+03  0.61827030309E+03  0.50400001928E-02 0. -1.
       -1    1    3    3    0  502  0.56176823369E+03  0.22363184124E+03 -0.53476623454E+03  0.80719865859E+03  0.50400001928E-02 0.  1.
</event>
<event>
 5   0  0.1586022E-03  0.1401734E+04  0.7818609E-02  0.8952565E-01
        1   -1    0    0  501    0  0.00000000000E+00  0.00000000000E+00  0.23319314975E+04  0.23319314975E+04  0.50400001928E-02 0. -1.
       -1   -1    0    0    0  501  0.00000000000E+00  0.00000000000E+00 -0.21064699788E+03  0.21064699794E+03  0.50400001928E-02 0.  1.
    10030    2    1    2    0    0  0.00000000000E+00  0.00000000000E+00  0.21212844996E+04  0.25425784955E+04  0.14017337398E+04 0.  0.
        1    1    3    3  502    0  0.38876418623E+03 -0.39854640053E+03  0.28843668680E+03  0.62703472646E+03  0.50400001928E-02 0.  1.
       -1    1    3    3    0  502 -0.38876418623E+03  0.39854640053E+03  0.18328478128E+04  0.19155437690E+04  0.50400001928E-02 0. -1.
</event>
<event>
 5   0  0.2760807E-03  0.1413476E+04  0.7818609E-02  0.8944121E-01
        2   -1    0    0  501    0  0.00000000000E+00  0.00000000000E+00  0.35566844184E+03  0.35566844185E+03  0.25500000920E-02 0. -1.
       -2   -1    0    0    0  501  0.00000000000E+00  0.00000000000E+00 -0.14043381068E+04  0.14043381068E+04  0.25500000920E-02 0.  1.
    10030    2    1    2    0    0  0.00000000000E+00  0.00000000000E+00 -0.10486696650E+04  0.17600065487E+04  0.14134762061E+04 0.  0.
        4    1    3    3  502    0  0.19325191911E+03 -0.63624042463E+03 -0.22619995859E+03  0.70236473171E+03  0.12699999809E+01 0. -1.
       -4    1    3    3    0  502 -0.19325191911E+03  0.63624042463E+03 -0.82246970641E+03  0.10576418170E+04  0.12699999809E+01 0.  1.
</event>
<event>
 5   0  0.1631380E-03  0.1365682E+04  0.7818609E-02  0.8979041E-01
        1   -1    0    0  501    0  0.00000000000E+00  0.00000000000E+00  0.53819598988E+03  0.53819598990E+03  0.50400001928E-02 0. -1.
       -1   -1    0    0    0  501  0.00000000000E+00  0.00000000000E+00 -0.86636038748E+03  0.86636038749E+03  0.50400001928E-02 0.  1.
    10030    2    1    2    0    0  0.00000000000E+00  0.00000000000E+00 -0.32816439760E+03  0.14045563774E+04  0.13656817878E+04 0.  0.
        3    1    3    3  502    0  0.11305338974E+03 -0.65682702328E+03 -0.11297559312E+02  0.66658116721E+03  0.10100000352E+00 0. -1.
       -3    1    3    3    0  502 -0.11305338974E+03  0.65682702328E+03 -0.31686683829E+03  0.73797521018E+03  0.10100000352E+00 0.  1.
</event>
<event>
 5   0  0.2760807E-03  0.1303048E+04  0.7818609E-02  0.9027152E-01
        2   -1    0    0  501    0  0.00000000000E+00  0.00000000000E+00  0.11897947094E+04  0.11897947094E+04  0.25500000920E-02 0.  1.
       -2   -1    0    0    0  501  0.00000000000E+00  0.00000000000E+00 -0.35677037801E+03  0.35677037802E+03  0.25500000920E-02 0. -1.
    10030    2    1    2    0    0  0.00000000000E+00  0.00000000000E+00  0.83302433136E+03  0.15465650874E+04  0.13030479780E+04 0.  0.
        4    1    3    3  502    0  0.54919943148E+03  0.67254358033E+02  0.82198093524E+01  0.55336456552E+03  0.12699999809E+01 0. -1.
       -4    1    3    3    0  502 -0.54919943148E+03 -0.67254358033E+02  0.82480452201E+03  0.99320052187E+03  0.12699999809E+01 0.  1.
</event>
<event>
 5   0  0.2993993E-03  0.1404338E+04  0.7818609E-02  0.8950685E-01
       -2   -1    0    0    0  501  0.00000000000E+00  0.00000000000E+00  0.18884068838E+03  0.18884068839E+03  0.25500000920E-02 0.  1.
        2   -1    0    0  501    0  0.00000000000E+00  0.00000000000E+00 -0.26108845913E+04  0.26108845913E+04  0.25500000920E-02 0. -1.
    10030    2    1    2    0    0  0.00000000000E+00  0.00000000000E+00 -0.24220439029E+04  0.27997252797E+04  0.14043379131E+04 0.  0.
        3    1    3    3  502    0  0.23072864030E+03 -0.44347143168E+03 -0.21940609996E+04  0.22502902693E+04  0.10100000352E+00 0. -1.
       -3    1    3    3    0  502 -0.23072864030E+03  0.44347143168E+03 -0.22798290330E+03  0.54943501032E+03  0.10100000352E+00 0.  1.
</event>
<event>
 5   0  0.3006737E-03  0.1360567E+04  0.7818609E-02  0.8982867E-01
        2   -1    0    0  501    0  0.00000000000E+00  0.00000000000E+00  0.51517176562E+03  0.51517176563E+03  0.25500000920E-02 0.  1.
       -2   -1    0    0    0  501  0.00000000000E+00  0.00000000000E+00 -0.89831391152E+03  0.89831391152E+03  0.25500000920E-02 0. -1.
    10030    2    1    2    0    0  0.00000000000E+00  0.00000000000E+00 -0.38314214589E+03  0.14134856771E+04  0.13605674756E+04 0.  0.
        1    1    3    3  502    0  0.69846616304E+02 -0.24622320644E+03 -0.84638894430E+03  0.88423903005E+03  0.50400001928E-02 0. -1.
       -1    1    3    3    0  502 -0.69846616304E+02  0.24622320644E+03  0.46324679841E+03  0.52924664710E+03  0.50400001928E-02 0.  1.
</event>
<event>
 5   0  0.2760807E-03  0.1327804E+04  0.7818609E-02  0.9007802E-01
       -2   -1    0    0    0  501  0.00000000000E+00  0.00000000000E+00  0.17469659616E+03  0.17469659618E+03  0.25500000920E-02 0.  1.
        2   -1    0    0  501    0  0.00000000000E+00  0.00000000000E+00 -0.25230377970E+04  0.25230377970E+04  0.25500000920E-02 0. -1.
    10030    2    1    2    0    0  0.00000000000E+00  0.00000000000E+00 -0.23483412009E+04  0.26977343932E+04  0.13278043759E+04 0.  0.
        4    1    3    3  502    0  0.22459276883E+03  0.61209565042E+03 -0.14284328250E+04  0.15701990146E+04  0.12699999809E+01 0.  1.
       -4    1    3    3    0  502 -0.22459276883E+03 -0.61209565042E+03 -0.91990837589E+03  0.11275353786E+04  0.12699999809E+01 0. -1.
</event>
<event>
 5   0  0.1631380E-03  0.1379379E+04  0.7818609E-02  0.8968882E-01
        1   -1    0    0  501    0  0.00000000000E+00  0.00000000000E+00  0.71649305861E+03  0.71649305863E+03  0.50400001928E-02 0. -1.
       -1   -1    0    0    0  501  0.00000000000E+00  0.00000000000E+00 -0.66388875281E+03  0.66388875283E+03  0.50400001928E-02 0.  1.
    10030    2    1    2    0    0  0.00000000000E+00  0.00000000000E+00  0.52604305798E+02  0.13803818115E+04  0.13793791112E+04 0.  0.
        3    1    3    3  502    0  0.64326619541E+02 -0.12648259676E+03 -0.64912247650E+03  0.66445147374E+03  0.10100000352E+00 0.  1.
       -3    1    3    3    0  502 -0.64326619541E+02  0.12648259676E+03  0.70172678229E+03  0.71593033771E+03  0.10100000352E+00 0. -1.
</event>
<event>
 5   0  0.2993993E-03  0.1674935E+04  0.7818609E-02  0.8775791E-01
        2   -1    0    0  501    0  0.00000000000E+00  0.00000000000E+00  0.50776330954E+03  0.50776330954E+03  0.25500000920E-02 0. -1.
       -2   -1    0    0    0  501  0.00000000000E+00  0.00000000000E+00 -0.13812567662E+04  0.13812567662E+04  0.25500000920E-02 0.  1.
    10030    2    1    2    0    0  0.00000000000E+00  0.00000000000E+00 -0.87349345662E+03  0.18890200757E+04  0.16749346338E+04 0.  0.
        3    1    3    3  502    0 -0.76587817649E+03  0.30715028120E+03 -0.27550112925E+03  0.86994917029E+03  0.10100000352E+00 0. -1.
       -3    1    3    3    0  502  0.76587817649E+03 -0.30715028120E+03 -0.59799232737E+03  0.10190709054E+04  0.10100000352E+00 0.  1.
</event>
<event>
 5   0  0.1631380E-03  0.1385851E+04  0.7818609E-02  0.8964125E-01
        1   -1    0    0  501    0  0.00000000000E+00  0.00000000000E+00  0.10318919704E+04  0.10318919704E+04  0.50400001928E-02 0.  1.
       -1   -1    0    0    0  501  0.00000000000E+00  0.00000000000E+00 -0.46530605978E+03  0.46530605981E+03  0.50400001928E-02 0. -1.
    10030    2    1    2    0    0  0.00000000000E+00  0.00000000000E+00  0.56658591061E+03  0.14971980302E+04  0.13858507667E+04 0.  0.
        3    1    3    3  502    0  0.56752234696E+03  0.29587510933E+03 -0.36031996037E+01  0.64002866175E+03  0.10100000352E+00 0. -1.
       -3    1    3    3    0  502 -0.56752234696E+03 -0.29587510933E+03  0.57018911022E+03  0.85716936846E+03  0.10100000352E+00 0.  1.
</event>
<event>
 5   0  0.2760807E-03  0.1469542E+04  0.7818609E-02  0.8904964E-01
       -2   -1    0    0    0  501  0.00000000000E+00  0.00000000000E+00  0.36516314335E+03  0.36516314336E+03  0.25500000920E-02 0. -1.
        2   -1    0    0  501    0  0.00000000000E+00  0.00000000000E+00 -0.14784855810E+04  0.14784855810E+04  0.25500000920E-02 0.  1.
    10030    2    1    2    0    0  0.00000000000E+00  0.00000000000E+00 -0.11133224377E+04  0.18436487244E+04  0.14695420269E+04 0.  0.
        4    1    3    3  502    0  0.29060040899E+03  0.40567879210E+03  0.11995182841E+03  0.51323867168E+03  0.12699999809E+01 0. -1.
       -4    1    3    3    0  502 -0.29060040899E+03 -0.40567879210E+03 -0.12332742661E+04  0.13304100527E+04  0.12699999809E+01 0.  1.
</event>
<event>
 5   0  0.2917809E-03  0.1389077E+04  0.7818609E-02  0.8961763E-01
       -2   -1    0    0    0  501  0.00000000000E+00  0.00000000000E+00  0.80486794722E+03  0.80486794722E+03  0.25500000920E-02 0. -1.
        2   -1    0    0  501    0  0.00000000000E+00  0.00000000000E+00 -0.59933286360E+03  0.59933286360E+03  0.25500000920E-02 0.  1.
    10030    2    1    2    0    0  0.00000000000E+00  0.00000000000E+00  0.20553508362E+03  0.14042008108E+04  0.13890771204E+04 0.  0.
        2    1    3    3  502    0  0.66185575190E+03  0.20593360889E+03  0.14708691048E+03  0.70858750119E+03  0.25500000920E-02 0. -1.
       -2    1    3    3    0  502 -0.66185575190E+03 -0.20593360889E+03  0.58448173136E+02  0.69561330964E+03  0.25500000920E-02 0.  1.
</event>
<event>
 5   0  0.3006737E-03  0.1403290E+04  0.7818609E-02  0.8951441E-01
       -2   -1    0    0    0  501  0.00000000000E+00  0.00000000000E+00  0.63213909971E+03  0.63213909971E+03  0.25500000920E-02 0.  1.
        2   -1    0    0  501    0  0.00000000000E+00  0.00000000000E+00 -0.77879314658E+03  0.77879314659E+03  0.25500000920E-02 0. -1.
    10030    2    1    2    0    0  0.00000000000E+00  0.00000000000E+00 -0.14665404687E+03  0.14109322463E+04  0.14032898468E+04 0.  0.
        1    1    3    3  502    0 -0.40009934555E+03 -0.10119707014E+03  0.49720072938E+03  0.64616476121E+03  0.50400001928E-02 0.  1.
       -1    1    3    3    0  502  0.40009934555E+03  0.10119707014E+03 -0.64385477625E+03  0.76476748508E+03  0.50400001928E-02 0. -1.
</event>
<event>
 5   0  0.2993993E-03  0.1552484E+04  0.7818609E-02  0.8850283E-01
        2   -1    0    0  501    0  0.00000000000E+00  0.00000000000E+00  0.16236987143E+04  0.16236987143E+04  0.25500000920E-02 0. -1.
       -2   -1    0    0    0  501  0.00000000000E+00  0.00000000000E+00 -0.37109824470E+03  0.37109824471E+03  0.25500000920E-02 0.  1.
    10030    2    1    2    0    0  0.00000000000E+00  0.00000000000E+00  0.12526004696E+04  0.19947969590E+04  0.15524841292E+04 0.  0.
        3    1    3    3  502    0  0.58640549139E+03  0.46630104311E+03  0.36535451524E+03  0.83354183766E+03  0.10100000352E+00 0.  1.
       -3    1    3    3    0  502 -0.58640549139E+03 -0.46630104311E+03  0.88724595440E+03  0.11612551214E+04  0.10100000352E+00 0. -1.
</event>
<event>
 5   0  0.2917809E-03  0.1450649E+04  0.7818609E-02  0.8917950E-01
        2   -1    0    0  501    0  0.00000000000E+00  0.00000000000E+00  0.14601221766E+04  0.14601221766E+04  0.25500000920E-02 0.  1.
       -2   -1    0    0    0  501  0.00000000000E+00  0.00000000000E+00 -0.36030956645E+03  0.36030956646E+03  0.25500000920E-02 0. -1.
    10030    2    1    2    0    0  0.00000000000E+00  0.00000000000E+00  0.10998126101E+04  0.18204317431E+04  0.14506494937E+04 0.  0.
        2    1    3    3  502    0  0.48081735070E+03  0.35737740612E+03  0.10630272291E+04  0.12202175318E+04  0.25500000920E-02 0.  1.
       -2    1    3    3    0  502 -0.48081735070E+03 -0.35737740612E+03  0.36785381076E+02  0.60021421127E+03  0.25500000920E-02 0. -1.
</event>
<event>
 5   0  0.1700207E-03  0.1335943E+04  0.7818609E-02  0.9001538E-01
       -1   -1    0    0    0  501  0.00000000000E+00  0.00000000000E+00  0.50773010590E+03  0.50773010592E+03  0.50400001928E-02 0.  1.
        1   -1    0    0  501    0  0.00000000000E+00  0.00000000000E+00 -0.87878569580E+03  0.87878569581E+03  0.50400001928E-02 0. -1.
    10030    2    1    2    0    0  0.00000000000E+00  0.00000000000E+00 -0.37105558990E+03  0.13865158017E+04  0.13359430443E+04 0.  0.
        2    1    3    3  502    0 -0.65940872277E+03  0.45718204368E+01 -0.74981866430E+02  0.66367389997E+03  0.25500000920E-02 0.  1.
       -2    1    3    3    0  502  0.65940872277E+03 -0.45718204368E+01 -0.29607372347E+03  0.72284190176E+03  0.25500000920E-02 0. -1.
</event>
<event>
 5   0  0.1700207E-03  0.1430583E+04  0.7818609E-02  0.8931974E-01
       -1   -1    0    0    0  501  0.00000000000E+00  0.00000000000E+00  0.97513869806E+03  0.97513869808E+03  0.50400001928E-02 0. -1.
        1   -1    0    0  501    0  0.00000000000E+00  0.00000000000E+00 -0.52468621274E+03  0.52468621277E+03  0.50400001928E-02 0.  1.
    10030    2    1    2    0    0  0.00000000000E+00  0.00000000000E+00  0.45045248532E+03  0.14998249108E+04  0.14305828608E+04 0.  0.
        2    1    3    3  502    0  0.51579588191E+03 -0.27278693389E+03 -0.20854302991E+03  0.61963561746E+03  0.25500000920E-02 0.  1.
       -2    1    3    3    0  502 -0.51579588191E+03  0.27278693389E+03  0.65899551523E+03  0.88018929338E+03  0.25500000920E-02 0. -1.
</event>
<event>
 5   0  0.1644571E-03  0.1297861E+04  0.7818609E-02  0.9031263E-01
        1   -1    0    0  501    0  0.00000000000E+00  0.00000000000E+00  0.18270382400E+04  0.18270382400E+04  0.50400001928E-02 0. -1.
       -1   -1    0    0    0  501  0.00000000000E+00  0.00000000000E+00 -0.23048814118E+03  0.23048814124E+03  0.50400001928E-02 0.  1.
    10030    2    1    2    0    0  0.00000000000E+00  0.00000000000E+00  0.15965500988E+04  0.20575263812E+04  0.12978607751E+04 0.  0.
        4    1    3    3  502    0  0.75113640091E+02 -0.14188502268E+03  0.17950572551E+04  0.18022224004E+04  0.12699999809E+01 0. -1.
       -4    1    3    3    0  502 -0.75113640091E+02  0.14188502268E+03 -0.19850715633E+03  0.25530398078E+03  0.12699999809E+01 0.  1.
</event>
<event>
 5   0  0.1560957E-03  0.1427662E+04  0.7818609E-02  0.8934035E-01
        1   -1    0    0  501    0  0.00000000000E+00  0.00000000000E+00  0.90643734090E+03  0.90643734091E+03  0.50400001928E-02 0.  1.
       -1   -1    0    0    0  501  0.00000000000E+00  0.00000000000E+00 -0.56215092884E+03  0.56215092887E+03  0.50400001928E-02 0. -1.
    10030    2    1    2    0    0  0.00000000000E+00  0.00000000000E+00  0.34428641206E+03  0.14685882698E+04  0.14276618551E+04 0.  0.
        5    1    3    3  502    0  0.62570099725E+03  0.25325571636E+03 -0.66658864404E+02  0.67831090956E+03  0.46999998093E+01 0. -1.
       -5    1    3    3    0  502 -0.62570099725E+03 -0.25325571636E+03  0.41094527646E+03  0.79027736022E+03  0.46999998093E+01 0.  1.
</event>
<event>
 5   0  0.1560957E-03  0.1363353E+04  0.7818609E-02  0.8980781E-01
       -1   -1    0    0    0  501  0.00000000000E+00  0.00000000000E+00  0.73038656667E+03  0.73038656668E+03  0.50400001928E-02 0.  1.
        1   -1    0    0  501    0  0.00000000000E+00  0.00000000000E+00 -0.63621480891E+03  0.63621480893E+03  0.50400001928E-02 0. -1.
    10030    2    1    2    0    0  0.00000000000E+00  0.00000000000E+00  0.94171757756E+02  0.13666013756E+04  0.13633528523E+04 0.  0.
        5    1    3    3  502    0 -0.20881231425E+03  0.33887080239E+03 -0.50760836690E+03  0.64507700892E+03  0.46999998093E+01 0. -1.
       -5    1    3    3    0  502  0.20881231425E+03 -0.33887080239E+03  0.60178012466E+03  0.72152436669E+03  0.46999998093E+01 0.  1.
</event>
<event>
 5   0  0.2993993E-03  0.1395060E+04  0.7818609E-02  0.8957402E-01
        2   -1    0    0  501    0  0.00000000000E+00  0.00000000000E+00  0.35444246547E+03  0.35444246547E+03  0.25500000920E-02 0. -1.
       -2   -1    0    0    0  501  0.00000000000E+00  0.00000000000E+00 -0.13727144457E+04  0.13727144457E+04  0.25500000920E-02 0.  1.
    10030    2    1    2    0    0  0.00000000000E+00  0.00000000000E+00 -0.10182719803E+04  0.17271569112E+04  0.13950602747E+04 0.  0.
        3    1    3    3  502    0  0.34299555289E+03 -0.25615063197E+03 -0.11909521432E+04  0.12655536785E+04  0.10100000352E+00 0.  1.
       -3    1    3    3    0  502 -0.34299555289E+03  0.25615063197E+03  0.17268016295E+03  0.46160323270E+03  0.10100000352E+00 0. -1.
</event>
<event>
 5   0  0.2993993E-03  0.1351499E+04  0.7818609E-02  0.8989694E-01
        2   -1    0    0  501    0  0.00000000000E+00  0.00000000000E+00  0.16326063600E+04  0.16326063600E+04  0.25500000920E-02 0. -1.
       -2   -1    0    0    0  501  0.00000000000E+00  0.00000000000E+00 -0.27969843576E+03  0.27969843577E+03  0.25500000920E-02 0.  1.
    10030    2    1    2    0    0  0.00000000000E+00  0.00000000000E+00  0.13529079243E+04  0.19123047958E+04  0.13514990864E+04 0.  0.
        3    1    3    3  502    0  0.34023676130E+03 -0.22635598490E+03 -0.85046443988E+02  0.41740986270E+03  0.10100000352E+00 0.  1.
       -3    1    3    3    0  502 -0.34023676130E+03  0.22635598490E+03  0.14379543683E+04  0.14948949331E+04  0.10100000352E+00 0. -1.
</event>
<event>
 5   0  0.1560957E-03  0.1180083E+04  0.7818609E-02  0.9130471E-01
        1   -1    0    0  501    0  0.00000000000E+00  0.00000000000E+00  0.22765473984E+04  0.22765473984E+04  0.50400001928E-02 0. -1.
       -1   -1    0    0    0  501  0.00000000000E+00  0.00000000000E+00 -0.15292844543E+03  0.15292844552E+03  0.50400001928E-02 0.  1.
    10030    2    1    2    0    0  0.00000000000E+00  0.00000000000E+00  0.21236189530E+04  0.24294758439E+04  0.11800828017E+04 0.  0.
        5    1    3    3  502    0 -0.31350022507E+03 -0.15271482730E+03  0.20416509777E+04  0.20712230720E+04  0.46999998093E+01 0. -1.
       -5    1    3    3    0  502  0.31350022507E+03  0.15271482730E+03  0.81967975333E+02  0.35825277190E+03  0.46999998093E+01 0.  1.
</event>
<event>
 5   0  0.3006737E-03  0.1395340E+04  0.7818609E-02  0.8957199E-01
        2   -1    0    0  501    0  0.00000000000E+00  0.00000000000E+00  0.97870299637E+03  0.97870299637E+03  0.25500000920E-02 0.  1.
       -2   -1    0    0    0  501  0.00000000000E+00  0.00000000000E+00 -0.49733485404E+03  0.49733485404E+03  0.25500000920E-02 0. -1.
    10030    2    1    2    0    0  0.00000000000E+00  0.00000000000E+00  0.48136814233E+03  0.14760378504E+04  0.13953395456E+04 0.  0.
        1    1    3    3  502    0  0.15415401600E+03 -0.18092718372E+03  0.93454991619E+03  0.96430371374E+03  0.50400001928E-02 0.  1.
       -1    1    3    3    0  502 -0.15415401600E+03  0.18092718372E+03 -0.45318177386E+03  0.51173413668E+03  0.50400001928E-02 0. -1.
</event>
<event>
 5   0  0.1700207E-03  0.1332407E+04  0.7818609E-02  0.9004254E-01
        1   -1    0    0  501    0  0.00000000000E+00  0.00000000000E+00  0.50102321535E+03  0.50102321537E+03  0.50400001928E-02 0.  1.
       -1   -1    0    0    0  501  0.00000000000E+00  0.00000000000E+00 -0.88584135869E+03  0.88584135871E+03  0.50400001928E-02 0. -1.
    10030    2    1    2    0    0  0.00000000000E+00  0.00000000000E+00 -0.38481814335E+03  0.13868645741E+04  0.13324069736E+04 0.  0.
        2    1    3    3  502    0 -0.50612425665E+03  0.43300733761E+03 -0.17883903394E+03  0.68966696141E+03  0.25500000920E-02 0.  1.
       -2    1    3    3    0  502  0.50612425665E+03 -0.43300733761E+03 -0.20597910941E+03  0.69719761267E+03  0.25500000920E-02 0. -1.
</event>
<event>
 5   0  0.2993993E-03  0.1356307E+04  0.7818609E-02  0.8986067E-01
       -2   -1    0    0    0  501  0.00000000000E+00  0.00000000000E+00  0.60578435194E+03  0.60578435195E+03  0.25500000920E-02 0. -1.
        2   -1    0    0  501    0  0.00000000000E+00  0.00000000000E+00 -0.75916840436E+03  0.75916840436E+03  0.25500000920E-02 0.  1.
    10030    2    1    2    0    0  0.00000000000E+00  0.00000000000E+00 -0.15338405241E+03  0.13649527563E+04  0.13563072511E+04 0.  0.
        3    1    3    3  502    0  0.11888370993E+03  0.36739143518E+03  0.48434023166E+03  0.61943141133E+03  0.10100000352E+00 0. -1.
       -3    1    3    3    0  502 -0.11888370993E+03 -0.36739143518E+03 -0.63772428407E+03  0.74552134499E+03  0.10100000352E+00 0.  1.
</event>
<event>
 5   0  0.2760807E-03  0.1405581E+04  0.7818609E-02  0.8949789E-01
        2   -1    0    0  501    0  0.00000000000E+00  0.00000000000E+00  0.10960776953E+04  0.10960776953E+04  0.25500000920E-02 0. -1.
       -2   -1    0    0    0  501  0.00000000000E+00  0.00000000000E+00 -0.45061969811E+03  0.45061969812E+03  0.25500000920E-02 0.  1.
    10030    2    1    2    0    0  0.00000000000E+00  0.00000000000E+00  0.64545799723E+03  0.15466973935E+04  0.14055805920E+04 0.  0.
        4    1    3    3  502    0 -0.24724744774E+02 -0.50006707777E+02 -0.44817827937E+03  0.45163853558E+03  0.12699999809E+01 0.  1.
       -4    1    3    3    0  502  0.24724744774E+02  0.50006707777E+02  0.10936362766E+04  0.10950588579E+04  0.12699999809E+01 0. -1.
</event>
<event>
 5   0  0.2889469E-03  0.1404848E+04  0.7818609E-02  0.8950317E-01
       -2   -1    0    0    0  501  0.00000000000E+00  0.00000000000E+00  0.39409791362E+03  0.39409791363E+03  0.25500000920E-02 0. -1.
        2   -1    0    0  501    0  0.00000000000E+00  0.00000000000E+00 -0.12519716293E+04  0.12519716293E+04  0.25500000920E-02 0.  1.
    10030    2    1    2    0    0  0.00000000000E+00  0.00000000000E+00 -0.85787371566E+03  0.16460695429E+04  0.14048479021E+04 0.  0.
        5    1    3    3  502    0 -0.29906578478E+03  0.52634451080E+03 -0.84633162052E+03  0.10405662831E+04  0.46999998093E+01 0.  1.
       -5    1    3    3    0  502  0.29906578478E+03 -0.52634451080E+03 -0.11542095141E+02  0.60550325980E+03  0.46999998093E+01 0. -1.
</event>
<event>
 5   0  0.1586022E-03  0.1313235E+04  0.7818609E-02  0.9019135E-01
       -1   -1    0    0    0  501  0.00000000000E+00  0.00000000000E+00  0.30464726984E+03  0.30464726989E+03  0.50400001928E-02 0.  1.
        1   -1    0    0  501    0  0.00000000000E+00  0.00000000000E+00 -0.14152318522E+04  0.14152318522E+04  0.50400001928E-02 0. -1.
    10030    2    1    2    0    0  0.00000000000E+00  0.00000000000E+00 -0.11105845824E+04  0.17198791221E+04  0.13132349676E+04 0.  0.
        1    1    3    3  502    0  0.16363178958E+03 -0.24758771105E+03  0.21180031400E+03  0.36460171456E+03  0.50400001928E-02 0.  1.
       -1    1    3    3    0  502 -0.16363178958E+03  0.24758771105E+03 -0.13223848964E+04  0.13552774076E+04  0.50400001928E-02 0. -1.
</event>
<event>
 5   0  0.1631380E-03  0.1401420E+04  0.7818609E-02  0.8952791E-01
       -1   -1    0    0    0  501  0.00000000000E+00  0.00000000000E+00  0.60965032796E+03  0.60965032798E+03  0.50400001928E-02 0.  1.
        1   -1    0    0  501    0  0.00000000000E+00  0.00000000000E+00 -0.80537072481E+03  0.80537072482E+03  0.50400001928E-02 0. -1.
    10030    2    1    2    0    0  0.00000000000E+00  0.00000000000E+00 -0.19572039685E+03  0.14150210528E+04  0.14014200320E+04 0.  0.
        3    1    3    3  502    0 -0.11000643592E+03  0.29173459679E+03  0.53575214247E+03  0.61987164741E+03  0.10100000352E+00 0.  1.
       -3    1    3    3    0  502  0.11000643592E+03 -0.29173459679E+03 -0.73147253932E+03  0.79514940539E+03  0.10100000352E+00 0. -1.
</event>
<event>
 5   0  0.1644571E-03  0.1425307E+04  0.7818609E-02  0.8935701E-01
        1   -1    0    0  501    0  0.00000000000E+00  0.00000000000E+00  0.95502828677E+03  0.95502828678E+03  0.50400001928E-02 0.  1.
       -1   -1    0    0    0  501  0.00000000000E+00  0.00000000000E+00 -0.53179039038E+03  0.53179039041E+03  0.50400001928E-02 0. -1.
    10030    2    1    2    0    0  0.00000000000E+00  0.00000000000E+00  0.42323789639E+03  0.14868186772E+04  0.14253067957E+04 0.  0.
        4    1    3    3  502    0 -0.24614394738E+03 -0.13197718580E+03  0.89555804244E+03  0.93809948336E+03  0.12699999809E+01 0.  1.
       -4    1    3    3    0  502  0.24614394738E+03  0.13197718580E+03 -0.47232014606E+03  0.54871919382E+03  0.12699999809E+01 0. -1.
</event>
<event>
 5   0  0.1560957E-03  0.1406657E+04  0.7818609E-02  0.8949014E-01
        1   -1    0    0  501    0  0.00000000000E+00  0.00000000000E+00  0.88356955767E+03  0.88356955769E+03  0.50400001928E-02 0. -1.
       -1   -1    0    0    0  501  0.00000000000E+00  0.00000000000E+00 -0.55985521321E+03  0.55985521324E+03  0.50400001928E-02 0.  1.
    10030    2    1    2    0    0  0.00000000000E+00  0.00000000000E+00  0.32371434446E+03  0.14434247709E+04  0.14066570629E+04 0.  0.
        5    1    3    3  502    0  0.37885035346E+03  0.57749318387E+03  0.25635747865E+02  0.69116224528E+03  0.46999998093E+01 0. -1.
       -5    1    3    3    0  502 -0.37885035346E+03 -0.57749318387E+03  0.29807859659E+03  0.75226252564E+03  0.46999998093E+01 0.  1.
</event>
<event>
 5   0  0.2993993E-03  0.1475068E+04  0.7818609E-02  0.8901204E-01
       -2   -1    0    0    0  501  0.00000000000E+00  0.00000000000E+00  0.12020161086E+04  0.12020161086E+04  0.25500000920E-02 0.  1.
        2   -1    0    0  501    0  0.00000000000E+00  0.00000000000E+00 -0.45253676861E+03  0.45253676862E+03  0.25500000920E-02 0. -1.
    10030    2    1    2    0    0  0.00000000000E+00  0.00000000000E+00  0.74947933999E+03  0.16545528772E+04  0.14750681145E+04 0.  0.
        3    1    3    3  502    0  0.32735463277E+03 -0.30301392939E+03 -0.28407651876E+03  0.52884589032E+03  0.10100000352E+00 0. -1.
       -3    1    3    3    0  502 -0.32735463277E+03  0.30301392939E+03  0.10335558587E+04  0.11257069869E+04  0.10100000352E+00 0.  1.
</event>
<event>
 5   0  0.1700207E-03  0.1371636E+04  0.7818609E-02  0.8974610E-01
        1   -1    0    0  501    0  0.00000000000E+00  0.00000000000E+00  0.14863988960E+04  0.14863988960E+04  0.50400001928E-02 0.  1.
       -1   -1    0    0    0  501  0.00000000000E+00  0.00000000000E+00 -0.31643339878E+03  0.31643339882E+03  0.50400001928E-02 0. -1.
    10030    2    1    2    0    0  0.00000000000E+00  0.00000000000E+00  0.11699654973E+04  0.18028322949E+04  0.13716358914E+04 0.  0.
        2    1    3    3  502    0 -0.18601977156E+03  0.59995790313E+03  0.94683578601E+03  0.11362441844E+04  0.25500000920E-02 0. -1.
       -2    1    3    3    0  502  0.18601977156E+03 -0.59995790313E+03  0.22312971125E+03  0.66658811045E+03  0.25500000920E-02 0.  1.
</event>
<event>
 5   0  0.1644571E-03  0.1269835E+04  0.7818609E-02  0.9053835E-01
       -1   -1    0    0    0  501  0.00000000000E+00  0.00000000000E+00  0.47209914488E+03  0.47209914490E+03  0.50400001928E-02 0. -1.
        1   -1    0    0  501    0  0.00000000000E+00  0.00000000000E+00 -0.85388854461E+03  0.85388854462E+03  0.50400001928E-02 0.  1.
    10030    2    1    2    0    0  0.00000000000E+00  0.00000000000E+00 -0.38178939973E+03  0.13259876895E+04  0.12698347164E+04 0.  0.
        4    1    3    3  502    0  0.31699496496E+03 -0.22547391124E+03 -0.71487518263E+03  0.81386266170E+03  0.12699999809E+01 0.  1.
       -4    1    3    3    0  502 -0.31699496496E+03  0.22547391124E+03  0.33308578290E+03  0.51212502783E+03  0.12699999809E+01 0. -1.
</event>
<event>
 5   0  0.1631380E-03  0.1540580E+04  0.7818609E-02  0.8857907E-01
       -1   -1    0    0    0  501  0.00000000000E+00  0.00000000000E+00  0.48680502947E+03  0.48680502950E+03  0.50400001928E-02 0. -1.
        1   -1    0    0  501    0  0.00000000000E+00  0.00000000000E+00 -0.12188590913E+04  0.12188590913E+04  0.50400001928E-02 0.  1.
    10030    2    1    2    0    0  0.00000000000E+00  0.00000000000E+00 -0.73205406186E+03  0.17056641208E+04  0.15405800673E+04 0.  0.
        3    1    3    3  502    0  0.19732140031E+03  0.57698532488E+02  0.45586979132E+03  0.50008212577E+03  0.10100000352E+00 0. -1.
       -3    1    3    3    0  502 -0.19732140031E+03 -0.57698532488E+02 -0.11879238532E+04  0.12055819951E+04  0.10100000352E+00 0.  1.
</event>
<event>
 5   0  0.1644571E-03  0.1409815E+04  0.7818609E-02  0.8946745E-01
        1   -1    0    0  501    0  0.00000000000E+00  0.00000000000E+00  0.11308972131E+04  0.11308972131E+04  0.50400001928E-02 0.  1.
       -1   -1    0    0    0  501  0.00000000000E+00  0.00000000000E+00 -0.43938055653E+03  0.43938055656E+03  0.50400001928E-02 0. -1.
    10030    2    1    2    0    0  0.00000000000E+00  0.00000000000E+00  0.69151665653E+03  0.15702777696E+04  0.14098145224E+04 0.  0.
        4    1    3    3  502    0 -0.69270224228E+03  0.98772551967E+02  0.25059218015E+03  0.74322975394E+03  0.12699999809E+01 0. -1.
       -4    1    3    3    0  502  0.69270224228E+03 -0.98772551967E+02  0.44092447638E+03  0.82704801569E+03  0.12699999809E+01 0.  1.
</event>
<event>
 5   0  0.2917809E-03  0.1413983E+04  0.7818609E-02  0.8943759E-01
        2   -1    0    0  501    0  0.00000000000E+00  0.00000000000E+00  0.89106778837E+03  0.89106778838E+03  0.25500000920E-02 0.  1.
       -2   -1    0    0    0  501  0.00000000000E+00  0.00000000000E+00 -0.56094146910E+03  0.56094146911E+03  0.25500000920E-02 0. -1.
    10030    2    1    2    0    0  0.00000000000E+00  0.00000000000E+00  0.33012631927E+03  0.14520092575E+04  0.14139828490E+04 0.  0.
        2    1    3    3  502    0  0.28002012496E+01  0.69009687668E+03  0.32280187798E+03  0.76186783156E+03  0.25500000920E-02 0.  1.
       -2    1    3    3    0  502 -0.28002012496E+01 -0.69009687668E+03  0.73244412935E+01  0.69014142593E+03  0.25500000920E-02 0. -1.
</event>
<event>
 5   0  0.2889469E-03  0.1367751E+04  0.7818609E-02  0.8977499E-01
       -2   -1    0    0    0  501  0.00000000000E+00  0.00000000000E+00  0.34049895056E+03  0.34049895057E+03  0.25500000920E-02 0. -1.
        2   -1    0    0  501    0  0.00000000000E+00  0.00000000000E+00 -0.13735298457E+04  0.13735298457E+04  0.25500000920E-02 0.  1.
    10030    2    1    2    0    0  0.00000000000E+00  0.00000000000E+00 -0.10330308951E+04  0.17140287962E+04  0.13677506659E+04 0.  0.
        5    1    3    3  502    0  0.84380109844E+02 -0.27809952808E+03 -0.12922733587E+04  0.13245572370E+04  0.46999998093E+01 0.  1.
       -5    1    3    3    0  502 -0.84380109844E+02  0.27809952808E+03  0.25924246366E+03  0.38947155919E+03  0.46999998093E+01 0. -1.
</event>
<event>
 5   0  0.2993993E-03  0.1351301E+04  0.7818609E-02  0.8989844E-01
       -2   -1    0    0    0  501  0.00000000000E+00  0.00000000000E+00  0.33955570688E+03  0.33955570689E+03  0.25500000920E-02 0.  1.
        2   -1    0    0  501    0  0.00000000000E+00  0.00000000000E+00 -0.13444145876E+04  0.13444145876E+04  0.25500000920E-02 0. -1.
    10030    2    1    2    0    0  0.00000000000E+00  0.00000000000E+00 -0.10048588807E+04  0.16839702945E+04  0.13513010703E+04 0.  0.
        3    1    3    3  502    0 -0.42857600748E+03 -0.48655374629E+03 -0.73917723062E+03  0.98325730645E+03  0.10100000352E+00 0.  1.
       -3    1    3    3    0  502  0.42857600748E+03  0.48655374629E+03 -0.26568165011E+03  0.70071298805E+03  0.10100000352E+00 0. -1.
</event>
<event>
 5   0  0.2889469E-03  0.1417769E+04  0.7818609E-02  0.8941056E-01
        2   -1    0    0  501    0  0.00000000000E+00  0.00000000000E+00  0.21559247161E+04  0.21559247161E+04  0.25500000920E-02 0. -1.
       -2   -1    0    0    0  501  0.00000000000E+00  0.00000000000E+00 -0.23308653239E+03  0.23308653240E+03  0.25500000920E-02 0.  1.
    10030    2    1    2    0    0  0.00000000000E+00  0.00000000000E+00  0.19228381837E+04  0.23890112485E+04  0.14177686923E+04 0.  0.
        5    1    3    3  502    0  0.59575597297E+03  0.80333378645E+02  0.32842246499E+03  0.68502703345E+03  0.46999998093E+01 0. -1.
       -5    1    3    3    0  502 -0.59575597297E+03 -0.80333378645E+02  0.15944157188E+04  0.17039842151E+04  0.46999998093E+01 0.  1.
</event>
<event>
 5   0  0.1644571E-03  0.1387020E+04  0.7818609E-02  0.8963268E-01
        1   -1    0    0  501    0  0.00000000000E+00  0.00000000000E+00  0.11841702836E+04  0.11841702836E+04  0.50400001928E-02 0.  1.
       -1   -1    0    0    0  501  0.00000000000E+00  0.00000000000E+00 -0.40615466100E+03  0.40615466103E+03  0.50400001928E-02 0. -1.
    10030    2    1    2    0    0  0.00000000000E+00  0.00000000000E+00  0.77801562263E+03  0.15903249447E+04  0.13870202308E+04 0.  0.
        4    1    3    3  502    0 -0.28302531146E+03  0.87397182858E+02 -0.32997258543E+03  0.44342430530E+03  0.12699999809E+01 0. -1.
       -4    1    3    3    0  502  0.28302531146E+03 -0.87397182858E+02  0.11079882081E+04  0.11469006394E+04  0.12699999809E+01 0.  1.
</event>
<event>
 5   0  0.1631380E-03  0.1425770E+04  0.7818609E-02  0.8935373E-01
        1   -1    0    0  501    0  0.00000000000E+00  0.00000000000E+00  0.59805727382E+03  0.59805727384E+03  0.50400001928E-02 0.  1.
       -1   -1    0    0    0  501  0.00000000000E+00  0.00000000000E+00 -0.84975964275E+03  0.84975964277E+03  0.50400001928E-02 0. -1.
    10030    2    1    2    0    0  0.00000000000E+00  0.00000000000E+00 -0.25170236893E+03  0.14478169166E+04  0.14257698768E+04 0.  0.
        3    1    3    3  502    0  0.17096393476E+03  0.17937555124E+03  0.55291644041E+03  0.60590498896E+03  0.10100000352E+00 0.  1.
       -3    1    3    3    0  502 -0.17096393476E+03 -0.17937555124E+03 -0.80461880934E+03  0.84191192765E+03  0.10100000352E+00 0. -1.
</event>
<event>
 5   0  0.1631380E-03  0.1466050E+04  0.7818609E-02  0.8907348E-01
       -1   -1    0    0    0  501  0.00000000000E+00  0.00000000000E+00  0.48603252294E+03  0.48603252296E+03  0.50400001928E-02 0. -1.
        1   -1    0    0  501    0  0.00000000000E+00  0.00000000000E+00 -0.11055350829E+04  0.11055350829E+04  0.50400001928E-02 0.  1.
    10030    2    1    2    0    0  0.00000000000E+00  0.00000000000E+00 -0.61950255994E+03  0.15915676059E+04  0.14660504842E+04 0.  0.
        3    1    3    3  502    0  0.69931508079E+03  0.84678818332E+01 -0.54812420663E+03  0.88856819848E+03  0.10100000352E+00 0.  1.
       -3    1    3    3    0  502 -0.69931508079E+03 -0.84678818332E+01 -0.71378353310E+02  0.70299940738E+03  0.10100000352E+00 0. -1.
</event>
<event>
 5   0  0.1560957E-03  0.1381427E+04  0.7818609E-02  0.8967373E-01
        1   -1    0    0  501    0  0.00000000000E+00  0.00000000000E+00  0.11675547825E+04  0.11675547826E+04  0.50400001928E-02 0.  1.
       -1   -1    0    0    0  501  0.00000000000E+00  0.00000000000E+00 -0.40861934457E+03  0.40861934460E+03  0.50400001928E-02 0. -1.
    10030    2    1    2    0    0  0.00000000000E+00  0.00000000000E+00  0.75893543798E+03  0.15761741272E+04  0.13814274791E+04 0.  0.
        5    1    3    3  502    0  0.27990339725E+02 -0.32605056548E+03 -0.31453299266E+03  0.45392237645E+03  0.46999998093E+01 0. -1.
       -5    1    3    3    0  502 -0.27990339725E+02  0.32605056548E+03  0.10734684306E+04  0.11222517507E+04  0.46999998093E+01 0.  1.
</event>
<event>
 5   0  0.2917809E-03  0.1375075E+04  0.7818609E-02  0.8972061E-01
        2   -1    0    0  501    0  0.00000000000E+00  0.00000000000E+00  0.19252711318E+04  0.19252711318E+04  0.25500000920E-02 0.  1.
       -2   -1    0    0    0  501  0.00000000000E+00  0.00000000000E+00 -0.24552797821E+03  0.24552797822E+03  0.25500000920E-02 0. -1.
    10030    2    1    2    0    0  0.00000000000E+00  0.00000000000E+00  0.16797431536E+04  0.21707991100E+04  0.13750751667E+04 0.  0.
        2    1    3    3  502    0 -0.44865279336E+02 -0.99557006826E+02 -0.23175043599E+03  0.25618890586E+03  0.25500000920E-02 0. -1.
       -2    1    3    3    0  502  0.44865279336E+02  0.99557006826E+02  0.19114935896E+04  0.19146102042E+04  0.25500000920E-02 0.  1.
</event>
<event>
 5   0  0.2993993E-03  0.1355007E+04  0.7818609E-02  0.8987047E-01
       -2   -1    0    0    0  501  0.00000000000E+00  0.00000000000E+00  0.40383860383E+03  0.40383860384E+03  0.25500000920E-02 0. -1.
        2   -1    0    0  501    0  0.00000000000E+00  0.00000000000E+00 -0.11366196401E+04  0.11366196401E+04  0.25500000920E-02 0.  1.
    10030    2    1    2    0    0  0.00000000000E+00  0.00000000000E+00 -0.73278103629E+03  0.15404582440E+04  0.13550068466E+04 0.  0.
        3    1    3    3  502    0  0.48689695375E+03  0.37885551971E+03 -0.48046869483E+02  0.61879613788E+03  0.10100000352E+00 0. -1.
       -3    1    3    3    0  502 -0.48689695375E+03 -0.37885551971E+03 -0.68473416681E+03  0.92166210608E+03  0.10100000352E+00 0.  1.
</event>
<event>
 5   0  0.2993993E-03  0.1345109E+04  0.7818609E-02  0.8994539E-01
       -2   -1    0    0    0  501  0.00000000000E+00  0.00000000000E+00  0.55211227183E+03  0.55211227183E+03  0.25500000920E-02 0.  1.
        2   -1    0    0  501    0  0.00000000000E+00  0.00000000000E+00 -0.81927059739E+03  0.81927059739E+03  0.25500000920E-02 0. -1.
    10030    2    1    2    0    0  0.00000000000E+00  0.00000000000E+00 -0.26715832556E+03  0.13713828692E+04  0.13451086956E+04 0.  0.
        3    1    3    3  502    0 -0.36242654781E+02  0.18467190104E+03  0.52472043466E+03  0.55744846023E+03  0.10100000352E+00 0.  1.
       -3    1    3    3    0  502  0.36242654781E+02 -0.18467190104E+03 -0.79187876022E+03  0.81393440900E+03  0.10100000352E+00 0. -1.
</event>
<event>
 5   0  0.1700207E-03  0.1379033E+04  0.7818609E-02  0.8969137E-01
        1   -1    0    0  501    0  0.00000000000E+00  0.00000000000E+00  0.64626674688E+03  0.64626674690E+03  0.50400001928E-02 0. -1.
       -1   -1    0    0    0  501  0.00000000000E+00  0.00000000000E+00 -0.73566046426E+03  0.73566046428E+03  0.50400001928E-02 0.  1.
    10030    2    1    2    0    0  0.00000000000E+00  0.00000000000E+00 -0.89393717380E+02  0.13819272112E+04  0.13790328424E+04 0.  0.
        2    1    3    3  502    0 -0.53846012033E+02  0.28325199259E+03  0.58295774067E+03  0.65036206203E+03  0.25500000920E-02 0. -1.
       -2    1    3    3    0  502  0.53846012033E+02 -0.28325199259E+03 -0.67235145805E+03  0.73156514916E+03  0.25500000920E-02 0.  1.
</event>
<event>
 5   0  0.2760807E-03  0.1422872E+04  0.7818609E-02  0.8937427E-01
        2   -1    0    0  501    0  0.00000000000E+00  0.00000000000E+00  0.13188009702E+04  0.13188009702E+04  0.25500000920E-02 0. -1.
       -2   -1    0    0    0  501  0.00000000000E+00  0.00000000000E+00 -0.38378874526E+03  0.38378874527E+03  0.25500000920E-02 0.  1.
    10030    2    1    2    0    0  0.00000000000E+00  0.00000000000E+00  0.93501222489E+03  0.17025897154E+04  0.14228717013E+04 0.  0.
        4    1    3    3  502    0 -0.34595413950E+03 -0.32809642441E+03 -0.16431879723E+03  0.50431518951E+03  0.12699999809E+01 0.  1.
       -4    1    3    3    0  502  0.34595413950E+03  0.32809642441E+03  0.10993310221E+04  0.11982745259E+04  0.12699999809E+01 0. -1.
</event>
<event>
 5   0  0.2993993E-03  0.1369783E+04  0.7818609E-02  0.8975986E-01
        2   -1    0    0  501    0  0.00000000000E+00  0.00000000000E+00  0.94559085922E+03  0.94559085923E+03  0.25500000920E-02 0. -1.
       -2   -1    0    0    0  501  0.00000000000E+00  0.00000000000E+00 -0.49606715740E+03  0.49606715741E+03  0.25500000920E-02 0.  1.
    10030    2    1    2    0    0  0.00000000000E+00  0.00000000000E+00  0.44952370182E+03  0.14416580166E+04  0.13697832962E+04 0.  0.
        3    1    3    3  502    0 -0.25462108771E+03  0.34706969480E+03  0.78543125132E+03  0.89565145682E+03  0.10100000352E+00 0. -1.
       -3    1    3    3    0  502  0.25462108771E+03 -0.34706969480E+03 -0.33590754950E+03  0.54600655982E+03  0.10100000352E+00 0.  1.
</event>
<event>
 5   0  0.2993993E-03  0.1366943E+04  0.7818609E-02  0.8978101E-01
        2   -1    0    0  501    0  0.00000000000E+00  0.00000000000E+00  0.12515064941E+04  0.12515064941E+04  0.25500000920E-02 0.  1.
       -2   -1    0    0    0  501  0.00000000000E+00  0.00000000000E+00 -0.37325679219E+03  0.37325679220E+03  0.25500000920E-02 0. -1.
    10030    2    1    2    0    0  0.00000000000E+00  0.00000000000E+00  0.87824970189E+03  0.16247632863E+04  0.13669430118E+04 0.  0.
        3    1    3    3  502    0 -0.96711745258E+02 -0.14704613679E+03  0.12241099102E+04  0.12366975420E+04  0.10100000352E+00 0.  1.
       -3    1    3    3    0  502  0.96711745258E+02  0.14704613679E+03 -0.34586020827E+03  0.38806574428E+03  0.10100000352E+00 0. -1.
</event>
<event>
 5   0  0.2993993E-03  0.1392253E+04  0.7818609E-02  0.8959445E-01
        2   -1    0    0  501    0  0.00000000000E+00  0.00000000000E+00  0.58326023321E+03  0.58326023322E+03  0.25500000920E-02 0.  1.
       -2   -1    0    0    0  501  0.00000000000E+00  0.00000000000E+00 -0.83083393293E+03  0.83083393294E+03  0.25500000920E-02 0. -1.
    10030    2    1    2    0    0  0.00000000000E+00  0.00000000000E+00 -0.24757369972E+03  0.14140941662E+04  0.13922534159E+04 0.  0.
        3    1    3    3  502    0 -0.26060228542E+02 -0.63084928133E+03  0.17397143773E+03  0.65491680587E+03  0.10100000352E+00 0.  1.
       -3    1    3    3    0  502  0.26060228542E+02  0.63084928133E+03 -0.42154513745E+03  0.75917736029E+03  0.10100000352E+00 0. -1.
</event>
<event>
 5   0  0.2889469E-03  0.1401929E+04  0.7818609E-02  0.8952423E-01
        2   -1    0    0  501    0  0.00000000000E+00  0.00000000000E+00  0.14909231435E+04  0.14909231435E+04  0.25500000920E-02 0. -1.
       -2   -1    0    0    0  501  0.00000000000E+00  0.00000000000E+00 -0.32956189961E+03  0.32956189962E+03  0.25500000920E-02 0.  1.
    10030    2    1    2    0    0  0.00000000000E+00  0.00000000000E+00  0.11613612439E+04  0.18204850431E+04  0.14019293325E+04 0.  0.
        5    1    3    3  502    0  0.35212514493E+03 -0.23176894992E+03  0.13078961629E+04  0.13741628094E+04  0.46999998093E+01 0. -1.
       -5    1    3    3    0  502 -0.35212514493E+03  0.23176894992E+03 -0.14653491899E+03  0.44632223372E+03  0.46999998093E+01 0.  1.
</event>
<event>
 5   0  0.1631380E-03  0.1294892E+04  0.7818609E-02  0.9033626E-01
       -1   -1    0    0    0  501  0.00000000000E+00  0.00000000000E+00  0.30021480121E+03  0.30021480125E+03  0.50400001928E-02 0.  1.
        1   -1    0    0  501    0  0.00000000000E+00  0.00000000000E+00 -0.13962871013E+04  0.13962871013E+04  0.50400001928E-02 0. -1.
    10030    2    1    2    0    0  0.00000000000E+00  0.00000000000E+00 -0.10960723000E+04  0.16965019025E+04  0.12948915855E+04 0.  0.
        3    1    3    3  502    0 -0.33161629351E+03 -0.88181159016E+02 -0.12673558117E+04  0.13129874510E+04  0.10100000352E+00 0. -1.
       -3    1    3    3    0  502  0.33161629351E+03  0.88181159016E+02  0.17128351165E+03  0.38351445148E+03  0.10100000352E+00 0.  1.
</event>
<event>
 5   0  0.1700207E-03  0.1444308E+04  0.7818609E-02  0.8922356E-01
       -1   -1    0    0    0  501  0.00000000000E+00  0.00000000000E+00  0.89079080164E+03  0.89079080165E+03  0.50400001928E-02 0. -1.
        1   -1    0    0  501    0  0.00000000000E+00  0.00000000000E+00 -0.58544213283E+03  0.58544213285E+03  0.50400001928E-02 0.  1.
    10030    2    1    2    0    0  0.00000000000E+00  0.00000000000E+00  0.30534866881E+03  0.14762329345E+04  0.14443080929E+04 0.  0.
        2    1    3    3  502    0 -0.23745685006E+03  0.33196569394E+03 -0.45624528788E+03  0.61216561510E+03  0.25500000920E-02 0.  1.
       -2    1    3    3    0  502  0.23745685006E+03 -0.33196569394E+03  0.76159395669E+03  0.86406731940E+03  0.25500000920E-02 0. -1.
</event>
<event>
 5   0  0.1644571E-03  0.1333031E+04  0.7818609E-02  0.9003774E-01
        1   -1    0    0  501    0  0.00000000000E+00  0.00000000000E+00  0.90336150626E+03  0.90336150628E+03  0.50400001928E-02 0.  1.
       -1   -1    0    0    0  501  0.00000000000E+00  0.00000000000E+00 -0.49176621199E+03  0.49176621201E+03  0.50400001928E-02 0. -1.
    10030    2    1    2    0    0  0.00000000000E+00  0.00000000000E+00  0.41159529427E+03  0.13951277183E+04  0.13330306313E+04 0.  0.
        4    1    3    3  502    0  0.39134941290E+03 -0.18460458173E+03  0.73637294049E+03  0.85409597527E+03  0.12699999809E+01 0.  1.
       -4    1    3    3    0  502 -0.39134941290E+03  0.18460458173E+03 -0.32477764622E+03  0.54103174302E+03  0.12699999809E+01 0. -1.
</event>
<event>
 5   0  0.2993993E-03  0.1405384E+04  0.7818609E-02  0.8949930E-01
        2   -1    0    0  501    0  0.00000000000E+00  0.00000000000E+00  0.11179470998E+04  0.11179470998E+04  0.25500000920E-02 0.  1.
       -2   -1    0    0    0  501  0.00000000000E+00  0.00000000000E+00 -0.44168130611E+03  0.44168130611E+03  0.25500000920E-02 0. -1.
    10030    2    1    2    0    0  0.00000000000E+00  0.00000000000E+00  0.67626579366E+03  0.15596284059E+04  0.14053844103E+04 0.  0.
        3    1    3    3  502    0  0.54945991523E+03 -0.43749180702E+03  0.31404730294E+03  0.76937052084E+03  0.10100000352E+00 0.  1.
       -3    1    3    3    0  502 -0.54945991523E+03  0.43749180702E+03  0.36221849072E+03  0.79025788504E+03  0.10100000352E+00 0. -1.
</event>
<event>
 5   0  0.2993993E-03  0.1305651E+04  0.7818609E-02  0.9025096E-01
       -2   -1    0    0    0  501  0.00000000000E+00  0.00000000000E+00  0.42230861796E+03  0.42230861796E+03  0.25500000920E-02 0.  1.
        2   -1    0    0  501    0  0.00000000000E+00  0.00000000000E+00 -0.10091694594E+04  0.10091694594E+04  0.25500000920E-02 0. -1.
    10030    2    1    2    0    0  0.00000000000E+00  0.00000000000E+00 -0.58686084146E+03  0.14314780774E+04  0.13056507338E+04 0.  0.
        3    1    3    3  502    0  0.28534409856E+03 -0.47639660513E+03  0.82875743982E+02  0.56146538549E+03  0.10100000352E+00 0.  1.
       -3    1    3    3    0  502 -0.28534409856E+03  0.47639660513E+03 -0.66973658544E+03  0.87001269189E+03  0.10100000352E+00 0. -1.
</event>
<event>
 5   0  0.3006737E-03  0.1402564E+04  0.7818609E-02  0.8951964E-01
        2   -1    0    0  501    0  0.00000000000E+00  0.00000000000E+00  0.12576809914E+04  0.12576809914E+04  0.25500000920E-02 0.  1.
       -2   -1    0    0    0  501  0.00000000000E+00  0.00000000000E+00 -0.39103458773E+03  0.39103458774E+03  0.25500000920E-02 0. -1.
    10030    2    1    2    0    0  0.00000000000E+00  0.00000000000E+00  0.86664640371E+03  0.16487155792E+04  0.14025644627E+04 0.  0.
        1    1    3    3  502    0  0.56280909634E+03  0.37662353376E+03  0.21914514933E+03  0.71177521846E+03  0.50400001928E-02 0. -1.
       -1    1    3    3    0  502 -0.56280909634E+03 -0.37662353376E+03  0.64750125438E+03  0.93694036072E+03  0.50400001928E-02 0.  1.
</event>
<event>
 5   0  0.1586022E-03  0.1424217E+04  0.7818609E-02  0.8936473E-01
       -1   -1    0    0    0  501  0.00000000000E+00  0.00000000000E+00  0.14225404364E+04  0.14225404364E+04  0.50400001928E-02 0.  1.
        1   -1    0    0  501    0  0.00000000000E+00  0.00000000000E+00 -0.35647394069E+03  0.35647394073E+03  0.50400001928E-02 0. -1.
    10030    2    1    2    0    0  0.00000000000E+00  0.00000000000E+00  0.10660664957E+04  0.17790143771E+04  0.14242171115E+04 0.  0.
        1    1    3    3  502    0  0.32910826882E+03 -0.63129107325E+03  0.51297243038E+03  0.87748583243E+03  0.50400001928E-02 0.  1.
       -1    1    3    3    0  502 -0.32910826882E+03  0.63129107325E+03  0.55309406528E+03  0.90152854466E+03  0.50400001928E-02 0. -1.
</event>
<event>
 5   0  0.2917809E-03  0.1507672E+04  0.7818609E-02  0.8879367E-01
       -2   -1    0    0    0  501  0.00000000000E+00  0.00000000000E+00  0.35625728409E+03  0.35625728410E+03  0.25500000920E-02 0. -1.
        2   -1    0    0  501    0  0.00000000000E+00  0.00000000000E+00 -0.15951077918E+04  0.15951077918E+04  0.25500000920E-02 0.  1.
    10030    2    1    2    0    0  0.00000000000E+00  0.00000000000E+00 -0.12388505077E+04  0.19513650759E+04  0.15076720728E+04 0.  0.
        2    1    3    3  502    0  0.77848598671E+02  0.50072097028E+03 -0.13417816354E+04  0.14342802556E+04  0.25500000920E-02 0.  1.
       -2    1    3    3    0  502 -0.77848598671E+02 -0.50072097028E+03  0.10293112768E+03  0.51708482036E+03  0.25500000920E-02 0. -1.
</event>
<event>
 5   0  0.2993993E-03  0.1413889E+04  0.7818609E-02  0.8943826E-01
       -2   -1    0    0    0  501  0.00000000000E+00  0.00000000000E+00  0.84373858647E+03  0.84373858647E+03  0.25500000920E-02 0.  1.
        2   -1    0    0  501    0  0.00000000000E+00  0.00000000000E+00 -0.59232843061E+03  0.59232843062E+03  0.25500000920E-02 0. -1.
    10030    2    1    2    0    0  0.00000000000E+00  0.00000000000E+00  0.25141015586E+03  0.14360670171E+04  0.14138887549E+04 0.  0.
        3    1    3    3  502    0  0.29714669306E+03 -0.37162706544E+03  0.65675202372E+03  0.81100312195E+03  0.10100000352E+00 0.  1.
       -3    1    3    3    0  502 -0.29714669306E+03  0.37162706544E+03 -0.40534186786E+03  0.62506389514E+03  0.10100000352E+00 0. -1.
</event>
<event>
 5   0  0.1586022E-03  0.1196754E+04  0.7818609E-02  0.9115702E-01
        1   -1    0    0  501    0  0.00000000000E+00  0.00000000000E+00  0.11925529413E+04  0.11925529413E+04  0.50400001928E-02 0. -1.
       -1   -1    0    0    0  501  0.00000000000E+00  0.00000000000E+00 -0.30024253756E+03  0.30024253760E+03  0.50400001928E-02 0.  1.
    10030    2    1    2    0    0  0.00000000000E+00  0.00000000000E+00  0.89231040370E+03  0.14927954789E+04  0.11967541457E+04 0.  0.
        1    1    3    3  502    0 -0.13666407112E+03  0.65857326201E+02  0.11681669454E+04  0.11779763445E+04  0.50400001928E-02 0. -1.
       -1    1    3    3    0  502  0.13666407112E+03 -0.65857326201E+02 -0.27585654172E+03  0.31481913440E+03  0.50400001928E-02 0.  1.
</event>
<event>
 5   0  0.2760807E-03  0.1352957E+04  0.7818609E-02  0.8988593E-01
        2   -1    0    0  501    0  0.00000000000E+00  0.00000000000E+00  0.87979238677E+03  0.87979238677E+03  0.25500000920E-02 0.  1.
       -2   -1    0    0    0  501  0.00000000000E+00  0.00000000000E+00 -0.52014890518E+03  0.52014890519E+03  0.25500000920E-02 0. -1.
    10030    2    1    2    0    0  0.00000000000E+00  0.00000000000E+00  0.35964348159E+03  0.13999412920E+04  0.13529568312E+04 0.  0.
        4    1    3    3  502    0 -0.18806633196E+03 -0.34217279857E+03 -0.39178453818E+03  0.55312557937E+03  0.12699999809E+01 0. -1.
       -4    1    3    3    0  502  0.18806633196E+03  0.34217279857E+03  0.75142801977E+03  0.84681571259E+03  0.12699999809E+01 0.  1.
</event>
<event>
 5   0  0.1560957E-03  0.1352983E+04  0.7818609E-02  0.8988573E-01
       -1   -1    0    0    0  501  0.00000000000E+00  0.00000000000E+00  0.72662894609E+03  0.72662894611E+03  0.50400001928E-02 0.  1.
        1   -1    0    0  501    0  0.00000000000E+00  0.00000000000E+00 -0.62981385859E+03  0.62981385861E+03  0.50400001928E-02 0. -1.
    10030    2    1    2    0    0  0.00000000000E+00  0.00000000000E+00  0.96815087503E+02  0.13564428047E+04  0.13529833411E+04 0.  0.
        5    1    3    3  502    0 -0.64581508448E+03 -0.60134230846E+02 -0.14424425133E+03  0.66447102503E+03  0.46999998093E+01 0.  1.
       -5    1    3    3    0  502  0.64581508448E+03  0.60134230846E+02  0.24105933884E+03  0.69197177970E+03  0.46999998093E+01 0. -1.
</event>
<event>
 5   0  0.2889469E-03  0.1392997E+04  0.7818609E-02  0.8958903E-01
       -2   -1    0    0    0  501  0.00000000000E+00  0.00000000000E+00  0.66139129665E+03  0.66139129666E+03  0.25500000920E-02 0. -1.
        2   -1    0    0  501    0  0.00000000000E+00  0.00000000000E+00 -0.73346900143E+03  0.73346900143E+03  0.25500000920E-02 0.  1.
    10030    2    1    2    0    0  0.00000000000E+00  0.00000000000E+00 -0.72077704774E+02  0.13948602981E+04  0.13929967895E+04 0.  0.
        5    1    3    3  502    0  0.44242983464E+02  0.51060766248E+03 -0.50827371215E+03  0.72183230950E+03  0.46999998093E+01 0.  1.
       -5    1    3    3    0  502 -0.44242983464E+02 -0.51060766248E+03  0.43619600738E+03  0.67302798859E+03  0.46999998093E+01 0. -1.
</event>
<event>
 5   0  0.2760807E-03  0.1244999E+04  0.7818609E-02  0.9074356E-01
       -2   -1    0    0    0  501  0.00000000000E+00  0.00000000000E+00  0.40884790686E+03  0.40884790686E+03  0.25500000920E-02 0.  1.
        2   -1    0    0  501    0  0.00000000000E+00  0.00000000000E+00 -0.94779952228E+03  0.94779952229E+03  0.25500000920E-02 0. -1.
    10030    2    1    2    0    0  0.00000000000E+00  0.00000000000E+00 -0.53895161543E+03  0.13566474291E+04  0.12449993587E+04 0.  0.
        4    1    3    3  502    0  0.55817618025E+03 -0.71308817700E+02  0.20588492808E+02  0.56309066287E+03  0.12699999809E+01 0.  1.
       -4    1    3    3    0  502 -0.55817618025E+03  0.71308817700E+02 -0.55954010824E+03  0.79355676628E+03  0.12699999809E+01 0. -1.
</event>
<event>
 5   0  0.2993993E-03  0.1375618E+04  0.7818609E-02  0.8971659E-01
       -2   -1    0    0    0  501  0.00000000000E+00  0.00000000000E+00  0.19392089407E+03  0.19392089409E+03  0.25500000920E-02 0. -1.
        2   -1    0    0  501    0  0.00000000000E+00  0.00000000000E+00 -0.24395579275E+04  0.24395579275E+04  0.25500000920E-02 0.  1.
    10030    2    1    2    0    0  0.00000000000E+00  0.00000000000E+00 -0.22456370335E+04  0.26334788216E+04  0.13756180494E+04 0.  0.
        3    1    3    3  502    0  0.78985353928E+02  0.14863146530E+03 -0.23995234930E+04  0.24054195065E+04  0.10100000352E+00 0.  1.
       -3    1    3    3    0  502 -0.78985353928E+02 -0.14863146530E+03  0.15388645950E+03  0.22805931516E+03  0.10100000352E+00 0. -1.
</event>
<event>
 5   0  0.2993993E-03  0.1398361E+04  0.7818609E-02  0.8955006E-01
       -2   -1    0    0    0  501  0.00000000000E+00  0.00000000000E+00  0.30917847144E+03  0.30917847145E+03  0.25500000920E-02 0.  1.
        2   -1    0    0  501    0  0.00000000000E+00  0.00000000000E+00 -0.15811365677E+04  0.15811365677E+04  0.25500000920E-02 0. -1.
    10030    2    1    2    0    0  0.00000000000E+00  0.00000000000E+00 -0.12719580962E+04  0.18903150391E+04  0.13983610223E+04 0.  0.
        3    1    3    3  502    0 -0.46383964142E+03 -0.41897246264E+03 -0.10595248495E+04  0.12301536710E+04  0.10100000352E+00 0. -1.
       -3    1    3    3    0  502  0.46383964142E+03  0.41897246264E+03 -0.21243324669E+03  0.66016136808E+03  0.10100000352E+00 0.  1.
</event>
<event>
 5   0  0.2760807E-03  0.1449124E+04  0.7818609E-02  0.8919008E-01
       -2   -1    0    0    0  501  0.00000000000E+00  0.00000000000E+00  0.36924080098E+03  0.36924080099E+03  0.25500000920E-02 0. -1.
        2   -1    0    0  501    0  0.00000000000E+00  0.00000000000E+00 -0.14218089761E+04  0.14218089761E+04  0.25500000920E-02 0.  1.
    10030    2    1    2    0    0  0.00000000000E+00  0.00000000000E+00 -0.10525681752E+04  0.17910497771E+04  0.14491237148E+04 0.  0.
        4    1    3    3  502    0  0.17758776762E+03  0.56251655225E+03 -0.62633023703E+01  0.58991789990E+03  0.12699999809E+01 0. -1.
       -4    1    3    3    0  502 -0.17758776762E+03 -0.56251655225E+03 -0.10463048728E+04  0.12011318772E+04  0.12699999809E+01 0.  1.
</event>
<event>
 5   0  0.2993993E-03  0.1377890E+04  0.7818609E-02  0.8969980E-01
        2   -1    0    0  501    0  0.00000000000E+00  0.00000000000E+00  0.27857887753E+04  0.27857887753E+04  0.25500000920E-02 0. -1.
       -2   -1    0    0    0  501  0.00000000000E+00  0.00000000000E+00 -0.17038099648E+03  0.17038099650E+03  0.25500000920E-02 0.  1.
    10030    2    1    2    0    0  0.00000000000E+00  0.00000000000E+00  0.26154077788E+04  0.29561697718E+04  0.13778903694E+04 0.  0.
        3    1    3    3  502    0 -0.16310772325E+03 -0.78411922735E+02  0.27338801993E+04  0.27398637764E+04  0.10100000352E+00 0. -1.
       -3    1    3    3    0  502  0.16310772325E+03  0.78411922735E+02 -0.11847242049E+03  0.21630599536E+03  0.10100000352E+00 0.  1.
</event>
<event>
 5   0  0.1560957E-03  0.1392600E+04  0.7818609E-02  0.8959193E-01
       -1   -1    0    0    0  501  0.00000000000E+00  0.00000000000E+00  0.92355615817E+03  0.92355615818E+03  0.50400001928E-02 0.  1.
        1   -1    0    0  501    0  0.00000000000E+00  0.00000000000E+00 -0.52496385759E+03  0.52496385761E+03  0.50400001928E-02 0. -1.
    10030    2    1    2    0    0  0.00000000000E+00  0.00000000000E+00  0.39859230058E+03  0.14485200158E+04  0.13925998758E+04 0.  0.
        5    1    3    3  502    0  0.24413539172E+03  0.35089358048E+03 -0.37239487846E+03  0.56694658462E+03  0.46999998093E+01 0. -1.
       -5    1    3    3    0  502 -0.24413539172E+03 -0.35089358048E+03  0.77098717904E+03  0.88157343117E+03  0.46999998093E+01 0.  1.
</event>
<event>
 5   0  0.3006737E-03  0.1391155E+04  0.7818609E-02  0.8960246E-01
        2   -1    0    0  501    0  0.00000000000E+00  0.00000000000E+00  0.14816049384E+04  0.14816049384E+04  0.25500000920E-02 0. -1.
       -2   -1    0    0    0  501  0.00000000000E+00  0.00000000000E+00 -0.32655656512E+03  0.32655656513E+03  0.25500000920E-02 0.  1.
    10030    2    1    2    0    0  0.00000000000E+00  0.00000000000E+00  0.11550483733E+04  0.18081615035E+04  0.13911546565E+04 0.  0.
        1    1    3    3  502    0  0.37965097326E+03 -0.10515891033E+03  0.13226308075E+04  0.13800527204E+04  0.50400001928E-02 0. -1.
       -1    1    3    3    0  502 -0.37965097326E+03  0.10515891033E+03 -0.16758243426E+03  0.42810878316E+03  0.50400001928E-02 0.  1.
</event>
<event>
 5   0  0.1631380E-03  0.1391017E+04  0.7818609E-02  0.8960347E-01
       -1   -1    0    0    0  501  0.00000000000E+00  0.00000000000E+00  0.40679914611E+03  0.40679914614E+03  0.50400001928E-02 0.  1.
        1   -1    0    0  501    0  0.00000000000E+00  0.00000000000E+00 -0.11891168947E+04  0.11891168947E+04  0.50400001928E-02 0. -1.
    10030    2    1    2    0    0  0.00000000000E+00  0.00000000000E+00 -0.78231774857E+03  0.15959160408E+04  0.13910165167E+04 0.  0.
        3    1    3    3  502    0 -0.12561088055E+03 -0.37329215153E+03  0.26652303569E+03  0.47556246957E+03  0.10100000352E+00 0.  1.
       -3    1    3    3    0  502  0.12561088055E+03  0.37329215153E+03 -0.10488407843E+04  0.11203535713E+04  0.10100000352E+00 0. -1.
</event>
<event>
 5   0  0.2760807E-03  0.1442943E+04  0.7818609E-02  0.8923308E-01
        2   -1    0    0  501    0  0.00000000000E+00  0.00000000000E+00  0.62781057743E+03  0.62781057744E+03  0.25500000920E-02 0.  1.
       -2   -1    0    0    0  501  0.00000000000E+00  0.00000000000E+00 -0.82910542940E+03  0.82910542940E+03  0.25500000920E-02 0. -1.
    10030    2    1    2    0    0  0.00000000000E+00  0.00000000000E+00 -0.20129485197E+03  0.14569160068E+04  0.14429430458E+04 0.  0.
        4    1    3    3  502    0 -0.12817546082E+03  0.26709014079E+03  0.56356285953E+03  0.63668736567E+03  0.12699999809E+01 0.  1.
       -4    1    3    3    0  502  0.12817546082E+03 -0.26709014079E+03 -0.76485771150E+03  0.82022864117E+03  0.12699999809E+01 0. -1.
</event>
<event>
 5   0  0.2760807E-03  0.1403744E+04  0.7818609E-02  0.8951113E-01
        2   -1    0    0  501    0  0.00000000000E+00  0.00000000000E+00  0.19745793104E+04  0.19745793104E+04  0.25500000920E-02 0.  1.
       -2   -1    0    0    0  501  0.00000000000E+00  0.00000000000E+00 -0.24948307969E+03  0.24948307970E+03  0.25500000920E-02 0. -1.
    10030    2    1    2    0    0  0.00000000000E+00  0.00000000000E+00  0.17250962307E+04  0.22240623901E+04  0.14037437479E+04 0.  0.
        4    1    3    3  502    0  0.99385257508E+02  0.67946251883E+03  0.10925603106E+04  0.12904403857E+04  0.12699999809E+01 0.  1.
       -4    1    3    3    0  502 -0.99385257508E+02 -0.67946251883E+03  0.63253592010E+03  0.93362200436E+03  0.12699999809E+01 0. -1.
</event>
<event>
 5   0  0.1104538E-03  0.1391741E+04  0.7818609E-02  0.8959819E-01
        3   -1    0    0  501    0  0.00000000000E+00  0.00000000000E+00  0.12952345488E+04  0.12952345527E+04  0.10100000352E+00 0. -1.
       -3   -1    0    0    0  501  0.00000000000E+00  0.00000000000E+00 -0.37385955398E+03  0.37385956762E+03  0.10100000352E+00 0.  1.
    10030    2    1    2    0    0  0.00000000000E+00  0.00000000000E+00  0.92137499481E+03  0.16690941203E+04  0.13917411043E+04 0.  0.
        4    1    3    3  502    0 -0.61811806074E+03  0.58551078187E+02  0.83753031339E+03  0.10425722059E+04  0.12699999809E+01 0. -1.
       -4    1    3    3    0  502  0.61811806074E+03 -0.58551078187E+02  0.83844681419E+02  0.62652191444E+03  0.12699999809E+01 0.  1.
</event>
<event>
 5   0  0.2760807E-03  0.1405939E+04  0.7818609E-02  0.8949531E-01
       -2   -1    0    0    0  501  0.00000000000E+00  0.00000000000E+00  0.40008910194E+03  0.40008910195E+03  0.25500000920E-02 0.  1.
        2   -1    0    0  501    0  0.00000000000E+00  0.00000000000E+00 -0.12351394217E+04  0.12351394217E+04  0.25500000920E-02 0. -1.
    10030    2    1    2    0    0  0.00000000000E+00  0.00000000000E+00 -0.83505031979E+03  0.16352285237E+04  0.14059385791E+04 0.  0.
        4    1    3    3  502    0  0.55852829034E+03  0.22643690360E+03 -0.83839012983E+03  0.10325343312E+04  0.12699999809E+01 0. -1.
       -4    1    3    3    0  502 -0.55852829034E+03 -0.22643690360E+03  0.33398100306E+01  0.60269419248E+03  0.12699999809E+01 0.  1.
</event>
<event>
 5   0  0.3006737E-03  0.1392928E+04  0.7818609E-02  0.8958953E-01
       -2   -1    0    0    0  501  0.00000000000E+00  0.00000000000E+00  0.24445099676E+03  0.24445099678E+03  0.25500000920E-02 0. -1.
        2   -1    0    0  501    0  0.00000000000E+00  0.00000000000E+00 -0.19842930097E+04  0.19842930097E+04  0.25500000920E-02 0.  1.
    10030    2    1    2    0    0  0.00000000000E+00  0.00000000000E+00 -0.17398420129E+04  0.22287440065E+04  0.13929284319E+04 0.  0.
        1    1    3    3  502    0 -0.57385524675E+03 -0.38522281027E+03 -0.73269050173E+03  0.10072446719E+04  0.50400001928E-02 0. -1.
       -1    1    3    3    0  502  0.57385524675E+03  0.38522281027E+03 -0.10071515112E+04  0.12214993346E+04  0.50400001928E-02 0.  1.
</event>
<event>
 5   0  0.1644571E-03  0.1401293E+04  0.7818609E-02  0.8952883E-01
        1   -1    0    0  501    0  0.00000000000E+00  0.00000000000E+00  0.92099938418E+03  0.92099938420E+03  0.50400001928E-02 0. -1.
       -1   -1    0    0    0  501  0.00000000000E+00  0.00000000000E+00 -0.53301414335E+03  0.53301414338E+03  0.50400001928E-02 0.  1.
    10030    2    1    2    0    0  0.00000000000E+00  0.00000000000E+00  0.38798524083E+03  0.14540135276E+04  0.14012932567E+04 0.  0.
        4    1    3    3  502    0 -0.48035216091E+02  0.44575120172E+03 -0.36469036728E+03  0.57792922811E+03  0.12699999809E+01 0.  1.
       -4    1    3    3    0  502  0.48035216091E+02 -0.44575120172E+03  0.75267560811E+03  0.87608429946E+03  0.12699999809E+01 0. -1.
</event>
<event>
 5   0  0.1104538E-03  0.1374823E+04  0.7818609E-02  0.8972247E-01
        3   -1    0    0  501    0  0.00000000000E+00  0.00000000000E+00  0.72377648502E+03  0.72377649207E+03  0.10100000352E+00 0. -1.
       -3   -1    0    0    0  501  0.00000000000E+00  0.00000000000E+00 -0.65287334174E+03  0.65287334955E+03  0.10100000352E+00 0.  1.
    10030    2    1    2    0    0  0.00000000000E+00  0.00000000000E+00  0.70903143289E+02  0.13766498416E+04  0.13748227270E+04 0.  0.
        1    1    3    3  502    0 -0.28826209328E+03  0.43073326383E+03  0.48761364928E+03  0.71161313224E+03  0.50400001928E-02 0. -1.
       -1    1    3    3    0  502  0.28826209328E+03 -0.43073326383E+03 -0.41671050599E+03  0.66503670938E+03  0.50400001928E-02 0.  1.
</event>
<event>
 5   0  0.1560957E-03  0.1403368E+04  0.7818609E-02  0.8951385E-01
        1   -1    0    0  501    0  0.00000000000E+00  0.00000000000E+00  0.67487703515E+03  0.67487703517E+03  0.50400001928E-02 0. -1.
       -1   -1    0    0    0  501  0.00000000000E+00  0.00000000000E+00 -0.72955533705E+03  0.72955533706E+03  0.50400001928E-02 0.  1.
    10030    2    1    2    0    0  0.00000000000E+00  0.00000000000E+00 -0.54678301897E+02  0.14044323722E+04  0.14033675825E+04 0.  0.
        5    1    3    3  502    0 -0.31863442896E+03 -0.42894027547E+03  0.42778100693E+03  0.68449714326E+03  0.46999998093E+01 0. -1.
       -5    1    3    3    0  502  0.31863442896E+03  0.42894027547E+03 -0.48245930883E+03  0.71993522897E+03  0.46999998093E+01 0.  1.
</event>
<event>
 5   0  0.2760807E-03  0.1384559E+04  0.7818609E-02  0.8965072E-01
        2   -1    0    0  501    0  0.00000000000E+00  0.00000000000E+00  0.11856200180E+04  0.11856200180E+04  0.25500000920E-02 0. -1.
       -2   -1    0    0    0  501  0.00000000000E+00  0.00000000000E+00 -0.40421944104E+03  0.40421944105E+03  0.25500000920E-02 0.  1.
    10030    2    1    2    0    0  0.00000000000E+00  0.00000000000E+00  0.78140057699E+03  0.15898394591E+04  0.13845586459E+04 0.  0.
        4    1    3    3  502    0 -0.13148024137E+03  0.20522625639E+03  0.11347226414E+04  0.11606041340E+04  0.12699999809E+01 0. -1.
       -4    1    3    3    0  502  0.13148024137E+03 -0.20522625639E+03 -0.35332206439E+03  0.42923532505E+03  0.12699999809E+01 0.  1.
</event>
<event>
 5   0  0.3006737E-03  0.1426683E+04  0.7818609E-02  0.8934727E-01
       -2   -1    0    0    0  501  0.00000000000E+00  0.00000000000E+00  0.73155160230E+03  0.73155160231E+03  0.25500000920E-02 0. -1.
        2   -1    0    0  501    0  0.00000000000E+00  0.00000000000E+00 -0.69558450553E+03  0.69558450553E+03  0.25500000920E-02 0.  1.
    10030    2    1    2    0    0  0.00000000000E+00  0.00000000000E+00  0.35967096776E+02  0.14271361078E+04  0.14266828093E+04 0.  0.
        1    1    3    3  502    0  0.21883178051E+02 -0.37606773306E+03  0.62394011836E+03  0.72883954658E+03  0.50400001928E-02 0. -1.
       -1    1    3    3    0  502 -0.21883178051E+02  0.37606773306E+03 -0.58797302158E+03  0.69829656126E+03  0.50400001928E-02 0.  1.
</event>
<event>
 5   0  0.2917809E-03  0.1422798E+04  0.7818609E-02  0.8937480E-01
       -2   -1    0    0    0  501  0.00000000000E+00  0.00000000000E+00  0.98259650820E+03  0.98259650821E+03  0.25500000920E-02 0. -1.
        2   -1    0    0  501    0  0.00000000000E+00  0.00000000000E+00 -0.51505209961E+03  0.51505209961E+03  0.25500000920E-02 0.  1.
    10030    2    1    2    0    0  0.00000000000E+00  0.00000000000E+00  0.46754440860E+03  0.14976486078E+04  0.14227977996E+04 0.  0.
        2    1    3    3  502    0  0.10197508920E+03 -0.50354434536E+03 -0.28418436584E+03  0.58712569383E+03  0.25500000920E-02 0.  1.
       -2    1    3    3    0  502 -0.10197508920E+03  0.50354434536E+03  0.75172877444E+03  0.91052291399E+03  0.25500000920E-02 0. -1.
</event>
<event>
 5   0  0.2889469E-03  0.1432509E+04  0.7818609E-02  0.8930618E-01
       -2   -1    0    0    0  501  0.00000000000E+00  0.00000000000E+00  0.47166767939E+03  0.47166767940E+03  0.25500000920E-02 0. -1.
        2   -1    0    0  501    0  0.00000000000E+00  0.00000000000E+00 -0.10876731714E+04  0.10876731714E+04  0.25500000920E-02 0.  1.
    10030    2    1    2    0    0  0.00000000000E+00  0.00000000000E+00 -0.61600549203E+03  0.15593408508E+04  0.14325086816E+04 0.  0.
        5    1    3    3  502    0 -0.35225359607E+03 -0.54202372438E+02  0.36827469305E+03  0.51251227562E+03  0.46999998093E+01 0. -1.
       -5    1    3    3    0  502  0.35225359607E+03  0.54202372438E+02 -0.98428018508E+03  0.10468285752E+04  0.46999998093E+01 0.  1.
</event>
<event>
 5   0  0.2917809E-03  0.1394418E+04  0.7818609E-02  0.8957869E-01
       -2   -1    0    0    0  501  0.00000000000E+00  0.00000000000E+00  0.49020428709E+03  0.49020428709E+03  0.25500000920E-02 0.  1.
        2   -1    0    0  501    0  0.00000000000E+00  0.00000000000E+00 -0.99162858373E+03  0.99162858373E+03  0.25500000920E-02 0. -1.
    10030    2    1    2    0    0  0.00000000000E+00  0.00000000000E+00 -0.50142429664E+03  0.14818328708E+04  0.13944182772E+04 0.  0.
        2    1    3    3  502    0 -0.11247021677E+03  0.19583472543E+03 -0.95168402841E+03  0.97811209955E+03  0.25500000920E-02 0. -1.
       -2    1    3    3    0  502  0.11247021677E+03 -0.19583472543E+03  0.45025973177E+03  0.50372077127E+03  0.25500000920E-02 0.  1.
</event>
<event>
 5   0  0.1631380E-03  0.1328325E+04  0.7818609E-02  0.9007400E-01
       -1   -1    0    0    0  501  0.00000000000E+00  0.00000000000E+00  0.60713246621E+03  0.60713246623E+03  0.50400001928E-02 0.  1.
        1   -1    0    0  501    0  0.00000000000E+00  0.00000000000E+00 -0.72654997871E+03  0.72654997872E+03  0.50400001928E-02 0. -1.
    10030    2    1    2    0    0  0.00000000000E+00  0.00000000000E+00 -0.11941751249E+03  0.13336824450E+04  0.13283253825E+04 0.  0.
        3    1    3    3  502    0  0.59855295386E+03  0.18284015092E+03 -0.28290216528E+03  0.68682589110E+03  0.10100000352E+00 0. -1.
       -3    1    3    3    0  502 -0.59855295386E+03 -0.18284015092E+03  0.16348465279E+03  0.64685655386E+03  0.10100000352E+00 0.  1.
</event>
<event>
 5   0  0.3006737E-03  0.1375334E+04  0.7818609E-02  0.8971869E-01
        2   -1    0    0  501    0  0.00000000000E+00  0.00000000000E+00  0.21319781553E+03  0.21319781555E+03  0.25500000920E-02 0. -1.
       -2   -1    0    0    0  501  0.00000000000E+00  0.00000000000E+00 -0.22180628309E+04  0.22180628309E+04  0.25500000920E-02 0.  1.
    10030    2    1    2    0    0  0.00000000000E+00  0.00000000000E+00 -0.20048650154E+04  0.24312606465E+04  0.13753343598E+04 0.  0.
        1    1    3    3  502    0  0.16989241651E+03 -0.37126878833E+03 -0.19805999417E+04  0.20222462944E+04  0.50400001928E-02 0.  1.
       -1    1    3    3    0  502 -0.16989241651E+03  0.37126878833E+03 -0.24265073758E+02  0.40901435208E+03  0.50400001928E-02 0. -1.
</event>
<event>
 5   0  0.1700207E-03  0.1089164E+04  0.7818609E-02  0.9215818E-01
       -1   -1    0    0    0  501  0.00000000000E+00  0.00000000000E+00  0.31209196222E+03  0.31209196226E+03  0.50400001928E-02 0.  1.
        1   -1    0    0  501    0  0.00000000000E+00  0.00000000000E+00 -0.95026384888E+03  0.95026384890E+03  0.50400001928E-02 0. -1.
    10030    2    1    2    0    0  0.00000000000E+00  0.00000000000E+00 -0.63817188667E+03  0.12623558112E+04  0.10891642838E+04 0.  0.
        2    1    3    3  502    0  0.27138821775E+03 -0.37917713977E+03  0.69715690663E+01  0.46634265389E+03  0.25500000920E-02 0.  1.
       -2    1    3    3    0  502 -0.27138821775E+03  0.37917713977E+03 -0.64514345573E+03  0.79601315726E+03  0.25500000920E-02 0. -1.
</event>
<event>
 5   0  0.1644571E-03  0.1397625E+04  0.7818609E-02  0.8955539E-01
        1   -1    0    0  501    0  0.00000000000E+00  0.00000000000E+00  0.14665301450E+04  0.14665301450E+04  0.50400001928E-02 0. -1.
       -1   -1    0    0    0  501  0.00000000000E+00  0.00000000000E+00 -0.33298951262E+03  0.33298951266E+03  0.50400001928E-02 0.  1.
    10030    2    1    2    0    0  0.00000000000E+00  0.00000000000E+00  0.11335406324E+04  0.17995196577E+04  0.13976253551E+04 0.  0.
        4    1    3    3  502    0 -0.27771588087E+03  0.53831790413E+03  0.11810720717E+03  0.61714115215E+03  0.12699999809E+01 0.  1.
       -4    1    3    3    0  502  0.27771588087E+03 -0.53831790413E+03  0.10154334252E+04  0.11823785055E+04  0.12699999809E+01 0. -1.
</event>
<event>
 5   0  0.2993993E-03  0.1452946E+04  0.7818609E-02  0.8916361E-01
       -2   -1    0    0    0  501  0.00000000000E+00  0.00000000000E+00  0.72979685827E+03  0.72979685827E+03  0.25500000920E-02 0.  1.
        2   -1    0    0  501    0  0.00000000000E+00  0.00000000000E+00 -0.72316402934E+03  0.72316402934E+03  0.25500000920E-02 0. -1.
    10030    2    1    2    0    0  0.00000000000E+00  0.00000000000E+00  0.66328289311E+01  0.14529608876E+04  0.14529457480E+04 0.  0.
        3    1    3    3  502    0 -0.41184701905E+03  0.15140830420E+03  0.58230464471E+03  0.72912354998E+03  0.10100000352E+00 0.  1.
       -3    1    3    3    0  502  0.41184701905E+03 -0.15140830420E+03 -0.57567181578E+03  0.72383733764E+03  0.10100000352E+00 0. -1.
</event>
<event>
 5   0  0.2889469E-03  0.1551361E+04  0.7818609E-02  0.8850999E-01
       -2   -1    0    0    0  501  0.00000000000E+00  0.00000000000E+00  0.79490704539E+03  0.79490704540E+03  0.25500000920E-02 0.  1.
        2   -1    0    0  501    0  0.00000000000E+00  0.00000000000E+00 -0.75691892535E+03  0.75691892536E+03  0.25500000920E-02 0. -1.
    10030    2    1    2    0    0  0.00000000000E+00  0.00000000000E+00  0.37988120040E+02  0.15518259708E+04  0.15513609336E+04 0.  0.
        5    1    3    3  502    0  0.34387528886E+03 -0.33266658072E+03  0.62970211466E+03  0.79086289041E+03  0.46999998093E+01 0.  1.
       -5    1    3    3    0  502 -0.34387528886E+03  0.33266658072E+03 -0.59171399462E+03  0.76096308034E+03  0.46999998093E+01 0. -1.
</event>
<event>
 5   0  0.1104538E-03  0.1449101E+04  0.7818609E-02  0.8919024E-01
       -3   -1    0    0    0  501  0.00000000000E+00  0.00000000000E+00  0.40780663074E+03  0.40780664325E+03  0.10100000352E+00 0.  1.
        3   -1    0    0  501    0  0.00000000000E+00  0.00000000000E+00 -0.12873098024E+04  0.12873098064E+04  0.10100000352E+00 0. -1.
    10030    2    1    2    0    0  0.00000000000E+00  0.00000000000E+00 -0.87950317170E+03  0.16951164497E+04  0.14491010830E+04 0.  0.
        1    1    3    3  502    0 -0.14901949820E+03 -0.73286746585E+02  0.38524449087E+03  0.41951290307E+03  0.50400001928E-02 0.  1.
       -1    1    3    3    0  502  0.14901949820E+03  0.73286746585E+02 -0.12647476626E+04  0.12756035466E+04  0.50400001928E-02 0. -1.
</event>
<event>
 5   0  0.2889469E-03  0.1382069E+04  0.7818609E-02  0.8966901E-01
       -2   -1    0    0    0  501  0.00000000000E+00  0.00000000000E+00  0.28487933455E+03  0.28487933456E+03  0.25500000920E-02 0.  1.
        2   -1    0    0  501    0  0.00000000000E+00  0.00000000000E+00 -0.16762498218E+04  0.16762498218E+04  0.25500000920E-02 0. -1.
    10030    2    1    2    0    0  0.00000000000E+00  0.00000000000E+00 -0.13913704873E+04  0.19611291564E+04  0.13820693670E+04 0.  0.
        5    1    3    3  502    0 -0.14836086804E+03 -0.24908089160E+03 -0.15857542373E+04  0.16120455418E+04  0.46999998093E+01 0. -1.
       -5    1    3    3    0  502  0.14836086804E+03  0.24908089160E+03  0.19438375000E+03  0.34908361460E+03  0.46999998093E+01 0.  1.
</event>
<event>
 5   0  0.3006737E-03  0.1576506E+04  0.7818609E-02  0.8835112E-01
        2   -1    0    0  501    0  0.00000000000E+00  0.00000000000E+00  0.88130391716E+03  0.88130391716E+03  0.25500000920E-02 0.  1.
       -2   -1    0    0    0  501  0.00000000000E+00  0.00000000000E+00 -0.70502700609E+03  0.70502700609E+03  0.25500000920E-02 0. -1.
    10030    2    1    2    0    0  0.00000000000E+00  0.00000000000E+00  0.17627691107E+03  0.15863309233E+04  0.15765063427E+04 0.  0.
        1    1    3    3  502    0 -0.43796324085E+03  0.15947010761E+03 -0.55151210798E+03  0.72208595114E+03  0.50400001928E-02 0. -1.
       -1    1    3    3    0  502  0.43796324085E+03 -0.15947010761E+03  0.72778901905E+03  0.86424497212E+03  0.50400001928E-02 0.  1.
</event>
<event>
 5   0  0.1644571E-03  0.8204113E+03  0.7818609E-02  0.9530934E-01
       -1   -1    0    0    0  501  0.00000000000E+00  0.00000000000E+00  0.50155303410E+03  0.50155303412E+03  0.50400001928E-02 0. -1.
        1   -1    0    0  501    0  0.00000000000E+00  0.00000000000E+00 -0.33549526573E+03  0.33549526576E+03  0.50400001928E-02 0.  1.
    10030    2    1    2    0    0  0.00000000000E+00  0.00000000000E+00  0.16605776837E+03  0.83704829989E+03  0.82041128339E+03 0.  0.
        4    1    3    3  502    0  0.30355162316E+03  0.22942025590E+03 -0.73343004394E+02  0.38750232378E+03  0.12699999809E+01 0. -1.
       -4    1    3    3    0  502 -0.30355162316E+03 -0.22942025590E+03  0.23940077277E+03  0.44954597611E+03  0.12699999809E+01 0.  1.
</event>
<event>
 5   0  0.1560957E-03  0.7094021E+03  0.7818609E-02  0.9701287E-01
        1   -1    0    0  501    0  0.00000000000E+00  0.00000000000E+00  0.70648993099E+03  0.70648993101E+03  0.50400001928E-02 0. -1.
       -1   -1    0    0    0  501  0.00000000000E+00  0.00000000000E+00 -0.17808159204E+03  0.17808159211E+03  0.50400001928E-02 0.  1.
    10030    2    1    2    0    0  0.00000000000E+00  0.00000000000E+00  0.52840833895E+03  0.88457152312E+03  0.70940214748E+03 0.  0.
        5    1    3    3  502    0 -0.20564138073E+02  0.37771292085E+02 -0.17477945165E+03  0.18005416129E+03  0.46999998093E+01 0.  1.
       -5    1    3    3    0  502  0.20564138073E+02 -0.37771292085E+02  0.70318779060E+03  0.70451736183E+03  0.46999998093E+01 0. -1.
</event>
<event>
 5   0  0.2889469E-03  0.1404046E+04  0.7818609E-02  0.8950895E-01
       -2   -1    0    0    0  501  0.00000000000E+00  0.00000000000E+00  0.27980878066E+03  0.27980878068E+03  0.25500000920E-02 0.  1.
        2   -1    0    0  501    0  0.00000000000E+00  0.00000000000E+00 -0.17613336538E+04  0.17613336538E+04  0.25500000920E-02 0. -1.
    10030    2    1    2    0    0  0.00000000000E+00  0.00000000000E+00 -0.14815248731E+04  0.20411424344E+04  0.14040464693E+04 0.  0.
        5    1    3    3  502    0  0.66633023245E+03  0.15016115346E+03 -0.97638852033E+03  0.11915959816E+04  0.46999998093E+01 0.  1.
       -5    1    3    3    0  502 -0.66633023245E+03 -0.15016115346E+03 -0.50513635278E+03  0.84954645287E+03  0.46999998093E+01 0. -1.
</event>
<event>
 5   0  0.2917809E-03  0.1396133E+04  0.7818609E-02  0.8956622E-01
       -2   -1    0    0    0  501  0.00000000000E+00  0.00000000000E+00  0.69956986809E+03  0.69956986809E+03  0.25500000920E-02 0. -1.
        2   -1    0    0  501    0  0.00000000000E+00  0.00000000000E+00 -0.69656674138E+03  0.69656674138E+03  0.25500000920E-02 0.  1.
    10030    2    1    2    0    0  0.00000000000E+00  0.00000000000E+00  0.30031267109E+01  0.13961366095E+04  0.13961333796E+04 0.  0.
        2    1    3    3  502    0  0.46905744509E+03 -0.22323525149E+03  0.46781609798E+03  0.69907135961E+03  0.25500000920E-02 0. -1.
       -2    1    3    3    0  502 -0.46905744509E+03  0.22323525149E+03 -0.46481297127E+03  0.69706524986E+03  0.25500000920E-02 0.  1.
</event>
<event>
 5   0  0.2993993E-03  0.1497160E+04  0.7818609E-02  0.8886343E-01
        2   -1    0    0  501    0  0.00000000000E+00  0.00000000000E+00  0.59266972739E+03  0.59266972740E+03  0.25500000920E-02 0. -1.
       -2   -1    0    0    0  501  0.00000000000E+00  0.00000000000E+00 -0.94550515891E+03  0.94550515891E+03  0.25500000920E-02 0.  1.
    10030    2    1    2    0    0  0.00000000000E+00  0.00000000000E+00 -0.35283543152E+03  0.15381748863E+04  0.14971603585E+04 0.  0.
        3    1    3    3  502    0  0.56419138069E+03 -0.48412817527E+03 -0.86379754319E+02  0.74843401599E+03  0.10100000352E+00 0. -1.
       -3    1    3    3    0  502 -0.56419138069E+03  0.48412817527E+03 -0.26645567720E+03  0.78974087032E+03  0.10100000352E+00 0.  1.
</event>
<event>
 5   0  0.1586022E-03  0.1400357E+04  0.7818609E-02  0.8953560E-01
        1   -1    0    0  501    0  0.00000000000E+00  0.00000000000E+00  0.73814689194E+03  0.73814689195E+03  0.50400001928E-02 0.  1.
       -1   -1    0    0    0  501  0.00000000000E+00  0.00000000000E+00 -0.66416311015E+03  0.66416311017E+03  0.50400001928E-02 0. -1.
    10030    2    1    2    0    0  0.00000000000E+00  0.00000000000E+00  0.73983781786E+02  0.14023100021E+04  0.14003570052E+04 0.  0.
        1    1    3    3  502    0  0.30952284551E+03  0.95932737422E+02  0.65853654217E+03  0.73394676877E+03  0.50400001928E-02 0.  1.
       -1    1    3    3    0  502 -0.30952284551E+03 -0.95932737422E+02 -0.58455276038E+03  0.66836323335E+03  0.50400001928E-02 0. -1.
</event>
<event>
 5   0  0.2993993E-03  0.1388922E+04  0.7818609E-02  0.8961876E-01
       -2   -1    0    0    0  501  0.00000000000E+00  0.00000000000E+00  0.40187601428E+03  0.40187601429E+03  0.25500000920E-02 0.  1.
        2   -1    0    0  501    0  0.00000000000E+00  0.00000000000E+00 -0.12000623494E+04  0.12000623494E+04  0.25500000920E-02 0. -1.
    10030    2    1    2    0    0  0.00000000000E+00  0.00000000000E+00 -0.79818633515E+03  0.16019383637E+04  0.13889222785E+04 0.  0.
        3    1    3    3  502    0  0.46764305403E+02 -0.54891432779E+03  0.88581581198E+02  0.55797898369E+03  0.10100000352E+00 0.  1.
       -3    1    3    3    0  502 -0.46764305403E+02  0.54891432779E+03 -0.88676791635E+03  0.10439593800E+04  0.10100000352E+00 0. -1.
</event>
<event>
 5   0  0.2889469E-03  0.1344130E+04  0.7818609E-02  0.8995283E-01
       -2   -1    0    0    0  501  0.00000000000E+00  0.00000000000E+00  0.26452992273E+03  0.26452992274E+03  0.25500000920E-02 0. -1.
        2   -1    0    0  501    0  0.00000000000E+00  0.00000000000E+00 -0.17074501526E+04  0.17074501526E+04  0.25500000920E-02 0.  1.
    10030    2    1    2    0    0  0.00000000000E+00  0.00000000000E+00 -0.14429202299E+04  0.19719800753E+04  0.13441304355E+04 0.  0.
        5    1    3    3  502    0  0.47191664257E+03  0.21052665697E+03 -0.91078198772E+02  0.52473242622E+03  0.46999998093E+01 0. -1.
       -5    1    3    3    0  502 -0.47191664257E+03 -0.21052665697E+03 -0.13518420311E+04  0.14472476491E+04  0.46999998093E+01 0.  1.
</event>
<event>
 5   0  0.1586022E-03  0.1435847E+04  0.7818609E-02  0.8928271E-01
       -1   -1    0    0    0  501  0.00000000000E+00  0.00000000000E+00  0.40981331618E+03  0.40981331621E+03  0.50400001928E-02 0.  1.
        1   -1    0    0  501    0  0.00000000000E+00  0.00000000000E+00 -0.12576809710E+04  0.12576809710E+04  0.50400001928E-02 0. -1.
    10030    2    1    2    0    0  0.00000000000E+00  0.00000000000E+00 -0.84786765480E+03  0.16674942872E+04  0.14358473588E+04 0.  0.
        1    1    3    3  502    0 -0.51664042842E+03  0.62621312641E+01  0.15493805318E+03  0.53940925735E+03  0.50400001928E-02 0.  1.
       -1    1    3    3    0  502  0.51664042842E+03 -0.62621312641E+01 -0.10028057080E+04  0.11280850298E+04  0.50400001928E-02 0. -1.
</event>
<event>
 5   0  0.1700207E-03  0.1387310E+04  0.7818609E-02  0.8963056E-01
       -1   -1    0    0    0  501  0.00000000000E+00  0.00000000000E+00  0.79938090411E+03  0.79938090413E+03  0.50400001928E-02 0. -1.
        1   -1    0    0  501    0  0.00000000000E+00  0.00000000000E+00 -0.60191212625E+03  0.60191212627E+03  0.50400001928E-02 0.  1.
    10030    2    1    2    0    0  0.00000000000E+00  0.00000000000E+00  0.19746877786E+03  0.14012930304E+04  0.13873097127E+04 0.  0.
        2    1    3    3  502    0 -0.55136079236E+03  0.22620712734E+03  0.45726090757E+03  0.75116970480E+03  0.25500000920E-02 0. -1.
       -2    1    3    3    0  502  0.55136079236E+03 -0.22620712734E+03 -0.25979212971E+03  0.65012332560E+03  0.25500000920E-02 0.  1.
</event>
<event>
 5   0  0.2760807E-03  0.1296406E+04  0.7818609E-02  0.9032420E-01
       -2   -1    0    0    0  501  0.00000000000E+00  0.00000000000E+00  0.43657369689E+03  0.43657369689E+03  0.25500000920E-02 0. -1.
        2   -1    0    0  501    0  0.00000000000E+00  0.00000000000E+00 -0.96241959909E+03  0.96241959909E+03  0.25500000920E-02 0.  1.
    10030    2    1    2    0    0  0.00000000000E+00  0.00000000000E+00 -0.52584590221E+03  0.13989932960E+04  0.12964059277E+04 0.  0.
        4    1    3    3  502    0  0.10979846166E+02  0.56325286999E+03  0.83058182775E+02  0.56945116314E+03  0.12699999809E+01 0. -1.
       -4    1    3    3    0  502 -0.10979846166E+02 -0.56325286999E+03 -0.60890408498E+03  0.82954213285E+03  0.12699999809E+01 0.  1.
</event>
<event>
 5   0  0.2760807E-03  0.1413169E+04  0.7818609E-02  0.8944341E-01
        2   -1    0    0  501    0  0.00000000000E+00  0.00000000000E+00  0.96529542866E+03  0.96529542867E+03  0.25500000920E-02 0. -1.
       -2   -1    0    0    0  501  0.00000000000E+00  0.00000000000E+00 -0.51721105477E+03  0.51721105478E+03  0.25500000920E-02 0.  1.
    10030    2    1    2    0    0  0.00000000000E+00  0.00000000000E+00  0.44808437389E+03  0.14825064834E+04  0.14131687328E+04 0.  0.
        4    1    3    3  502    0 -0.37405527168E+03 -0.45343666817E+03  0.63537444063E+03  0.86557752456E+03  0.12699999809E+01 0. -1.
       -4    1    3    3    0  502  0.37405527168E+03  0.45343666817E+03 -0.18729006674E+03  0.61692895889E+03  0.12699999809E+01 0.  1.
</event>
<event>
 5   0  0.2917809E-03  0.1359507E+04  0.7818609E-02  0.8983662E-01
       -2   -1    0    0    0  501  0.00000000000E+00  0.00000000000E+00  0.45734600323E+03  0.45734600323E+03  0.25500000920E-02 0. -1.
        2   -1    0    0  501    0  0.00000000000E+00  0.00000000000E+00 -0.10103183642E+04  0.10103183642E+04  0.25500000920E-02 0.  1.
    10030    2    1    2    0    0  0.00000000000E+00  0.00000000000E+00 -0.55297236098E+03  0.14676643674E+04  0.13595073606E+04 0.  0.
        2    1    3    3  502    0  0.16313941068E+03  0.56432454404E+03  0.92760501756E+02  0.59471099621E+03  0.25500000920E-02 0. -1.
       -2    1    3    3    0  502 -0.16313941068E+03 -0.56432454404E+03 -0.64573286274E+03  0.87295337123E+03  0.25500000920E-02 0.  1.
</event>
<event>
 5   0  0.3006737E-03  0.1314621E+04  0.7818609E-02  0.9018050E-01
        2   -1    0    0  501    0  0.00000000000E+00  0.00000000000E+00  0.96636754353E+03  0.96636754353E+03  0.25500000920E-02 0.  1.
       -2   -1    0    0    0  501  0.00000000000E+00  0.00000000000E+00 -0.44709399761E+03  0.44709399761E+03  0.25500000920E-02 0. -1.
    10030    2    1    2    0    0  0.00000000000E+00  0.00000000000E+00  0.51927354592E+03  0.14134615411E+04  0.13146210529E+04 0.  0.
        1    1    3    3  502    0  0.23466298233E+03  0.29469417781E+02 -0.39976143454E+03  0.46448290219E+03  0.50400001928E-02 0. -1.
       -1    1    3    3    0  502 -0.23466298233E+03 -0.29469417781E+02  0.91903498046E+03  0.94897863896E+03  0.50400001928E-02 0.  1.
</event>
<event>
 5   0  0.2760807E-03  0.1365863E+04  0.7818609E-02  0.8978906E-01
        2   -1    0    0  501    0  0.00000000000E+00  0.00000000000E+00  0.17275777749E+04  0.17275777749E+04  0.25500000920E-02 0.  1.
       -2   -1    0    0    0  501  0.00000000000E+00  0.00000000000E+00 -0.26997080058E+03  0.26997080059E+03  0.25500000920E-02 0. -1.
    10030    2    1    2    0    0  0.00000000000E+00  0.00000000000E+00  0.14576069743E+04  0.19975485755E+04  0.13658631776E+04 0.  0.
        4    1    3    3  502    0 -0.15739722738E+03 -0.27985834464E+03  0.16103037976E+04  0.16420032014E+04  0.12699999809E+01 0.  1.
       -4    1    3    3    0  502  0.15739722738E+03  0.27985834464E+03 -0.15269682326E+03  0.35554537402E+03  0.12699999809E+01 0. -1.
</event>
<event>
 5   0  0.2993993E-03  0.1441659E+04  0.7818609E-02  0.8924203E-01
       -2   -1    0    0    0  501  0.00000000000E+00  0.00000000000E+00  0.24562812647E+03  0.24562812648E+03  0.25500000920E-02 0. -1.
        2   -1    0    0  501    0  0.00000000000E+00  0.00000000000E+00 -0.21153740225E+04  0.21153740225E+04  0.25500000920E-02 0.  1.
    10030    2    1    2    0    0  0.00000000000E+00  0.00000000000E+00 -0.18697458960E+04  0.23610021490E+04  0.14416592634E+04 0.  0.
        3    1    3    3  502    0  0.46522135346E+03  0.49655005790E+03 -0.13245021379E+04  0.14890597004E+04  0.10100000352E+00 0.  1.
       -3    1    3    3    0  502 -0.46522135346E+03 -0.49655005790E+03 -0.54524375811E+03  0.87194244860E+03  0.10100000352E+00 0. -1.
</event>
<event>
 5   0  0.1631380E-03  0.1418451E+04  0.7818609E-02  0.8940570E-01
       -1   -1    0    0    0  501  0.00000000000E+00  0.00000000000E+00  0.84195238898E+03  0.84195238899E+03  0.50400001928E-02 0. -1.
        1   -1    0    0  501    0  0.00000000000E+00  0.00000000000E+00 -0.59742213934E+03  0.59742213936E+03  0.50400001928E-02 0.  1.
    10030    2    1    2    0    0  0.00000000000E+00  0.00000000000E+00  0.24453024964E+03  0.14393745284E+04  0.14184512645E+04 0.  0.
        3    1    3    3  502    0 -0.45065791554E+03 -0.42295630579E+03  0.47527064583E+03  0.77965812407E+03  0.10100000352E+00 0. -1.
       -3    1    3    3    0  502  0.45065791554E+03  0.42295630579E+03 -0.23074039619E+03  0.65971640428E+03  0.10100000352E+00 0.  1.
</event>
<event>
 5   0  0.1631380E-03  0.1468191E+04  0.7818609E-02  0.8905885E-01
        1   -1    0    0  501    0  0.00000000000E+00  0.00000000000E+00  0.12925648640E+04  0.12925648640E+04  0.50400001928E-02 0. -1.
       -1   -1    0    0    0  501  0.00000000000E+00  0.00000000000E+00 -0.41692019983E+03  0.41692019986E+03  0.50400001928E-02 0.  1.
    10030    2    1    2    0    0  0.00000000000E+00  0.00000000000E+00  0.87564466416E+03  0.17094850639E+04  0.14681912701E+04 0.  0.
        3    1    3    3  502    0 -0.42730958485E+03 -0.36300188671E+03 -0.11390222920E+03  0.57213423169E+03  0.10100000352E+00 0.  1.
       -3    1    3    3    0  502  0.42730958485E+03  0.36300188671E+03  0.98954689336E+03  0.11373508322E+04  0.10100000352E+00 0. -1.
</event>
<event>
 5   0  0.1644571E-03  0.1327166E+04  0.7818609E-02  0.9008295E-01
       -1   -1    0    0    0  501  0.00000000000E+00  0.00000000000E+00  0.49882961873E+03  0.49882961875E+03  0.50400001928E-02 0.  1.
        1   -1    0    0  501    0  0.00000000000E+00  0.00000000000E+00 -0.88275167363E+03  0.88275167364E+03  0.50400001928E-02 0. -1.
    10030    2    1    2    0    0  0.00000000000E+00  0.00000000000E+00 -0.38392205490E+03  0.13815812924E+04  0.13271664264E+04 0.  0.
        4    1    3    3  502    0 -0.60247099469E+03  0.19045267623E+03 -0.40299822228E+03  0.74943492138E+03  0.12699999809E+01 0.  1.
       -4    1    3    3    0  502  0.60247099469E+03 -0.19045267623E+03  0.19076167383E+02  0.63214637101E+03  0.12699999809E+01 0. -1.
</event>
<event>
 5   0  0.1586022E-03  0.1395645E+04  0.7818609E-02  0.8956977E-01
       -1   -1    0    0    0  501  0.00000000000E+00  0.00000000000E+00  0.38639300862E+03  0.38639300865E+03  0.50400001928E-02 0. -1.
        1   -1    0    0  501    0  0.00000000000E+00  0.00000000000E+00 -0.12602618083E+04  0.12602618083E+04  0.50400001928E-02 0.  1.
    10030    2    1    2    0    0  0.00000000000E+00  0.00000000000E+00 -0.87386879964E+03  0.16466548169E+04  0.13956451580E+04 0.  0.
        1    1    3    3  502    0  0.10744125861E+03 -0.14145164006E+03 -0.12331415127E+04  0.12458692472E+04  0.50400001928E-02 0.  1.
       -1    1    3    3    0  502 -0.10744125861E+03  0.14145164006E+03  0.35927271311E+03  0.40078556977E+03  0.50400001928E-02 0. -1.
</event>
<event>
 5   0  0.3006737E-03  0.1384254E+04  0.7818609E-02  0.8965296E-01
       -2   -1    0    0    0  501  0.00000000000E+00  0.00000000000E+00  0.47141527783E+03  0.47141527783E+03  0.25500000920E-02 0.  1.
        2   -1    0    0  501    0  0.00000000000E+00  0.00000000000E+00 -0.10161731688E+04  0.10161731688E+04  0.25500000920E-02 0. -1.
    10030    2    1    2    0    0  0.00000000000E+00  0.00000000000E+00 -0.54475789100E+03  0.14875884467E+04  0.13842536714E+04 0.  0.
        1    1    3    3  502    0  0.10750569609E+03 -0.29972379369E+03  0.38802635709E+03  0.50195246888E+03  0.50400001928E-02 0.  1.
       -1    1    3    3    0  502 -0.10750569609E+03  0.29972379369E+03 -0.93278424809E+03  0.98563597778E+03  0.50400001928E-02 0. -1.
</event>
<event>
 5   0  0.2760807E-03  0.1387913E+04  0.7818609E-02  0.8962615E-01
        2   -1    0    0  501    0  0.00000000000E+00  0.00000000000E+00  0.63722109737E+03  0.63722109738E+03  0.25500000920E-02 0.  1.
       -2   -1    0    0    0  501  0.00000000000E+00  0.00000000000E+00 -0.75574314533E+03  0.75574314533E+03  0.25500000920E-02 0. -1.
    10030    2    1    2    0    0  0.00000000000E+00  0.00000000000E+00 -0.11852204795E+03  0.13929642427E+04  0.13879127875E+04 0.  0.
        4    1    3    3  502    0 -0.27655709823E+03 -0.31493285556E+03 -0.61436294957E+03  0.74371364032E+03  0.12699999809E+01 0. -1.
       -4    1    3    3    0  502  0.27655709823E+03  0.31493285556E+03  0.49584090161E+03  0.64925060239E+03  0.12699999809E+01 0.  1.
</event>
<event>
 5   0  0.2917809E-03  0.1410314E+04  0.7818609E-02  0.8946386E-01
        2   -1    0    0  501    0  0.00000000000E+00  0.00000000000E+00  0.15815197757E+04  0.15815197757E+04  0.25500000920E-02 0.  1.
       -2   -1    0    0    0  501  0.00000000000E+00  0.00000000000E+00 -0.31441051814E+03  0.31441051815E+03  0.25500000920E-02 0. -1.
    10030    2    1    2    0    0  0.00000000000E+00  0.00000000000E+00  0.12671092576E+04  0.18959302939E+04  0.14103140815E+04 0.  0.
        2    1    3    3  502    0  0.37473160011E+03 -0.51931023500E+03  0.23671575845E+03  0.68274537172E+03  0.25500000920E-02 0. -1.
       -2    1    3    3    0  502 -0.37473160011E+03  0.51931023500E+03  0.10303934992E+04  0.12131849222E+04  0.25500000920E-02 0.  1.
</event>
<event>
 5   0  0.1560957E-03  0.1426135E+04  0.7818609E-02  0.8935115E-01
       -1   -1    0    0    0  501  0.00000000000E+00  0.00000000000E+00  0.49211291561E+03  0.49211291563E+03  0.50400001928E-02 0.  1.
        1   -1    0    0  501    0  0.00000000000E+00  0.00000000000E+00 -0.10332294249E+04  0.10332294249E+04  0.50400001928E-02 0. -1.
    10030    2    1    2    0    0  0.00000000000E+00  0.00000000000E+00 -0.54111650926E+03  0.15253423405E+04  0.14261354000E+04 0.  0.
        5    1    3    3  502    0  0.21808010397E+02 -0.69440960722E+03 -0.44223289840E+03  0.82357289802E+03  0.46999998093E+01 0. -1.
       -5    1    3    3    0  502 -0.21808010397E+02  0.69440960722E+03 -0.98883610859E+02  0.70176944249E+03  0.46999998093E+01 0.  1.
</event>
<event>
 5   0  0.1631380E-03  0.1308606E+04  0.7818609E-02  0.9022768E-01
        1   -1    0    0  501    0  0.00000000000E+00  0.00000000000E+00  0.90603397417E+03  0.90603397419E+03  0.50400001928E-02 0.  1.
       -1   -1    0    0    0  501  0.00000000000E+00  0.00000000000E+00 -0.47251234923E+03  0.47251234925E+03  0.50400001928E-02 0. -1.
    10030    2    1    2    0    0  0.00000000000E+00  0.00000000000E+00  0.43352162495E+03  0.13785463234E+04  0.13086057338E+04 0.  0.
        3    1    3    3  502    0  0.39194652268E+03 -0.50565834620E+03  0.72320285433E+02  0.64384988437E+03  0.10100000352E+00 0. -1.
       -3    1    3    3    0  502 -0.39194652268E+03  0.50565834620E+03  0.36120133951E+03  0.73469643907E+03  0.10100000352E+00 0.  1.
</event>
<event>
 5   0  0.3006737E-03  0.1420556E+04  0.7818609E-02  0.8939072E-01
        2   -1    0    0  501    0  0.00000000000E+00  0.00000000000E+00  0.12279779285E+04  0.12279779285E+04  0.25500000920E-02 0.  1.
       -2   -1    0    0    0  501  0.00000000000E+00  0.00000000000E+00 -0.41083359314E+03  0.41083359315E+03  0.25500000920E-02 0. -1.
    10030    2    1    2    0    0  0.00000000000E+00  0.00000000000E+00  0.81714433535E+03  0.16388115216E+04  0.14205556443E+04 0.  0.
        1    1    3    3  502    0  0.64768683607E+03  0.10158493308E+03  0.72382844944E+03  0.97659887390E+03  0.50400001928E-02 0. -1.
       -1    1    3    3    0  502 -0.64768683607E+03 -0.10158493308E+03  0.93315885906E+02  0.66221264775E+03  0.50400001928E-02 0.  1.
</event>
<event>
 5   0  0.1644571E-03  0.1414762E+04  0.7818609E-02  0.8943202E-01
        1   -1    0    0  501    0  0.00000000000E+00  0.00000000000E+00  0.37314932443E+03  0.37314932447E+03  0.50400001928E-02 0. -1.
       -1   -1    0    0    0  501  0.00000000000E+00  0.00000000000E+00 -0.13409860840E+04  0.13409860840E+04  0.50400001928E-02 0.  1.
    10030    2    1    2    0    0  0.00000000000E+00  0.00000000000E+00 -0.96783675959E+03  0.17141354085E+04  0.14147622434E+04 0.  0.
        4    1    3    3  502    0  0.25409350394E+02  0.58527099708E+03 -0.96429967590E+03  0.11283010471E+04  0.12699999809E+01 0.  1.
       -4    1    3    3    0  502 -0.25409350394E+02 -0.58527099708E+03 -0.35370836899E+01  0.58583436137E+03  0.12699999809E+01 0. -1.
</event>
<event>
 5   0  0.1631380E-03  0.1413142E+04  0.7818609E-02  0.8944360E-01
       -1   -1    0    0    0  501  0.00000000000E+00  0.00000000000E+00  0.77452209736E+03  0.77452209737E+03  0.50400001928E-02 0.  1.
        1   -1    0    0  501    0  0.00000000000E+00  0.00000000000E+00 -0.64458185640E+03  0.64458185642E+03  0.50400001928E-02 0. -1.
    10030    2    1    2    0    0  0.00000000000E+00  0.00000000000E+00  0.12994024096E+03  0.14191039538E+04  0.14131424434E+04 0.  0.
        3    1    3    3  502    0 -0.41099042888E+03  0.40850491313E+02 -0.51073798813E+03  0.65683726903E+03  0.10100000352E+00 0. -1.
       -3    1    3    3    0  502  0.41099042888E+03 -0.40850491313E+02  0.64067822908E+03  0.76226668476E+03  0.10100000352E+00 0.  1.
</event>
<event>
 5   0  0.1586022E-03  0.1465625E+04  0.7818609E-02  0.8907639E-01
        1   -1    0    0  501    0  0.00000000000E+00  0.00000000000E+00  0.12109576313E+04  0.12109576314E+04  0.50400001928E-02 0.  1.
       -1   -1    0    0    0  501  0.00000000000E+00  0.00000000000E+00 -0.44346261424E+03  0.44346261427E+03  0.50400001928E-02 0. -1.
    10030    2    1    2    0    0  0.00000000000E+00  0.00000000000E+00  0.76749501710E+03  0.16544202456E+04  0.14656253777E+04 0.  0.
        1    1    3    3  502    0  0.60589637461E+03  0.31544251186E+03  0.68325612327E+03  0.96615388271E+03  0.50400001928E-02 0.  1.
       -1    1    3    3    0  502 -0.60589637461E+03 -0.31544251186E+03  0.84238893827E+02  0.68826636291E+03  0.50400001928E-02 0. -1.
</event>
<event>
 5   0  0.1560957E-03  0.1323274E+04  0.7818609E-02  0.9011310E-01
        1   -1    0    0  501    0  0.00000000000E+00  0.00000000000E+00  0.43999299340E+03  0.43999299342E+03  0.50400001928E-02 0. -1.
       -1   -1    0    0    0  501  0.00000000000E+00  0.00000000000E+00 -0.99493267108E+03  0.99493267109E+03  0.50400001928E-02 0.  1.
    10030    2    1    2    0    0  0.00000000000E+00  0.00000000000E+00 -0.55493967768E+03  0.14349256645E+04  0.13232738253E+04 0.  0.
        5    1    3    3  502    0  0.26750257016E+03  0.44419234513E+03  0.16815022915E+03  0.54512480596E+03  0.46999998093E+01 0. -1.
       -5    1    3    3    0  502 -0.26750257016E+03 -0.44419234513E+03 -0.72308990683E+03  0.88980085855E+03  0.46999998093E+01 0.  1.
</event>
<event>
 5   0  0.1631380E-03  0.1384914E+04  0.7818609E-02  0.8964811E-01
        1   -1    0    0  501    0  0.00000000000E+00  0.00000000000E+00  0.10151405153E+04  0.10151405153E+04  0.50400001928E-02 0. -1.
       -1   -1    0    0    0  501  0.00000000000E+00  0.00000000000E+00 -0.47234547556E+03  0.47234547559E+03  0.50400001928E-02 0.  1.
    10030    2    1    2    0    0  0.00000000000E+00  0.00000000000E+00  0.54279503970E+03  0.14874859909E+04  0.13849144803E+04 0.  0.
        3    1    3    3  502    0  0.29230619454E+03  0.13683989280E+03 -0.38661773334E+03  0.50362818583E+03  0.10100000352E+00 0.  1.
       -3    1    3    3    0  502 -0.29230619454E+03 -0.13683989280E+03  0.92941277304E+03  0.98385780503E+03  0.10100000352E+00 0. -1.
</event>
<event>
 5   0  0.2760807E-03  0.1041100E+04  0.7818609E-02  0.9264581E-01
        2   -1    0    0  501    0  0.00000000000E+00  0.00000000000E+00  0.39960041580E+03  0.39960041581E+03  0.25500000920E-02 0. -1.
       -2   -1    0    0    0  501  0.00000000000E+00  0.00000000000E+00 -0.67810839414E+03  0.67810839415E+03  0.25500000920E-02 0.  1.
    10030    2    1    2    0    0  0.00000000000E+00  0.00000000000E+00 -0.27850797834E+03  0.10777088100E+04  0.10411001801E+04 0.  0.
        4    1    3    3  502    0  0.23005137056E+02  0.20882154449E+03  0.35376545678E+03  0.41144536099E+03  0.12699999809E+01 0. -1.
       -4    1    3    3    0  502 -0.23005137056E+02 -0.20882154449E+03 -0.63227343512E+03  0.66626344897E+03  0.12699999809E+01 0.  1.
</event>
<event>
 5   0  0.3006737E-03  0.1403778E+04  0.7818609E-02  0.8951088E-01
        2   -1    0    0  501    0  0.00000000000E+00  0.00000000000E+00  0.28423116486E+04  0.28423116486E+04  0.25500000920E-02 0. -1.
       -2   -1    0    0    0  501  0.00000000000E+00  0.00000000000E+00 -0.17332662506E+03  0.17332662508E+03  0.25500000920E-02 0.  1.
    10030    2    1    2    0    0  0.00000000000E+00  0.00000000000E+00  0.26689850235E+04  0.30156382737E+04  0.14037781669E+04 0.  0.
        1    1    3    3  502    0  0.46192719654E+03  0.22985752052E+03  0.23567364106E+04  0.24125541909E+04  0.50400001928E-02 0. -1.
       -1    1    3    3    0  502 -0.46192719654E+03 -0.22985752052E+03  0.31224861288E+03  0.60308408279E+03  0.50400001928E-02 0.  1.
</event>
<event>
 5   0  0.1644571E-03  0.1353346E+04  0.7818609E-02  0.8988299E-01
        1   -1    0    0  501    0  0.00000000000E+00  0.00000000000E+00  0.13565019684E+04  0.13565019684E+04  0.50400001928E-02 0. -1.
       -1   -1    0    0    0  501  0.00000000000E+00  0.00000000000E+00 -0.33754949616E+03  0.33754949620E+03  0.50400001928E-02 0.  1.
    10030    2    1    2    0    0  0.00000000000E+00  0.00000000000E+00  0.10189524723E+04  0.16940514646E+04  0.13533463060E+04 0.  0.
        4    1    3    3  502    0  0.39279160923E+03  0.40843791532E+03  0.97241766014E+03  0.11254796745E+04  0.12699999809E+01 0. -1.
       -4    1    3    3    0  502 -0.39279160923E+03 -0.40843791532E+03  0.46534812124E+02  0.56857179018E+03  0.12699999809E+01 0.  1.
</event>
<event>
 5   0  0.2889469E-03  0.1331945E+04  0.7818609E-02  0.9004609E-01
        2   -1    0    0  501    0  0.00000000000E+00  0.00000000000E+00  0.11124061428E+04  0.11124061428E+04  0.25500000920E-02 0.  1.
       -2   -1    0    0    0  501  0.00000000000E+00  0.00000000000E+00 -0.39870268564E+03  0.39870268564E+03  0.25500000920E-02 0. -1.
    10030    2    1    2    0    0  0.00000000000E+00  0.00000000000E+00  0.71370345719E+03  0.15111088285E+04  0.13319449188E+04 0.  0.
        5    1    3    3  502    0 -0.21632827535E+03 -0.18542921628E+03  0.10397449791E+04  0.10780879503E+04  0.46999998093E+01 0.  1.
       -5    1    3    3    0  502  0.21632827535E+03  0.18542921628E+03 -0.32604152190E+03  0.43302087821E+03  0.46999998093E+01 0. -1.
</event>
<event>
 5   0  0.1644571E-03  0.1591232E+04  0.7818609E-02  0.8825953E-01
       -1   -1    0    0    0  501  0.00000000000E+00  0.00000000000E+00  0.65155733780E+03  0.65155733782E+03  0.50400001928E-02 0. -1.
        1   -1    0    0  501    0  0.00000000000E+00  0.00000000000E+00 -0.97152585400E+03  0.97152585401E+03  0.50400001928E-02 0.  1.
    10030    2    1    2    0    0  0.00000000000E+00  0.00000000000E+00 -0.31996851620E+03  0.16230831918E+04  0.15912319744E+04 0.  0.
        4    1    3    3  502    0  0.73004430923E+02  0.75751517711E+03  0.76704228956E+02  0.76488171774E+03  0.12699999809E+01 0. -1.
       -4    1    3    3    0  502 -0.73004430923E+02 -0.75751517711E+03 -0.39667274515E+03  0.85820147409E+03  0.12699999809E+01 0.  1.
</event>
<event>
 5   0  0.1586022E-03  0.1368231E+04  0.7818609E-02  0.8977141E-01
        1   -1    0    0  501    0  0.00000000000E+00  0.00000000000E+00  0.10678003085E+04  0.10678003085E+04  0.50400001928E-02 0.  1.
       -1   -1    0    0    0  501  0.00000000000E+00  0.00000000000E+00 -0.43829726133E+03  0.43829726136E+03  0.50400001928E-02 0. -1.
    10030    2    1    2    0    0  0.00000000000E+00  0.00000000000E+00  0.62950304718E+03  0.15060975699E+04  0.13682309029E+04 0.  0.
        1    1    3    3  502    0 -0.29816488485E+03  0.16465716221E+03 -0.33832615678E+03  0.48008214715E+03  0.50400001928E-02 0. -1.
       -1    1    3    3    0  502  0.29816488485E+03 -0.16465716221E+03  0.96782920396E+03  0.10260154227E+04  0.50400001928E-02 0.  1.
</event>
<event>
 5   0  0.1586022E-03  0.1400575E+04  0.7818609E-02  0.8953402E-01
       -1   -1    0    0    0  501  0.00000000000E+00  0.00000000000E+00  0.10125508297E+04  0.10125508297E+04  0.50400001928E-02 0.  1.
        1   -1    0    0  501    0  0.00000000000E+00  0.00000000000E+00 -0.48432402407E+03  0.48432402409E+03  0.50400001928E-02 0. -1.
    10030    2    1    2    0    0  0.00000000000E+00  0.00000000000E+00  0.52822680559E+03  0.14968748538E+04  0.14005751567E+04 0.  0.
        1    1    3    3  502    0 -0.20777558431E+03  0.17721756139E+03  0.95329688544E+03  0.99164091753E+03  0.50400001928E-02 0.  1.
       -1    1    3    3    0  502  0.20777558431E+03 -0.17721756139E+03 -0.42507007986E+03  0.50523393623E+03  0.50400001928E-02 0. -1.
</event>
<event>
 5   0  0.1631380E-03  0.1417502E+04  0.7818609E-02  0.8941246E-01
       -1   -1    0    0    0  501  0.00000000000E+00  0.00000000000E+00  0.64539105227E+03  0.64539105229E+03  0.50400001928E-02 0.  1.
        1   -1    0    0  501    0  0.00000000000E+00  0.00000000000E+00 -0.77833161948E+03  0.77833161949E+03  0.50400001928E-02 0. -1.
    10030    2    1    2    0    0  0.00000000000E+00  0.00000000000E+00 -0.13294056720E+03  0.14237226718E+04  0.14175023992E+04 0.  0.
        3    1    3    3  502    0  0.66147231148E+02  0.70168589314E+03 -0.14156268631E+03  0.71887311340E+03  0.10100000352E+00 0.  1.
       -3    1    3    3    0  502 -0.66147231148E+02 -0.70168589314E+03  0.86221191037E+01  0.70484955838E+03  0.10100000352E+00 0. -1.
</event>
<event>
 5   0  0.2889469E-03  0.1360572E+04  0.7818609E-02  0.8982864E-01
        2   -1    0    0  501    0  0.00000000000E+00  0.00000000000E+00  0.84024211290E+03  0.84024211290E+03  0.25500000920E-02 0.  1.
       -2   -1    0    0    0  501  0.00000000000E+00  0.00000000000E+00 -0.55078048103E+03  0.55078048104E+03  0.25500000920E-02 0. -1.
    10030    2    1    2    0    0  0.00000000000E+00  0.00000000000E+00  0.28946163186E+03  0.13910225939E+04  0.13605718726E+04 0.  0.
        5    1    3    3  502    0 -0.42956404798E+03 -0.35258272359E+03  0.54584694179E+03  0.77898063015E+03  0.46999998093E+01 0.  1.
       -5    1    3    3    0  502  0.42956404798E+03  0.35258272359E+03 -0.25638530993E+03  0.61204196379E+03  0.46999998093E+01 0. -1.
</event>
<event>
 5   0  0.3006737E-03  0.1386363E+04  0.7818609E-02  0.8963749E-01
        2   -1    0    0  501    0  0.00000000000E+00  0.00000000000E+00  0.76802919642E+03  0.76802919643E+03  0.25500000920E-02 0.  1.
       -2   -1    0    0    0  501  0.00000000000E+00  0.00000000000E+00 -0.62562801059E+03  0.62562801059E+03  0.25500000920E-02 0. -1.
    10030    2    1    2    0    0  0.00000000000E+00  0.00000000000E+00  0.14240118583E+03  0.13936572070E+04  0.13863629802E+04 0.  0.
        1    1    3    3  502    0 -0.41213274598E+02 -0.30073297784E+03 -0.55526499518E+03  0.63281756681E+03  0.50400001928E-02 0. -1.
       -1    1    3    3    0  502  0.41213274598E+02  0.30073297784E+03  0.69766618101E+03  0.76083964021E+03  0.50400001928E-02 0.  1.
</event>
<event>
 5   0  0.1644571E-03  0.1306909E+04  0.7818609E-02  0.9024104E-01
       -1   -1    0    0    0  501  0.00000000000E+00  0.00000000000E+00  0.36633220680E+03  0.36633220684E+03  0.50400001928E-02 0. -1.
        1   -1    0    0  501    0  0.00000000000E+00  0.00000000000E+00 -0.11656159248E+04  0.11656159248E+04  0.50400001928E-02 0.  1.
    10030    2    1    2    0    0  0.00000000000E+00  0.00000000000E+00 -0.79928371804E+03  0.15319481317E+04  0.13069088018E+04 0.  0.
        4    1    3    3  502    0 -0.63153196897E+03 -0.47056368134E+02 -0.58848528112E+03  0.86450186154E+03  0.12699999809E+01 0.  1.
       -4    1    3    3    0  502  0.63153196897E+03  0.47056368134E+02 -0.21079843692E+03  0.66744627014E+03  0.12699999809E+01 0. -1.
</event>
<event>
 5   0  0.1631380E-03  0.1416954E+04  0.7818609E-02  0.8941637E-01
       -1   -1    0    0    0  501  0.00000000000E+00  0.00000000000E+00  0.83288293085E+03  0.83288293086E+03  0.50400001928E-02 0. -1.
        1   -1    0    0  501    0  0.00000000000E+00  0.00000000000E+00 -0.60265372698E+03  0.60265372700E+03  0.50400001928E-02 0.  1.
    10030    2    1    2    0    0  0.00000000000E+00  0.00000000000E+00  0.23022920387E+03  0.14355366579E+04  0.14169544840E+04 0.  0.
        3    1    3    3  502    0 -0.61563766955E+03  0.61003885836E+01 -0.24004374527E+03  0.66080856892E+03  0.10100000352E+00 0.  1.
       -3    1    3    3    0  502  0.61563766955E+03 -0.61003885836E+01  0.47027294913E+03  0.77472808894E+03  0.10100000352E+00 0. -1.
</event>
<event>
 5   0  0.2889469E-03  0.7895301E+03  0.7818609E-02  0.9575297E-01
        2   -1    0    0  501    0  0.00000000000E+00  0.00000000000E+00  0.37304950521E+03  0.37304950522E+03  0.25500000920E-02 0.  1.
       -2   -1    0    0    0  501  0.00000000000E+00  0.00000000000E+00 -0.41774470327E+03  0.41774470327E+03  0.25500000920E-02 0. -1.
    10030    2    1    2    0    0  0.00000000000E+00  0.00000000000E+00 -0.44695198055E+02  0.79079420849E+03  0.78953012574E+03 0.  0.
        5    1    3    3  502    0 -0.31138152653E+03  0.21135518230E+03 -0.14165126347E+03  0.40214007334E+03  0.46999998093E+01 0. -1.
       -5    1    3    3    0  502  0.31138152653E+03 -0.21135518230E+03  0.96956065413E+02  0.38865413515E+03  0.46999998093E+01 0.  1.
</event>
<event>
 5   0  0.1631380E-03  0.1365131E+04  0.7818609E-02  0.8979453E-01
        1   -1    0    0  501    0  0.00000000000E+00  0.00000000000E+00  0.53152339616E+03  0.53152339618E+03  0.50400001928E-02 0. -1.
       -1   -1    0    0    0  501  0.00000000000E+00  0.00000000000E+00 -0.87652862326E+03  0.87652862328E+03  0.50400001928E-02 0.  1.
    10030    2    1    2    0    0  0.00000000000E+00  0.00000000000E+00 -0.34500522711E+03  0.14080520195E+04  0.13651307200E+04 0.  0.
        3    1    3    3  502    0 -0.62006890330E+02  0.53319095494E+03  0.26236698928E+03  0.59747292503E+03  0.10100000352E+00 0. -1.
       -3    1    3    3    0  502  0.62006890330E+02 -0.53319095494E+03 -0.60737221639E+03  0.81057909443E+03  0.10100000352E+00 0.  1.
</event>
<event>
 5   0  0.1631380E-03  0.1374940E+04  0.7818609E-02  0.8972161E-01
       -1   -1    0    0    0  501  0.00000000000E+00  0.00000000000E+00  0.47282925507E+03  0.47282925510E+03  0.50400001928E-02 0. -1.
        1   -1    0    0  501    0  0.00000000000E+00  0.00000000000E+00 -0.99954706985E+03  0.99954706986E+03  0.50400001928E-02 0.  1.
    10030    2    1    2    0    0  0.00000000000E+00  0.00000000000E+00 -0.52671781478E+03  0.14723763250E+04  0.13749401390E+04 0.  0.
        3    1    3    3  502    0 -0.26630408704E+02  0.66414216534E+03 -0.75358389912E+02  0.66893414592E+03  0.10100000352E+00 0.  1.
       -3    1    3    3    0  502  0.26630408704E+02 -0.66414216534E+03 -0.45135942487E+03  0.80344217904E+03  0.10100000352E+00 0. -1.
</event>
<event>
 5   0  0.2760807E-03  0.9256223E+03  0.7818609E-02  0.9394107E-01
        2   -1    0    0  501    0  0.00000000000E+00  0.00000000000E+00  0.11227517762E+04  0.11227517762E+04  0.25500000920E-02 0.  1.
       -2   -1    0    0    0  501  0.00000000000E+00  0.00000000000E+00 -0.19077604417E+03  0.19077604419E+03  0.25500000920E-02 0. -1.
    10030    2    1    2    0    0  0.00000000000E+00  0.00000000000E+00  0.93197573202E+03  0.13135278204E+04  0.92562226088E+03 0.  0.
        4    1    3    3  502    0 -0.38891788562E+03  0.21080625749E+03  0.27299292951E+03  0.51982992643E+03  0.12699999809E+01 0.  1.
       -4    1    3    3    0  502  0.38891788562E+03 -0.21080625749E+03  0.65898280251E+03  0.79369789395E+03  0.12699999809E+01 0. -1.
</event>
<event>
 5   0  0.2917809E-03  0.1426114E+04  0.7818609E-02  0.8935130E-01
        2   -1    0    0  501    0  0.00000000000E+00  0.00000000000E+00  0.13708140206E+04  0.13708140206E+04  0.25500000920E-02 0.  1.
       -2   -1    0    0    0  501  0.00000000000E+00  0.00000000000E+00 -0.37091132072E+03  0.37091132073E+03  0.25500000920E-02 0. -1.
    10030    2    1    2    0    0  0.00000000000E+00  0.00000000000E+00  0.99990269987E+03  0.17417253413E+04  0.14261142154E+04 0.  0.
        2    1    3    3  502    0  0.49937341425E+03 -0.34330630251E+03  0.40997000531E+02  0.60738272799E+03  0.25500000920E-02 0. -1.
       -2    1    3    3    0  502 -0.49937341425E+03  0.34330630251E+03  0.95890569934E+03  0.11343426133E+04  0.25500000920E-02 0.  1.
</event>
<event>
 5   0  0.1700207E-03  0.1464128E+04  0.7818609E-02  0.8908664E-01
       -1   -1    0    0    0  501  0.00000000000E+00  0.00000000000E+00  0.81448632865E+03  0.81448632866E+03  0.50400001928E-02 0.  1.
        1   -1    0    0  501    0  0.00000000000E+00  0.00000000000E+00 -0.65798275890E+03  0.65798275892E+03  0.50400001928E-02 0. -1.
    10030    2    1    2    0    0  0.00000000000E+00  0.00000000000E+00  0.15650356974E+03  0.14724690876E+04  0.14641283573E+04 0.  0.
        2    1    3    3  502    0 -0.46158164526E+03 -0.31843326837E+03 -0.39502507420E+03  0.68593160803E+03  0.25500000920E-02 0. -1.
       -2    1    3    3    0  502  0.46158164526E+03  0.31843326837E+03  0.55152864395E+03  0.78653747955E+03  0.25500000920E-02 0.  1.
</event>
<event>
 5   0  0.2917809E-03  0.1286255E+04  0.7818609E-02  0.9040537E-01
        2   -1    0    0  501    0  0.00000000000E+00  0.00000000000E+00  0.13734130892E+04  0.13734130892E+04  0.25500000920E-02 0. -1.
       -2   -1    0    0    0  501  0.00000000000E+00  0.00000000000E+00 -0.30115687022E+03  0.30115687023E+03  0.25500000920E-02 0.  1.
    10030    2    1    2    0    0  0.00000000000E+00  0.00000000000E+00  0.10722562190E+04  0.16745699595E+04  0.12862546987E+04 0.  0.
        2    1    3    3  502    0 -0.55865402580E+03  0.43013339247E+02  0.94714047667E+03  0.11004633344E+04  0.25500000920E-02 0.  1.
       -2    1    3    3    0  502  0.55865402580E+03 -0.43013339247E+02  0.12511574234E+03  0.57410662502E+03  0.25500000920E-02 0. -1.
</event>
<event>
 5   0  0.1700207E-03  0.1377649E+04  0.7818609E-02  0.8970158E-01
       -1   -1    0    0    0  501  0.00000000000E+00  0.00000000000E+00  0.22968876457E+03  0.22968876463E+03  0.50400001928E-02 0.  1.
        1   -1    0    0  501    0  0.00000000000E+00  0.00000000000E+00 -0.20657495709E+04  0.20657495709E+04  0.50400001928E-02 0. -1.
    10030    2    1    2    0    0  0.00000000000E+00  0.00000000000E+00 -0.18360608063E+04  0.22954383355E+04  0.13776493994E+04 0.  0.
        2    1    3    3  502    0  0.32450215149E+03  0.56045134465E+02 -0.19260971213E+04  0.19540452462E+04  0.25500000920E-02 0. -1.
       -2    1    3    3    0  502 -0.32450215149E+03 -0.56045134465E+02  0.90036315001E+02  0.34139308933E+03  0.25500000920E-02 0.  1.
</event>
<event>
 5   0  0.1104538E-03  0.1353007E+04  0.7818609E-02  0.8988555E-01
        3   -1    0    0  501    0  0.00000000000E+00  0.00000000000E+00  0.57713469645E+03  0.57713470529E+03  0.10100000352E+00 0.  1.
       -3   -1    0    0    0  501  0.00000000000E+00  0.00000000000E+00 -0.79298111342E+03  0.79298111985E+03  0.10100000352E+00 0. -1.
    10030    2    1    2    0    0  0.00000000000E+00  0.00000000000E+00 -0.21584641697E+03  0.13701158251E+04  0.13530069100E+04 0.  0.
        4    1    3    3  502    0 -0.34756766321E+03 -0.11022825346E+02 -0.69554584032E+03  0.77763128285E+03  0.12699999809E+01 0. -1.
       -4    1    3    3    0  502  0.34756766321E+03  0.11022825346E+02  0.47969942335E+03  0.59248454229E+03  0.12699999809E+01 0.  1.
</event>
<event>
 5   0  0.1586022E-03  0.1423210E+04  0.7818609E-02  0.8937188E-01
       -1   -1    0    0    0  501  0.00000000000E+00  0.00000000000E+00  0.39375078960E+03  0.39375078964E+03  0.50400001928E-02 0. -1.
        1   -1    0    0  501    0  0.00000000000E+00  0.00000000000E+00 -0.12860453641E+04  0.12860453641E+04  0.50400001928E-02 0.  1.
    10030    2    1    2    0    0  0.00000000000E+00  0.00000000000E+00 -0.89229457446E+03  0.16797961537E+04  0.14232095806E+04 0.  0.
        1    1    3    3  502    0  0.26484915411E+03  0.37502303262E+03  0.19555790274E+03  0.49902930052E+03  0.50400001928E-02 0. -1.
       -1    1    3    3    0  502 -0.26484915411E+03 -0.37502303262E+03 -0.10878524772E+04  0.11807668532E+04  0.50400001928E-02 0.  1.
</event>
<event>
 5   0  0.2917809E-03  0.1414144E+04  0.7818609E-02  0.8943644E-01
       -2   -1    0    0    0  501  0.00000000000E+00  0.00000000000E+00  0.55370819400E+03  0.55370819401E+03  0.25500000920E-02 0.  1.
        2   -1    0    0  501    0  0.00000000000E+00  0.00000000000E+00 -0.90291384872E+03  0.90291384872E+03  0.25500000920E-02 0. -1.
    10030    2    1    2    0    0  0.00000000000E+00  0.00000000000E+00 -0.34920565472E+03  0.14566220427E+04  0.14141439764E+04 0.  0.
        2    1    3    3  502    0  0.47691621223E+03 -0.68057393316E+00  0.36309404091E+03  0.59940538805E+03  0.25500000920E-02 0.  1.
       -2    1    3    3    0  502 -0.47691621223E+03  0.68057393316E+00 -0.71229969563E+03  0.85721665468E+03  0.25500000920E-02 0. -1.
</event>
<event>
 5   0  0.2760807E-03  0.1441459E+04  0.7818609E-02  0.8924343E-01
       -2   -1    0    0    0  501  0.00000000000E+00  0.00000000000E+00  0.48077479741E+03  0.48077479742E+03  0.25500000920E-02 0.  1.
        2   -1    0    0  501    0  0.00000000000E+00  0.00000000000E+00 -0.10804459006E+04  0.10804459006E+04  0.25500000920E-02 0. -1.
    10030    2    1    2    0    0  0.00000000000E+00  0.00000000000E+00 -0.59967110319E+03  0.15612206980E+04  0.14414592037E+04 0.  0.
        4    1    3    3  502    0 -0.17105234915E+02 -0.59383841821E+03  0.14212740910E+03  0.61085061130E+03  0.12699999809E+01 0.  1.
       -4    1    3    3    0  502  0.17105234915E+02  0.59383841821E+03 -0.74179851229E+03  0.95037008673E+03  0.12699999809E+01 0. -1.
</event>
<event>
 5   0  0.3006737E-03  0.1470330E+04  0.7818609E-02  0.8904426E-01
       -2   -1    0    0    0  501  0.00000000000E+00  0.00000000000E+00  0.97889335514E+03  0.97889335515E+03  0.25500000920E-02 0.  1.
        2   -1    0    0  501    0  0.00000000000E+00  0.00000000000E+00 -0.55212103307E+03  0.55212103308E+03  0.25500000920E-02 0. -1.
    10030    2    1    2    0    0  0.00000000000E+00  0.00000000000E+00  0.42677232207E+03  0.15310143882E+04  0.14703300453E+04 0.  0.
        1    1    3    3  502    0 -0.27581717926E+03  0.53090107912E+03 -0.23149021606E+03  0.64149730502E+03  0.50400001928E-02 0. -1.
       -1    1    3    3    0  502  0.27581717926E+03 -0.53090107912E+03  0.65826253813E+03  0.88951708321E+03  0.50400001928E-02 0.  1.
</event>
<event>
 5   0  0.3006737E-03  0.1401946E+04  0.7818609E-02  0.8952411E-01
       -2   -1    0    0    0  501  0.00000000000E+00  0.00000000000E+00  0.87025795742E+03  0.87025795743E+03  0.25500000920E-02 0.  1.
        2   -1    0    0  501    0  0.00000000000E+00  0.00000000000E+00 -0.56461804908E+03  0.56461804909E+03  0.25500000920E-02 0. -1.
    10030    2    1    2    0    0  0.00000000000E+00  0.00000000000E+00  0.30563990834E+03  0.14348760065E+04  0.14019462902E+04 0.  0.
        1    1    3    3  502    0 -0.17176872694E+03 -0.32893177290E+03 -0.45584409871E+03  0.58778775858E+03  0.50400001928E-02 0. -1.
       -1    1    3    3    0  502  0.17176872694E+03  0.32893177290E+03  0.76148400705E+03  0.84708824794E+03  0.50400001928E-02 0.  1.
</event>
<event>
 5   0  0.1700207E-03  0.1372859E+04  0.7818609E-02  0.8973702E-01
        1   -1    0    0  501    0  0.00000000000E+00  0.00000000000E+00  0.50009809357E+03  0.50009809359E+03  0.50400001928E-02 0. -1.
       -1   -1    0    0    0  501  0.00000000000E+00  0.00000000000E+00 -0.94218652083E+03  0.94218652084E+03  0.50400001928E-02 0.  1.
    10030    2    1    2    0    0  0.00000000000E+00  0.00000000000E+00 -0.44208842726E+03  0.14422846144E+04  0.13728593269E+04 0.  0.
        2    1    3    3  502    0  0.45389683740E+01  0.52575672862E+03  0.24257137108E+03  0.57903506802E+03  0.25500000920E-02 0. -1.
       -2    1    3    3    0  502 -0.45389683740E+01 -0.52575672862E+03 -0.68465979834E+03  0.86324954642E+03  0.25500000920E-02 0.  1.
</event>
<event>
 5   0  0.1104538E-03  0.1394851E+04  0.7818609E-02  0.8957554E-01
       -4   -1    0    0    0  501  0.00000000000E+00  0.00000000000E+00  0.16884497160E+04  0.16884501937E+04  0.12699999809E+01 0. -1.
        4   -1    0    0  501    0  0.00000000000E+00  0.00000000000E+00 -0.28807428905E+03  0.28807708849E+03  0.12699999809E+01 0.  1.
    10030    2    1    2    0    0  0.00000000000E+00  0.00000000000E+00  0.14003754270E+04  0.19765272822E+04  0.13948508023E+04 0.  0.
        4    1    3    3  502    0  0.20344378167E+03  0.50464718074E+03  0.13184074406E+04  0.14262741468E+04  0.12699999809E+01 0. -1.
       -4    1    3    3    0  502 -0.20344378167E+03 -0.50464718074E+03  0.81967986376E+02  0.55025313540E+03  0.12699999809E+01 0.  1.
</event>
<event>
 5   0  0.3006737E-03  0.1393881E+04  0.7818609E-02  0.8958260E-01
        2   -1    0    0  501    0  0.00000000000E+00  0.00000000000E+00  0.81843796819E+03  0.81843796820E+03  0.25500000920E-02 0. -1.
       -2   -1    0    0    0  501  0.00000000000E+00  0.00000000000E+00 -0.59347920276E+03  0.59347920277E+03  0.25500000920E-02 0.  1.
    10030    2    1    2    0    0  0.00000000000E+00  0.00000000000E+00  0.22495876543E+03  0.14119171710E+04  0.13938807881E+04 0.  0.
        1    1    3    3  502    0  0.30112108772E+01  0.25994466353E+03  0.76748852589E+03  0.81032026563E+03  0.50400001928E-02 0. -1.
       -1    1    3    3    0  502 -0.30112108772E+01 -0.25994466353E+03 -0.54252976046E+03  0.60159690533E+03  0.50400001928E-02 0.  1.
</event>
<event>
 5   0  0.2889469E-03  0.7850045E+03  0.7818609E-02  0.9581980E-01
        2   -1    0    0  501    0  0.00000000000E+00  0.00000000000E+00  0.82969602632E+03  0.82969602632E+03  0.25500000920E-02 0. -1.
       -2   -1    0    0    0  501  0.00000000000E+00  0.00000000000E+00 -0.18568007315E+03  0.18568007317E+03  0.25500000920E-02 0.  1.
    10030    2    1    2    0    0  0.00000000000E+00  0.00000000000E+00  0.64401595317E+03  0.10153760995E+04  0.78500450666E+03 0.  0.
        5    1    3    3  502    0  0.23041071878E+03  0.13208098244E+03 -0.51759732310E+02  0.27062085127E+03  0.46999998093E+01 0.  1.
       -5    1    3    3    0  502 -0.23041071878E+03 -0.13208098244E+03  0.69577568548E+03  0.74475524822E+03  0.46999998093E+01 0. -1.
</event>
<event>
 5   0  0.2760807E-03  0.1414786E+04  0.7818609E-02  0.8943185E-01
        2   -1    0    0  501    0  0.00000000000E+00  0.00000000000E+00  0.30597704877E+04  0.30597704877E+04  0.25500000920E-02 0.  1.
       -2   -1    0    0    0  501  0.00000000000E+00  0.00000000000E+00 -0.16354318268E+03  0.16354318270E+03  0.25500000920E-02 0. -1.
    10030    2    1    2    0    0  0.00000000000E+00  0.00000000000E+00  0.28962273050E+04  0.32233136704E+04  0.14147856430E+04 0.  0.
        4    1    3    3  502    0  0.10248775775E+03  0.49859227183E+03  0.25672811365E+04  0.26172565867E+04  0.12699999809E+01 0.  1.
       -4    1    3    3    0  502 -0.10248775775E+03 -0.49859227183E+03  0.32894616855E+03  0.60605708372E+03  0.12699999809E+01 0. -1.
</event>
<event>
 5   0  0.1586022E-03  0.1393454E+04  0.7818609E-02  0.8958570E-01
        1   -1    0    0  501    0  0.00000000000E+00  0.00000000000E+00  0.60611072638E+03  0.60611072640E+03  0.50400001928E-02 0. -1.
       -1   -1    0    0    0  501  0.00000000000E+00  0.00000000000E+00 -0.80089092756E+03  0.80089092757E+03  0.50400001928E-02 0.  1.
    10030    2    1    2    0    0  0.00000000000E+00  0.00000000000E+00 -0.19478020117E+03  0.14070016540E+04  0.13934540995E+04 0.  0.
        1    1    3    3  502    0  0.26643003054E+03 -0.45132715250E+03 -0.56092568119E+03  0.76767101000E+03  0.50400001928E-02 0.  1.
       -1    1    3    3    0  502 -0.26643003054E+03  0.45132715250E+03  0.36614548001E+03  0.63933064397E+03  0.50400001928E-02 0. -1.
</event>
<event>
 5   0  0.2993993E-03  0.1381557E+04  0.7818609E-02  0.8967278E-01
        2   -1    0    0  501    0  0.00000000000E+00  0.00000000000E+00  0.11590421915E+04  0.11590421915E+04  0.25500000920E-02 0.  1.
       -2   -1    0    0    0  501  0.00000000000E+00  0.00000000000E+00 -0.41169773933E+03  0.41169773934E+03  0.25500000920E-02 0. -1.
    10030    2    1    2    0    0  0.00000000000E+00  0.00000000000E+00  0.74734445215E+03  0.15707399308E+04  0.13815571650E+04 0.  0.
        3    1    3    3  502    0  0.82809863724E+02 -0.30130578857E+03  0.10740943353E+04  0.11186247374E+04  0.10100000352E+00 0.  1.
       -3    1    3    3    0  502 -0.82809863724E+02  0.30130578857E+03 -0.32674988318E+03  0.45211519341E+03  0.10100000352E+00 0. -1.
</event>
<event>
 5   0  0.3006737E-03  0.1241364E+04  0.7818609E-02  0.9077402E-01
       -2   -1    0    0    0  501  0.00000000000E+00  0.00000000000E+00  0.22164500286E+03  0.22164500287E+03  0.25500000920E-02 0.  1.
        2   -1    0    0  501    0  0.00000000000E+00  0.00000000000E+00 -0.17381228999E+04  0.17381228999E+04  0.25500000920E-02 0. -1.
    10030    2    1    2    0    0  0.00000000000E+00  0.00000000000E+00 -0.15164778970E+04  0.19597679028E+04  0.12413641772E+04 0.  0.
        1    1    3    3  502    0 -0.15509536964E+03 -0.38118864640E+03 -0.14917701205E+04  0.15474939258E+04  0.50400001928E-02 0. -1.
       -1    1    3    3    0  502  0.15509536964E+03  0.38118864640E+03 -0.24707776486E+02  0.41227397695E+03  0.50400001928E-02 0.  1.
</event>
<event>
 5   0  0.1644571E-03  0.1376179E+04  0.7818609E-02  0.8971244E-01
        1   -1    0    0  501    0  0.00000000000E+00  0.00000000000E+00  0.13121142642E+04  0.13121142642E+04  0.50400001928E-02 0. -1.
       -1   -1    0    0    0  501  0.00000000000E+00  0.00000000000E+00 -0.36084314217E+03  0.36084314220E+03  0.50400001928E-02 0.  1.
    10030    2    1    2    0    0  0.00000000000E+00  0.00000000000E+00  0.95127112200E+03  0.16729574064E+04  0.13761793982E+04 0.  0.
        4    1    3    3  502    0 -0.56337319326E+03  0.42217446413E+02 -0.18767434333E+01  0.56495734594E+03  0.12699999809E+01 0.  1.
       -4    1    3    3    0  502  0.56337319326E+03 -0.42217446413E+02  0.95314786543E+03  0.11080000604E+04  0.12699999809E+01 0. -1.
</event>
<event>
 5   0  0.2993993E-03  0.1306535E+04  0.7818609E-02  0.9024399E-01
       -2   -1    0    0    0  501  0.00000000000E+00  0.00000000000E+00  0.37265459775E+03  0.37265459775E+03  0.25500000920E-02 0.  1.
        2   -1    0    0  501    0  0.00000000000E+00  0.00000000000E+00 -0.11451844548E+04  0.11451844548E+04  0.25500000920E-02 0. -1.
    10030    2    1    2    0    0  0.00000000000E+00  0.00000000000E+00 -0.77252985703E+03  0.15178390525E+04  0.13065347333E+04 0.  0.
        3    1    3    3  502    0 -0.26987601146E+03  0.49337696336E+03 -0.77244908745E+03  0.95547448550E+03  0.10100000352E+00 0. -1.
       -3    1    3    3    0  502  0.26987601146E+03 -0.49337696336E+03 -0.80769576569E-01  0.56236456703E+03  0.10100000352E+00 0.  1.
</event>
<event>
 5   0  0.3006737E-03  0.1386602E+04  0.7818609E-02  0.8963574E-01
        2   -1    0    0  501    0  0.00000000000E+00  0.00000000000E+00  0.58210860726E+03  0.58210860727E+03  0.25500000920E-02 0.  1.
       -2   -1    0    0    0  501  0.00000000000E+00  0.00000000000E+00 -0.82573297786E+03  0.82573297786E+03  0.25500000920E-02 0. -1.
    10030    2    1    2    0    0  0.00000000000E+00  0.00000000000E+00 -0.24362437059E+03  0.14078415851E+04  0.13866019958E+04 0.  0.
        1    1    3    3  502    0 -0.56861063013E+03 -0.10047184709E+03  0.26780219461E+03  0.63649874801E+03  0.50400001928E-02 0.  1.
       -1    1    3    3    0  502  0.56861063013E+03  0.10047184709E+03 -0.51142656520E+03  0.77134283712E+03  0.50400001928E-02 0. -1.
</event>
<event>
 5   0  0.1700207E-03  0.1383955E+04  0.7818609E-02  0.8965515E-01
        1   -1    0    0  501    0  0.00000000000E+00  0.00000000000E+00  0.12070472410E+04  0.12070472410E+04  0.50400001928E-02 0.  1.
       -1   -1    0    0    0  501  0.00000000000E+00  0.00000000000E+00 -0.39669779384E+03  0.39669779388E+03  0.50400001928E-02 0. -1.
    10030    2    1    2    0    0  0.00000000000E+00  0.00000000000E+00  0.81034944712E+03  0.16037450349E+04  0.13839551692E+04 0.  0.
        2    1    3    3  502    0 -0.47063721741E+02  0.29572345889E+03 -0.31772912306E+03  0.43659953469E+03  0.25500000920E-02 0. -1.
       -2    1    3    3    0  502  0.47063721741E+02 -0.29572345889E+03  0.11280785702E+04  0.11671455002E+04  0.25500000920E-02 0.  1.
</event>
<event>
 5   0  0.2889469E-03  0.1433653E+04  0.7818609E-02  0.8929813E-01
        2   -1    0    0  501    0  0.00000000000E+00  0.00000000000E+00  0.47683440566E+03  0.47683440567E+03  0.25500000920E-02 0.  1.
       -2   -1    0    0    0  501  0.00000000000E+00  0.00000000000E+00 -0.10776068560E+04  0.10776068560E+04  0.25500000920E-02 0. -1.
    10030    2    1    2    0    0  0.00000000000E+00  0.00000000000E+00 -0.60077245030E+03  0.15544412616E+04  0.14336527121E+04 0.  0.
        5    1    3    3  502    0 -0.28035694784E+03  0.50860542520E+03  0.15517840156E+03  0.60115049950E+03  0.46999998093E+01 0.  1.
       -5    1    3    3    0  502  0.28035694784E+03 -0.50860542520E+03 -0.75595085185E+03  0.95329076213E+03  0.46999998093E+01 0. -1.
</event>
<event>
 5   0  0.1586022E-03  0.1182464E+04  0.7818609E-02  0.9128346E-01
       -1   -1    0    0    0  501  0.00000000000E+00  0.00000000000E+00  0.85480862643E+03  0.85480862644E+03  0.50400001928E-02 0.  1.
        1   -1    0    0  501    0  0.00000000000E+00  0.00000000000E+00 -0.40892789536E+03  0.40892789539E+03  0.50400001928E-02 0. -1.
    10030    2    1    2    0    0  0.00000000000E+00  0.00000000000E+00  0.44588073107E+03  0.12637365218E+04  0.11824636867E+04 0.  0.
        1    1    3    3  502    0 -0.16874370957E+03 -0.26063589453E+03  0.76066178061E+03  0.82159105006E+03  0.50400001928E-02 0.  1.
       -1    1    3    3    0  502  0.16874370957E+03  0.26063589453E+03 -0.31478104953E+03  0.44214547177E+03  0.50400001928E-02 0. -1.
</event>
<event>
 5   0  0.3006737E-03  0.1264470E+04  0.7818609E-02  0.9058225E-01
       -2   -1    0    0    0  501  0.00000000000E+00  0.00000000000E+00  0.73447596645E+03  0.73447596645E+03  0.25500000920E-02 0.  1.
        2   -1    0    0  501    0  0.00000000000E+00  0.00000000000E+00 -0.54422645022E+03  0.54422645023E+03  0.25500000920E-02 0. -1.
    10030    2    1    2    0    0  0.00000000000E+00  0.00000000000E+00  0.19024951622E+03  0.12787024167E+04  0.12644702416E+04 0.  0.
        1    1    3    3  502    0 -0.29069368559E+03 -0.56136707638E+03  0.10447188202E+03  0.64074190392E+03  0.50400001928E-02 0. -1.
       -1    1    3    3    0  502  0.29069368559E+03  0.56136707638E+03  0.85777634202E+02  0.63796051276E+03  0.50400001928E-02 0.  1.
</event>
<event>
 5   0  0.2917809E-03  0.1408627E+04  0.7818609E-02  0.8947598E-01
       -2   -1    0    0    0  501  0.00000000000E+00  0.00000000000E+00  0.68335586401E+03  0.68335586402E+03  0.25500000920E-02 0.  1.
        2   -1    0    0  501    0  0.00000000000E+00  0.00000000000E+00 -0.72591367894E+03  0.72591367894E+03  0.25500000920E-02 0. -1.
    10030    2    1    2    0    0  0.00000000000E+00  0.00000000000E+00 -0.42557814925E+02  0.14092695430E+04  0.14086268055E+04 0.  0.
        2    1    3    3  502    0  0.21672718417E+03  0.93572746828E+02  0.64259816228E+03  0.68458668514E+03  0.25500000920E-02 0.  1.
       -2    1    3    3    0  502 -0.21672718417E+03 -0.93572746828E+02 -0.68515597720E+03  0.72468285781E+03  0.25500000920E-02 0. -1.
</event>
<event>
 5   0  0.1560957E-03  0.1306414E+04  0.7818609E-02  0.9024495E-01
       -1   -1    0    0    0  501  0.00000000000E+00  0.00000000000E+00  0.74482172491E+03  0.74482172492E+03  0.50400001928E-02 0. -1.
        1   -1    0    0  501    0  0.00000000000E+00  0.00000000000E+00 -0.57286069960E+03  0.57286069962E+03  0.50400001928E-02 0.  1.
    10030    2    1    2    0    0  0.00000000000E+00  0.00000000000E+00  0.17196102531E+03  0.13176824245E+04  0.13064135554E+04 0.  0.
        5    1    3    3  502    0  0.25466826923E+03 -0.59653594380E+03  0.16375560099E+03  0.66899106605E+03  0.46999998093E+01 0. -1.
       -5    1    3    3    0  502 -0.25466826923E+03  0.59653594380E+03  0.82054243211E+01  0.64869135850E+03  0.46999998093E+01 0.  1.
</event>
<event>
 5   0  0.1631380E-03  0.1370506E+04  0.7818609E-02  0.8975449E-01
        1   -1    0    0  501    0  0.00000000000E+00  0.00000000000E+00  0.33598481980E+03  0.33598481984E+03  0.50400001928E-02 0. -1.
       -1   -1    0    0    0  501  0.00000000000E+00  0.00000000000E+00 -0.13975976796E+04  0.13975976796E+04  0.50400001928E-02 0.  1.
    10030    2    1    2    0    0  0.00000000000E+00  0.00000000000E+00 -0.10616128598E+04  0.17335824994E+04  0.13705058987E+04 0.  0.
        3    1    3    3  502    0 -0.45182157500E+03  0.72120919028E+02 -0.11760744517E+04  0.12619410797E+04  0.10100000352E+00 0.  1.
       -3    1    3    3    0  502  0.45182157500E+03 -0.72120919028E+02  0.11446159187E+03  0.47164141974E+03  0.10100000352E+00 0. -1.
</event>
<event>
 5   0  0.2993993E-03  0.1417291E+04  0.7818609E-02  0.8941397E-01
       -2   -1    0    0    0  501  0.00000000000E+00  0.00000000000E+00  0.57801268658E+03  0.57801268658E+03  0.25500000920E-02 0.  1.
        2   -1    0    0  501    0  0.00000000000E+00  0.00000000000E+00 -0.86880120604E+03  0.86880120605E+03  0.25500000920E-02 0. -1.
    10030    2    1    2    0    0  0.00000000000E+00  0.00000000000E+00 -0.29078851947E+03  0.14468138926E+04  0.14172905407E+04 0.  0.
        3    1    3    3  502    0 -0.39323071925E+03  0.58434256836E+03 -0.22506795359E+03  0.73942019833E+03  0.10100000352E+00 0. -1.
       -3    1    3    3    0  502  0.39323071925E+03 -0.58434256836E+03 -0.65720565879E+02  0.70739369430E+03  0.10100000352E+00 0.  1.
</event>
<event>
 5   0  0.2889469E-03  0.1417474E+04  0.7818609E-02  0.8941266E-01
       -2   -1    0    0    0  501  0.00000000000E+00  0.00000000000E+00  0.32134385008E+03  0.32134385009E+03  0.25500000920E-02 0.  1.
        2   -1    0    0  501    0  0.00000000000E+00  0.00000000000E+00 -0.15631490020E+04  0.15631490020E+04  0.25500000920E-02 0. -1.
    10030    2    1    2    0    0  0.00000000000E+00  0.00000000000E+00 -0.12418051519E+04  0.18844928521E+04  0.14174742588E+04 0.  0.
        5    1    3    3  502    0  0.32738736301E+03 -0.55087158716E+03 -0.10233710758E+04  0.12074570136E+04  0.46999998093E+01 0. -1.
       -5    1    3    3    0  502 -0.32738736301E+03  0.55087158716E+03 -0.21843407617E+03  0.67703583851E+03  0.46999998093E+01 0.  1.
</event>
<event>
 5   0  0.1560957E-03  0.1413573E+04  0.7818609E-02  0.8944052E-01
        1   -1    0    0  501    0  0.00000000000E+00  0.00000000000E+00  0.78278327056E+03  0.78278327058E+03  0.50400001928E-02 0. -1.
       -1   -1    0    0    0  501  0.00000000000E+00  0.00000000000E+00 -0.63816772786E+03  0.63816772788E+03  0.50400001928E-02 0.  1.
    10030    2    1    2    0    0  0.00000000000E+00  0.00000000000E+00  0.14461554270E+03  0.14209509985E+04  0.14135728085E+04 0.  0.
        5    1    3    3  502    0 -0.67389935132E+03  0.16113481933E+03 -0.67775857109E+02  0.69621865999E+03  0.46999998093E+01 0. -1.
       -5    1    3    3    0  502  0.67389935132E+03 -0.16113481933E+03  0.21239139981E+03  0.72473233847E+03  0.46999998093E+01 0.  1.
</event>
<event>
 5   0  0.3006737E-03  0.1366099E+04  0.7818609E-02  0.8978730E-01
       -2   -1    0    0    0  501  0.00000000000E+00  0.00000000000E+00  0.40372205344E+03  0.40372205345E+03  0.25500000920E-02 0. -1.
        2   -1    0    0  501    0  0.00000000000E+00  0.00000000000E+00 -0.11556375315E+04  0.11556375315E+04  0.25500000920E-02 0.  1.
    10030    2    1    2    0    0  0.00000000000E+00  0.00000000000E+00 -0.75191547807E+03  0.15593595850E+04  0.13660986162E+04 0.  0.
        1    1    3    3  502    0  0.43279529246E+03  0.12450310281E+03 -0.96217035739E+03  0.10623486172E+04  0.50400001928E-02 0.  1.
       -1    1    3    3    0  502 -0.43279529246E+03 -0.12450310281E+03  0.21025487932E+03  0.49701096777E+03  0.50400001928E-02 0. -1.
</event>
<event>
 5   0  0.1586022E-03  0.1396830E+04  0.7818609E-02  0.8956117E-01
        1   -1    0    0  501    0  0.00000000000E+00  0.00000000000E+00  0.13009071960E+04  0.13009071960E+04  0.50400001928E-02 0. -1.
       -1   -1    0    0    0  501  0.00000000000E+00  0.00000000000E+00 -0.37495622436E+03  0.37495622439E+03  0.50400001928E-02 0.  1.
    10030    2    1    2    0    0  0.00000000000E+00  0.00000000000E+00  0.92595097167E+03  0.16758634204E+04  0.13968296253E+04 0.  0.
        1    1    3    3  502    0  0.51582238623E+03  0.29501136345E+03  0.22679402435E+02  0.59465855246E+03  0.50400001928E-02 0.  1.
       -1    1    3    3    0  502 -0.51582238623E+03 -0.29501136345E+03  0.90327156924E+03  0.10812048680E+04  0.50400001928E-02 0. -1.
</event>
<event>
 5   0  0.2993993E-03  0.1744894E+04  0.7818609E-02  0.8736166E-01
       -2   -1    0    0    0  501  0.00000000000E+00  0.00000000000E+00  0.65515381439E+03  0.65515381440E+03  0.25500000920E-02 0.  1.
        2   -1    0    0  501    0  0.00000000000E+00  0.00000000000E+00 -0.11618086406E+04  0.11618086406E+04  0.25500000920E-02 0. -1.
    10030    2    1    2    0    0  0.00000000000E+00  0.00000000000E+00 -0.50665482620E+03  0.18169624550E+04  0.17448935354E+04 0.  0.
        3    1    3    3  502    0 -0.26683691569E+03  0.23178215547E+03  0.57726311407E+03  0.67687341522E+03  0.10100000352E+00 0.  1.
       -3    1    3    3    0  502  0.26683691569E+03 -0.23178215547E+03 -0.10839179403E+04  0.11400890398E+04  0.10100000352E+00 0. -1.
</event>
<event>
 5   0  0.2760807E-03  0.1378471E+04  0.7818609E-02  0.8969551E-01
       -2   -1    0    0    0  501  0.00000000000E+00  0.00000000000E+00  0.67692721861E+03  0.67692721861E+03  0.25500000920E-02 0. -1.
        2   -1    0    0  501    0  0.00000000000E+00  0.00000000000E+00 -0.70176778839E+03  0.70176778839E+03  0.25500000920E-02 0.  1.
    10030    2    1    2    0    0  0.00000000000E+00  0.00000000000E+00 -0.24840569778E+02  0.13786950070E+04  0.13784712070E+04 0.  0.
        4    1    3    3  502    0 -0.14312218964E+03 -0.60546111572E+03  0.28423700813E+03  0.68400249525E+03  0.12699999809E+01 0. -1.
       -4    1    3    3    0  502  0.14312218964E+03  0.60546111572E+03 -0.30907757791E+03  0.69469251175E+03  0.12699999809E+01 0.  1.
</event>
<event>
 5   0  0.2917809E-03  0.1382221E+04  0.7818609E-02  0.8966790E-01
        2   -1    0    0  501    0  0.00000000000E+00  0.00000000000E+00  0.12783110461E+04  0.12783110461E+04  0.25500000920E-02 0.  1.
       -2   -1    0    0    0  501  0.00000000000E+00  0.00000000000E+00 -0.37364424271E+03  0.37364424272E+03  0.25500000920E-02 0. -1.
    10030    2    1    2    0    0  0.00000000000E+00  0.00000000000E+00  0.90466680335E+03  0.16519552888E+04  0.13822207678E+04 0.  0.
        2    1    3    3  502    0  0.15866244377E+03 -0.42430539325E+03  0.10761316276E+04  0.11675907321E+04  0.25500000920E-02 0.  1.
       -2    1    3    3    0  502 -0.15866244377E+03  0.42430539325E+03 -0.17146482423E+03  0.48436455667E+03  0.25500000920E-02 0. -1.
</event>
<event>
 5   0  0.2917809E-03  0.1414357E+04  0.7818609E-02  0.8943492E-01
       -2   -1    0    0    0  501  0.00000000000E+00  0.00000000000E+00  0.27930696562E+03  0.27930696563E+03  0.25500000920E-02 0. -1.
        2   -1    0    0  501    0  0.00000000000E+00  0.00000000000E+00 -0.17905071415E+04  0.17905071415E+04  0.25500000920E-02 0.  1.
    10030    2    1    2    0    0  0.00000000000E+00  0.00000000000E+00 -0.15112001759E+04  0.20698141071E+04  0.14143565556E+04 0.  0.
        2    1    3    3  502    0 -0.27379521011E+03 -0.54666263057E+03 -0.23552097449E+03  0.65519003211E+03  0.25500000920E-02 0. -1.
       -2    1    3    3    0  502  0.27379521011E+03  0.54666263057E+03 -0.12756792014E+04  0.14146240750E+04  0.25500000920E-02 0.  1.
</event>
<event>
 5   0  0.3006737E-03  0.1472727E+04  0.7818609E-02  0.8902794E-01
       -2   -1    0    0    0  501  0.00000000000E+00  0.00000000000E+00  0.23538107661E+03  0.23538107662E+03  0.25500000920E-02 0.  1.
        2   -1    0    0  501    0  0.00000000000E+00  0.00000000000E+00 -0.23036324720E+04  0.23036324720E+04  0.25500000920E-02 0. -1.
    10030    2    1    2    0    0  0.00000000000E+00  0.00000000000E+00 -0.20682513954E+04  0.25390135486E+04  0.14727273901E+04 0.  0.
        1    1    3    3  502    0  0.54560845942E+03 -0.49299903571E+03 -0.11007820634E+04  0.13238042874E+04  0.50400001928E-02 0. -1.
       -1    1    3    3    0  502 -0.54560845942E+03  0.49299903571E+03 -0.96746933199E+03  0.12152092612E+04  0.50400001928E-02 0.  1.
</event>
<event>
 5   0  0.1560957E-03  0.1238134E+04  0.7818609E-02  0.9080117E-01
       -1   -1    0    0    0  501  0.00000000000E+00  0.00000000000E+00  0.34896635073E+03  0.34896635076E+03  0.50400001928E-02 0.  1.
        1   -1    0    0  501    0  0.00000000000E+00  0.00000000000E+00 -0.10982265105E+04  0.10982265105E+04  0.50400001928E-02 0. -1.
    10030    2    1    2    0    0  0.00000000000E+00  0.00000000000E+00 -0.74926015980E+03  0.14471928613E+04  0.12381342378E+04 0.  0.
        5    1    3    3  502    0  0.16655794122E+03  0.50660081308E+03 -0.74209545714E+03  0.91384554992E+03  0.46999998093E+01 0. -1.
       -5    1    3    3    0  502 -0.16655794122E+03 -0.50660081308E+03 -0.71647026609E+01  0.53334731139E+03  0.46999998093E+01 0.  1.
</event>
<event>
 5   0  0.1586022E-03  0.1374553E+04  0.7818609E-02  0.8972447E-01
        1   -1    0    0  501    0  0.00000000000E+00  0.00000000000E+00  0.10161923868E+04  0.10161923868E+04  0.50400001928E-02 0. -1.
       -1   -1    0    0    0  501  0.00000000000E+00  0.00000000000E+00 -0.46482214900E+03  0.46482214903E+03  0.50400001928E-02 0.  1.
    10030    2    1    2    0    0  0.00000000000E+00  0.00000000000E+00  0.55137023781E+03  0.14810145359E+04  0.13745526240E+04 0.  0.
        1    1    3    3  502    0  0.59269094182E+03  0.73149884064E+01 -0.99126777586E+02  0.60096770265E+03  0.50400001928E-02 0.  1.
       -1    1    3    3    0  502 -0.59269094182E+03 -0.73149884064E+01  0.65049701540E+03  0.88004683321E+03  0.50400001928E-02 0. -1.
</event>
<event>
 5   0  0.3006737E-03  0.1408699E+04  0.7818609E-02  0.8947545E-01
       -2   -1    0    0    0  501  0.00000000000E+00  0.00000000000E+00  0.79673911735E+03  0.79673911735E+03  0.25500000920E-02 0.  1.
        2   -1    0    0  501    0  0.00000000000E+00  0.00000000000E+00 -0.62267376566E+03  0.62267376567E+03  0.25500000920E-02 0. -1.
    10030    2    1    2    0    0  0.00000000000E+00  0.00000000000E+00  0.17406535168E+03  0.14194128830E+04  0.14086994661E+04 0.  0.
        1    1    3    3  502    0  0.15639788495E+03 -0.38770076806E+03 -0.48414382202E+03  0.63966196103E+03  0.50400001928E-02 0. -1.
       -1    1    3    3    0  502 -0.15639788495E+03  0.38770076806E+03  0.65820917370E+03  0.77975092199E+03  0.50400001928E-02 0.  1.
</event>
<event>
 5   0  0.1700207E-03  0.1350235E+04  0.7818609E-02  0.8990650E-01
       -1   -1    0    0    0  501  0.00000000000E+00  0.00000000000E+00  0.84813888355E+03  0.84813888357E+03  0.50400001928E-02 0.  1.
        1   -1    0    0  501    0  0.00000000000E+00  0.00000000000E+00 -0.53739247935E+03  0.53739247937E+03  0.50400001928E-02 0. -1.
    10030    2    1    2    0    0  0.00000000000E+00  0.00000000000E+00  0.31074640421E+03  0.13855313629E+04  0.13502347314E+04 0.  0.
        2    1    3    3  502    0 -0.51239354842E+03  0.57716880753E+02  0.60254598924E+03  0.79305741024E+03  0.25500000920E-02 0.  1.
       -2    1    3    3    0  502  0.51239354842E+03 -0.57716880753E+02 -0.29179958504E+03  0.59247395269E+03  0.25500000920E-02 0. -1.
</event>
<event>
 5   0  0.1631380E-03  0.1285627E+04  0.7818609E-02  0.9041041E-01
        1   -1    0    0  501    0  0.00000000000E+00  0.00000000000E+00  0.57601868725E+03  0.57601868727E+03  0.50400001928E-02 0.  1.
       -1   -1    0    0    0  501  0.00000000000E+00  0.00000000000E+00 -0.71735393723E+03  0.71735393724E+03  0.50400001928E-02 0. -1.
    10030    2    1    2    0    0  0.00000000000E+00  0.00000000000E+00 -0.14133524998E+03  0.12933726245E+04  0.12856271205E+04 0.  0.
        3    1    3    3  502    0  0.26160527469E+03 -0.26084922725E+03 -0.59988788952E+03  0.70451765720E+03  0.10100000352E+00 0. -1.
       -3    1    3    3    0  502 -0.26160527469E+03  0.26084922725E+03  0.45855263954E+03  0.58885496732E+03  0.10100000352E+00 0.  1.
</event>
<event>
 5   0  0.1644571E-03  0.1353266E+04  0.7818609E-02  0.8988359E-01
        1   -1    0    0  501    0  0.00000000000E+00  0.00000000000E+00  0.12735858190E+04  0.12735858190E+04  0.50400001928E-02 0. -1.
       -1   -1    0    0    0  501  0.00000000000E+00  0.00000000000E+00 -0.35948300092E+03  0.35948300095E+03  0.50400001928E-02 0.  1.
    10030    2    1    2    0    0  0.00000000000E+00  0.00000000000E+00  0.91410281811E+03  0.16330688200E+04  0.13532663480E+04 0.  0.
        4    1    3    3  502    0 -0.38099958068E+03 -0.37984398940E+03 -0.38145220387E+02  0.53935035691E+03  0.12699999809E+01 0.  1.
       -4    1    3    3    0  502  0.38099958068E+03  0.37984398940E+03  0.95224803850E+03  0.10937184631E+04  0.12699999809E+01 0. -1.
</event>
<event>
 5   0  0.3006737E-03  0.1375901E+04  0.7818609E-02  0.8971450E-01
       -2   -1    0    0    0  501  0.00000000000E+00  0.00000000000E+00  0.29039188195E+03  0.29039188196E+03  0.25500000920E-02 0.  1.
        2   -1    0    0  501    0  0.00000000000E+00  0.00000000000E+00 -0.16297829012E+04  0.16297829012E+04  0.25500000920E-02 0. -1.
    10030    2    1    2    0    0  0.00000000000E+00  0.00000000000E+00 -0.13393910193E+04  0.19201747832E+04  0.13759007579E+04 0.  0.
        1    1    3    3  502    0  0.26482145212E+02  0.48204837163E+03 -0.13536757845E+04  0.14371882501E+04  0.50400001928E-02 0. -1.
       -1    1    3    3    0  502 -0.26482145212E+02 -0.48204837163E+03  0.14284765238E+02  0.48298653309E+03  0.50400001928E-02 0.  1.
</event>
<event>
 5   0  0.1700207E-03  0.1454702E+04  0.7818609E-02  0.8915147E-01
       -1   -1    0    0    0  501  0.00000000000E+00  0.00000000000E+00  0.41682411877E+03  0.41682411880E+03  0.50400001928E-02 0. -1.
        1   -1    0    0  501    0  0.00000000000E+00  0.00000000000E+00 -0.12692146789E+04  0.12692146789E+04  0.50400001928E-02 0.  1.
    10030    2    1    2    0    0  0.00000000000E+00  0.00000000000E+00 -0.85239056012E+03  0.16860387977E+04  0.14547017428E+04 0.  0.
        2    1    3    3  502    0  0.61994433786E+03 -0.31353366481E+03 -0.17651987961E+03  0.71679397941E+03  0.25500000920E-02 0. -1.
       -2    1    3    3    0  502 -0.61994433786E+03  0.31353366481E+03 -0.67587068051E+03  0.96924481829E+03  0.25500000920E-02 0.  1.
</event>
<event>
 5   0  0.1631380E-03  0.1398000E+04  0.7818609E-02  0.8955267E-01
       -1   -1    0    0    0  501  0.00000000000E+00  0.00000000000E+00  0.36999980580E+03  0.36999980583E+03  0.50400001928E-02 0.  1.
        1   -1    0    0  501    0  0.00000000000E+00  0.00000000000E+00 -0.13205446994E+04  0.13205446994E+04  0.50400001928E-02 0. -1.
    10030    2    1    2    0    0  0.00000000000E+00  0.00000000000E+00 -0.95054489356E+03  0.16905445052E+04  0.13980004039E+04 0.  0.
        3    1    3    3  502    0 -0.41240196509E+03 -0.55208356289E+03 -0.33357933346E+03  0.76560226171E+03  0.10100000352E+00 0. -1.
       -3    1    3    3    0  502  0.41240196509E+03  0.55208356289E+03 -0.61696556010E+03  0.92494224348E+03  0.10100000352E+00 0.  1.
</event>
<event>
 5   0  0.1560957E-03  0.1422487E+04  0.7818609E-02  0.8937700E-01
        1   -1    0    0  501    0  0.00000000000E+00  0.00000000000E+00  0.21791284220E+04  0.21791284220E+04  0.50400001928E-02 0. -1.
       -1   -1    0    0    0  501  0.00000000000E+00  0.00000000000E+00 -0.23214200199E+03  0.23214200205E+03  0.50400001928E-02 0.  1.
    10030    2    1    2    0    0  0.00000000000E+00  0.00000000000E+00  0.19469864200E+04  0.24112704240E+04  0.14224868851E+04 0.  0.
        5    1    3    3  502    0  0.23329255618E+03 -0.55605003797E+03  0.33421437446E+03  0.68944789476E+03  0.46999998093E+01 0.  1.
       -5    1    3    3    0  502 -0.23329255618E+03  0.55605003797E+03  0.16127720455E+04  0.17218225293E+04  0.46999998093E+01 0. -1.
</event>
<event>
 5   0  0.3006737E-03  0.1339106E+04  0.7818609E-02  0.8999116E-01
        2   -1    0    0  501    0  0.00000000000E+00  0.00000000000E+00  0.10379134206E+04  0.10379134206E+04  0.25500000920E-02 0.  1.
       -2   -1    0    0    0  501  0.00000000000E+00  0.00000000000E+00 -0.43192521380E+03  0.43192521381E+03  0.25500000920E-02 0. -1.
    10030    2    1    2    0    0  0.00000000000E+00  0.00000000000E+00  0.60598820684E+03  0.14698386344E+04  0.13391056360E+04 0.  0.
        1    1    3    3  502    0 -0.34813449460E+03  0.17227604853E+01  0.93075657027E+03  0.99373456585E+03  0.50400001928E-02 0.  1.
       -1    1    3    3    0  502  0.34813449460E+03 -0.17227604853E+01 -0.32476836343E+03  0.47610406860E+03  0.50400001928E-02 0. -1.
</event>
<event>
 5   0  0.1104538E-03  0.1414907E+04  0.7818609E-02  0.8943098E-01
       -3   -1    0    0    0  501  0.00000000000E+00  0.00000000000E+00  0.19118541552E+04  0.19118541579E+04  0.10100000352E+00 0.  1.
        3   -1    0    0  501    0  0.00000000000E+00  0.00000000000E+00 -0.26178286051E+03  0.26178287999E+03  0.10100000352E+00 0. -1.
    10030    2    1    2    0    0  0.00000000000E+00  0.00000000000E+00  0.16500712947E+04  0.21736370379E+04  0.14149073096E+04 0.  0.
        3    1    3    3  502    0 -0.56646487707E+03  0.35665178012E+03  0.47334838031E+03  0.81984245350E+03  0.10100000352E+00 0. -1.
       -3    1    3    3    0  502  0.56646487707E+03 -0.35665178012E+03  0.11767229144E+04  0.13537945844E+04  0.10100000352E+00 0.  1.
</event>
<event>
 5   0  0.1560957E-03  0.1412025E+04  0.7818609E-02  0.8945160E-01
        1   -1    0    0  501    0  0.00000000000E+00  0.00000000000E+00  0.13444434504E+04  0.13444434504E+04  0.50400001928E-02 0. -1.
       -1   -1    0    0    0  501  0.00000000000E+00  0.00000000000E+00 -0.37075113941E+03  0.37075113945E+03  0.50400001928E-02 0.  1.
    10030    2    1    2    0    0  0.00000000000E+00  0.00000000000E+00  0.97369231094E+03  0.17151945898E+04  0.14120254121E+04 0.  0.
        5    1    3    3  502    0 -0.24212297491E+03 -0.29565655997E+03  0.12079305078E+04  0.12669469358E+04  0.46999998093E+01 0. -1.
       -5    1    3    3    0  502  0.24212297491E+03  0.29565655997E+03 -0.23423819689E+03  0.44824765399E+03  0.46999998093E+01 0.  1.
</event>
<event>
 5   0  0.2917809E-03  0.1411658E+04  0.7818609E-02  0.8945423E-01
        2   -1    0    0  501    0  0.00000000000E+00  0.00000000000E+00  0.10692436716E+04  0.10692436716E+04  0.25500000920E-02 0. -1.
       -2   -1    0    0    0  501  0.00000000000E+00  0.00000000000E+00 -0.46593182400E+03  0.46593182401E+03  0.25500000920E-02 0.  1.
    10030    2    1    2    0    0  0.00000000000E+00  0.00000000000E+00  0.60331184758E+03  0.15351754956E+04  0.14116581090E+04 0.  0.
        2    1    3    3  502    0  0.96994047505E+02  0.47474255495E+03 -0.25648207915E+03  0.54824391986E+03  0.25500000920E-02 0.  1.
       -2    1    3    3    0  502 -0.96994047505E+02 -0.47474255495E+03  0.85979392673E+03  0.98693157573E+03  0.25500000920E-02 0. -1.
</event>
<event>
 5   0  0.1700207E-03  0.1413906E+04  0.7818609E-02  0.8943814E-01
       -1   -1    0    0    0  501  0.00000000000E+00  0.00000000000E+00  0.61944267334E+03  0.61944267336E+03  0.50400001928E-02 0. -1.
        1   -1    0    0  501    0  0.00000000000E+00  0.00000000000E+00 -0.80682606887E+03  0.80682606889E+03  0.50400001928E-02 0.  1.
    10030    2    1    2    0    0  0.00000000000E+00  0.00000000000E+00 -0.18738339553E+03  0.14262687423E+04  0.14139059333E+04 0.  0.
        2    1    3    3  502    0 -0.11920442764E+03  0.31644743084E+03  0.53256986864E+03  0.63085603512E+03  0.25500000920E-02 0. -1.
       -2    1    3    3    0  502  0.11920442764E+03 -0.31644743084E+03 -0.71995326418E+03  0.79541270713E+03  0.25500000920E-02 0.  1.
</event>
<event>
 5   0  0.2889469E-03  0.1027677E+04  0.7818609E-02  0.9278699E-01
       -2   -1    0    0    0  501  0.00000000000E+00  0.00000000000E+00  0.78425654185E+03  0.78425654185E+03  0.25500000920E-02 0. -1.
        2   -1    0    0  501    0  0.00000000000E+00  0.00000000000E+00 -0.33666296629E+03  0.33666296630E+03  0.25500000920E-02 0.  1.
    10030    2    1    2    0    0  0.00000000000E+00  0.00000000000E+00  0.44759357556E+03  0.11209195081E+04  0.10276772523E+04 0.  0.
        5    1    3    3  502    0  0.31750681701E+03  0.10037028413E+03 -0.20301684521E+03  0.39002910433E+03  0.46999998093E+01 0.  1.
       -5    1    3    3    0  502 -0.31750681701E+03 -0.10037028413E+03  0.65061042077E+03  0.73089040382E+03  0.46999998093E+01 0. -1.
</event>
<event>
 5   0  0.2760807E-03  0.1500818E+04  0.7818609E-02  0.8883909E-01
       -2   -1    0    0    0  501  0.00000000000E+00  0.00000000000E+00  0.27441555950E+03  0.27441555951E+03  0.25500000920E-02 0. -1.
        2   -1    0    0  501    0  0.00000000000E+00  0.00000000000E+00 -0.20520464924E+04  0.20520464924E+04  0.25500000920E-02 0.  1.
    10030    2    1    2    0    0  0.00000000000E+00  0.00000000000E+00 -0.17776309329E+04  0.23264620519E+04  0.15008177589E+04 0.  0.
        4    1    3    3  502    0  0.18057949502E+03 -0.44702030264E+03  0.25774912152E+01  0.48212484001E+03  0.12699999809E+01 0. -1.
       -4    1    3    3    0  502 -0.18057949502E+03  0.44702030264E+03 -0.17802084241E+04  0.18443372119E+04  0.12699999809E+01 0.  1.
</event>
<event>
 5   0  0.2760807E-03  0.1371234E+04  0.7818609E-02  0.8974908E-01
       -2   -1    0    0    0  501  0.00000000000E+00  0.00000000000E+00  0.41331796172E+03  0.41331796173E+03  0.25500000920E-02 0. -1.
        2   -1    0    0  501    0  0.00000000000E+00  0.00000000000E+00 -0.11373092358E+04  0.11373092358E+04  0.25500000920E-02 0.  1.
    10030    2    1    2    0    0  0.00000000000E+00  0.00000000000E+00 -0.72399127407E+03  0.15506271975E+04  0.13712335107E+04 0.  0.
        4    1    3    3  502    0  0.29853816333E+03 -0.38377977734E+03  0.18462391664E+03  0.52009571807E+03  0.12699999809E+01 0. -1.
       -4    1    3    3    0  502 -0.29853816333E+03  0.38377977734E+03 -0.90861519071E+03  0.10305314795E+04  0.12699999809E+01 0.  1.
</event>
<event>
 5   0  0.1560957E-03  0.1562358E+04  0.7818609E-02  0.8844012E-01
        1   -1    0    0  501    0  0.00000000000E+00  0.00000000000E+00  0.11439520848E+04  0.11439520848E+04  0.50400001928E-02 0.  1.
       -1   -1    0    0    0  501  0.00000000000E+00  0.00000000000E+00 -0.53344965054E+03  0.53344965056E+03  0.50400001928E-02 0. -1.
    10030    2    1    2    0    0  0.00000000000E+00  0.00000000000E+00  0.61050243424E+03  0.16774017353E+04  0.15623582686E+04 0.  0.
        5    1    3    3  502    0  0.61949268787E+03 -0.93167507960E+02 -0.19576624859E+03  0.65635195509E+03  0.46999998093E+01 0. -1.
       -5    1    3    3    0  502 -0.61949268787E+03  0.93167507960E+02  0.80626868283E+03  0.10210497803E+04  0.46999998093E+01 0.  1.
</event>
<event>
 5   0  0.1560957E-03  0.1352834E+04  0.7818609E-02  0.8988686E-01
        1   -1    0    0  501    0  0.00000000000E+00  0.00000000000E+00  0.47127638738E+03  0.47127638740E+03  0.50400001928E-02 0. -1.
       -1   -1    0    0    0  501  0.00000000000E+00  0.00000000000E+00 -0.97085280302E+03  0.97085280304E+03  0.50400001928E-02 0.  1.
    10030    2    1    2    0    0  0.00000000000E+00  0.00000000000E+00 -0.49957641565E+03  0.14421291904E+04  0.13528340648E+04 0.  0.
        5    1    3    3  502    0  0.10022559170E+03  0.74473119991E+02 -0.95844288524E+03  0.96655381077E+03  0.46999998093E+01 0.  1.
       -5    1    3    3    0  502 -0.10022559170E+03 -0.74473119991E+02  0.45886646960E+03  0.47557537967E+03  0.46999998093E+01 0. -1.
</event>
<event>
 5   0  0.1560957E-03  0.1369116E+04  0.7818609E-02  0.8976482E-01
       -1   -1    0    0    0  501  0.00000000000E+00  0.00000000000E+00  0.80360599976E+03  0.80360599977E+03  0.50400001928E-02 0. -1.
        1   -1    0    0  501    0  0.00000000000E+00  0.00000000000E+00 -0.58314638592E+03  0.58314638594E+03  0.50400001928E-02 0.  1.
    10030    2    1    2    0    0  0.00000000000E+00  0.00000000000E+00  0.22045961383E+03  0.13867523857E+04  0.13691164077E+04 0.  0.
        5    1    3    3  502    0 -0.55924640040E+02  0.61767001047E+02 -0.57797447946E+03  0.58396859221E+03  0.46999998093E+01 0.  1.
       -5    1    3    3    0  502  0.55924640040E+02 -0.61767001047E+02  0.79843409329E+03  0.80278379351E+03  0.46999998093E+01 0. -1.
</event>
<event>
 5   0  0.2760807E-03  0.1428509E+04  0.7818609E-02  0.8933437E-01
        2   -1    0    0  501    0  0.00000000000E+00  0.00000000000E+00  0.14828584116E+04  0.14828584116E+04  0.25500000920E-02 0.  1.
       -2   -1    0    0    0  501  0.00000000000E+00  0.00000000000E+00 -0.34403812475E+03  0.34403812476E+03  0.25500000920E-02 0. -1.
    10030    2    1    2    0    0  0.00000000000E+00  0.00000000000E+00  0.11388202869E+04  0.18268965364E+04  0.14285094710E+04 0.  0.
        4    1    3    3  502    0  0.46953431225E+03 -0.43910315871E+03  0.17134218882E+03  0.66530730715E+03  0.12699999809E+01 0. -1.
       -4    1    3    3    0  502 -0.46953431225E+03  0.43910315871E+03  0.96747809803E+03  0.11615892292E+04  0.12699999809E+01 0.  1.
</event>
<event>
 5   0  0.2889469E-03  0.1408376E+04  0.7818609E-02  0.8947777E-01
       -2   -1    0    0    0  501  0.00000000000E+00  0.00000000000E+00  0.26192565375E+03  0.26192565376E+03  0.25500000920E-02 0. -1.
        2   -1    0    0  501    0  0.00000000000E+00  0.00000000000E+00 -0.18932129328E+04  0.18932129328E+04  0.25500000920E-02 0.  1.
    10030    2    1    2    0    0  0.00000000000E+00  0.00000000000E+00 -0.16312872791E+04  0.21551385866E+04  0.14083764200E+04 0.  0.
        5    1    3    3  502    0  0.63958429280E+03 -0.55770311507E+02 -0.37298522897E+03  0.74250822640E+03  0.46999998093E+01 0. -1.
       -5    1    3    3    0  502 -0.63958429280E+03  0.55770311507E+02 -0.12583020501E+04  0.14126303602E+04  0.46999998093E+01 0.  1.
</event>
<event>
 5   0  0.1631380E-03  0.1396349E+04  0.7818609E-02  0.8956465E-01
       -1   -1    0    0    0  501  0.00000000000E+00  0.00000000000E+00  0.66699744105E+03  0.66699744106E+03  0.50400001928E-02 0. -1.
        1   -1    0    0  501    0  0.00000000000E+00  0.00000000000E+00 -0.73080906283E+03  0.73080906285E+03  0.50400001928E-02 0.  1.
    10030    2    1    2    0    0  0.00000000000E+00  0.00000000000E+00 -0.63811621785E+02  0.13978065039E+04  0.13963492039E+04 0.  0.
        3    1    3    3  502    0 -0.58686107807E+03  0.15484676025E+03  0.31351128940E+03  0.68313452767E+03  0.10100000352E+00 0. -1.
       -3    1    3    3    0  502  0.58686107807E+03 -0.15484676025E+03 -0.37732291119E+03  0.71467197624E+03  0.10100000352E+00 0.  1.
</event>
<event>
 5   0  0.2760807E-03  0.1415774E+04  0.7818609E-02  0.8942479E-01
        2   -1    0    0  501    0  0.00000000000E+00  0.00000000000E+00  0.20749920028E+04  0.20749920028E+04  0.25500000920E-02 0.  1.
       -2   -1    0    0    0  501  0.00000000000E+00  0.00000000000E+00 -0.24149672827E+03  0.24149672829E+03  0.25500000920E-02 0. -1.
    10030    2    1    2    0    0  0.00000000000E+00  0.00000000000E+00  0.18334952745E+04  0.23164887311E+04  0.14157736823E+04 0.  0.
        4    1    3    3  502    0 -0.36820486411E+03 -0.28340683117E+03  0.42937372216E+02  0.46662563660E+03  0.12699999809E+01 0. -1.
       -4    1    3    3    0  502  0.36820486411E+03  0.28340683117E+03  0.17905579023E+04  0.18498630945E+04  0.12699999809E+01 0.  1.
</event>
<event>
 5   0  0.3006737E-03  0.1410289E+04  0.7818609E-02  0.8946404E-01
        2   -1    0    0  501    0  0.00000000000E+00  0.00000000000E+00  0.12865672079E+04  0.12865672079E+04  0.25500000920E-02 0. -1.
       -2   -1    0    0    0  501  0.00000000000E+00  0.00000000000E+00 -0.38647711021E+03  0.38647711021E+03  0.25500000920E-02 0.  1.
    10030    2    1    2    0    0  0.00000000000E+00  0.00000000000E+00  0.90009009769E+03  0.16730443181E+04  0.14102890152E+04 0.  0.
        1    1    3    3  502    0 -0.32013653757E+01 -0.17139002930E+03  0.12614727830E+04  0.12730665235E+04  0.50400001928E-02 0. -1.
       -1    1    3    3    0  502  0.32013653757E+01  0.17139002930E+03 -0.36138268535E+03  0.39997779461E+03  0.50400001928E-02 0.  1.
</event>
<event>
 5   0  0.1631380E-03  0.1374935E+04  0.7818609E-02  0.8972164E-01
       -1   -1    0    0    0  501  0.00000000000E+00  0.00000000000E+00  0.48191479901E+03  0.48191479904E+03  0.50400001928E-02 0. -1.
        1   -1    0    0  501    0  0.00000000000E+00  0.00000000000E+00 -0.98069514176E+03  0.98069514177E+03  0.50400001928E-02 0.  1.
    10030    2    1    2    0    0  0.00000000000E+00  0.00000000000E+00 -0.49878034274E+03  0.14626099408E+04  0.13749349107E+04 0.  0.
        3    1    3    3  502    0  0.23018232136E+03 -0.36264539762E+03  0.32160179708E+03  0.53658485961E+03  0.10100000352E+00 0. -1.
       -3    1    3    3    0  502 -0.23018232136E+03  0.36264539762E+03 -0.82038213982E+03  0.92602508120E+03  0.10100000352E+00 0.  1.
</event>
<event>
 5   0  0.2993993E-03  0.1394857E+04  0.7818609E-02  0.8957550E-01
        2   -1    0    0  501    0  0.00000000000E+00  0.00000000000E+00  0.21219187391E+04  0.21219187391E+04  0.25500000920E-02 0.  1.
       -2   -1    0    0    0  501  0.00000000000E+00  0.00000000000E+00 -0.22922946541E+03  0.22922946542E+03  0.25500000920E-02 0. -1.
    10030    2    1    2    0    0  0.00000000000E+00  0.00000000000E+00  0.18926892737E+04  0.23511482046E+04  0.13948566926E+04 0.  0.
        3    1    3    3  502    0 -0.38762563529E+03  0.55824900447E+03  0.68245137154E+03  0.96313834356E+03  0.10100000352E+00 0. -1.
       -3    1    3    3    0  502  0.38762563529E+03 -0.55824900447E+03  0.12102379022E+04  0.13880098610E+04  0.10100000352E+00 0.  1.
</event>
<event>
 5   0  0.1631380E-03  0.1438469E+04  0.7818609E-02  0.8926434E-01
        1   -1    0    0  501    0  0.00000000000E+00  0.00000000000E+00  0.20687813776E+04  0.20687813776E+04  0.50400001928E-02 0.  1.
       -1   -1    0    0    0  501  0.00000000000E+00  0.00000000000E+00 -0.25004973725E+03  0.25004973730E+03  0.50400001928E-02 0. -1.
    10030    2    1    2    0    0  0.00000000000E+00  0.00000000000E+00  0.18187316404E+04  0.23188311149E+04  0.14384689638E+04 0.  0.
        3    1    3    3  502    0 -0.54882996850E+03  0.29530551023E+03  0.14880731000E+04  0.16133137451E+04  0.10100000352E+00 0.  1.
       -3    1    3    3    0  502  0.54882996850E+03 -0.29530551023E+03  0.33065854031E+03  0.70551736986E+03  0.10100000352E+00 0. -1.
</event>
<event>
 5   0  0.1560957E-03  0.1424321E+04  0.7818609E-02  0.8936400E-01
        1   -1    0    0  501    0  0.00000000000E+00  0.00000000000E+00  0.10679210119E+04  0.10679210119E+04  0.50400001928E-02 0. -1.
       -1   -1    0    0    0  501  0.00000000000E+00  0.00000000000E+00 -0.47491555916E+03  0.47491555919E+03  0.50400001928E-02 0.  1.
    10030    2    1    2    0    0  0.00000000000E+00  0.00000000000E+00  0.59300545274E+03  0.15428365711E+04  0.14243206164E+04 0.  0.
        5    1    3    3  502    0  0.62062591934E+02 -0.52034808456E+03 -0.22584241803E+03  0.57064943897E+03  0.46999998093E+01 0.  1.
       -5    1    3    3    0  502 -0.62062591934E+02  0.52034808456E+03  0.81884787077E+03  0.97218713213E+03  0.46999998093E+01 0. -1.
</event>
<event>
 5   0  0.1586022E-03  0.1443455E+04  0.7818609E-02  0.8922951E-01
       -1   -1    0    0    0  501  0.00000000000E+00  0.00000000000E+00  0.87493383512E+03  0.87493383513E+03  0.50400001928E-02 0.  1.
        1   -1    0    0  501    0  0.00000000000E+00  0.00000000000E+00 -0.59534851299E+03  0.59534851301E+03  0.50400001928E-02 0. -1.
    10030    2    1    2    0    0  0.00000000000E+00  0.00000000000E+00  0.27958532213E+03  0.14702823481E+04  0.14434549632E+04 0.  0.
        1    1    3    3  502    0  0.20756403310E+03  0.67942929265E+03  0.10213662640E+02  0.71050074629E+03  0.50400001928E-02 0. -1.
       -1    1    3    3    0  502 -0.20756403310E+03 -0.67942929265E+03  0.26937165949E+03  0.75978160185E+03  0.50400001928E-02 0.  1.
</event>
<event>
 5   0  0.1586022E-03  0.1335424E+04  0.7818609E-02  0.9001936E-01
       -1   -1    0    0    0  501  0.00000000000E+00  0.00000000000E+00  0.79130013983E+03  0.79130013985E+03  0.50400001928E-02 0.  1.
        1   -1    0    0  501    0  0.00000000000E+00  0.00000000000E+00 -0.56342670738E+03  0.56342670740E+03  0.50400001928E-02 0. -1.
    10030    2    1    2    0    0  0.00000000000E+00  0.00000000000E+00  0.22787343245E+03  0.13547268473E+04  0.13354244754E+04 0.  0.
        1    1    3    3  502    0  0.25008767211E+03  0.90132259885E+02  0.73530287172E+03  0.78188105310E+03  0.50400001928E-02 0.  1.
       -1    1    3    3    0  502 -0.25008767211E+03 -0.90132259885E+02 -0.50742943927E+03  0.57284579415E+03  0.50400001928E-02 0. -1.
</event>
<event>
 5   0  0.2993993E-03  0.1620132E+04  0.7818609E-02  0.8808275E-01
       -2   -1    0    0    0  501  0.00000000000E+00  0.00000000000E+00  0.38526113193E+03  0.38526113194E+03  0.25500000920E-02 0.  1.
        2   -1    0    0  501    0  0.00000000000E+00  0.00000000000E+00 -0.17032780173E+04  0.17032780173E+04  0.25500000920E-02 0. -1.
    10030    2    1    2    0    0  0.00000000000E+00  0.00000000000E+00 -0.13180168853E+04  0.20885391492E+04  0.16201318674E+04 0.  0.
        3    1    3    3  502    0  0.58890907561E+03  0.53209222059E+03 -0.86795186710E+03  0.11761277500E+04  0.10100000352E+00 0. -1.
       -3    1    3    3    0  502 -0.58890907561E+03 -0.53209222059E+03 -0.45006501824E+03  0.91241139920E+03  0.10100000352E+00 0.  1.
</event>
<event>
 5   0  0.1586022E-03  0.1327419E+04  0.7818609E-02  0.9008100E-01
        1   -1    0    0  501    0  0.00000000000E+00  0.00000000000E+00  0.13496727210E+04  0.13496727211E+04  0.50400001928E-02 0.  1.
       -1   -1    0    0    0  501  0.00000000000E+00  0.00000000000E+00 -0.32638323587E+03  0.32638323591E+03  0.50400001928E-02 0. -1.
    10030    2    1    2    0    0  0.00000000000E+00  0.00000000000E+00  0.10232894852E+04  0.16760559570E+04  0.13274193762E+04 0.  0.
        1    1    3    3  502    0 -0.19015931777E+03  0.24686563594E+03 -0.22827590934E+03  0.38628111416E+03  0.50400001928E-02 0. -1.
       -1    1    3    3    0  502  0.19015931777E+03 -0.24686563594E+03  0.12515653945E+04  0.12897748428E+04  0.50400001928E-02 0.  1.
</event>
<event>
 5   0  0.1700207E-03  0.1406894E+04  0.7818609E-02  0.8948843E-01
       -1   -1    0    0    0  501  0.00000000000E+00  0.00000000000E+00  0.45951040394E+03  0.45951040397E+03  0.50400001928E-02 0. -1.
        1   -1    0    0  501    0  0.00000000000E+00  0.00000000000E+00 -0.10768805149E+04  0.10768805149E+04  0.50400001928E-02 0.  1.
    10030    2    1    2    0    0  0.00000000000E+00  0.00000000000E+00 -0.61737011098E+03  0.15363909189E+04  0.14068941686E+04 0.  0.
        2    1    3    3  502    0  0.56739372039E+03 -0.38708223871E+03 -0.47455185260E+03  0.83484594644E+03  0.25500000920E-02 0. -1.
       -2    1    3    3    0  502 -0.56739372039E+03  0.38708223871E+03 -0.14281825837E+03  0.70154497247E+03  0.25500000920E-02 0.  1.
</event>
<event>
 5   0  0.1560957E-03  0.1455546E+04  0.7818609E-02  0.8914564E-01
        1   -1    0    0  501    0  0.00000000000E+00  0.00000000000E+00  0.45041150257E+03  0.45041150260E+03  0.50400001928E-02 0.  1.
       -1   -1    0    0    0  501  0.00000000000E+00  0.00000000000E+00 -0.11759331263E+04  0.11759331263E+04  0.50400001928E-02 0. -1.
    10030    2    1    2    0    0  0.00000000000E+00  0.00000000000E+00 -0.72552162371E+03  0.16263446289E+04  0.14555463667E+04 0.  0.
        5    1    3    3  502    0 -0.13649670942E+03 -0.31524677496E+03  0.35409974067E+03  0.49337672943E+03  0.46999998093E+01 0.  1.
       -5    1    3    3    0  502  0.13649670942E+03  0.31524677496E+03 -0.10796213644E+04  0.11329678995E+04  0.46999998093E+01 0. -1.
</event>
<event>
 5   0  0.2760807E-03  0.1324489E+04  0.7818609E-02  0.9010368E-01
        2   -1    0    0  501    0  0.00000000000E+00  0.00000000000E+00  0.37283573082E+03  0.37283573083E+03  0.25500000920E-02 0.  1.
       -2   -1    0    0    0  501  0.00000000000E+00  0.00000000000E+00 -0.11763026020E+04  0.11763026020E+04  0.25500000920E-02 0. -1.
    10030    2    1    2    0    0  0.00000000000E+00  0.00000000000E+00 -0.80346687121E+03  0.15491383329E+04  0.13244887924E+04 0.  0.
        4    1    3    3  502    0 -0.36631449439E+03  0.52661826962E+03 -0.59410858072E+03  0.87434531467E+03  0.12699999809E+01 0. -1.
       -4    1    3    3    0  502  0.36631449439E+03 -0.52661826962E+03 -0.20935829049E+03  0.67479301819E+03  0.12699999809E+01 0.  1.
</event>
<event>
 5   0  0.2993993E-03  0.1426390E+04  0.7818609E-02  0.8934934E-01
        2   -1    0    0  501    0  0.00000000000E+00  0.00000000000E+00  0.14069121967E+04  0.14069121967E+04  0.25500000920E-02 0. -1.
       -2   -1    0    0    0  501  0.00000000000E+00  0.00000000000E+00 -0.36153445797E+03  0.36153445798E+03  0.25500000920E-02 0.  1.
    10030    2    1    2    0    0  0.00000000000E+00  0.00000000000E+00  0.10453777387E+04  0.17684466547E+04  0.14263901829E+04 0.  0.
        3    1    3    3  502    0 -0.58959933893E+03 -0.39897753793E+03  0.46955380036E+03  0.85281371815E+03  0.10100000352E+00 0.  1.
       -3    1    3    3    0  502  0.58959933893E+03  0.39897753793E+03  0.57582393835E+03  0.91563293651E+03  0.10100000352E+00 0. -1.
</event>
<event>
 5   0  0.1644571E-03  0.1409517E+04  0.7818609E-02  0.8946959E-01
       -1   -1    0    0    0  501  0.00000000000E+00  0.00000000000E+00  0.24190735106E+03  0.24190735111E+03  0.50400001928E-02 0. -1.
        1   -1    0    0  501    0  0.00000000000E+00  0.00000000000E+00 -0.20532001519E+04  0.20532001519E+04  0.50400001928E-02 0.  1.
    10030    2    1    2    0    0  0.00000000000E+00  0.00000000000E+00 -0.18112928008E+04  0.22951075030E+04  0.14095165270E+04 0.  0.
        4    1    3    3  502    0  0.59005145578E+03 -0.65941772599E+02 -0.15239128362E+04  0.16354879954E+04  0.12699999809E+01 0.  1.
       -4    1    3    3    0  502 -0.59005145578E+03  0.65941772599E+02 -0.28737996462E+03  0.65961950760E+03  0.12699999809E+01 0. -1.
</event>
<event>
 5   0  0.1700207E-03  0.1384492E+04  0.7818609E-02  0.8965121E-01
        1   -1    0    0  501    0  0.00000000000E+00  0.00000000000E+00  0.11643360854E+04  0.11643360854E+04  0.50400001928E-02 0.  1.
       -1   -1    0    0    0  501  0.00000000000E+00  0.00000000000E+00 -0.41156914011E+03  0.41156914014E+03  0.50400001928E-02 0. -1.
    10030    2    1    2    0    0  0.00000000000E+00  0.00000000000E+00  0.75276694525E+03  0.15759052255E+04  0.13844924001E+04 0.  0.
        2    1    3    3  502    0 -0.65264271982E+03  0.77185992498E+02  0.12881734336E+03  0.66969702488E+03  0.25500000920E-02 0.  1.
       -2    1    3    3    0  502  0.65264271982E+03 -0.77185992498E+02  0.62394960189E+03  0.90620820062E+03  0.25500000920E-02 0. -1.
</event>
<event>
 5   0  0.1644571E-03  0.1440137E+04  0.7818609E-02  0.8925267E-01
       -1   -1    0    0    0  501  0.00000000000E+00  0.00000000000E+00  0.71039095716E+03  0.71039095718E+03  0.50400001928E-02 0. -1.
        1   -1    0    0  501    0  0.00000000000E+00  0.00000000000E+00 -0.72987744190E+03  0.72987744192E+03  0.50400001928E-02 0.  1.
    10030    2    1    2    0    0  0.00000000000E+00  0.00000000000E+00 -0.19486484741E+02  0.14402683991E+04  0.14401365693E+04 0.  0.
        4    1    3    3  502    0  0.66552604922E+03 -0.15321977420E+03 -0.23800852303E+03  0.72322257385E+03  0.12699999809E+01 0.  1.
       -4    1    3    3    0  502 -0.66552604922E+03  0.15321977420E+03  0.21852203829E+03  0.71704582525E+03  0.12699999809E+01 0. -1.
</event>
<event>
 5   0  0.1586022E-03  0.1369359E+04  0.7818609E-02  0.8976302E-01
        1   -1    0    0  501    0  0.00000000000E+00  0.00000000000E+00  0.52962410107E+03  0.52962410109E+03  0.50400001928E-02 0. -1.
       -1   -1    0    0    0  501  0.00000000000E+00  0.00000000000E+00 -0.88512909647E+03  0.88512909648E+03  0.50400001928E-02 0.  1.
    10030    2    1    2    0    0  0.00000000000E+00  0.00000000000E+00 -0.35550499540E+03  0.14147531976E+04  0.13693585390E+04 0.  0.
        1    1    3    3  502    0  0.45427498200E+03 -0.45735646986E+03 -0.41615067727E+03  0.76728227271E+03  0.50400001928E-02 0.  1.
       -1    1    3    3    0  502 -0.45427498200E+03  0.45735646986E+03  0.60645681869E+02  0.64747092487E+03  0.50400001928E-02 0. -1.
</event>
<event>
 5   0  0.1104538E-03  0.1077590E+04  0.7818609E-02  0.9227314E-01
        3   -1    0    0  501    0  0.00000000000E+00  0.00000000000E+00  0.14530692032E+04  0.14530692067E+04  0.10100000352E+00 0. -1.
       -3   -1    0    0    0  501  0.00000000000E+00  0.00000000000E+00 -0.19978402285E+03  0.19978404838E+03  0.10100000352E+00 0.  1.
    10030    2    1    2    0    0  0.00000000000E+00  0.00000000000E+00  0.12532851803E+04  0.16528532551E+04  0.10775899682E+04 0.  0.
        1    1    3    3  502    0  0.32226377006E+03 -0.99588449592E+02 -0.17805366474E+02  0.33777037746E+03  0.50400001928E-02 0.  1.
       -1    1    3    3    0  502 -0.32226377006E+03  0.99588449592E+02  0.12710905468E+04  0.13150828776E+04  0.50400001928E-02 0. -1.
</event>
<event>
 5   0  0.1644571E-03  0.1232574E+04  0.7818609E-02  0.9084813E-01
       -1   -1    0    0    0  501  0.00000000000E+00  0.00000000000E+00  0.11341826703E+04  0.11341826703E+04  0.50400001928E-02 0.  1.
        1   -1    0    0  501    0  0.00000000000E+00  0.00000000000E+00 -0.33487521113E+03  0.33487521117E+03  0.50400001928E-02 0. -1.
    10030    2    1    2    0    0  0.00000000000E+00  0.00000000000E+00  0.79930745914E+03  0.14690578815E+04  0.12325739916E+04 0.  0.
        4    1    3    3  502    0  0.26163590286E+03  0.38959061206E+03  0.87576315593E+03  0.99357783231E+03  0.12699999809E+01 0. -1.
       -4    1    3    3    0  502 -0.26163590286E+03 -0.38959061206E+03 -0.76455696786E+02  0.47548004915E+03  0.12699999809E+01 0.  1.
</event>
<event>
 5   0  0.2760807E-03  0.1388395E+04  0.7818609E-02  0.8962262E-01
       -2   -1    0    0    0  501  0.00000000000E+00  0.00000000000E+00  0.13427684185E+04  0.13427684185E+04  0.25500000920E-02 0.  1.
        2   -1    0    0  501    0  0.00000000000E+00  0.00000000000E+00 -0.35889295804E+03  0.35889295805E+03  0.25500000920E-02 0. -1.
    10030    2    1    2    0    0  0.00000000000E+00  0.00000000000E+00  0.98387546044E+03  0.17016613765E+04  0.13883949433E+04 0.  0.
        4    1    3    3  502    0  0.90688176747E+02  0.45606327056E+03 -0.13981641825E+03  0.48555977579E+03  0.12699999809E+01 0. -1.
       -4    1    3    3    0  502 -0.90688176747E+02 -0.45606327056E+03  0.11236918787E+04  0.12161016007E+04  0.12699999809E+01 0.  1.
</event>
<event>
 5   0  0.2760807E-03  0.1464800E+04  0.7818609E-02  0.8908204E-01
        2   -1    0    0  501    0  0.00000000000E+00  0.00000000000E+00  0.93288236624E+03  0.93288236624E+03  0.25500000920E-02 0.  1.
       -2   -1    0    0    0  501  0.00000000000E+00  0.00000000000E+00 -0.57500262487E+03  0.57500262488E+03  0.25500000920E-02 0. -1.
    10030    2    1    2    0    0  0.00000000000E+00  0.00000000000E+00  0.35787974136E+03  0.15078849911E+04  0.14648000673E+04 0.  0.
        4    1    3    3  502    0 -0.56625117557E+03 -0.39868177701E+02  0.65534632006E+03  0.86701227070E+03  0.12699999809E+01 0.  1.
       -4    1    3    3    0  502  0.56625117557E+03  0.39868177701E+02 -0.29746657870E+03  0.64087272042E+03  0.12699999809E+01 0. -1.
</event>
<event>
 5   0  0.1586022E-03  0.1383881E+04  0.7818609E-02  0.8965570E-01
       -1   -1    0    0    0  501  0.00000000000E+00  0.00000000000E+00  0.44052277173E+03  0.44052277176E+03  0.50400001928E-02 0.  1.
        1   -1    0    0  501    0  0.00000000000E+00  0.00000000000E+00 -0.10868486794E+04  0.10868486794E+04  0.50400001928E-02 0. -1.
    10030    2    1    2    0    0  0.00000000000E+00  0.00000000000E+00 -0.64632590770E+03  0.15273714512E+04  0.13838809093E+04 0.  0.
        1    1    3    3  502    0 -0.59914964507E+03 -0.28638013331E+03 -0.10861653745E+03  0.67289778583E+03  0.50400001928E-02 0. -1.
       -1    1    3    3    0  502  0.59914964507E+03  0.28638013331E+03 -0.53770937025E+03  0.85447366537E+03  0.50400001928E-02 0.  1.
</event>
<event>
 5   0  0.1644571E-03  0.1337673E+04  0.7818609E-02  0.9000212E-01
       -1   -1    0    0    0  501  0.00000000000E+00  0.00000000000E+00  0.54219976225E+03  0.54219976227E+03  0.50400001928E-02 0.  1.
        1   -1    0    0  501    0  0.00000000000E+00  0.00000000000E+00 -0.82505095022E+03  0.82505095024E+03  0.50400001928E-02 0. -1.
    10030    2    1    2    0    0  0.00000000000E+00  0.00000000000E+00 -0.28285118797E+03  0.13672507125E+04  0.13376732472E+04 0.  0.
        4    1    3    3  502    0 -0.32165524833E+03 -0.37681415035E+03  0.31783091509E+03  0.58861626393E+03  0.12699999809E+01 0.  1.
       -4    1    3    3    0  502  0.32165524833E+03  0.37681415035E+03 -0.60068210306E+03  0.77863444858E+03  0.12699999809E+01 0. -1.
</event>
<event>
 5   0  0.2760807E-03  0.1289270E+04  0.7818609E-02  0.9038117E-01
        2   -1    0    0  501    0  0.00000000000E+00  0.00000000000E+00  0.81647766419E+03  0.81647766419E+03  0.25500000920E-02 0.  1.
       -2   -1    0    0    0  501  0.00000000000E+00  0.00000000000E+00 -0.50896007430E+03  0.50896007431E+03  0.25500000920E-02 0. -1.
    10030    2    1    2    0    0  0.00000000000E+00  0.00000000000E+00  0.30751758989E+03  0.13254377385E+04  0.12892703869E+04 0.  0.
        4    1    3    3  502    0  0.20724254865E+03 -0.57240981889E+03  0.37172156674E+03  0.71328886912E+03  0.12699999809E+01 0.  1.
       -4    1    3    3    0  502 -0.20724254865E+03  0.57240981889E+03 -0.64203976849E+02  0.61214886938E+03  0.12699999809E+01 0. -1.
</event>
<event>
 5   0  0.2760807E-03  0.1391480E+04  0.7818609E-02  0.8960009E-01
       -2   -1    0    0    0  501  0.00000000000E+00  0.00000000000E+00  0.39014995384E+03  0.39014995385E+03  0.25500000920E-02 0.  1.
        2   -1    0    0  501    0  0.00000000000E+00  0.00000000000E+00 -0.12406879651E+04  0.12406879651E+04  0.25500000920E-02 0. -1.
    10030    2    1    2    0    0  0.00000000000E+00  0.00000000000E+00 -0.85053801128E+03  0.16308379190E+04  0.13914802943E+04 0.  0.
        4    1    3    3  502    0 -0.34347758049E+03  0.39028561868E+03  0.11659446856E+03  0.53281853895E+03  0.12699999809E+01 0.  1.
       -4    1    3    3    0  502  0.34347758049E+03 -0.39028561868E+03 -0.96713247984E+03  0.10980193800E+04  0.12699999809E+01 0. -1.
</event>
<event>
 5   0  0.2889469E-03  0.1448749E+04  0.7818609E-02  0.8919268E-01
       -2   -1    0    0    0  501  0.00000000000E+00  0.00000000000E+00  0.81510567328E+03  0.81510567328E+03  0.25500000920E-02 0.  1.
        2   -1    0    0  501    0  0.00000000000E+00  0.00000000000E+00 -0.64374313153E+03  0.64374313153E+03  0.25500000920E-02 0. -1.
    10030    2    1    2    0    0  0.00000000000E+00  0.00000000000E+00  0.17136254175E+03  0.14588488048E+04  0.14487493622E+04 0.  0.
        5    1    3    3  502    0 -0.69786408580E+03  0.21449598656E+02  0.27995683043E+03  0.75224483011E+03  0.46999998093E+01 0. -1.
       -5    1    3    3    0  502  0.69786408580E+03 -0.21449598656E+02 -0.10859428868E+03  0.70660397470E+03  0.46999998093E+01 0.  1.
</event>
<event>
 5   0  0.3006737E-03  0.1538614E+04  0.7818609E-02  0.8859173E-01
       -2   -1    0    0    0  501  0.00000000000E+00  0.00000000000E+00  0.54428105722E+03  0.54428105722E+03  0.25500000920E-02 0.  1.
        2   -1    0    0  501    0  0.00000000000E+00  0.00000000000E+00 -0.10873673465E+04  0.10873673465E+04  0.25500000920E-02 0. -1.
    10030    2    1    2    0    0  0.00000000000E+00  0.00000000000E+00 -0.54308628924E+03  0.16316484037E+04  0.15386142452E+04 0.  0.
        1    1    3    3  502    0  0.23992255485E+03 -0.11951607779E+03  0.49315999901E+03  0.56129645450E+03  0.50400001928E-02 0.  1.
       -1    1    3    3    0  502 -0.23992255485E+03  0.11951607779E+03 -0.10362462882E+04  0.10703519492E+04  0.50400001928E-02 0. -1.
</event>
<event>
 5   0  0.1560957E-03  0.1399817E+04  0.7818609E-02  0.8953951E-01
       -1   -1    0    0    0  501  0.00000000000E+00  0.00000000000E+00  0.66879225589E+03  0.66879225591E+03  0.50400001928E-02 0. -1.
        1   -1    0    0  501    0  0.00000000000E+00  0.00000000000E+00 -0.73247258298E+03  0.73247258300E+03  0.50400001928E-02 0.  1.
    10030    2    1    2    0    0  0.00000000000E+00  0.00000000000E+00 -0.63680327091E+02  0.14012648389E+04  0.13998171183E+04 0.  0.
        5    1    3    3  502    0  0.62648188934E+03 -0.29638242630E+03  0.65871242054E+02  0.69619193533E+03  0.46999998093E+01 0. -1.
       -5    1    3    3    0  502 -0.62648188934E+03  0.29638242630E+03 -0.12955156915E+03  0.70507290358E+03  0.46999998093E+01 0.  1.
</event>
<event>
 5   0  0.2889469E-03  0.1409344E+04  0.7818609E-02  0.8947083E-01
        2   -1    0    0  501    0  0.00000000000E+00  0.00000000000E+00  0.81548395591E+03  0.81548395591E+03  0.25500000920E-02 0. -1.
       -2   -1    0    0    0  501  0.00000000000E+00  0.00000000000E+00 -0.60891765378E+03  0.60891765379E+03  0.25500000920E-02 0.  1.
    10030    2    1    2    0    0  0.00000000000E+00  0.00000000000E+00  0.20656630213E+03  0.14244016097E+04  0.14093439284E+04 0.  0.
        5    1    3    3  502    0 -0.51723408860E+03  0.12033686986E+03 -0.36483759289E+03  0.64431407236E+03  0.46999998093E+01 0.  1.
       -5    1    3    3    0  502  0.51723408860E+03 -0.12033686986E+03  0.57140389502E+03  0.78008753733E+03  0.46999998093E+01 0. -1.
</event>
<event>
 5   0  0.1700207E-03  0.1407856E+04  0.7818609E-02  0.8948151E-01
        1   -1    0    0  501    0  0.00000000000E+00  0.00000000000E+00  0.77039093651E+03  0.77039093653E+03  0.50400001928E-02 0. -1.
       -1   -1    0    0    0  501  0.00000000000E+00  0.00000000000E+00 -0.64319937304E+03  0.64319937306E+03  0.50400001928E-02 0.  1.
    10030    2    1    2    0    0  0.00000000000E+00  0.00000000000E+00  0.12719156348E+03  0.14135903096E+04  0.14078564805E+04 0.  0.
        2    1    3    3  502    0 -0.69182378958E+03 -0.83780145019E+02  0.16337706712E+03  0.71577324244E+03  0.25500000920E-02 0. -1.
       -2    1    3    3    0  502  0.69182378958E+03  0.83780145019E+02 -0.36185503649E+02  0.69781706715E+03  0.25500000920E-02 0.  1.
</event>
<event>
 5   0  0.2889469E-03  0.1368321E+04  0.7818609E-02  0.8977074E-01
       -2   -1    0    0    0  501  0.00000000000E+00  0.00000000000E+00  0.67281611314E+03  0.67281611314E+03  0.25500000920E-02 0.  1.
        2   -1    0    0  501    0  0.00000000000E+00  0.00000000000E+00 -0.69569648820E+03  0.69569648821E+03  0.25500000920E-02 0. -1.
    10030    2    1    2    0    0  0.00000000000E+00  0.00000000000E+00 -0.22880375068E+02  0.13685126013E+04  0.13683213177E+04 0.  0.
        5    1    3    3  502    0 -0.47387800929E+03 -0.19063710431E+03  0.44376170723E+03  0.67664570938E+03  0.46999998093E+01 0.  1.
       -5    1    3    3    0  502  0.47387800929E+03  0.19063710431E+03 -0.46664208230E+03  0.69186689196E+03  0.46999998093E+01 0. -1.
</event>
<event>
 5   0  0.1631380E-03  0.1377463E+04  0.7818609E-02  0.8970296E-01
       -1   -1    0    0    0  501  0.00000000000E+00  0.00000000000E+00  0.50086566355E+03  0.50086566357E+03  0.50400001928E-02 0. -1.
        1   -1    0    0  501    0  0.00000000000E+00  0.00000000000E+00 -0.94706209621E+03  0.94706209622E+03  0.50400001928E-02 0.  1.
    10030    2    1    2    0    0  0.00000000000E+00  0.00000000000E+00 -0.44619643266E+03  0.14479277598E+04  0.13774627186E+04 0.  0.
        3    1    3    3  502    0  0.74017652847E+01 -0.54669815512E+03  0.21715561931E+03  0.58829434142E+03  0.10100000352E+00 0. -1.
       -3    1    3    3    0  502 -0.74017652847E+01  0.54669815512E+03 -0.66335205196E+03  0.85963341838E+03  0.10100000352E+00 0.  1.
</event>
<event>
 5   0  0.1644571E-03  0.1383503E+04  0.7818609E-02  0.8965847E-01
        1   -1    0    0  501    0  0.00000000000E+00  0.00000000000E+00  0.12974489079E+04  0.12974489079E+04  0.50400001928E-02 0.  1.
       -1   -1    0    0    0  501  0.00000000000E+00  0.00000000000E+00 -0.36881634935E+03  0.36881634938E+03  0.50400001928E-02 0. -1.
    10030    2    1    2    0    0  0.00000000000E+00  0.00000000000E+00  0.92863255851E+03  0.16662652573E+04  0.13835033353E+04 0.  0.
        4    1    3    3  502    0 -0.63965122388E+03 -0.18861948478E+03  0.24293360994E+03  0.70975302042E+03  0.12699999809E+01 0.  1.
       -4    1    3    3    0  502  0.63965122388E+03  0.18861948478E+03  0.68569894857E+03  0.95651223684E+03  0.12699999809E+01 0. -1.
</event>
<event>
 5   0  0.1631380E-03  0.1374319E+04  0.7818609E-02  0.8972620E-01
       -1   -1    0    0    0  501  0.00000000000E+00  0.00000000000E+00  0.12618648702E+04  0.12618648702E+04  0.50400001928E-02 0.  1.
        1   -1    0    0  501    0  0.00000000000E+00  0.00000000000E+00 -0.37419894731E+03  0.37419894735E+03  0.50400001928E-02 0. -1.
    10030    2    1    2    0    0  0.00000000000E+00  0.00000000000E+00  0.88766592290E+03  0.16360638176E+04  0.13743194769E+04 0.  0.
        3    1    3    3  502    0 -0.61670174369E+03 -0.64295315591E+02  0.91222304553E+02  0.62671879446E+03  0.10100000352E+00 0. -1.
       -3    1    3    3    0  502  0.61670174369E+03  0.64295315591E+02  0.79644361835E+03  0.10093450231E+04  0.10100000352E+00 0.  1.
</event>
<event>
 5   0  0.1631380E-03  0.1376105E+04  0.7818609E-02  0.8971299E-01
       -1   -1    0    0    0  501  0.00000000000E+00  0.00000000000E+00  0.51238925338E+03  0.51238925340E+03  0.50400001928E-02 0. -1.
        1   -1    0    0  501    0  0.00000000000E+00  0.00000000000E+00 -0.92393876718E+03  0.92393876719E+03  0.50400001928E-02 0.  1.
    10030    2    1    2    0    0  0.00000000000E+00  0.00000000000E+00 -0.41154951380E+03  0.14363280206E+04  0.13761050761E+04 0.  0.
        3    1    3    3  502    0 -0.29664864360E+03 -0.35571118243E+03  0.32530021387E+03  0.56599567349E+03  0.10100000352E+00 0. -1.
       -3    1    3    3    0  502  0.29664864360E+03  0.35571118243E+03 -0.73684972767E+03  0.87033234711E+03  0.10100000352E+00 0.  1.
</event>
<event>
 5   0  0.2917809E-03  0.1395787E+04  0.7818609E-02  0.8956874E-01
       -2   -1    0    0    0  501  0.00000000000E+00  0.00000000000E+00  0.78155151984E+03  0.78155151984E+03  0.25500000920E-02 0.  1.
        2   -1    0    0  501    0  0.00000000000E+00  0.00000000000E+00 -0.62319006844E+03  0.62319006845E+03  0.25500000920E-02 0. -1.
    10030    2    1    2    0    0  0.00000000000E+00  0.00000000000E+00  0.15836145140E+03  0.14047415883E+04  0.13957867246E+04 0.  0.
        2    1    3    3  502    0  0.52784385068E+03 -0.35655933211E+03 -0.20778269551E+03  0.67002040012E+03  0.25500000920E-02 0. -1.
       -2    1    3    3    0  502 -0.52784385068E+03  0.35655933211E+03  0.36614414691E+03  0.73472118817E+03  0.25500000920E-02 0.  1.
</event>
<event>
 5   0  0.1560957E-03  0.1402826E+04  0.7818609E-02  0.8951775E-01
       -1   -1    0    0    0  501  0.00000000000E+00  0.00000000000E+00  0.28838822594E+03  0.28838822599E+03  0.50400001928E-02 0. -1.
        1   -1    0    0  501    0  0.00000000000E+00  0.00000000000E+00 -0.17059650392E+04  0.17059650392E+04  0.50400001928E-02 0.  1.
    10030    2    1    2    0    0  0.00000000000E+00  0.00000000000E+00 -0.14175768133E+04  0.19943532652E+04  0.14028260494E+04 0.  0.
        5    1    3    3  502    0 -0.33432190940E+02  0.12866540691E+03 -0.16878685796E+04  0.16931021618E+04  0.46999998093E+01 0.  1.
       -5    1    3    3    0  502  0.33432190940E+02 -0.12866540691E+03  0.27029176635E+03  0.30125110337E+03  0.46999998093E+01 0. -1.
</event>
<event>
 5   0  0.1700207E-03  0.1333449E+04  0.7818609E-02  0.9003453E-01
       -1   -1    0    0    0  501  0.00000000000E+00  0.00000000000E+00  0.42487479494E+03  0.42487479497E+03  0.50400001928E-02 0.  1.
        1   -1    0    0  501    0  0.00000000000E+00  0.00000000000E+00 -0.10462406157E+04  0.10462406157E+04  0.50400001928E-02 0. -1.
    10030    2    1    2    0    0  0.00000000000E+00  0.00000000000E+00 -0.62136582077E+03  0.14711154107E+04  0.13334485623E+04 0.  0.
        2    1    3    3  502    0 -0.43490231558E+03 -0.45640132450E+03 -0.55006102025E+03  0.83666559575E+03  0.25500000920E-02 0. -1.
       -2    1    3    3    0  502  0.43490231558E+03  0.45640132450E+03 -0.71304800524E+02  0.63444981495E+03  0.25500000920E-02 0.  1.
</event>
<event>
 5   0  0.1631380E-03  0.1290776E+04  0.7818609E-02  0.9036912E-01
        1   -1    0    0  501    0  0.00000000000E+00  0.00000000000E+00  0.81234293518E+03  0.81234293519E+03  0.50400001928E-02 0.  1.
       -1   -1    0    0    0  501  0.00000000000E+00  0.00000000000E+00 -0.51274641504E+03  0.51274641507E+03  0.50400001928E-02 0. -1.
    10030    2    1    2    0    0  0.00000000000E+00  0.00000000000E+00  0.29959652013E+03  0.13250893503E+04  0.12907763986E+04 0.  0.
        3    1    3    3  502    0  0.57273235078E+03  0.14224311786E+03  0.41803025883E+03  0.72319067866E+03  0.10100000352E+00 0.  1.
       -3    1    3    3    0  502 -0.57273235078E+03 -0.14224311786E+03 -0.11843373869E+03  0.60189867160E+03  0.10100000352E+00 0. -1.
</event>
<event>
 5   0  0.3006737E-03  0.1359513E+04  0.7818609E-02  0.8983658E-01
        2   -1    0    0  501    0  0.00000000000E+00  0.00000000000E+00  0.46679634437E+03  0.46679634438E+03  0.25500000920E-02 0.  1.
       -2   -1    0    0    0  501  0.00000000000E+00  0.00000000000E+00 -0.98987229604E+03  0.98987229604E+03  0.25500000920E-02 0. -1.
    10030    2    1    2    0    0  0.00000000000E+00  0.00000000000E+00 -0.52307595166E+03  0.14566686404E+04  0.13595128086E+04 0.  0.
        1    1    3    3  502    0 -0.30493386719E+03 -0.53174242470E+03 -0.57636256772E+03  0.84138485788E+03  0.50400001928E-02 0. -1.
       -1    1    3    3    0  502  0.30493386719E+03  0.53174242470E+03  0.53286616050E+02  0.61528378254E+03  0.50400001928E-02 0.  1.
</event>
<event>
 5   0  0.2917809E-03  0.1387062E+04  0.7818609E-02  0.8963238E-01
       -2   -1    0    0    0  501  0.00000000000E+00  0.00000000000E+00  0.27388487931E+03  0.27388487932E+03  0.25500000920E-02 0. -1.
        2   -1    0    0  501    0  0.00000000000E+00  0.00000000000E+00 -0.17561577383E+04  0.17561577383E+04  0.25500000920E-02 0.  1.
    10030    2    1    2    0    0  0.00000000000E+00  0.00000000000E+00 -0.14822728590E+04  0.20300426176E+04  0.13870617149E+04 0.  0.
        2    1    3    3  502    0 -0.20218418635E+03 -0.63028636411E+03 -0.10440808884E+04  0.12362217631E+04  0.25500000920E-02 0.  1.
       -2    1    3    3    0  502  0.20218418635E+03  0.63028636411E+03 -0.43819197059E+03  0.79382085453E+03  0.25500000920E-02 0. -1.
</event>
<event>
 5   0  0.1631380E-03  0.1427875E+04  0.7818609E-02  0.8933885E-01
        1   -1    0    0  501    0  0.00000000000E+00  0.00000000000E+00  0.50167386639E+03  0.50167386642E+03  0.50400001928E-02 0. -1.
       -1   -1    0    0    0  501  0.00000000000E+00  0.00000000000E+00 -0.10160123796E+04  0.10160123796E+04  0.50400001928E-02 0.  1.
    10030    2    1    2    0    0  0.00000000000E+00  0.00000000000E+00 -0.51433851322E+03  0.15176862460E+04  0.14278751469E+04 0.  0.
        3    1    3    3  502    0 -0.53884265336E+02  0.33215154640E+03 -0.92643976160E+03  0.98565653546E+03  0.10100000352E+00 0.  1.
       -3    1    3    3    0  502  0.53884265336E+02 -0.33215154640E+03  0.41210124838E+03  0.53202971058E+03  0.10100000352E+00 0. -1.
</event>
<event>
 5   0  0.3006737E-03  0.1348039E+04  0.7818609E-02  0.8992314E-01
       -2   -1    0    0    0  501  0.00000000000E+00  0.00000000000E+00  0.36450809828E+03  0.36450809828E+03  0.25500000920E-02 0. -1.
        2   -1    0    0  501    0  0.00000000000E+00  0.00000000000E+00 -0.12463443221E+04  0.12463443221E+04  0.25500000920E-02 0.  1.
    10030    2    1    2    0    0  0.00000000000E+00  0.00000000000E+00 -0.88183622383E+03  0.16108524204E+04  0.13480394633E+04 0.  0.
        1    1    3    3  502    0  0.28115138759E+03 -0.27408527365E+03 -0.10955702209E+04  0.11638053742E+04  0.50400001928E-02 0.  1.
       -1    1    3    3    0  502 -0.28115138759E+03  0.27408527365E+03  0.21373399710E+03  0.44704704620E+03  0.50400001928E-02 0. -1.
</event>
<event>
 5   0  0.1586022E-03  0.1406151E+04  0.7818609E-02  0.8949378E-01
        1   -1    0    0  501    0  0.00000000000E+00  0.00000000000E+00  0.11991857725E+04  0.11991857725E+04  0.50400001928E-02 0.  1.
       -1   -1    0    0    0  501  0.00000000000E+00  0.00000000000E+00 -0.41220905956E+03  0.41220905959E+03  0.50400001928E-02 0. -1.
    10030    2    1    2    0    0  0.00000000000E+00  0.00000000000E+00  0.78697671297E+03  0.16113948321E+04  0.14061511150E+04 0.  0.
        1    1    3    3  502    0  0.16728188425E+03 -0.68271751185E+03  0.37615401947E+03  0.79723163270E+03  0.50400001928E-02 0.  1.
       -1    1    3    3    0  502 -0.16728188425E+03  0.68271751185E+03  0.41082269350E+03  0.81416319943E+03  0.50400001928E-02 0. -1.
</event>
<event>
 5   0  0.1631380E-03  0.1291608E+04  0.7818609E-02  0.9036246E-01
        1   -1    0    0  501    0  0.00000000000E+00  0.00000000000E+00  0.70894368165E+03  0.70894368167E+03  0.50400001928E-02 0. -1.
       -1   -1    0    0    0  501  0.00000000000E+00  0.00000000000E+00 -0.58828793085E+03  0.58828793087E+03  0.50400001928E-02 0.  1.
    10030    2    1    2    0    0  0.00000000000E+00  0.00000000000E+00  0.12065575080E+03  0.12972316125E+04  0.12916083177E+04 0.  0.
        3    1    3    3  502    0 -0.28333162465E+03 -0.13730385338E+03 -0.50598322015E+03  0.59594310715E+03  0.10100000352E+00 0.  1.
       -3    1    3    3    0  502  0.28333162465E+03  0.13730385338E+03  0.62663897095E+03  0.70128850539E+03  0.10100000352E+00 0. -1.
</event>
<event>
 5   0  0.2760807E-03  0.1396747E+04  0.7818609E-02  0.8956177E-01
       -2   -1    0    0    0  501  0.00000000000E+00  0.00000000000E+00  0.52212256182E+03  0.52212256183E+03  0.25500000920E-02 0.  1.
        2   -1    0    0  501    0  0.00000000000E+00  0.00000000000E+00 -0.93412071019E+03  0.93412071020E+03  0.25500000920E-02 0. -1.
    10030    2    1    2    0    0  0.00000000000E+00  0.00000000000E+00 -0.41199814837E+03  0.14562432720E+04  0.13967469324E+04 0.  0.
        4    1    3    3  502    0  0.49160179549E+03 -0.15810585728E+03 -0.69619025206E+03  0.86680578413E+03  0.12699999809E+01 0. -1.
       -4    1    3    3    0  502 -0.49160179549E+03  0.15810585728E+03  0.28419210369E+03  0.58943748790E+03  0.12699999809E+01 0.  1.
</event>
<event>
 5   0  0.2889469E-03  0.1468207E+04  0.7818609E-02  0.8905875E-01
       -2   -1    0    0    0  501  0.00000000000E+00  0.00000000000E+00  0.46051677575E+03  0.46051677576E+03  0.25500000920E-02 0.  1.
        2   -1    0    0  501    0  0.00000000000E+00  0.00000000000E+00 -0.11702243415E+04  0.11702243415E+04  0.25500000920E-02 0. -1.
    10030    2    1    2    0    0  0.00000000000E+00  0.00000000000E+00 -0.70970756576E+03  0.16307411173E+04  0.14682069891E+04 0.  0.
        5    1    3    3  502    0 -0.44362215776E+02  0.28238040335E+03 -0.11058555234E+04  0.11422106754E+04  0.46999998093E+01 0. -1.
       -5    1    3    3    0  502  0.44362215776E+02 -0.28238040335E+03  0.39614795759E+03  0.48853044192E+03  0.46999998093E+01 0.  1.
</event>
<event>
 5   0  0.1104538E-03  0.1389520E+04  0.7818609E-02  0.8961440E-01
        3   -1    0    0  501    0  0.00000000000E+00  0.00000000000E+00  0.69425505350E+03  0.69425506084E+03  0.10100000352E+00 0.  1.
       -3   -1    0    0    0  501  0.00000000000E+00  0.00000000000E+00 -0.69526507527E+03  0.69526508260E+03  0.10100000352E+00 0. -1.
    10030    2    1    2    0    0  0.00000000000E+00  0.00000000000E+00 -0.10100217681E+01  0.13895201434E+04  0.13895197764E+04 0.  0.
        3    1    3    3  502    0  0.27839920700E+03 -0.26487449982E+03  0.57831002859E+03  0.69433933958E+03  0.10100000352E+00 0.  1.
       -3    1    3    3    0  502 -0.27839920700E+03  0.26487449982E+03 -0.57932005036E+03  0.69518080387E+03  0.10100000352E+00 0. -1.
</event>
<event>
 5   0  0.3006737E-03  0.1414779E+04  0.7818609E-02  0.8943190E-01
        2   -1    0    0  501    0  0.00000000000E+00  0.00000000000E+00  0.11760693265E+04  0.11760693265E+04  0.25500000920E-02 0. -1.
       -2   -1    0    0    0  501  0.00000000000E+00  0.00000000000E+00 -0.42548502527E+03  0.42548502528E+03  0.25500000920E-02 0.  1.
    10030    2    1    2    0    0  0.00000000000E+00  0.00000000000E+00  0.75058430121E+03  0.16015543518E+04  0.14147789751E+04 0.  0.
        1    1    3    3  502    0 -0.32291162171E+03  0.19174869784E+03  0.10538989375E+04  0.11188129643E+04  0.50400001928E-02 0. -1.
       -1    1    3    3    0  502  0.32291162171E+03 -0.19174869784E+03 -0.30331463630E+03  0.48274138747E+03  0.50400001928E-02 0.  1.
</event>
<event>
 5   0  0.2889469E-03  0.1316883E+04  0.7818609E-02  0.9016283E-01
       -2   -1    0    0    0  501  0.00000000000E+00  0.00000000000E+00  0.41567931000E+03  0.41567931001E+03  0.25500000920E-02 0.  1.
        2   -1    0    0  501    0  0.00000000000E+00  0.00000000000E+00 -0.10429805293E+04  0.10429805293E+04  0.25500000920E-02 0. -1.
    10030    2    1    2    0    0  0.00000000000E+00  0.00000000000E+00 -0.62730121925E+03  0.14586598393E+04  0.13168833308E+04 0.  0.
        5    1    3    3  502    0  0.37180150976E+03 -0.65647538245E+01  0.28821173979E+03  0.47049713666E+03  0.46999998093E+01 0.  1.
       -5    1    3    3    0  502 -0.37180150976E+03  0.65647538245E+01 -0.91551295905E+03  0.98816270261E+03  0.46999998093E+01 0. -1.
</event>
<event>
 5   0  0.2760807E-03  0.1414222E+04  0.7818609E-02  0.8943588E-01
       -2   -1    0    0    0  501  0.00000000000E+00  0.00000000000E+00  0.85737663197E+03  0.85737663198E+03  0.25500000920E-02 0. -1.
        2   -1    0    0  501    0  0.00000000000E+00  0.00000000000E+00 -0.58318157642E+03  0.58318157643E+03  0.25500000920E-02 0.  1.
    10030    2    1    2    0    0  0.00000000000E+00  0.00000000000E+00  0.27419505555E+03  0.14405582084E+04  0.14142224094E+04 0.  0.
        4    1    3    3  502    0  0.50045527406E+03 -0.83795070056E+02 -0.36454417644E+03  0.62479689866E+03  0.12699999809E+01 0.  1.
       -4    1    3    3    0  502 -0.50045527406E+03  0.83795070056E+02  0.63873923199E+03  0.81576130975E+03  0.12699999809E+01 0. -1.
</event>
<event>
 5   0  0.1631380E-03  0.1338052E+04  0.7818609E-02  0.8999922E-01
        1   -1    0    0  501    0  0.00000000000E+00  0.00000000000E+00  0.13547568676E+04  0.13547568676E+04  0.50400001928E-02 0.  1.
       -1   -1    0    0    0  501  0.00000000000E+00  0.00000000000E+00 -0.33038837506E+03  0.33038837509E+03  0.50400001928E-02 0. -1.
    10030    2    1    2    0    0  0.00000000000E+00  0.00000000000E+00  0.10243684926E+04  0.16851452427E+04  0.13380521965E+04 0.  0.
        3    1    3    3  502    0 -0.15932360734E+03 -0.55444393568E+03  0.85464781692E+02  0.58317778488E+03  0.10100000352E+00 0. -1.
       -3    1    3    3    0  502  0.15932360734E+03  0.55444393568E+03  0.93890371089E+03  0.11019674579E+04  0.10100000352E+00 0.  1.
</event>
<event>
 5   0  0.1631380E-03  0.1389477E+04  0.7818609E-02  0.8961471E-01
        1   -1    0    0  501    0  0.00000000000E+00  0.00000000000E+00  0.19995821445E+04  0.19995821445E+04  0.50400001928E-02 0. -1.
       -1   -1    0    0    0  501  0.00000000000E+00  0.00000000000E+00 -0.24138120399E+03  0.24138120404E+03  0.50400001928E-02 0.  1.
    10030    2    1    2    0    0  0.00000000000E+00  0.00000000000E+00  0.17582009405E+04  0.22409633485E+04  0.13894769456E+04 0.  0.
        3    1    3    3  502    0 -0.57561159153E+03 -0.25899071041E+03  0.13472509623E+04  0.14877802452E+04  0.10100000352E+00 0.  1.
       -3    1    3    3    0  502  0.57561159153E+03  0.25899071041E+03  0.41094997822E+03  0.75318310335E+03  0.10100000352E+00 0. -1.
</event>
<event>
 5   0  0.2993993E-03  0.1388775E+04  0.7818609E-02  0.8961984E-01
       -2   -1    0    0    0  501  0.00000000000E+00  0.00000000000E+00  0.67598781440E+03  0.67598781441E+03  0.25500000920E-02 0.  1.
        2   -1    0    0  501    0  0.00000000000E+00  0.00000000000E+00 -0.71328801622E+03  0.71328801623E+03  0.25500000920E-02 0. -1.
    10030    2    1    2    0    0  0.00000000000E+00  0.00000000000E+00 -0.37300201819E+02  0.13892758306E+04  0.13887750100E+04 0.  0.
        3    1    3    3  502    0 -0.52338828770E+03 -0.23421678659E+03  0.37313024421E+03  0.68411913595E+03  0.10100000352E+00 0.  1.
       -3    1    3    3    0  502  0.52338828770E+03  0.23421678659E+03 -0.41043044603E+03  0.70515669468E+03  0.10100000352E+00 0. -1.
</event>
<event>
 5   0  0.2760807E-03  0.1387909E+04  0.7818609E-02  0.8962617E-01
       -2   -1    0    0    0  501  0.00000000000E+00  0.00000000000E+00  0.54437313357E+03  0.54437313358E+03  0.25500000920E-02 0.  1.
        2   -1    0    0  501    0  0.00000000000E+00  0.00000000000E+00 -0.88463774246E+03  0.88463774247E+03  0.25500000920E-02 0. -1.
    10030    2    1    2    0    0  0.00000000000E+00  0.00000000000E+00 -0.34026460889E+03  0.14290108760E+04  0.13879092477E+04 0.  0.
        4    1    3    3  502    0 -0.66240766907E+03 -0.20673991627E+03 -0.16314198840E+03  0.71284096003E+03  0.12699999809E+01 0. -1.
       -4    1    3    3    0  502  0.66240766907E+03  0.20673991627E+03 -0.17712262049E+03  0.71616991601E+03  0.12699999809E+01 0.  1.
</event>
<event>
 5   0  0.1700207E-03  0.1425208E+04  0.7818609E-02  0.8935771E-01
       -1   -1    0    0    0  501  0.00000000000E+00  0.00000000000E+00  0.48844060586E+03  0.48844060588E+03  0.50400001928E-02 0.  1.
        1   -1    0    0  501    0  0.00000000000E+00  0.00000000000E+00 -0.10396436641E+04  0.10396436642E+04  0.50400001928E-02 0. -1.
    10030    2    1    2    0    0  0.00000000000E+00  0.00000000000E+00 -0.55120305829E+03  0.15280842700E+04  0.14252076076E+04 0.  0.
        2    1    3    3  502    0  0.38813954943E+03 -0.57338516779E+02 -0.91340586342E+03  0.99410778423E+03  0.25500000920E-02 0. -1.
       -2    1    3    3    0  502 -0.38813954943E+03  0.57338516779E+02  0.36220280513E+03  0.53397648580E+03  0.25500000920E-02 0.  1.
</event>
<event>
 5   0  0.1586022E-03  0.1201545E+04  0.7818609E-02  0.9111505E-01
       -1   -1    0    0    0  501  0.00000000000E+00  0.00000000000E+00  0.10632433584E+04  0.10632433585E+04  0.50400001928E-02 0.  1.
        1   -1    0    0  501    0  0.00000000000E+00  0.00000000000E+00 -0.33945920021E+03  0.33945920025E+03  0.50400001928E-02 0. -1.
    10030    2    1    2    0    0  0.00000000000E+00  0.00000000000E+00  0.72378415823E+03  0.14027025587E+04  0.12015452386E+04 0.  0.
        1    1    3    3  502    0  0.49530660055E+03 -0.30012351596E+03  0.54840469996E+03  0.79759041390E+03  0.50400001928E-02 0.  1.
       -1    1    3    3    0  502 -0.49530660055E+03  0.30012351596E+03  0.17537945828E+03  0.60511214481E+03  0.50400001928E-02 0. -1.
</event>
<event>
 5   0  0.1700207E-03  0.1327836E+04  0.7818609E-02  0.9007778E-01
        1   -1    0    0  501    0  0.00000000000E+00  0.00000000000E+00  0.83394888345E+03  0.83394888347E+03  0.50400001928E-02 0.  1.
       -1   -1    0    0    0  501  0.00000000000E+00  0.00000000000E+00 -0.52855403436E+03  0.52855403438E+03  0.50400001928E-02 0. -1.
    10030    2    1    2    0    0  0.00000000000E+00  0.00000000000E+00  0.30539484909E+03  0.13625029178E+04  0.13278359037E+04 0.  0.
        2    1    3    3  502    0  0.10012431500E+03  0.56641697301E+03  0.49291677510E+03  0.75750908440E+03  0.25500000920E-02 0.  1.
       -2    1    3    3    0  502 -0.10012431500E+03 -0.56641697301E+03 -0.18752192601E+03  0.60499383345E+03  0.25500000920E-02 0. -1.
</event>
<event>
 5   0  0.1104538E-03  0.1015121E+04  0.7818609E-02  0.9292114E-01
        3   -1    0    0  501    0  0.00000000000E+00  0.00000000000E+00  0.22540211751E+04  0.22540211773E+04  0.10100000352E+00 0. -1.
       -3   -1    0    0    0  501  0.00000000000E+00  0.00000000000E+00 -0.11429256053E+03  0.11429260515E+03  0.10100000352E+00 0.  1.
    10030    2    1    2    0    0  0.00000000000E+00  0.00000000000E+00  0.21397286145E+04  0.23683137825E+04  0.10151214846E+04 0.  0.
        5    1    3    3  502    0  0.14579264309E+03 -0.29542091930E+03  0.19706296977E+04  0.19979821095E+04  0.46999998093E+01 0. -1.
       -5    1    3    3    0  502 -0.14579264309E+03  0.29542091930E+03  0.16909891681E+03  0.37033167297E+03  0.46999998093E+01 0.  1.
</event>
<event>
 5   0  0.2760807E-03  0.1410039E+04  0.7818609E-02  0.8946584E-01
       -2   -1    0    0    0  501  0.00000000000E+00  0.00000000000E+00  0.78085051320E+03  0.78085051320E+03  0.25500000920E-02 0.  1.
        2   -1    0    0  501    0  0.00000000000E+00  0.00000000000E+00 -0.63655280709E+03  0.63655280710E+03  0.25500000920E-02 0. -1.
    10030    2    1    2    0    0  0.00000000000E+00  0.00000000000E+00  0.14429770611E+03  0.14174033203E+04  0.14100391287E+04 0.  0.
        4    1    3    3  502    0  0.55228894977E+03  0.21927063920E+03  0.45353552776E+03  0.74752845102E+03  0.12699999809E+01 0.  1.
       -4    1    3    3    0  502 -0.55228894977E+03 -0.21927063920E+03 -0.30923782165E+03  0.66987486928E+03  0.12699999809E+01 0. -1.
</event>
<event>
 5   0  0.2760807E-03  0.1373935E+04  0.7818609E-02  0.8972905E-01
        2   -1    0    0  501    0  0.00000000000E+00  0.00000000000E+00  0.22803224784E+04  0.22803224784E+04  0.25500000920E-02 0.  1.
       -2   -1    0    0    0  501  0.00000000000E+00  0.00000000000E+00 -0.20695515464E+03  0.20695515466E+03  0.25500000920E-02 0. -1.
    10030    2    1    2    0    0  0.00000000000E+00  0.00000000000E+00  0.20733673238E+04  0.24872776331E+04  0.13739352113E+04 0.  0.
        4    1    3    3  502    0 -0.61250956601E+03 -0.31078495876E+03  0.10601216287E+04  0.12631764484E+04  0.12699999809E+01 0. -1.
       -4    1    3    3    0  502  0.61250956601E+03  0.31078495876E+03  0.10132456950E+04  0.12241011847E+04  0.12699999809E+01 0.  1.
</event>
<event>
 5   0  0.2889469E-03  0.1467392E+04  0.7818609E-02  0.8906431E-01
       -2   -1    0    0    0  501  0.00000000000E+00  0.00000000000E+00  0.31143900763E+03  0.31143900764E+03  0.25500000920E-02 0. -1.
        2   -1    0    0  501    0  0.00000000000E+00  0.00000000000E+00 -0.17284587174E+04  0.17284587174E+04  0.25500000920E-02 0.  1.
    10030    2    1    2    0    0  0.00000000000E+00  0.00000000000E+00 -0.14170197098E+04  0.20398977251E+04  0.14673915193E+04 0.  0.
        5    1    3    3  502    0 -0.13162185389E+03  0.13038003738E+03 -0.16953849607E+04  0.17054839552E+04  0.46999998093E+01 0.  1.
       -5    1    3    3    0  502  0.13162185389E+03 -0.13038003738E+03  0.27836525089E+03  0.33441376986E+03  0.46999998093E+01 0. -1.
</event>
<event>
 5   0  0.1631380E-03  0.1475287E+04  0.7818609E-02  0.8901055E-01
        1   -1    0    0  501    0  0.00000000000E+00  0.00000000000E+00  0.12806272372E+04  0.12806272372E+04  0.50400001928E-02 0. -1.
       -1   -1    0    0    0  501  0.00000000000E+00  0.00000000000E+00 -0.42488400351E+03  0.42488400354E+03  0.50400001928E-02 0.  1.
    10030    2    1    2    0    0  0.00000000000E+00  0.00000000000E+00  0.85574323370E+03  0.17055112408E+04  0.14752871281E+04 0.  0.
        3    1    3    3  502    0 -0.66593492872E+03  0.14205137951E+02  0.79426389029E+03  0.10365935813E+04  0.10100000352E+00 0. -1.
       -3    1    3    3    0  502  0.66593492872E+03 -0.14205137951E+02  0.61479343410E+02  0.66891765944E+03  0.10100000352E+00 0.  1.
</event>
<event>
 5   0  0.1700207E-03  0.1345376E+04  0.7818609E-02  0.8994336E-01
        1   -1    0    0  501    0  0.00000000000E+00  0.00000000000E+00  0.46387810225E+03  0.46387810228E+03  0.50400001928E-02 0.  1.
       -1   -1    0    0    0  501  0.00000000000E+00  0.00000000000E+00 -0.97549143792E+03  0.97549143793E+03  0.50400001928E-02 0. -1.
    10030    2    1    2    0    0  0.00000000000E+00  0.00000000000E+00 -0.51161333567E+03  0.14393695402E+04  0.13453759579E+04 0.  0.
        2    1    3    3  502    0 -0.23830825917E+03 -0.20221539700E+03 -0.89309668001E+03  0.94620482615E+03  0.25500000920E-02 0. -1.
       -2    1    3    3    0  502  0.23830825917E+03  0.20221539700E+03  0.38148334435E+03  0.49316471406E+03  0.25500000920E-02 0.  1.
</event>
<event>
 5   0  0.3006737E-03  0.1372411E+04  0.7818609E-02  0.8974034E-01
       -2   -1    0    0    0  501  0.00000000000E+00  0.00000000000E+00  0.68889649683E+03  0.68889649684E+03  0.25500000920E-02 0.  1.
        2   -1    0    0  501    0  0.00000000000E+00  0.00000000000E+00 -0.68352509010E+03  0.68352509010E+03  0.25500000920E-02 0. -1.
    10030    2    1    2    0    0  0.00000000000E+00  0.00000000000E+00  0.53714067323E+01  0.13724215869E+04  0.13724110755E+04 0.  0.
        1    1    3    3  502    0 -0.48522869268E+03 -0.37556895046E+03 -0.30452849718E+03  0.68500841335E+03  0.50400001928E-02 0. -1.
       -1    1    3    3    0  502  0.48522869268E+03  0.37556895046E+03  0.30989990391E+03  0.68741317358E+03  0.50400001928E-02 0.  1.
</event>
<event>
 5   0  0.1644571E-03  0.1379292E+04  0.7818609E-02  0.8968946E-01
        1   -1    0    0  501    0  0.00000000000E+00  0.00000000000E+00  0.25927316024E+03  0.25927316029E+03  0.50400001928E-02 0. -1.
       -1   -1    0    0    0  501  0.00000000000E+00  0.00000000000E+00 -0.18344036419E+04  0.18344036419E+04  0.50400001928E-02 0.  1.
    10030    2    1    2    0    0  0.00000000000E+00  0.00000000000E+00 -0.15751304817E+04  0.20936768022E+04  0.13792920350E+04 0.  0.
        4    1    3    3  502    0  0.17247277193E+02  0.65435985980E+03 -0.45804475392E+03  0.79893110102E+03  0.12699999809E+01 0. -1.
       -4    1    3    3    0  502 -0.17247277193E+02 -0.65435985980E+03 -0.11170857278E+04  0.12947457012E+04  0.12699999809E+01 0.  1.
</event>
<event>
 5   0  0.2760807E-03  0.1383706E+04  0.7818609E-02  0.8965698E-01
        2   -1    0    0  501    0  0.00000000000E+00  0.00000000000E+00  0.75163065319E+03  0.75163065319E+03  0.25500000920E-02 0.  1.
       -2   -1    0    0    0  501  0.00000000000E+00  0.00000000000E+00 -0.63682917466E+03  0.63682917466E+03  0.25500000920E-02 0. -1.
    10030    2    1    2    0    0  0.00000000000E+00  0.00000000000E+00  0.11480147853E+03  0.13884598279E+04  0.13837056458E+04 0.  0.
        4    1    3    3  502    0  0.59260937264E+03 -0.23312170354E+03  0.32875012083E+03  0.71666578825E+03  0.12699999809E+01 0.  1.
       -4    1    3    3    0  502 -0.59260937264E+03  0.23312170354E+03 -0.21394864230E+03  0.67179403960E+03  0.12699999809E+01 0. -1.
</event>
<event>
 5   0  0.1104538E-03  0.1257148E+04  0.7818609E-02  0.9064255E-01
        3   -1    0    0  501    0  0.00000000000E+00  0.00000000000E+00  0.11484172729E+04  0.11484172774E+04  0.10100000352E+00 0. -1.
       -3   -1    0    0    0  501  0.00000000000E+00  0.00000000000E+00 -0.34404335580E+03  0.34404337063E+03  0.10100000352E+00 0.  1.
    10030    2    1    2    0    0  0.00000000000E+00  0.00000000000E+00  0.80437391713E+03  0.14924606480E+04  0.12571481167E+04 0.  0.
        1    1    3    3  502    0  0.19364056589E+03  0.10694412708E+03 -0.29630623307E+03  0.36977168477E+03  0.50400001928E-02 0.  1.
       -1    1    3    3    0  502 -0.19364056589E+03 -0.10694412708E+03  0.11006801502E+04  0.11226889632E+04  0.50400001928E-02 0. -1.
</event>
<event>
 5   0  0.2917809E-03  0.1420302E+04  0.7818609E-02  0.8939253E-01
       -2   -1    0    0    0  501  0.00000000000E+00  0.00000000000E+00  0.12737768749E+04  0.12737768749E+04  0.25500000920E-02 0. -1.
        2   -1    0    0  501    0  0.00000000000E+00  0.00000000000E+00 -0.39592035562E+03  0.39592035563E+03  0.25500000920E-02 0.  1.
    10030    2    1    2    0    0  0.00000000000E+00  0.00000000000E+00  0.87785651932E+03  0.16696972306E+04  0.14203016487E+04 0.  0.
        2    1    3    3  502    0 -0.41035067701E+03 -0.54636123231E+03  0.21153093857E+03  0.71529267596E+03  0.25500000920E-02 0.  1.
       -2    1    3    3    0  502  0.41035067701E+03  0.54636123231E+03  0.66632558075E+03  0.95440455461E+03  0.25500000920E-02 0. -1.
</event>
<event>
 5   0  0.1644571E-03  0.1392492E+04  0.7818609E-02  0.8959271E-01
        1   -1    0    0  501    0  0.00000000000E+00  0.00000000000E+00  0.91727643240E+03  0.91727643241E+03  0.50400001928E-02 0. -1.
       -1   -1    0    0    0  501  0.00000000000E+00  0.00000000000E+00 -0.52847603280E+03  0.52847603282E+03  0.50400001928E-02 0.  1.
    10030    2    1    2    0    0  0.00000000000E+00  0.00000000000E+00  0.38880039960E+03  0.14457524652E+04  0.13924921687E+04 0.  0.
        4    1    3    3  502    0 -0.42473078855E+03 -0.29473933606E+03  0.67859520568E+03  0.85308884944E+03  0.12699999809E+01 0. -1.
       -4    1    3    3    0  502  0.42473078855E+03  0.29473933606E+03 -0.28979480608E+03  0.59266361580E+03  0.12699999809E+01 0.  1.
</event>
<event>
 5   0  0.2760807E-03  0.1410621E+04  0.7818609E-02  0.8946166E-01
        2   -1    0    0  501    0  0.00000000000E+00  0.00000000000E+00  0.93987755453E+03  0.93987755453E+03  0.25500000920E-02 0.  1.
       -2   -1    0    0    0  501  0.00000000000E+00  0.00000000000E+00 -0.52928450755E+03  0.52928450756E+03  0.25500000920E-02 0. -1.
    10030    2    1    2    0    0  0.00000000000E+00  0.00000000000E+00  0.41059304697E+03  0.14691620621E+04  0.14106206132E+04 0.  0.
        4    1    3    3  502    0 -0.29498189723E+02 -0.60100170098E+03  0.58851751452E+03  0.84168145137E+03  0.12699999809E+01 0.  1.
       -4    1    3    3    0  502  0.29498189723E+02  0.60100170098E+03 -0.17792446755E+03  0.62748061072E+03  0.12699999809E+01 0. -1.
</event>
<event>
 5   0  0.1631380E-03  0.1489119E+04  0.7818609E-02  0.8891721E-01
        1   -1    0    0  501    0  0.00000000000E+00  0.00000000000E+00  0.62344849169E+03  0.62344849171E+03  0.50400001928E-02 0. -1.
       -1   -1    0    0    0  501  0.00000000000E+00  0.00000000000E+00 -0.88919758609E+03  0.88919758610E+03  0.50400001928E-02 0.  1.
    10030    2    1    2    0    0  0.00000000000E+00  0.00000000000E+00 -0.26574909440E+03  0.15126460778E+04  0.14891190602E+04 0.  0.
        3    1    3    3  502    0 -0.33730757202E+03  0.47490404783E+03 -0.60394551724E+03  0.83908310124E+03  0.10100000352E+00 0.  1.
       -3    1    3    3    0  502  0.33730757202E+03 -0.47490404783E+03  0.33819642284E+03  0.67356297657E+03  0.10100000352E+00 0. -1.
</event>
<event>
 5   0  0.2889469E-03  0.1367740E+04  0.7818609E-02  0.8977507E-01
       -2   -1    0    0    0  501  0.00000000000E+00  0.00000000000E+00  0.10901634168E+04  0.10901634168E+04  0.25500000920E-02 0.  1.
        2   -1    0    0  501    0  0.00000000000E+00  0.00000000000E+00 -0.42899810393E+03  0.42899810394E+03  0.25500000920E-02 0. -1.
    10030    2    1    2    0    0  0.00000000000E+00  0.00000000000E+00  0.66116531282E+03  0.15191615207E+04  0.13677397980E+04 0.  0.
        5    1    3    3  502    0 -0.56387142954E+02 -0.56309796739E+03  0.75700991995E+03  0.94516926509E+03  0.46999998093E+01 0.  1.
       -5    1    3    3    0  502  0.56387142954E+02  0.56309796739E+03 -0.95844607129E+02  0.57399225560E+03  0.46999998093E+01 0. -1.
</event>
<event>
 5   0  0.2889469E-03  0.1392207E+04  0.7818609E-02  0.8959479E-01
       -2   -1    0    0    0  501  0.00000000000E+00  0.00000000000E+00  0.33982565108E+03  0.33982565109E+03  0.25500000920E-02 0.  1.
        2   -1    0    0  501    0  0.00000000000E+00  0.00000000000E+00 -0.14259068884E+04  0.14259068884E+04  0.25500000920E-02 0. -1.
    10030    2    1    2    0    0  0.00000000000E+00  0.00000000000E+00 -0.10860812373E+04  0.17657325395E+04  0.13922065030E+04 0.  0.
        5    1    3    3  502    0 -0.11775496849E+03 -0.13909497303E+03 -0.13950913978E+04  0.14069526440E+04  0.46999998093E+01 0. -1.
       -5    1    3    3    0  502  0.11775496849E+03  0.13909497303E+03  0.30901016051E+03  0.35877989551E+03  0.46999998093E+01 0.  1.
</event>
<event>
 5   0  0.3006737E-03  0.1416657E+04  0.7818609E-02  0.8941849E-01
        2   -1    0    0  501    0  0.00000000000E+00  0.00000000000E+00  0.12513020350E+04  0.12513020350E+04  0.25500000920E-02 0.  1.
       -2   -1    0    0    0  501  0.00000000000E+00  0.00000000000E+00 -0.40096598108E+03  0.40096598109E+03  0.25500000920E-02 0. -1.
    10030    2    1    2    0    0  0.00000000000E+00  0.00000000000E+00  0.85033605392E+03  0.16522680161E+04  0.14166574012E+04 0.  0.
        1    1    3    3  502    0  0.43408740139E+02  0.19194541759E+03 -0.36844206502E+03  0.41770434204E+03  0.50400001928E-02 0. -1.
       -1    1    3    3    0  502 -0.43408740139E+02 -0.19194541759E+03  0.12187781189E+04  0.12345636741E+04  0.50400001928E-02 0.  1.
</event>
<event>
 5   0  0.1700207E-03  0.1199070E+04  0.7818609E-02  0.9113671E-01
        1   -1    0    0  501    0  0.00000000000E+00  0.00000000000E+00  0.10076070985E+04  0.10076070985E+04  0.50400001928E-02 0. -1.
       -1   -1    0    0    0  501  0.00000000000E+00  0.00000000000E+00 -0.35672882210E+03  0.35672882214E+03  0.50400001928E-02 0.  1.
    10030    2    1    2    0    0  0.00000000000E+00  0.00000000000E+00  0.65087827635E+03  0.13643359206E+04  0.11990704623E+04 0.  0.
        2    1    3    3  502    0 -0.56040633643E+03  0.16012304546E+03  0.16554356934E+03  0.60588722132E+03  0.25500000920E-02 0.  1.
       -2    1    3    3    0  502  0.56040633643E+03 -0.16012304546E+03  0.48533470701E+03  0.75844869928E+03  0.25500000920E-02 0. -1.
</event>
<event>
 5   0  0.1631380E-03  0.7236502E+03  0.7818609E-02  0.9677621E-01
       -1   -1    0    0    0  501  0.00000000000E+00  0.00000000000E+00  0.17544992488E+03  0.17544992496E+03  0.50400001928E-02 0. -1.
        1   -1    0    0  501    0  0.00000000000E+00  0.00000000000E+00 -0.74618103873E+03  0.74618103875E+03  0.50400001928E-02 0.  1.
    10030    2    1    2    0    0  0.00000000000E+00  0.00000000000E+00 -0.57073111385E+03  0.92163096370E+03  0.72365021173E+03 0.  0.
        3    1    3    3  502    0  0.21003791223E+03 -0.20431312891E+03 -0.55570690626E+03  0.62822762999E+03  0.10100000352E+00 0.  1.
       -3    1    3    3    0  502 -0.21003791223E+03  0.20431312891E+03 -0.15024207587E+02  0.29340333371E+03  0.10100000352E+00 0. -1.
</event>
<event>
 5   0  0.1631380E-03  0.1503724E+04  0.7818609E-02  0.8881981E-01
       -1   -1    0    0    0  501  0.00000000000E+00  0.00000000000E+00  0.77974334274E+03  0.77974334276E+03  0.50400001928E-02 0. -1.
        1   -1    0    0  501    0  0.00000000000E+00  0.00000000000E+00 -0.72497715905E+03  0.72497715907E+03  0.50400001928E-02 0.  1.
    10030    2    1    2    0    0  0.00000000000E+00  0.00000000000E+00  0.54766183691E+02  0.15047205018E+04  0.15037235297E+04 0.  0.
        3    1    3    3  502    0 -0.28765957194E+03 -0.58284301356E+03  0.40557823659E+03  0.76612513598E+03  0.10100000352E+00 0. -1.
       -3    1    3    3    0  502  0.28765957194E+03  0.58284301356E+03 -0.35081205290E+03  0.73859536585E+03  0.10100000352E+00 0.  1.
</event>
<event>
 5   0  0.2760807E-03  0.9973519E+03  0.7818609E-02  0.9311454E-01
        2   -1    0    0  501    0  0.00000000000E+00  0.00000000000E+00  0.10215835108E+04  0.10215835108E+04  0.25500000920E-02 0. -1.
       -2   -1    0    0    0  501  0.00000000000E+00  0.00000000000E+00 -0.24342378356E+03  0.24342378357E+03  0.25500000920E-02 0.  1.
    10030    2    1    2    0    0  0.00000000000E+00  0.00000000000E+00  0.77815972725E+03  0.12650072944E+04  0.99735194075E+03 0.  0.
        4    1    3    3  502    0 -0.18752367998E+03 -0.53554183658E+02 -0.19304752851E+03  0.27441235815E+03  0.12699999809E+01 0.  1.
       -4    1    3    3    0  502  0.18752367998E+03  0.53554183658E+02  0.97120725577E+03  0.99059493623E+03  0.12699999809E+01 0. -1.
</event>
<event>
 5   0  0.1560957E-03  0.1388558E+04  0.7818609E-02  0.8962142E-01
       -1   -1    0    0    0  501  0.00000000000E+00  0.00000000000E+00  0.35978591046E+03  0.35978591049E+03  0.50400001928E-02 0. -1.
        1   -1    0    0  501    0  0.00000000000E+00  0.00000000000E+00 -0.13397510750E+04  0.13397510750E+04  0.50400001928E-02 0.  1.
    10030    2    1    2    0    0  0.00000000000E+00  0.00000000000E+00 -0.97996516449E+03  0.16995369855E+04  0.13885583320E+04 0.  0.
        5    1    3    3  502    0  0.68833362809E+02 -0.65594303864E+03 -0.75533646036E+03  0.10027734341E+04  0.46999998093E+01 0.  1.
       -5    1    3    3    0  502 -0.68833362809E+02  0.65594303864E+03 -0.22462870413E+03  0.69676355136E+03  0.46999998093E+01 0. -1.
</event>
<event>
 5   0  0.1644571E-03  0.1407948E+04  0.7818609E-02  0.8948085E-01
       -1   -1    0    0    0  501  0.00000000000E+00  0.00000000000E+00  0.20903085040E+03  0.20903085046E+03  0.50400001928E-02 0.  1.
        1   -1    0    0  501    0  0.00000000000E+00  0.00000000000E+00 -0.23708445841E+04  0.23708445841E+04  0.50400001928E-02 0. -1.
    10030    2    1    2    0    0  0.00000000000E+00  0.00000000000E+00 -0.21618137337E+04  0.25798754346E+04  0.14079483793E+04 0.  0.
        4    1    3    3  502    0  0.30069327390E+03  0.63464737164E+03 -0.99143348274E+03  0.12149632484E+04  0.12699999809E+01 0.  1.
       -4    1    3    3    0  502 -0.30069327390E+03 -0.63464737164E+03 -0.11703802510E+04  0.13649121862E+04  0.12699999809E+01 0. -1.
</event>
<event>
 5   0  0.1700207E-03  0.1386295E+04  0.7818609E-02  0.8963799E-01
       -1   -1    0    0    0  501  0.00000000000E+00  0.00000000000E+00  0.40904282418E+03  0.40904282421E+03  0.50400001928E-02 0.  1.
        1   -1    0    0  501    0  0.00000000000E+00  0.00000000000E+00 -0.11745805994E+04  0.11745805994E+04  0.50400001928E-02 0. -1.
    10030    2    1    2    0    0  0.00000000000E+00  0.00000000000E+00 -0.76553777524E+03  0.15836234236E+04  0.13862954456E+04 0.  0.
        2    1    3    3  502    0 -0.65097736316E+03 -0.11637591436E+03 -0.14550558161E+03  0.67711650037E+03  0.25500000920E-02 0. -1.
       -2    1    3    3    0  502  0.65097736316E+03  0.11637591436E+03 -0.62003219363E+03  0.90650692327E+03  0.25500000920E-02 0.  1.
</event>
<event>
 5   0  0.2993993E-03  0.1398705E+04  0.7818609E-02  0.8954757E-01
       -2   -1    0    0    0  501  0.00000000000E+00  0.00000000000E+00  0.41483322768E+03  0.41483322769E+03  0.25500000920E-02 0. -1.
        2   -1    0    0  501    0  0.00000000000E+00  0.00000000000E+00 -0.11790126309E+04  0.11790126309E+04  0.25500000920E-02 0.  1.
    10030    2    1    2    0    0  0.00000000000E+00  0.00000000000E+00 -0.76417940326E+03  0.15938458586E+04  0.13987045652E+04 0.  0.
        3    1    3    3  502    0  0.56344797362E+03  0.15320072508E+03  0.56512145093E+02  0.58663252031E+03  0.10100000352E+00 0. -1.
       -3    1    3    3    0  502 -0.56344797362E+03 -0.15320072508E+03 -0.82069154835E+03  0.10072133383E+04  0.10100000352E+00 0.  1.
</event>
<event>
 5   0  0.2760807E-03  0.1454092E+04  0.7818609E-02  0.8915568E-01
        2   -1    0    0  501    0  0.00000000000E+00  0.00000000000E+00  0.49458993428E+03  0.49458993429E+03  0.25500000920E-02 0. -1.
       -2   -1    0    0    0  501  0.00000000000E+00  0.00000000000E+00 -0.10687562083E+04  0.10687562083E+04  0.25500000920E-02 0.  1.
    10030    2    1    2    0    0  0.00000000000E+00  0.00000000000E+00 -0.57416627403E+03  0.15633461426E+04  0.14540922431E+04 0.  0.
        4    1    3    3  502    0  0.75254092762E+02  0.39165925352E+03 -0.94065081611E+03  0.10217072575E+04  0.12699999809E+01 0.  1.
       -4    1    3    3    0  502 -0.75254092762E+02 -0.39165925352E+03  0.36648454208E+03  0.54163888508E+03  0.12699999809E+01 0. -1.
</event>
<event>
 5   0  0.3006737E-03  0.1251350E+04  0.7818609E-02  0.9069060E-01
        2   -1    0    0  501    0  0.00000000000E+00  0.00000000000E+00  0.37571299959E+03  0.37571299960E+03  0.25500000920E-02 0. -1.
       -2   -1    0    0    0  501  0.00000000000E+00  0.00000000000E+00 -0.10419375346E+04  0.10419375346E+04  0.25500000920E-02 0.  1.
    10030    2    1    2    0    0  0.00000000000E+00  0.00000000000E+00 -0.66622453503E+03  0.14176505342E+04  0.12513504330E+04 0.  0.
        1    1    3    3  502    0 -0.37084868453E+03 -0.22416920276E+03  0.17818552438E+03  0.46854099011E+03  0.50400001928E-02 0.  1.
       -1    1    3    3    0  502  0.37084868453E+03  0.22416920276E+03 -0.84441005941E+03  0.94910954412E+03  0.50400001928E-02 0. -1.
</event>
<event>
 5   0  0.2993993E-03  0.1452474E+04  0.7818609E-02  0.8916687E-01
        2   -1    0    0  501    0  0.00000000000E+00  0.00000000000E+00  0.71516322710E+03  0.71516322711E+03  0.25500000920E-02 0.  1.
       -2   -1    0    0    0  501  0.00000000000E+00  0.00000000000E+00 -0.73748175018E+03  0.73748175019E+03  0.25500000920E-02 0. -1.
    10030    2    1    2    0    0  0.00000000000E+00  0.00000000000E+00 -0.22318523079E+02  0.14526449773E+04  0.14524735156E+04 0.  0.
        3    1    3    3  502    0 -0.43890030527E+03  0.26460869217E+03  0.50345816411E+03  0.71841587618E+03  0.10100000352E+00 0.  1.
       -3    1    3    3    0  502  0.43890030527E+03 -0.26460869217E+03 -0.52577668719E+03  0.73422910112E+03  0.10100000352E+00 0. -1.
</event>
<event>
 5   0  0.1560957E-03  0.1417268E+04  0.7818609E-02  0.8941413E-01
        1   -1    0    0  501    0  0.00000000000E+00  0.00000000000E+00  0.80256072280E+03  0.80256072281E+03  0.50400001928E-02 0.  1.
       -1   -1    0    0    0  501  0.00000000000E+00  0.00000000000E+00 -0.62569966446E+03  0.62569966448E+03  0.50400001928E-02 0. -1.
    10030    2    1    2    0    0  0.00000000000E+00  0.00000000000E+00  0.17686105833E+03  0.14282603873E+04  0.14172677587E+04 0.  0.
        5    1    3    3  502    0 -0.34657990182E+03  0.24570664978E+03 -0.48311074462E+03  0.64335640796E+03  0.46999998093E+01 0. -1.
       -5    1    3    3    0  502  0.34657990182E+03 -0.24570664978E+03  0.65997180296E+03  0.78490397934E+03  0.46999998093E+01 0.  1.
</event>
<event>
 5   0  0.1644571E-03  0.1387475E+04  0.7818609E-02  0.8962935E-01
        1   -1    0    0  501    0  0.00000000000E+00  0.00000000000E+00  0.43799385525E+03  0.43799385528E+03  0.50400001928E-02 0.  1.
       -1   -1    0    0    0  501  0.00000000000E+00  0.00000000000E+00 -0.10988088250E+04  0.10988088251E+04  0.50400001928E-02 0. -1.
    10030    2    1    2    0    0  0.00000000000E+00  0.00000000000E+00 -0.66081496978E+03  0.15368026803E+04  0.13874747039E+04 0.  0.
        4    1    3    3  502    0 -0.59591302991E+03 -0.34566580677E+03 -0.42088573794E+03  0.80730638947E+03  0.12699999809E+01 0.  1.
       -4    1    3    3    0  502  0.59591302991E+03  0.34566580677E+03 -0.23992923184E+03  0.72949629086E+03  0.12699999809E+01 0. -1.
</event>
<event>
 5   0  0.1560957E-03  0.1375868E+04  0.7818609E-02  0.8971474E-01
       -1   -1    0    0    0  501  0.00000000000E+00  0.00000000000E+00  0.86213218097E+03  0.86213218099E+03  0.50400001928E-02 0. -1.
        1   -1    0    0  501    0  0.00000000000E+00  0.00000000000E+00 -0.54893330616E+03  0.54893330618E+03  0.50400001928E-02 0.  1.
    10030    2    1    2    0    0  0.00000000000E+00  0.00000000000E+00  0.31319887481E+03  0.14110654872E+04  0.13758678257E+04 0.  0.
        5    1    3    3  502    0  0.15842000796E+03 -0.58394051413E+03 -0.17910848357E+03  0.63101930387E+03  0.46999998093E+01 0.  1.
       -5    1    3    3    0  502 -0.15842000796E+03  0.58394051413E+03  0.49230735838E+03  0.78004618330E+03  0.46999998093E+01 0. -1.
</event>
<event>
 5   0  0.1586022E-03  0.1403133E+04  0.7818609E-02  0.8951554E-01
       -1   -1    0    0    0  501  0.00000000000E+00  0.00000000000E+00  0.90537849455E+03  0.90537849457E+03  0.50400001928E-02 0. -1.
        1   -1    0    0  501    0  0.00000000000E+00  0.00000000000E+00 -0.54363475394E+03  0.54363475397E+03  0.50400001928E-02 0.  1.
    10030    2    1    2    0    0  0.00000000000E+00  0.00000000000E+00  0.36174374061E+03  0.14490132485E+04  0.14031325171E+04 0.  0.
        1    1    3    3  502    0 -0.21912190374E+03  0.50865724286E+03 -0.26384690482E+03  0.61348332383E+03  0.50400001928E-02 0.  1.
       -1    1    3    3    0  502  0.21912190374E+03 -0.50865724286E+03  0.62559064543E+03  0.83552992471E+03  0.50400001928E-02 0. -1.
</event>
<event>
 5   0  0.2760807E-03  0.1402752E+04  0.7818609E-02  0.8951829E-01
       -2   -1    0    0    0  501  0.00000000000E+00  0.00000000000E+00  0.10619786342E+04  0.10619786343E+04  0.25500000920E-02 0. -1.
        2   -1    0    0  501    0  0.00000000000E+00  0.00000000000E+00 -0.46321851212E+03  0.46321851212E+03  0.25500000920E-02 0.  1.
    10030    2    1    2    0    0  0.00000000000E+00  0.00000000000E+00  0.59876012213E+03  0.15251971464E+04  0.14027518139E+04 0.  0.
        4    1    3    3  502    0 -0.36345137095E+03  0.39067959122E+03  0.79430471229E+03  0.95689551724E+03  0.12699999809E+01 0. -1.
       -4    1    3    3    0  502  0.36345137095E+03 -0.39067959122E+03 -0.19554459016E+03  0.56830162914E+03  0.12699999809E+01 0.  1.
</event>
<event>
 5   0  0.3006737E-03  0.1439251E+04  0.7818609E-02  0.8925887E-01
       -2   -1    0    0    0  501  0.00000000000E+00  0.00000000000E+00  0.28519498111E+03  0.28519498112E+03  0.25500000920E-02 0.  1.
        2   -1    0    0  501    0  0.00000000000E+00  0.00000000000E+00 -0.18158133675E+04  0.18158133675E+04  0.25500000920E-02 0. -1.
    10030    2    1    2    0    0  0.00000000000E+00  0.00000000000E+00 -0.15306183864E+04  0.21010083486E+04  0.14392509983E+04 0.  0.
        1    1    3    3  502    0  0.52731628366E+03  0.11273098705E+03 -0.14609585040E+04  0.15572958900E+04  0.50400001928E-02 0. -1.
       -1    1    3    3    0  502 -0.52731628366E+03 -0.11273098705E+03 -0.69659882371E+02  0.54371245865E+03  0.50400001928E-02 0.  1.
</event>
<event>
 5   0  0.2917809E-03  0.1429262E+04  0.7818609E-02  0.8932906E-01
       -2   -1    0    0    0  501  0.00000000000E+00  0.00000000000E+00  0.64044572715E+03  0.64044572715E+03  0.25500000920E-02 0.  1.
        2   -1    0    0  501    0  0.00000000000E+00  0.00000000000E+00 -0.79740915701E+03  0.79740915701E+03  0.25500000920E-02 0. -1.
    10030    2    1    2    0    0  0.00000000000E+00  0.00000000000E+00 -0.15696342986E+03  0.14378548842E+04  0.14292617499E+04 0.  0.
        2    1    3    3  502    0 -0.36657483273E+02 -0.41597314878E+03  0.50493590319E+03  0.65523865722E+03  0.25500000920E-02 0.  1.
       -2    1    3    3    0  502  0.36657483273E+02  0.41597314878E+03 -0.66189933304E+03  0.78261622694E+03  0.25500000920E-02 0. -1.
</event>
<event>
 5   0  0.1631380E-03  0.1425074E+04  0.7818609E-02  0.8935866E-01
        1   -1    0    0  501    0  0.00000000000E+00  0.00000000000E+00  0.87491400281E+03  0.87491400283E+03  0.50400001928E-02 0. -1.
       -1   -1    0    0    0  501  0.00000000000E+00  0.00000000000E+00 -0.58029583093E+03  0.58029583095E+03  0.50400001928E-02 0.  1.
    10030    2    1    2    0    0  0.00000000000E+00  0.00000000000E+00  0.29461817189E+03  0.14552098338E+04  0.14250739606E+04 0.  0.
        3    1    3    3  502    0  0.63314001704E+03 -0.28340291771E+03 -0.19001364656E+02  0.69393411575E+03  0.10100000352E+00 0. -1.
       -3    1    3    3    0  502 -0.63314001704E+03  0.28340291771E+03  0.31361953654E+03  0.76127571802E+03  0.10100000352E+00 0.  1.
</event>
<event>
 5   0  0.2993993E-03  0.1401519E+04  0.7818609E-02  0.8952720E-01
        2   -1    0    0  501    0  0.00000000000E+00  0.00000000000E+00  0.96484597165E+03  0.96484597165E+03  0.25500000920E-02 0. -1.
       -2   -1    0    0    0  501  0.00000000000E+00  0.00000000000E+00 -0.50895544492E+03  0.50895544493E+03  0.25500000920E-02 0.  1.
    10030    2    1    2    0    0  0.00000000000E+00  0.00000000000E+00  0.45589052673E+03  0.14738014166E+04  0.14015186203E+04 0.  0.
        3    1    3    3  502    0 -0.32207806230E+03  0.46690198278E+03 -0.20477719729E+03  0.60304680620E+03  0.10100000352E+00 0.  1.
       -3    1    3    3    0  502  0.32207806230E+03 -0.46690198278E+03  0.66066772402E+03  0.87075461038E+03  0.10100000352E+00 0. -1.
</event>
<event>
 5   0  0.2889469E-03  0.1366041E+04  0.7818609E-02  0.8978773E-01
        2   -1    0    0  501    0  0.00000000000E+00  0.00000000000E+00  0.12231347499E+04  0.12231347499E+04  0.25500000920E-02 0.  1.
       -2   -1    0    0    0  501  0.00000000000E+00  0.00000000000E+00 -0.38141102245E+03  0.38141102246E+03  0.25500000920E-02 0. -1.
    10030    2    1    2    0    0  0.00000000000E+00  0.00000000000E+00  0.84172372742E+03  0.16045457723E+04  0.13660411056E+04 0.  0.
        5    1    3    3  502    0  0.61344065901E+03 -0.26013730741E+03  0.59710648687E+03  0.89472851050E+03  0.46999998093E+01 0.  1.
       -5    1    3    3    0  502 -0.61344065901E+03  0.26013730741E+03  0.24461724055E+03  0.70981726184E+03  0.46999998093E+01 0. -1.
</event>
<event>
 5   0  0.3006737E-03  0.1368931E+04  0.7818609E-02  0.8976620E-01
       -2   -1    0    0    0  501  0.00000000000E+00  0.00000000000E+00  0.31866830357E+03  0.31866830358E+03  0.25500000920E-02 0. -1.
        2   -1    0    0  501    0  0.00000000000E+00  0.00000000000E+00 -0.14701594575E+04  0.14701594575E+04  0.25500000920E-02 0.  1.
    10030    2    1    2    0    0  0.00000000000E+00  0.00000000000E+00 -0.11514911539E+04  0.17888277611E+04  0.13689312916E+04 0.  0.
        1    1    3    3  502    0 -0.40976388387E+03  0.37265216321E+03 -0.50255029863E+02  0.55614893988E+03  0.50400001928E-02 0. -1.
       -1    1    3    3    0  502  0.40976388387E+03 -0.37265216321E+03 -0.11012361241E+04  0.12326788212E+04  0.50400001928E-02 0.  1.
</event>
<event>
 5   0  0.1631380E-03  0.1389736E+04  0.7818609E-02  0.8961282E-01
       -1   -1    0    0    0  501  0.00000000000E+00  0.00000000000E+00  0.19055082546E+03  0.19055082553E+03  0.50400001928E-02 0. -1.
        1   -1    0    0  501    0  0.00000000000E+00  0.00000000000E+00 -0.25339267530E+04  0.25339267530E+04  0.50400001928E-02 0.  1.
    10030    2    1    2    0    0  0.00000000000E+00  0.00000000000E+00 -0.23433759275E+04  0.27244775785E+04  0.13897364276E+04 0.  0.
        3    1    3    3  502    0 -0.14966105405E+03  0.57910217776E+03 -0.47833914006E+03  0.76587603860E+03  0.10100000352E+00 0. -1.
       -3    1    3    3    0  502  0.14966105405E+03 -0.57910217776E+03 -0.18650367874E+04  0.19586015399E+04  0.10100000352E+00 0.  1.
</event>
<event>
 5   0  0.1644571E-03  0.1400184E+04  0.7818609E-02  0.8953685E-01
        1   -1    0    0  501    0  0.00000000000E+00  0.00000000000E+00  0.13435094402E+04  0.13435094402E+04  0.50400001928E-02 0.  1.
       -1   -1    0    0    0  501  0.00000000000E+00  0.00000000000E+00 -0.36481249501E+03  0.36481249505E+03  0.50400001928E-02 0. -1.
    10030    2    1    2    0    0  0.00000000000E+00  0.00000000000E+00  0.97869694518E+03  0.17083219352E+04  0.14001843178E+04 0.  0.
        4    1    3    3  502    0 -0.11520738820E+03  0.59234425673E+03  0.92240083039E+03  0.11022564881E+04  0.12699999809E+01 0.  1.
       -4    1    3    3    0  502  0.11520738820E+03 -0.59234425673E+03  0.56296114790E+02  0.60606544714E+03  0.12699999809E+01 0. -1.
</event>
<event>
 5   0  0.1631380E-03  0.1384227E+04  0.7818609E-02  0.8965316E-01
        1   -1    0    0  501    0  0.00000000000E+00  0.00000000000E+00  0.87915130432E+03  0.87915130434E+03  0.50400001928E-02 0. -1.
       -1   -1    0    0    0  501  0.00000000000E+00  0.00000000000E+00 -0.54486771066E+03  0.54486771068E+03  0.50400001928E-02 0.  1.
    10030    2    1    2    0    0  0.00000000000E+00  0.00000000000E+00  0.33428359366E+03  0.14240190150E+04  0.13842270891E+04 0.  0.
        3    1    3    3  502    0  0.67212916052E+03 -0.10609707247E+03  0.36986228185E+02  0.68145593290E+03  0.10100000352E+00 0.  1.
       -3    1    3    3    0  502 -0.67212916052E+03  0.10609707247E+03  0.29729736548E+03  0.74256308212E+03  0.10100000352E+00 0. -1.
</event>
<event>
 5   0  0.2760807E-03  0.1465762E+04  0.7818609E-02  0.8907545E-01
        2   -1    0    0  501    0  0.00000000000E+00  0.00000000000E+00  0.48998848801E+03  0.48998848802E+03  0.25500000920E-02 0. -1.
       -2   -1    0    0    0  501  0.00000000000E+00  0.00000000000E+00 -0.10961786525E+04  0.10961786525E+04  0.25500000920E-02 0.  1.
    10030    2    1    2    0    0  0.00000000000E+00  0.00000000000E+00 -0.60619016447E+03  0.15861671405E+04  0.14657624917E+04 0.  0.
        4    1    3    3  502    0 -0.60603399962E+03  0.61690466405E+02 -0.74403471132E+03  0.96159876606E+03  0.12699999809E+01 0.  1.
       -4    1    3    3    0  502  0.60603399962E+03 -0.61690466405E+02  0.13784454685E+03  0.62456837443E+03  0.12699999809E+01 0. -1.
</event>
<event>
 5   0  0.2889469E-03  0.1399167E+04  0.7818609E-02  0.8954422E-01
       -2   -1    0    0    0  501  0.00000000000E+00  0.00000000000E+00  0.55147974725E+03  0.55147974726E+03  0.25500000920E-02 0.  1.
        2   -1    0    0  501    0  0.00000000000E+00  0.00000000000E+00 -0.88746184118E+03  0.88746184118E+03  0.25500000920E-02 0. -1.
    10030    2    1    2    0    0  0.00000000000E+00  0.00000000000E+00 -0.33598209392E+03  0.14389415884E+04  0.13991672264E+04 0.  0.
        5    1    3    3  502    0 -0.55544957097E+03  0.41591236835E+03 -0.25932914783E+03  0.74079755733E+03  0.46999998093E+01 0.  1.
       -5    1    3    3    0  502  0.55544957097E+03 -0.41591236835E+03 -0.76652946096E+02  0.69814403111E+03  0.46999998093E+01 0. -1.
</event>
<event>
 5   0  0.2917809E-03  0.1390526E+04  0.7818609E-02  0.8960705E-01
        2   -1    0    0  501    0  0.00000000000E+00  0.00000000000E+00  0.58333017214E+03  0.58333017214E+03  0.25500000920E-02 0. -1.
       -2   -1    0    0    0  501  0.00000000000E+00  0.00000000000E+00 -0.82867469427E+03  0.82867469428E+03  0.25500000920E-02 0.  1.
    10030    2    1    2    0    0  0.00000000000E+00  0.00000000000E+00 -0.24534452213E+03  0.14120048664E+04  0.13905264500E+04 0.  0.
        2    1    3    3  502    0  0.17546466487E+03 -0.30710241566E+03 -0.73049230266E+03  0.81161490042E+03  0.25500000920E-02 0.  1.
       -2    1    3    3    0  502 -0.17546466487E+03  0.30710241566E+03  0.48514778053E+03  0.60038996601E+03  0.25500000920E-02 0. -1.
</event>
<event>
 5   0  0.2993993E-03  0.1376108E+04  0.7818609E-02  0.8971296E-01
       -2   -1    0    0    0  501  0.00000000000E+00  0.00000000000E+00  0.37722236287E+03  0.37722236288E+03  0.25500000920E-02 0. -1.
        2   -1    0    0  501    0  0.00000000000E+00  0.00000000000E+00 -0.12550116706E+04  0.12550116706E+04  0.25500000920E-02 0.  1.
    10030    2    1    2    0    0  0.00000000000E+00  0.00000000000E+00 -0.87778930768E+03  0.16322340334E+04  0.13761082338E+04 0.  0.
        3    1    3    3  502    0 -0.14007629847E+03  0.57405056331E+03 -0.85701453745E+03  0.10409751900E+04  0.10100000352E+00 0.  1.
       -3    1    3    3    0  502  0.14007629847E+03 -0.57405056331E+03 -0.20774770229E+02  0.59125884341E+03  0.10100000352E+00 0. -1.
</event>
<event>
 5   0  0.2917809E-03  0.1357529E+04  0.7818609E-02  0.8985148E-01
       -2   -1    0    0    0  501  0.00000000000E+00  0.00000000000E+00  0.40737916499E+03  0.40737916500E+03  0.25500000920E-02 0.  1.
        2   -1    0    0  501    0  0.00000000000E+00  0.00000000000E+00 -0.11309403941E+04  0.11309403941E+04  0.25500000920E-02 0. -1.
    10030    2    1    2    0    0  0.00000000000E+00  0.00000000000E+00 -0.72356122908E+03  0.15383195591E+04  0.13575294522E+04 0.  0.
        2    1    3    3  502    0 -0.80087994264E+02  0.17873999515E+03  0.37466117556E+03  0.42276833984E+03  0.25500000920E-02 0.  1.
       -2    1    3    3    0  502  0.80087994264E+02 -0.17873999515E+03 -0.10982224046E+04  0.11155512192E+04  0.25500000920E-02 0. -1.
</event>
<event>
 5   0  0.2993993E-03  0.1369614E+04  0.7818609E-02  0.8976112E-01
        2   -1    0    0  501    0  0.00000000000E+00  0.00000000000E+00  0.10715772926E+04  0.10715772926E+04  0.25500000920E-02 0. -1.
       -2   -1    0    0    0  501  0.00000000000E+00  0.00000000000E+00 -0.43763572014E+03  0.43763572014E+03  0.25500000920E-02 0.  1.
    10030    2    1    2    0    0  0.00000000000E+00  0.00000000000E+00  0.63394157246E+03  0.15092130127E+04  0.13696138144E+04 0.  0.
        3    1    3    3  502    0 -0.21000968454E+02 -0.24278758511E+02  0.10707477382E+04  0.10712288401E+04  0.10100000352E+00 0. -1.
       -3    1    3    3    0  502  0.21000968454E+02  0.24278758511E+02 -0.43680616578E+03  0.43798417261E+03  0.10100000352E+00 0.  1.
</event>
<event>
 5   0  0.2993993E-03  0.1162195E+04  0.7818609E-02  0.9146606E-01
        2   -1    0    0  501    0  0.00000000000E+00  0.00000000000E+00  0.13377699810E+04  0.13377699810E+04  0.25500000920E-02 0. -1.
       -2   -1    0    0    0  501  0.00000000000E+00  0.00000000000E+00 -0.25241577469E+03  0.25241577470E+03  0.25500000920E-02 0.  1.
    10030    2    1    2    0    0  0.00000000000E+00  0.00000000000E+00  0.10853542063E+04  0.15901857557E+04  0.11621948995E+04 0.  0.
        3    1    3    3  502    0 -0.55683878974E+03 -0.16411598587E+03  0.50724096137E+03  0.77090654276E+03  0.10100000352E+00 0. -1.
       -3    1    3    3    0  502  0.55683878974E+03  0.16411598587E+03  0.57811324493E+03  0.81927921293E+03  0.10100000352E+00 0.  1.
</event>
<event>
 5   0  0.2760807E-03  0.1431410E+04  0.7818609E-02  0.8931391E-01
        2   -1    0    0  501    0  0.00000000000E+00  0.00000000000E+00  0.96566206413E+03  0.96566206413E+03  0.25500000920E-02 0.  1.
       -2   -1    0    0    0  501  0.00000000000E+00  0.00000000000E+00 -0.53044804133E+03  0.53044804134E+03  0.25500000920E-02 0. -1.
    10030    2    1    2    0    0  0.00000000000E+00  0.00000000000E+00  0.43521402280E+03  0.14961101055E+04  0.14314098652E+04 0.  0.
        4    1    3    3  502    0 -0.34529175279E+03 -0.45137252037E+03  0.67232129372E+03  0.88033009807E+03  0.12699999809E+01 0. -1.
       -4    1    3    3    0  502  0.34529175279E+03  0.45137252037E+03 -0.23710727092E+03  0.61578000740E+03  0.12699999809E+01 0.  1.
</event>
<event>
 5   0  0.1560957E-03  0.1365069E+04  0.7818609E-02  0.8979499E-01
       -1   -1    0    0    0  501  0.00000000000E+00  0.00000000000E+00  0.94293977661E+03  0.94293977663E+03  0.50400001928E-02 0. -1.
        1   -1    0    0  501    0  0.00000000000E+00  0.00000000000E+00 -0.49404351360E+03  0.49404351363E+03  0.50400001928E-02 0.  1.
    10030    2    1    2    0    0  0.00000000000E+00  0.00000000000E+00  0.44889626301E+03  0.14369832903E+04  0.13650689072E+04 0.  0.
        5    1    3    3  502    0 -0.30627070737E+03 -0.41728417988E+03  0.69274766418E+03  0.86478277573E+03  0.46999998093E+01 0. -1.
       -5    1    3    3    0  502  0.30627070737E+03  0.41728417988E+03 -0.24385140117E+03  0.57220051452E+03  0.46999998093E+01 0.  1.
</event>
<event>
 5   0  0.1700207E-03  0.1710156E+04  0.7818609E-02  0.8755593E-01
       -1   -1    0    0    0  501  0.00000000000E+00  0.00000000000E+00  0.31915098649E+04  0.31915098649E+04  0.50400001928E-02 0. -1.
        1   -1    0    0  501    0  0.00000000000E+00  0.00000000000E+00 -0.22909494752E+03  0.22909494758E+03  0.50400001928E-02 0.  1.
    10030    2    1    2    0    0  0.00000000000E+00  0.00000000000E+00  0.29624149174E+04  0.34206048125E+04  0.17101564667E+04 0.  0.
        2    1    3    3  502    0 -0.22188218965E+02  0.84701272091E+03  0.17113220197E+04  0.19095931299E+04  0.25500000920E-02 0. -1.
       -2    1    3    3    0  502  0.22188218965E+02 -0.84701272091E+03  0.12510928977E+04  0.15110116826E+04  0.25500000920E-02 0.  1.
</event>
<event>
 5   0  0.1700207E-03  0.1397043E+04  0.7818609E-02  0.8955962E-01
        1   -1    0    0  501    0  0.00000000000E+00  0.00000000000E+00  0.11965040628E+04  0.11965040629E+04  0.50400001928E-02 0.  1.
       -1   -1    0    0    0  501  0.00000000000E+00  0.00000000000E+00 -0.40779834026E+03  0.40779834029E+03  0.50400001928E-02 0. -1.
    10030    2    1    2    0    0  0.00000000000E+00  0.00000000000E+00  0.78870572259E+03  0.16043024031E+04  0.13970431217E+04 0.  0.
        2    1    3    3  502    0  0.80907620234E+02 -0.85808085687E+02  0.11849882829E+04  0.11908426854E+04  0.25500000920E-02 0.  1.
       -2    1    3    3    0  502 -0.80907620234E+02  0.85808085687E+02 -0.39628256035E+03  0.41345971778E+03  0.25500000920E-02 0. -1.
</event>
<event>
 5   0  0.1631380E-03  0.1395487E+04  0.7818609E-02  0.8957092E-01
        1   -1    0    0  501    0  0.00000000000E+00  0.00000000000E+00  0.11261985860E+04  0.11261985860E+04  0.50400001928E-02 0. -1.
       -1   -1    0    0    0  501  0.00000000000E+00  0.00000000000E+00 -0.43229133085E+03  0.43229133088E+03  0.50400001928E-02 0.  1.
    10030    2    1    2    0    0  0.00000000000E+00  0.00000000000E+00  0.69390725514E+03  0.15584899169E+04  0.13954868478E+04 0.  0.
        3    1    3    3  502    0  0.26932184644E+03  0.56650382426E+03  0.68823838588E+03  0.93119972394E+03  0.10100000352E+00 0. -1.
       -3    1    3    3    0  502 -0.26932184644E+03 -0.56650382426E+03  0.56688692638E+01  0.62729019293E+03  0.10100000352E+00 0.  1.
</event>
<event>
 5   0  0.3006737E-03  0.1379260E+04  0.7818609E-02  0.8968970E-01
       -2   -1    0    0    0  501  0.00000000000E+00  0.00000000000E+00  0.42230648644E+03  0.42230648645E+03  0.25500000920E-02 0. -1.
        2   -1    0    0  501    0  0.00000000000E+00  0.00000000000E+00 -0.11261709406E+04  0.11261709406E+04  0.25500000920E-02 0.  1.
    10030    2    1    2    0    0  0.00000000000E+00  0.00000000000E+00 -0.70386445412E+03  0.15484774270E+04  0.13792596464E+04 0.  0.
        1    1    3    3  502    0  0.48468962523E+03  0.66086302747E+02 -0.89767594311E+03  0.10223079434E+04  0.50400001928E-02 0.  1.
       -1    1    3    3    0  502 -0.48468962523E+03 -0.66086302747E+02  0.19381148899E+03  0.52616948363E+03  0.50400001928E-02 0. -1.
</event>
<event>
 5   0  0.1631380E-03  0.1407726E+04  0.7818609E-02  0.8948245E-01
        1   -1    0    0  501    0  0.00000000000E+00  0.00000000000E+00  0.65007814870E+03  0.65007814872E+03  0.50400001928E-02 0.  1.
       -1   -1    0    0    0  501  0.00000000000E+00  0.00000000000E+00 -0.76209775175E+03  0.76209775177E+03  0.50400001928E-02 0. -1.
    10030    2    1    2    0    0  0.00000000000E+00  0.00000000000E+00 -0.11201960305E+03  0.14121759005E+04  0.14077259614E+04 0.  0.
        3    1    3    3  502    0 -0.57277121424E+03 -0.36188664300E+03  0.13536609438E+03  0.69090722673E+03  0.10100000352E+00 0.  1.
       -3    1    3    3    0  502  0.57277121424E+03  0.36188664300E+03 -0.24738569742E+03  0.72126867375E+03  0.10100000352E+00 0. -1.
</event>
<event>
 5   0  0.2993993E-03  0.1348611E+04  0.7818609E-02  0.8991880E-01
       -2   -1    0    0    0  501  0.00000000000E+00  0.00000000000E+00  0.13136180659E+04  0.13136180659E+04  0.25500000920E-02 0.  1.
        2   -1    0    0  501    0  0.00000000000E+00  0.00000000000E+00 -0.34613408304E+03  0.34613408305E+03  0.25500000920E-02 0. -1.
    10030    2    1    2    0    0  0.00000000000E+00  0.00000000000E+00  0.96748398286E+03  0.16597521490E+04  0.13486111148E+04 0.  0.
        3    1    3    3  502    0 -0.33961827516E+03  0.34855507601E+03 -0.90694506524E+02  0.49503203689E+03  0.10100000352E+00 0. -1.
       -3    1    3    3    0  502  0.33961827516E+03 -0.34855507601E+03  0.10581784894E+04  0.11647201121E+04  0.10100000352E+00 0.  1.
</event>
<event>
 5   0  0.1586022E-03  0.9009785E+03  0.7818609E-02  0.9424359E-01
        1   -1    0    0  501    0  0.00000000000E+00  0.00000000000E+00  0.58043552099E+03  0.58043552101E+03  0.50400001928E-02 0. -1.
       -1   -1    0    0    0  501  0.00000000000E+00  0.00000000000E+00 -0.34963501224E+03  0.34963501228E+03  0.50400001928E-02 0.  1.
    10030    2    1    2    0    0  0.00000000000E+00  0.00000000000E+00  0.23080050875E+03  0.93007053329E+03  0.90097853584E+03 0.  0.
        1    1    3    3  502    0  0.49815846831E+02  0.22910853853E+03 -0.28168676797E+03  0.36649662522E+03  0.50400001928E-02 0.  1.
       -1    1    3    3    0  502 -0.49815846831E+02 -0.22910853853E+03  0.51248727673E+03  0.56357390807E+03  0.50400001928E-02 0. -1.
</event>
<event>
 5   0  0.2760807E-03  0.1390990E+04  0.7818609E-02  0.8960366E-01
       -2   -1    0    0    0  501  0.00000000000E+00  0.00000000000E+00  0.33713520455E+03  0.33713520456E+03  0.25500000920E-02 0.  1.
        2   -1    0    0  501    0  0.00000000000E+00  0.00000000000E+00 -0.14347761818E+04  0.14347761818E+04  0.25500000920E-02 0. -1.
    10030    2    1    2    0    0  0.00000000000E+00  0.00000000000E+00 -0.10976409773E+04  0.17719113864E+04  0.13909903832E+04 0.  0.
        4    1    3    3  502    0  0.31629703017E+03 -0.37231980242E+03  0.81761803481E+02  0.49533064914E+03  0.12699999809E+01 0.  1.
       -4    1    3    3    0  502 -0.31629703017E+03  0.37231980242E+03 -0.11794027808E+04  0.12765807373E+04  0.12699999809E+01 0. -1.
</event>
<event>
 5   0  0.2760807E-03  0.1375453E+04  0.7818609E-02  0.8971781E-01
        2   -1    0    0  501    0  0.00000000000E+00  0.00000000000E+00  0.56914894112E+03  0.56914894112E+03  0.25500000920E-02 0. -1.
       -2   -1    0    0    0  501  0.00000000000E+00  0.00000000000E+00 -0.83100870428E+03  0.83100870429E+03  0.25500000920E-02 0.  1.
    10030    2    1    2    0    0  0.00000000000E+00  0.00000000000E+00 -0.26185976317E+03  0.14001576454E+04  0.13754529786E+04 0.  0.
        4    1    3    3  502    0 -0.18717117780E+03  0.16898051105E+03  0.52038917008E+03  0.57826807291E+03  0.12699999809E+01 0. -1.
       -4    1    3    3    0  502  0.18717117780E+03 -0.16898051105E+03 -0.78224893324E+03  0.82188957250E+03  0.12699999809E+01 0.  1.
</event>
<event>
 5   0  0.1560957E-03  0.1362813E+04  0.7818609E-02  0.8981185E-01
        1   -1    0    0  501    0  0.00000000000E+00  0.00000000000E+00  0.12632839648E+04  0.12632839649E+04  0.50400001928E-02 0. -1.
       -1   -1    0    0    0  501  0.00000000000E+00  0.00000000000E+00 -0.36754585454E+03  0.36754585457E+03  0.50400001928E-02 0.  1.
    10030    2    1    2    0    0  0.00000000000E+00  0.00000000000E+00  0.89573811031E+03  0.16308298194E+04  0.13628129504E+04 0.  0.
        5    1    3    3  502    0  0.65537183514E+03  0.18083795377E+03  0.50242024314E+03  0.84537731134E+03  0.46999998093E+01 0. -1.
       -5    1    3    3    0  502 -0.65537183514E+03 -0.18083795377E+03  0.39331786717E+03  0.78545250808E+03  0.46999998093E+01 0.  1.
</event>
<event>
 5   0  0.1631380E-03  0.1396055E+04  0.7818609E-02  0.8956679E-01
        1   -1    0    0  501    0  0.00000000000E+00  0.00000000000E+00  0.77270877279E+03  0.77270877281E+03  0.50400001928E-02 0. -1.
       -1   -1    0    0    0  501  0.00000000000E+00  0.00000000000E+00 -0.63056373393E+03  0.63056373395E+03  0.50400001928E-02 0.  1.
    10030    2    1    2    0    0  0.00000000000E+00  0.00000000000E+00  0.14214503886E+03  0.14032725068E+04  0.13960546251E+04 0.  0.
        3    1    3    3  502    0  0.46462877588E+02 -0.57758122563E+02  0.76874124936E+03  0.77230688096E+03  0.10100000352E+00 0. -1.
       -3    1    3    3    0  502 -0.46462877588E+02  0.57758122563E+02 -0.62659621050E+03  0.63096562579E+03  0.10100000352E+00 0.  1.
</event>
<event>
 5   0  0.1700207E-03  0.1400436E+04  0.7818609E-02  0.8953503E-01
        1   -1    0    0  501    0  0.00000000000E+00  0.00000000000E+00  0.58108687673E+03  0.58108687675E+03  0.50400001928E-02 0. -1.
       -1   -1    0    0    0  501  0.00000000000E+00  0.00000000000E+00 -0.84377313814E+03  0.84377313816E+03  0.50400001928E-02 0.  1.
    10030    2    1    2    0    0  0.00000000000E+00  0.00000000000E+00 -0.26268626141E+03  0.14248600149E+04  0.14004363571E+04 0.  0.
        2    1    3    3  502    0  0.13494656973E+03 -0.56495898453E+03 -0.52920806593E+03  0.78578012697E+03  0.25500000920E-02 0.  1.
       -2    1    3    3    0  502 -0.13494656973E+03  0.56495898453E+03  0.26652180452E+03  0.63907988794E+03  0.25500000920E-02 0. -1.
</event>
<event>
 5   0  0.2760807E-03  0.1384356E+04  0.7818609E-02  0.8965221E-01
       -2   -1    0    0    0  501  0.00000000000E+00  0.00000000000E+00  0.52051210179E+03  0.52051210180E+03  0.25500000920E-02 0. -1.
        2   -1    0    0  501    0  0.00000000000E+00  0.00000000000E+00 -0.92046028810E+03  0.92046028810E+03  0.25500000920E-02 0.  1.
    10030    2    1    2    0    0  0.00000000000E+00  0.00000000000E+00 -0.39994818631E+03  0.14409723899E+04  0.13843564847E+04 0.  0.
        4    1    3    3  502    0 -0.10629237348E+03  0.58039437431E+03 -0.57664850821E+03  0.82503382555E+03  0.12699999809E+01 0.  1.
       -4    1    3    3    0  502  0.10629237348E+03 -0.58039437431E+03  0.17670032190E+03  0.61593856435E+03  0.12699999809E+01 0. -1.
</event>
<event>
 5   0  0.1631380E-03  0.1338936E+04  0.7818609E-02  0.8999246E-01
        1   -1    0    0  501    0  0.00000000000E+00  0.00000000000E+00  0.13567972782E+04  0.13567972782E+04  0.50400001928E-02 0. -1.
       -1   -1    0    0    0  501  0.00000000000E+00  0.00000000000E+00 -0.33032735653E+03  0.33032735657E+03  0.50400001928E-02 0.  1.
    10030    2    1    2    0    0  0.00000000000E+00  0.00000000000E+00  0.10264699216E+04  0.16871246347E+04  0.13389357838E+04 0.  0.
        3    1    3    3  502    0  0.53465779641E+03  0.36123485395E+03  0.73806692302E+03  0.98035318739E+03  0.10100000352E+00 0. -1.
       -3    1    3    3    0  502 -0.53465779641E+03 -0.36123485395E+03  0.28840299861E+03  0.70677144734E+03  0.10100000352E+00 0.  1.
</event>
<event>
 5   0  0.2917809E-03  0.1353844E+04  0.7818609E-02  0.8987923E-01
       -2   -1    0    0    0  501  0.00000000000E+00  0.00000000000E+00  0.26868184006E+03  0.26868184008E+03  0.25500000920E-02 0.  1.
        2   -1    0    0  501    0  0.00000000000E+00  0.00000000000E+00 -0.17054506789E+04  0.17054506789E+04  0.25500000920E-02 0. -1.
    10030    2    1    2    0    0  0.00000000000E+00  0.00000000000E+00 -0.14367688388E+04  0.19741325190E+04  0.13538443434E+04 0.  0.
        2    1    3    3  502    0  0.33808139579E+02 -0.14284233765E+03 -0.16819639795E+04  0.16883571163E+04  0.25500000920E-02 0. -1.
       -2    1    3    3    0  502 -0.33808139579E+02  0.14284233765E+03  0.24519514071E+03  0.28577540266E+03  0.25500000920E-02 0.  1.
</event>
<event>
 5   0  0.2760807E-03  0.1543256E+04  0.7818609E-02  0.8856187E-01
       -2   -1    0    0    0  501  0.00000000000E+00  0.00000000000E+00  0.85893571867E+03  0.85893571867E+03  0.25500000920E-02 0.  1.
        2   -1    0    0  501    0  0.00000000000E+00  0.00000000000E+00 -0.69319455508E+03  0.69319455508E+03  0.25500000920E-02 0. -1.
    10030    2    1    2    0    0  0.00000000000E+00  0.00000000000E+00  0.16574116359E+03  0.15521302738E+04  0.15432557317E+04 0.  0.
        4    1    3    3  502    0 -0.65519368265E+03 -0.36675340205E+03  0.26171647378E+03  0.79516284197E+03  0.12699999809E+01 0. -1.
       -4    1    3    3    0  502  0.65519368265E+03  0.36675340205E+03 -0.95975310194E+02  0.75696743178E+03  0.12699999809E+01 0.  1.
</event>
<event>
 5   0  0.1560957E-03  0.1398139E+04  0.7818609E-02  0.8955167E-01
       -1   -1    0    0    0  501  0.00000000000E+00  0.00000000000E+00  0.53205297734E+03  0.53205297736E+03  0.50400001928E-02 0.  1.
        1   -1    0    0  501    0  0.00000000000E+00  0.00000000000E+00 -0.91851365683E+03  0.91851365684E+03  0.50400001928E-02 0. -1.
    10030    2    1    2    0    0  0.00000000000E+00  0.00000000000E+00 -0.38646067949E+03  0.14505666342E+04  0.13981386567E+04 0.  0.
        5    1    3    3  502    0 -0.59152863759E+03 -0.13014831287E+03 -0.55536205738E+03  0.82176262826E+03  0.46999998093E+01 0. -1.
       -5    1    3    3    0  502  0.59152863759E+03  0.13014831287E+03  0.16890137789E+03  0.62880400594E+03  0.46999998093E+01 0.  1.
</event>
<event>
 5   0  0.1104538E-03  0.1398879E+04  0.7818609E-02  0.8954631E-01
        4   -1    0    0  501    0  0.00000000000E+00  0.00000000000E+00  0.54494556609E+03  0.54494704596E+03  0.12699999809E+01 0.  1.
       -4   -1    0    0    0  501  0.00000000000E+00  0.00000000000E+00 -0.89772928824E+03  0.89773018656E+03  0.12699999809E+01 0. -1.
    10030    2    1    2    0    0  0.00000000000E+00  0.00000000000E+00 -0.35278372215E+03  0.14426772325E+04  0.13988785661E+04 0.  0.
        3    1    3    3  502    0  0.37836213519E+03  0.37700897536E+03 -0.64210748353E+03  0.83522194862E+03  0.10100000352E+00 0. -1.
       -3    1    3    3    0  502 -0.37836213519E+03 -0.37700897536E+03  0.28932376138E+03  0.60745528391E+03  0.10100000352E+00 0.  1.
</event>
<event>
 5   0  0.2917809E-03  0.1408186E+04  0.7818609E-02  0.8947914E-01
       -2   -1    0    0    0  501  0.00000000000E+00  0.00000000000E+00  0.46845307411E+03  0.46845307412E+03  0.25500000920E-02 0. -1.
        2   -1    0    0  501    0  0.00000000000E+00  0.00000000000E+00 -0.10582645502E+04  0.10582645502E+04  0.25500000920E-02 0.  1.
    10030    2    1    2    0    0  0.00000000000E+00  0.00000000000E+00 -0.58981147604E+03  0.15267176243E+04  0.14081864674E+04 0.  0.
        2    1    3    3  502    0  0.22689537504E+03 -0.15848324600E+03 -0.99681776248E+03  0.10345260277E+04  0.25500000920E-02 0.  1.
       -2    1    3    3    0  502 -0.22689537504E+03  0.15848324600E+03  0.40700628645E+03  0.49219159653E+03  0.25500000920E-02 0. -1.
</event>
<event>
 5   0  0.2993993E-03  0.1340001E+04  0.7818609E-02  0.8998432E-01
       -2   -1    0    0    0  501  0.00000000000E+00  0.00000000000E+00  0.77602975574E+03  0.77602975574E+03  0.25500000920E-02 0.  1.
        2   -1    0    0  501    0  0.00000000000E+00  0.00000000000E+00 -0.57845774528E+03  0.57845774529E+03  0.25500000920E-02 0. -1.
    10030    2    1    2    0    0  0.00000000000E+00  0.00000000000E+00  0.19757201046E+03  0.13544875010E+04  0.13400006310E+04 0.  0.
        3    1    3    3  502    0 -0.44853660943E+03  0.29668338093E+03 -0.30515198317E+03  0.61832342795E+03  0.10100000352E+00 0. -1.
       -3    1    3    3    0  502  0.44853660943E+03 -0.29668338093E+03  0.50272399362E+03  0.73616407308E+03  0.10100000352E+00 0.  1.
</event>
<event>
 5   0  0.2889469E-03  0.1413344E+04  0.7818609E-02  0.8944216E-01
        2   -1    0    0  501    0  0.00000000000E+00  0.00000000000E+00  0.19076020263E+04  0.19076020263E+04  0.25500000920E-02 0. -1.
       -2   -1    0    0    0  501  0.00000000000E+00  0.00000000000E+00 -0.26178696136E+03  0.26178696138E+03  0.25500000920E-02 0.  1.
    10030    2    1    2    0    0  0.00000000000E+00  0.00000000000E+00  0.16458150649E+04  0.21693889877E+04  0.14133440317E+04 0.  0.
        5    1    3    3  502    0 -0.36376973352E+03  0.38682048393E+03  0.10721901665E+03  0.54173472599E+03  0.46999998093E+01 0.  1.
       -5    1    3    3    0  502  0.36376973352E+03 -0.38682048393E+03  0.15385960483E+04  0.16276542617E+04  0.46999998093E+01 0. -1.
</event>
<event>
 5   0  0.1700207E-03  0.1415315E+04  0.7818609E-02  0.8942807E-01
        1   -1    0    0  501    0  0.00000000000E+00  0.00000000000E+00  0.15645696100E+04  0.15645696100E+04  0.50400001928E-02 0. -1.
       -1   -1    0    0    0  501  0.00000000000E+00  0.00000000000E+00 -0.32007482259E+03  0.32007482262E+03  0.50400001928E-02 0.  1.
    10030    2    1    2    0    0  0.00000000000E+00  0.00000000000E+00  0.12444947874E+04  0.18846444326E+04  0.14153152870E+04 0.  0.
        2    1    3    3  502    0 -0.22059317384E+03 -0.40051475910E+03  0.13414460207E+04  0.14172335189E+04  0.25500000920E-02 0. -1.
       -2    1    3    3    0  502  0.22059317384E+03  0.40051475910E+03 -0.96951233321E+02  0.46741091371E+03  0.25500000920E-02 0.  1.
</event>
<event>
 5   0  0.2917809E-03  0.1356368E+04  0.7818609E-02  0.8986021E-01
        2   -1    0    0  501    0  0.00000000000E+00  0.00000000000E+00  0.10856386578E+04  0.10856386578E+04  0.25500000920E-02 0.  1.
       -2   -1    0    0    0  501  0.00000000000E+00  0.00000000000E+00 -0.42365277253E+03  0.42365277254E+03  0.25500000920E-02 0. -1.
    10030    2    1    2    0    0  0.00000000000E+00  0.00000000000E+00  0.66198588528E+03  0.15092914304E+04  0.13563684269E+04 0.  0.
        2    1    3    3  502    0 -0.14598075031E+03  0.64525044348E+02 -0.40245672569E+03  0.43294950845E+03  0.25500000920E-02 0. -1.
       -2    1    3    3    0  502  0.14598075031E+03 -0.64525044348E+02  0.10644426110E+04  0.10763419219E+04  0.25500000920E-02 0.  1.
</event>
<event>
 5   0  0.1700207E-03  0.1365325E+04  0.7818609E-02  0.8979307E-01
       -1   -1    0    0    0  501  0.00000000000E+00  0.00000000000E+00  0.70355059378E+03  0.70355059380E+03  0.50400001928E-02 0. -1.
        1   -1    0    0  501    0  0.00000000000E+00  0.00000000000E+00 -0.66239488062E+03  0.66239488064E+03  0.50400001928E-02 0.  1.
    10030    2    1    2    0    0  0.00000000000E+00  0.00000000000E+00  0.41155713158E+02  0.13659454744E+04  0.13653253262E+04 0.  0.
        2    1    3    3  502    0 -0.13102169412E+03 -0.41151705896E+02 -0.64843221481E+03  0.66281557347E+03  0.25500000920E-02 0.  1.
       -2    1    3    3    0  502  0.13102169412E+03  0.41151705896E+02  0.68958792797E+03  0.70312990097E+03  0.25500000920E-02 0. -1.
</event>
<event>
 5   0  0.2889469E-03  0.1409948E+04  0.7818609E-02  0.8946649E-01
        2   -1    0    0  501    0  0.00000000000E+00  0.00000000000E+00  0.12060925167E+04  0.12060925167E+04  0.25500000920E-02 0. -1.
       -2   -1    0    0    0  501  0.00000000000E+00  0.00000000000E+00 -0.41206492910E+03  0.41206492910E+03  0.25500000920E-02 0.  1.
    10030    2    1    2    0    0  0.00000000000E+00  0.00000000000E+00  0.79402758764E+03  0.16181574458E+04  0.14099481230E+04 0.  0.
        5    1    3    3  502    0 -0.42679751682E+03 -0.69275598799E+01 -0.24687215259E+03  0.49312479269E+03  0.46999998093E+01 0.  1.
       -5    1    3    3    0  502  0.42679751682E+03  0.69275598799E+01  0.10408997402E+04  0.11250326531E+04  0.46999998093E+01 0. -1.
</event>
<event>
 5   0  0.1586022E-03  0.1213860E+04  0.7818609E-02  0.9100810E-01
        1   -1    0    0  501    0  0.00000000000E+00  0.00000000000E+00  0.20378053322E+04  0.20378053322E+04  0.50400001928E-02 0. -1.
       -1   -1    0    0    0  501  0.00000000000E+00  0.00000000000E+00 -0.18076514114E+03  0.18076514121E+03  0.50400001928E-02 0.  1.
    10030    2    1    2    0    0  0.00000000000E+00  0.00000000000E+00  0.18570401910E+04  0.22185704734E+04  0.12138602367E+04 0.  0.
        1    1    3    3  502    0  0.47438795699E+03 -0.26923501301E+03  0.14149514627E+04  0.15164494940E+04  0.50400001928E-02 0. -1.
       -1    1    3    3    0  502 -0.47438795699E+03  0.26923501301E+03  0.44208872829E+03  0.70212097937E+03  0.50400001928E-02 0.  1.
</event>
<event>
 5   0  0.1700207E-03  0.1309952E+04  0.7818609E-02  0.9021710E-01
       -1   -1    0    0    0  501  0.00000000000E+00  0.00000000000E+00  0.29999918429E+03  0.29999918434E+03  0.50400001928E-02 0.  1.
        1   -1    0    0  501    0  0.00000000000E+00  0.00000000000E+00 -0.14299831544E+04  0.14299831544E+04  0.50400001928E-02 0. -1.
    10030    2    1    2    0    0  0.00000000000E+00  0.00000000000E+00 -0.11299839701E+04  0.17299823387E+04  0.13099523349E+04 0.  0.
        2    1    3    3  502    0  0.52677540954E+02  0.51500108890E+03 -0.35097602699E+02  0.51887656201E+03  0.25500000920E-02 0.  1.
       -2    1    3    3    0  502 -0.52677540954E+02 -0.51500108890E+03 -0.10948863674E+04  0.12111057767E+04  0.25500000920E-02 0. -1.
</event>
<event>
 5   0  0.1586022E-03  0.1370952E+04  0.7818609E-02  0.8975117E-01
        1   -1    0    0  501    0  0.00000000000E+00  0.00000000000E+00  0.14231523807E+04  0.14231523807E+04  0.50400001928E-02 0. -1.
       -1   -1    0    0    0  501  0.00000000000E+00  0.00000000000E+00 -0.33016660882E+03  0.33016660886E+03  0.50400001928E-02 0.  1.
    10030    2    1    2    0    0  0.00000000000E+00  0.00000000000E+00  0.10929857719E+04  0.17533189895E+04  0.13709520712E+04 0.  0.
        1    1    3    3  502    0 -0.44090462438E+03 -0.27124258088E+02  0.12168456294E+04  0.12945446686E+04  0.50400001928E-02 0. -1.
       -1    1    3    3    0  502  0.44090462438E+03  0.27124258088E+02 -0.12385985758E+03  0.45877432091E+03  0.50400001928E-02 0.  1.
</event>
<event>
 5   0  0.2889469E-03  0.1412588E+04  0.7818609E-02  0.8944757E-01
        2   -1    0    0  501    0  0.00000000000E+00  0.00000000000E+00  0.17723870222E+04  0.17723870222E+04  0.25500000920E-02 0.  1.
       -2   -1    0    0    0  501  0.00000000000E+00  0.00000000000E+00 -0.28145740919E+03  0.28145740920E+03  0.25500000920E-02 0. -1.
    10030    2    1    2    0    0  0.00000000000E+00  0.00000000000E+00  0.14909296130E+04  0.20538444314E+04  0.14125883468E+04 0.  0.
        5    1    3    3  502    0 -0.37360252337E+03 -0.57838500992E+03  0.97407080145E+03  0.11928721983E+04  0.46999998093E+01 0.  1.
       -5    1    3    3    0  502  0.37360252337E+03  0.57838500992E+03  0.51685881158E+03  0.86097223316E+03  0.46999998093E+01 0. -1.
</event>
<event>
 5   0  0.1560957E-03  0.1406306E+04  0.7818609E-02  0.8949266E-01
       -1   -1    0    0    0  501  0.00000000000E+00  0.00000000000E+00  0.46396873182E+03  0.46396873185E+03  0.50400001928E-02 0.  1.
        1   -1    0    0  501    0  0.00000000000E+00  0.00000000000E+00 -0.10656417332E+04  0.10656417332E+04  0.50400001928E-02 0. -1.
    10030    2    1    2    0    0  0.00000000000E+00  0.00000000000E+00 -0.60167300141E+03  0.15296104651E+04  0.14063064297E+04 0.  0.
        5    1    3    3  502    0  0.73235376821E+02 -0.17586950789E+02 -0.10612244398E+04  0.10639041888E+04  0.46999998093E+01 0. -1.
       -5    1    3    3    0  502 -0.73235376821E+02  0.17586950789E+02  0.45955143840E+03  0.46570627631E+03  0.46999998093E+01 0.  1.
</event>
<event>
 5   0  0.1631380E-03  0.1397139E+04  0.7818609E-02  0.8955892E-01
       -1   -1    0    0    0  501  0.00000000000E+00  0.00000000000E+00  0.27946691213E+03  0.27946691217E+03  0.50400001928E-02 0. -1.
        1   -1    0    0  501    0  0.00000000000E+00  0.00000000000E+00 -0.17461785204E+04  0.17461785204E+04  0.50400001928E-02 0.  1.
    10030    2    1    2    0    0  0.00000000000E+00  0.00000000000E+00 -0.14667116083E+04  0.20256454326E+04  0.13971386748E+04 0.  0.
        3    1    3    3  502    0  0.26948313215E+02 -0.21276478709E+03  0.23055541513E+03  0.31488232065E+03  0.10100000352E+00 0. -1.
       -3    1    3    3    0  502 -0.26948313215E+02  0.21276478709E+03 -0.16972670234E+04  0.17107631119E+04  0.10100000352E+00 0.  1.
</event>
<event>
 5   0  0.3006737E-03  0.1326475E+04  0.7818609E-02  0.9008830E-01
       -2   -1    0    0    0  501  0.00000000000E+00  0.00000000000E+00  0.38982320990E+03  0.38982320991E+03  0.25500000920E-02 0.  1.
        2   -1    0    0  501    0  0.00000000000E+00  0.00000000000E+00 -0.11284184208E+04  0.11284184208E+04  0.25500000920E-02 0. -1.
    10030    2    1    2    0    0  0.00000000000E+00  0.00000000000E+00 -0.73859521093E+03  0.15182416307E+04  0.13264745620E+04 0.  0.
        1    1    3    3  502    0 -0.42903685935E+03 -0.12151512819E+03  0.19264396094E+03  0.48574710372E+03  0.50400001928E-02 0.  1.
       -1    1    3    3    0  502  0.42903685935E+03  0.12151512819E+03 -0.93123917187E+03  0.10324945270E+04  0.50400001928E-02 0. -1.
</event>
<event>
 5   0  0.1586022E-03  0.1237609E+04  0.7818609E-02  0.9080560E-01
        1   -1    0    0  501    0  0.00000000000E+00  0.00000000000E+00  0.17853693069E+04  0.17853693069E+04  0.50400001928E-02 0. -1.
       -1   -1    0    0    0  501  0.00000000000E+00  0.00000000000E+00 -0.21447597899E+03  0.21447597905E+03  0.50400001928E-02 0.  1.
    10030    2    1    2    0    0  0.00000000000E+00  0.00000000000E+00  0.15708933279E+04  0.19998452860E+04  0.12376087104E+04 0.  0.
        1    1    3    3  502    0 -0.21894793142E+03 -0.52949552385E+03  0.40781404413E+03  0.70328941487E+03  0.50400001928E-02 0.  1.
       -1    1    3    3    0  502  0.21894793142E+03  0.52949552385E+03  0.11630792838E+04  0.12965558711E+04  0.50400001928E-02 0. -1.
</event>
<event>
 5   0  0.2993993E-03  0.1436262E+04  0.7818609E-02  0.8927980E-01
       -2   -1    0    0    0  501  0.00000000000E+00  0.00000000000E+00  0.31444409645E+03  0.31444409646E+03  0.25500000920E-02 0. -1.
        2   -1    0    0  501    0  0.00000000000E+00  0.00000000000E+00 -0.16400765708E+04  0.16400765708E+04  0.25500000920E-02 0.  1.
    10030    2    1    2    0    0  0.00000000000E+00  0.00000000000E+00 -0.13256324744E+04  0.19545206673E+04  0.14362623652E+04 0.  0.
        3    1    3    3  502    0  0.61515208477E+03 -0.33864294718E+03 -0.45814123353E+03  0.83844172913E+03  0.10100000352E+00 0. -1.
       -3    1    3    3    0  502 -0.61515208477E+03  0.33864294718E+03 -0.86749124082E+03  0.11160789381E+04  0.10100000352E+00 0.  1.
</event>
<event>
 5   0  0.1586022E-03  0.9962739E+03  0.7818609E-02  0.9312641E-01
       -1   -1    0    0    0  501  0.00000000000E+00  0.00000000000E+00  0.19543816469E+03  0.19543816476E+03  0.50400001928E-02 0.  1.
        1   -1    0    0  501    0  0.00000000000E+00  0.00000000000E+00 -0.12696620848E+04  0.12696620848E+04  0.50400001928E-02 0. -1.
    10030    2    1    2    0    0  0.00000000000E+00  0.00000000000E+00 -0.10742239201E+04  0.14651002495E+04  0.99627391350E+03 0.  0.
        1    1    3    3  502    0  0.29392241347E+03 -0.40178747667E+03 -0.51093456189E+03  0.71335663459E+03  0.50400001928E-02 0.  1.
       -1    1    3    3    0  502 -0.29392241347E+03  0.40178747667E+03 -0.56328935817E+03  0.75174361494E+03  0.50400001928E-02 0. -1.
</event>
<event>
 5   0  0.1586022E-03  0.1473294E+04  0.7818609E-02  0.8902409E-01
       -1   -1    0    0    0  501  0.00000000000E+00  0.00000000000E+00  0.25372801087E+03  0.25372801092E+03  0.50400001928E-02 0.  1.
        1   -1    0    0  501    0  0.00000000000E+00  0.00000000000E+00 -0.21387021178E+04  0.21387021178E+04  0.50400001928E-02 0. -1.
    10030    2    1    2    0    0  0.00000000000E+00  0.00000000000E+00 -0.18849741069E+04  0.23924301287E+04  0.14732937715E+04 0.  0.
        1    1    3    3  502    0 -0.11851616882E+03 -0.68831648157E+03 -0.13227037660E+04  0.14957843807E+04  0.50400001928E-02 0. -1.
       -1    1    3    3    0  502  0.11851616882E+03  0.68831648157E+03 -0.56227034094E+03  0.89664574799E+03  0.50400001928E-02 0.  1.
</event>
<event>
 5   0  0.3006737E-03  0.1414041E+04  0.7818609E-02  0.8943717E-01
        2   -1    0    0  501    0  0.00000000000E+00  0.00000000000E+00  0.13688811992E+04  0.13688811992E+04  0.25500000920E-02 0.  1.
       -2   -1    0    0    0  501  0.00000000000E+00  0.00000000000E+00 -0.36517270398E+03  0.36517270399E+03  0.25500000920E-02 0. -1.
    10030    2    1    2    0    0  0.00000000000E+00  0.00000000000E+00  0.10037084953E+04  0.17340539032E+04  0.14140410870E+04 0.  0.
        1    1    3    3  502    0  0.25269540135E+03 -0.21099423614E+02  0.13111988633E+04  0.13354933959E+04  0.50400001928E-02 0.  1.
       -1    1    3    3    0  502 -0.25269540135E+03  0.21099423614E+02 -0.30749036800E+03  0.39856050730E+03  0.50400001928E-02 0. -1.
</event>
<event>
 5   0  0.1586022E-03  0.1329869E+04  0.7818609E-02  0.9006209E-01
       -1   -1    0    0    0  501  0.00000000000E+00  0.00000000000E+00  0.45668311297E+03  0.45668311299E+03  0.50400001928E-02 0.  1.
        1   -1    0    0  501    0  0.00000000000E+00  0.00000000000E+00 -0.96814964421E+03  0.96814964423E+03  0.50400001928E-02 0. -1.
    10030    2    1    2    0    0  0.00000000000E+00  0.00000000000E+00 -0.51146653125E+03  0.14248327572E+04  0.13298685550E+04 0.  0.
        1    1    3    3  502    0 -0.44622549344E+02 -0.20839209196E+03  0.41910043135E+03  0.47017401830E+03  0.50400001928E-02 0.  1.
       -1    1    3    3    0  502  0.44622549344E+02  0.20839209196E+03 -0.93056696260E+03  0.95465873892E+03  0.50400001928E-02 0. -1.
</event>
<event>
 5   0  0.1586022E-03  0.1267824E+04  0.7818609E-02  0.9055477E-01
        1   -1    0    0  501    0  0.00000000000E+00  0.00000000000E+00  0.68252208168E+03  0.68252208170E+03  0.50400001928E-02 0.  1.
       -1   -1    0    0    0  501  0.00000000000E+00  0.00000000000E+00 -0.58876425699E+03  0.58876425702E+03  0.50400001928E-02 0. -1.
    10030    2    1    2    0    0  0.00000000000E+00  0.00000000000E+00  0.93757824690E+02  0.12712863387E+04  0.12678242880E+04 0.  0.
        1    1    3    3  502    0  0.56141754707E+03 -0.86703560057E+02 -0.23520304114E+03  0.61483952384E+03  0.50400001928E-02 0. -1.
       -1    1    3    3    0  502 -0.56141754707E+03  0.86703560057E+02  0.32896086584E+03  0.65644681488E+03  0.50400001928E-02 0.  1.
</event>
<event>
 5   0  0.2993993E-03  0.1420699E+04  0.7818609E-02  0.8938970E-01
        2   -1    0    0  501    0  0.00000000000E+00  0.00000000000E+00  0.54092412855E+03  0.54092412856E+03  0.25500000920E-02 0.  1.
       -2   -1    0    0    0  501  0.00000000000E+00  0.00000000000E+00 -0.93284164159E+03  0.93284164159E+03  0.25500000920E-02 0. -1.
    10030    2    1    2    0    0  0.00000000000E+00  0.00000000000E+00 -0.39191751304E+03  0.14737657702E+04  0.14206991970E+04 0.  0.
        3    1    3    3  502    0  0.87773332990E+02  0.32763633825E+03 -0.84340864226E+03  0.90905878587E+03  0.10100000352E+00 0. -1.
       -3    1    3    3    0  502 -0.87773332990E+02 -0.32763633825E+03  0.45149112922E+03  0.56470698428E+03  0.10100000352E+00 0.  1.
</event>
<event>
 5   0  0.2889469E-03  0.1402842E+04  0.7818609E-02  0.8951764E-01
        2   -1    0    0  501    0  0.00000000000E+00  0.00000000000E+00  0.35639922990E+03  0.35639922991E+03  0.25500000920E-02 0.  1.
       -2   -1    0    0    0  501  0.00000000000E+00  0.00000000000E+00 -0.13804506305E+04  0.13804506305E+04  0.25500000920E-02 0. -1.
    10030    2    1    2    0    0  0.00000000000E+00  0.00000000000E+00 -0.10240514006E+04  0.17368498604E+04  0.14028421745E+04 0.  0.
        5    1    3    3  502    0 -0.23154220453E+02 -0.34569833491E+02 -0.13789018720E+04  0.13795374783E+04  0.46999998093E+01 0. -1.
       -5    1    3    3    0  502  0.23154220453E+02  0.34569833491E+02  0.35485047146E+03  0.35731238210E+03  0.46999998093E+01 0.  1.
</event>
<event>
 5   0  0.2917809E-03  0.1405317E+04  0.7818609E-02  0.8949979E-01
        2   -1    0    0  501    0  0.00000000000E+00  0.00000000000E+00  0.11508947792E+04  0.11508947792E+04  0.25500000920E-02 0.  1.
       -2   -1    0    0    0  501  0.00000000000E+00  0.00000000000E+00 -0.42899557068E+03  0.42899557069E+03  0.25500000920E-02 0. -1.
    10030    2    1    2    0    0  0.00000000000E+00  0.00000000000E+00  0.72189920856E+03  0.15798903499E+04  0.14053167083E+04 0.  0.
        2    1    3    3  502    0  0.33149545192E+02  0.21261271804E+03 -0.39104236197E+03  0.44633752821E+03  0.25500000920E-02 0. -1.
       -2    1    3    3    0  502 -0.33149545192E+02 -0.21261271804E+03  0.11129415705E+04  0.11335528217E+04  0.25500000920E-02 0.  1.
</event>
<event>
 5   0  0.2917809E-03  0.1339660E+04  0.7818609E-02  0.8998693E-01
        2   -1    0    0  501    0  0.00000000000E+00  0.00000000000E+00  0.75975986459E+03  0.75975986459E+03  0.25500000920E-02 0. -1.
       -2   -1    0    0    0  501  0.00000000000E+00  0.00000000000E+00 -0.59054470900E+03  0.59054470900E+03  0.25500000920E-02 0.  1.
    10030    2    1    2    0    0  0.00000000000E+00  0.00000000000E+00  0.16921515559E+03  0.13503045736E+04  0.13396599093E+04 0.  0.
        2    1    3    3  502    0  0.19407934679E+02  0.66238454137E+03  0.18306804233E+03  0.68749098664E+03  0.25500000920E-02 0. -1.
       -2    1    3    3    0  502 -0.19407934679E+02 -0.66238454137E+03 -0.13852886740E+02  0.66281358696E+03  0.25500000920E-02 0.  1.
</event>
<event>
 5   0  0.2993993E-03  0.1442972E+04  0.7818609E-02  0.8923288E-01
        2   -1    0    0  501    0  0.00000000000E+00  0.00000000000E+00  0.56630771398E+03  0.56630771398E+03  0.25500000920E-02 0. -1.
       -2   -1    0    0    0  501  0.00000000000E+00  0.00000000000E+00 -0.91918538093E+03  0.91918538093E+03  0.25500000920E-02 0.  1.
    10030    2    1    2    0    0  0.00000000000E+00  0.00000000000E+00 -0.35287766695E+03  0.14854930949E+04  0.14429716169E+04 0.  0.
        3    1    3    3  502    0  0.39832639267E+03 -0.57409582312E+03  0.85558270149E+01  0.69880121751E+03  0.10100000352E+00 0. -1.
       -3    1    3    3    0  502 -0.39832639267E+03  0.57409582312E+03 -0.36143349396E+03  0.78669187741E+03  0.10100000352E+00 0.  1.
</event>
<event>
 5   0  0.1700207E-03  0.1287403E+04  0.7818609E-02  0.9039615E-01
       -1   -1    0    0    0  501  0.00000000000E+00  0.00000000000E+00  0.94582543746E+03  0.94582543748E+03  0.50400001928E-02 0. -1.
        1   -1    0    0  501    0  0.00000000000E+00  0.00000000000E+00 -0.43808454430E+03  0.43808454433E+03  0.50400001928E-02 0.  1.
    10030    2    1    2    0    0  0.00000000000E+00  0.00000000000E+00  0.50774089316E+03  0.13839099818E+04  0.12874028209E+04 0.  0.
        2    1    3    3  502    0  0.12078486853E+03  0.16268341346E+03 -0.40291030912E+03  0.45098957270E+03  0.25500000920E-02 0.  1.
       -2    1    3    3    0  502 -0.12078486853E+03 -0.16268341346E+03  0.91065120229E+03  0.93292040910E+03  0.25500000920E-02 0. -1.
</event>
<event>
 5   0  0.3006737E-03  0.8275583E+03  0.7818609E-02  0.9520962E-01
       -2   -1    0    0    0  501  0.00000000000E+00  0.00000000000E+00  0.68788132359E+02  0.68788132406E+02  0.25500000920E-02 0. -1.
        2   -1    0    0  501    0  0.00000000000E+00  0.00000000000E+00 -0.24889931644E+04  0.24889931644E+04  0.25500000920E-02 0.  1.
    10030    2    1    2    0    0  0.00000000000E+00  0.00000000000E+00 -0.24202050321E+04  0.25577812969E+04  0.82755831528E+03 0.  0.
        1    1    3    3  502    0  0.10478967276E+03  0.33614505293E+03 -0.53834224262E+03  0.64326257651E+03  0.50400001928E-02 0. -1.
       -1    1    3    3    0  502 -0.10478967276E+03 -0.33614505293E+03 -0.18818627895E+04  0.19145187203E+04  0.50400001928E-02 0.  1.
</event>
<event>
 5   0  0.1631380E-03  0.1406621E+04  0.7818609E-02  0.8949040E-01
        1   -1    0    0  501    0  0.00000000000E+00  0.00000000000E+00  0.64535985901E+03  0.64535985902E+03  0.50400001928E-02 0.  1.
       -1   -1    0    0    0  501  0.00000000000E+00  0.00000000000E+00 -0.76646511367E+03  0.76646511369E+03  0.50400001928E-02 0. -1.
    10030    2    1    2    0    0  0.00000000000E+00  0.00000000000E+00 -0.12110525467E+03  0.14118249727E+04  0.14066212251E+04 0.  0.
        3    1    3    3  502    0  0.21957682761E+03  0.79331633123E+02  0.60533091628E+03  0.64879351079E+03  0.10100000352E+00 0.  1.
       -3    1    3    3    0  502 -0.21957682761E+03 -0.79331633123E+02 -0.72643617094E+03  0.76303146193E+03  0.10100000352E+00 0. -1.
</event>
<event>
 5   0  0.1631380E-03  0.1403715E+04  0.7818609E-02  0.8951134E-01
       -1   -1    0    0    0  501  0.00000000000E+00  0.00000000000E+00  0.14460129039E+04  0.14460129039E+04  0.50400001928E-02 0. -1.
        1   -1    0    0  501    0  0.00000000000E+00  0.00000000000E+00 -0.34066371727E+03  0.34066371730E+03  0.50400001928E-02 0.  1.
    10030    2    1    2    0    0  0.00000000000E+00  0.00000000000E+00  0.11053491867E+04  0.17866766212E+04  0.14037152576E+04 0.  0.
        3    1    3    3  502    0  0.44293761994E+03  0.16118843765E+03 -0.10922681172E+03  0.48384496917E+03  0.10100000352E+00 0.  1.
       -3    1    3    3    0  502 -0.44293761994E+03 -0.16118843765E+03  0.12145759984E+04  0.13028316521E+04  0.10100000352E+00 0. -1.
</event>
<event>
 5   0  0.1644571E-03  0.1378140E+04  0.7818609E-02  0.8969796E-01
       -1   -1    0    0    0  501  0.00000000000E+00  0.00000000000E+00  0.20432479603E+03  0.20432479609E+03  0.50400001928E-02 0.  1.
        1   -1    0    0  501    0  0.00000000000E+00  0.00000000000E+00 -0.23238365293E+04  0.23238365293E+04  0.50400001928E-02 0. -1.
    10030    2    1    2    0    0  0.00000000000E+00  0.00000000000E+00 -0.21195117332E+04  0.25281613254E+04  0.13781399420E+04 0.  0.
        4    1    3    3  502    0 -0.44844473123E+03 -0.19862015576E+03 -0.19476546692E+04  0.20084603473E+04  0.12699999809E+01 0. -1.
       -4    1    3    3    0  502  0.44844473123E+03  0.19862015576E+03 -0.17185706401E+03  0.51970097806E+03  0.12699999809E+01 0.  1.
</event>
<event>
 5   0  0.2760807E-03  0.1423323E+04  0.7818609E-02  0.8937107E-01
        2   -1    0    0  501    0  0.00000000000E+00  0.00000000000E+00  0.42155836501E+03  0.42155836502E+03  0.25500000920E-02 0. -1.
       -2   -1    0    0    0  501  0.00000000000E+00  0.00000000000E+00 -0.12014049875E+04  0.12014049875E+04  0.25500000920E-02 0.  1.
    10030    2    1    2    0    0  0.00000000000E+00  0.00000000000E+00 -0.77984662247E+03  0.16229633525E+04  0.14233233255E+04 0.  0.
        4    1    3    3  502    0  0.22199448034E+03  0.67043991315E+03 -0.28993396837E+03  0.76343601262E+03  0.12699999809E+01 0. -1.
       -4    1    3    3    0  502 -0.22199448034E+03 -0.67043991315E+03 -0.48991265410E+03  0.85952733988E+03  0.12699999809E+01 0.  1.
</event>
<event>
 5   0  0.1631380E-03  0.1357305E+04  0.7818609E-02  0.8985316E-01
       -1   -1    0    0    0  501  0.00000000000E+00  0.00000000000E+00  0.38173679559E+03  0.38173679562E+03  0.50400001928E-02 0. -1.
        1   -1    0    0  501    0  0.00000000000E+00  0.00000000000E+00 -0.12065105279E+04  0.12065105279E+04  0.50400001928E-02 0.  1.
    10030    2    1    2    0    0  0.00000000000E+00  0.00000000000E+00 -0.82477373232E+03  0.15882473235E+04  0.13573053640E+04 0.  0.
        3    1    3    3  502    0  0.59563746160E+03 -0.31617307465E+03 -0.32311716793E+03  0.74776608187E+03  0.10100000352E+00 0.  1.
       -3    1    3    3    0  502 -0.59563746160E+03  0.31617307465E+03 -0.50165656440E+03  0.84048124167E+03  0.10100000352E+00 0. -1.
</event>
<event>
 5   0  0.2889469E-03  0.1392390E+04  0.7818609E-02  0.8959346E-01
       -2   -1    0    0    0  501  0.00000000000E+00  0.00000000000E+00  0.17711611216E+04  0.17711611216E+04  0.25500000920E-02 0. -1.
        2   -1    0    0  501    0  0.00000000000E+00  0.00000000000E+00 -0.27365514662E+03  0.27365514663E+03  0.25500000920E-02 0.  1.
    10030    2    1    2    0    0  0.00000000000E+00  0.00000000000E+00  0.14975059750E+04  0.20448162682E+04  0.13923898253E+04 0.  0.
        5    1    3    3  502    0 -0.32958760916E+03  0.45479316063E+03  0.13528326496E+04  0.14648013787E+04  0.46999998093E+01 0. -1.
       -5    1    3    3    0  502  0.32958760916E+03 -0.45479316063E+03  0.14467332538E+03  0.58001488959E+03  0.46999998093E+01 0.  1.
</event>
<event>
 5   0  0.1631380E-03  0.1210984E+04  0.7818609E-02  0.9103297E-01
       -1   -1    0    0    0  501  0.00000000000E+00  0.00000000000E+00  0.31266907146E+03  0.31266907150E+03  0.50400001928E-02 0. -1.
        1   -1    0    0  501    0  0.00000000000E+00  0.00000000000E+00 -0.11725507296E+04  0.11725507296E+04  0.50400001928E-02 0.  1.
    10030    2    1    2    0    0  0.00000000000E+00  0.00000000000E+00 -0.85988165811E+03  0.14852198011E+04  0.12109836463E+04 0.  0.
        3    1    3    3  502    0 -0.44044016197E+03  0.41547507842E+03 -0.43440699148E+03  0.74519562634E+03  0.10100000352E+00 0.  1.
       -3    1    3    3    0  502  0.44044016197E+03 -0.41547507842E+03 -0.42547466663E+03  0.74002417475E+03  0.10100000352E+00 0. -1.
</event>
<event>
 5   0  0.3006737E-03  0.1342316E+04  0.7818609E-02  0.8996665E-01
       -2   -1    0    0    0  501  0.00000000000E+00  0.00000000000E+00  0.21529686005E+03  0.21529686007E+03  0.25500000920E-02 0. -1.
        2   -1    0    0  501    0  0.00000000000E+00  0.00000000000E+00 -0.20922419199E+04  0.20922419199E+04  0.25500000920E-02 0.  1.
    10030    2    1    2    0    0  0.00000000000E+00  0.00000000000E+00 -0.18769450598E+04  0.23075387799E+04  0.13423160818E+04 0.  0.
        1    1    3    3  502    0 -0.16696885733E+03  0.39680510136E+03 -0.18236200305E+04  0.18737456881E+04  0.50400001928E-02 0. -1.
       -1    1    3    3    0  502  0.16696885733E+03 -0.39680510136E+03 -0.53325029293E+02  0.43379309187E+03  0.50400001928E-02 0.  1.
</event>
<event>
 5   0  0.1631380E-03  0.9253442E+03  0.7818609E-02  0.9394443E-01
       -1   -1    0    0    0  501  0.00000000000E+00  0.00000000000E+00  0.36650736186E+03  0.36650736190E+03  0.50400001928E-02 0. -1.
        1   -1    0    0  501    0  0.00000000000E+00  0.00000000000E+00 -0.58406865370E+03  0.58406865373E+03  0.50400001928E-02 0.  1.
    10030    2    1    2    0    0  0.00000000000E+00  0.00000000000E+00 -0.21756129184E+03  0.95057601562E+03  0.92534417692E+03 0.  0.
        3    1    3    3  502    0  0.17451313322E+02  0.24855119041E+03 -0.50926113294E+03  0.56694722357E+03  0.10100000352E+00 0.  1.
       -3    1    3    3    0  502 -0.17451313322E+02 -0.24855119041E+03  0.29169984110E+03  0.38362879205E+03  0.10100000352E+00 0. -1.
</event>
<event>
 5   0  0.2889469E-03  0.1386612E+04  0.7818609E-02  0.8963567E-01
       -2   -1    0    0    0  501  0.00000000000E+00  0.00000000000E+00  0.33837528743E+03  0.33837528744E+03  0.25500000920E-02 0. -1.
        2   -1    0    0  501    0  0.00000000000E+00  0.00000000000E+00 -0.14205334145E+04  0.14205334145E+04  0.25500000920E-02 0.  1.
    10030    2    1    2    0    0  0.00000000000E+00  0.00000000000E+00 -0.10821581271E+04  0.17589087020E+04  0.13866122781E+04 0.  0.
        5    1    3    3  502    0 -0.29102638187E+03  0.52886235416E+03 -0.10856263496E+03  0.61335118839E+03  0.46999998093E+01 0. -1.
       -5    1    3    3    0  502  0.29102638187E+03 -0.52886235416E+03 -0.97359549215E+03  0.11455575136E+04  0.46999998093E+01 0.  1.
</event>
<event>
 5   0  0.2993993E-03  0.1401529E+04  0.7818609E-02  0.8952712E-01
       -2   -1    0    0    0  501  0.00000000000E+00  0.00000000000E+00  0.51175005708E+03  0.51175005709E+03  0.25500000920E-02 0.  1.
        2   -1    0    0  501    0  0.00000000000E+00  0.00000000000E+00 -0.95959168829E+03  0.95959168829E+03  0.25500000920E-02 0. -1.
    10030    2    1    2    0    0  0.00000000000E+00  0.00000000000E+00 -0.44784163121E+03  0.14713417454E+04  0.14015293094E+04 0.  0.
        3    1    3    3  502    0  0.14892626471E+03  0.27769280220E+02 -0.94219523604E+03  0.95429661964E+03  0.10100000352E+00 0. -1.
       -3    1    3    3    0  502 -0.14892626471E+03 -0.27769280220E+02  0.49435360483E+03  0.51704512574E+03  0.10100000352E+00 0.  1.
</event>
<event>
 5   0  0.2993993E-03  0.1410222E+04  0.7818609E-02  0.8946453E-01
       -2   -1    0    0    0  501  0.00000000000E+00  0.00000000000E+00  0.38148103393E+03  0.38148103394E+03  0.25500000920E-02 0. -1.
        2   -1    0    0  501    0  0.00000000000E+00  0.00000000000E+00 -0.13032923658E+04  0.13032923658E+04  0.25500000920E-02 0.  1.
    10030    2    1    2    0    0  0.00000000000E+00  0.00000000000E+00 -0.92181133186E+03  0.16847733997E+04  0.14102217120E+04 0.  0.
        3    1    3    3  502    0 -0.77483913152E+02 -0.69980331255E+03 -0.41536825114E+03  0.81747123944E+03  0.10100000352E+00 0. -1.
       -3    1    3    3    0  502  0.77483913152E+02  0.69980331255E+03 -0.50644308072E+03  0.86730216030E+03  0.10100000352E+00 0.  1.
</event>
<event>
 5   0  0.1586022E-03  0.1348755E+04  0.7818609E-02  0.8991771E-01
        1   -1    0    0  501    0  0.00000000000E+00  0.00000000000E+00  0.12255765212E+04  0.12255765212E+04  0.50400001928E-02 0.  1.
       -1   -1    0    0    0  501  0.00000000000E+00  0.00000000000E+00 -0.37107856423E+03  0.37107856426E+03  0.50400001928E-02 0. -1.
    10030    2    1    2    0    0  0.00000000000E+00  0.00000000000E+00  0.85449795698E+03  0.15966550855E+04  0.13487552423E+04 0.  0.
        1    1    3    3  502    0  0.36620530015E+03 -0.28758544665E+03  0.10047360021E+04  0.11073870800E+04  0.50400001928E-02 0.  1.
       -1    1    3    3    0  502 -0.36620530015E+03  0.28758544665E+03 -0.15023804511E+03  0.48926800550E+03  0.50400001928E-02 0. -1.
</event>
<event>
 5   0  0.1644571E-03  0.1444986E+04  0.7818609E-02  0.8921884E-01
       -1   -1    0    0    0  501  0.00000000000E+00  0.00000000000E+00  0.10154709951E+04  0.10154709951E+04  0.50400001928E-02 0. -1.
        1   -1    0    0  501    0  0.00000000000E+00  0.00000000000E+00 -0.51404325126E+03  0.51404325128E+03  0.50400001928E-02 0.  1.
    10030    2    1    2    0    0  0.00000000000E+00  0.00000000000E+00  0.50142774387E+03  0.15295142464E+04  0.14449858296E+04 0.  0.
        4    1    3    3  502    0 -0.66842641081E+03  0.21068815012E+03  0.43651275002E+03  0.82566843049E+03  0.12699999809E+01 0.  1.
       -4    1    3    3    0  502  0.66842641081E+03 -0.21068815012E+03  0.64914993851E+02  0.70384581593E+03  0.12699999809E+01 0. -1.
</event>
<event>
 5   0  0.1586022E-03  0.1410618E+04  0.7818609E-02  0.8946169E-01
        1   -1    0    0  501    0  0.00000000000E+00  0.00000000000E+00  0.90532284154E+03  0.90532284155E+03  0.50400001928E-02 0.  1.
       -1   -1    0    0    0  501  0.00000000000E+00  0.00000000000E+00 -0.54948418211E+03  0.54948418213E+03  0.50400001928E-02 0. -1.
    10030    2    1    2    0    0  0.00000000000E+00  0.00000000000E+00  0.35583865942E+03  0.14548070237E+04  0.14106177103E+04 0.  0.
        1    1    3    3  502    0 -0.46130227617E+03 -0.25920701436E+03 -0.30302880568E+03  0.60976595788E+03  0.50400001928E-02 0. -1.
       -1    1    3    3    0  502  0.46130227617E+03  0.25920701436E+03  0.65886746510E+03  0.84504106580E+03  0.50400001928E-02 0.  1.
</event>
<event>
 5   0  0.1560957E-03  0.1386305E+04  0.7818609E-02  0.8963792E-01
       -1   -1    0    0    0  501  0.00000000000E+00  0.00000000000E+00  0.14073935105E+04  0.14073935105E+04  0.50400001928E-02 0.  1.
        1   -1    0    0  501    0  0.00000000000E+00  0.00000000000E+00 -0.34138316870E+03  0.34138316874E+03  0.50400001928E-02 0. -1.
    10030    2    1    2    0    0  0.00000000000E+00  0.00000000000E+00  0.10660103418E+04  0.17487766792E+04  0.13863050981E+04 0.  0.
        5    1    3    3  502    0 -0.55404500514E+02 -0.34936777074E+03  0.12849392681E+04  0.13327484799E+04  0.46999998093E+01 0.  1.
       -5    1    3    3    0  502  0.55404500514E+02  0.34936777074E+03 -0.21892892629E+03  0.41602819937E+03  0.46999998093E+01 0. -1.
</event>
<event>
 5   0  0.1631380E-03  0.1412034E+04  0.7818609E-02  0.8945153E-01
       -1   -1    0    0    0  501  0.00000000000E+00  0.00000000000E+00  0.20044764910E+03  0.20044764917E+03  0.50400001928E-02 0. -1.
        1   -1    0    0  501    0  0.00000000000E+00  0.00000000000E+00 -0.24867350740E+04  0.24867350740E+04  0.50400001928E-02 0.  1.
    10030    2    1    2    0    0  0.00000000000E+00  0.00000000000E+00 -0.22862874249E+04  0.26871827232E+04  0.14120342767E+04 0.  0.
        3    1    3    3  502    0 -0.48665284832E+03 -0.31355833177E+02 -0.21147213202E+04  0.21702212918E+04  0.10100000352E+00 0.  1.
       -3    1    3    3    0  502  0.48665284832E+03  0.31355833177E+02 -0.17156610469E+03  0.51696143137E+03  0.10100000352E+00 0. -1.
</event>
<event>
 5   0  0.1644571E-03  0.1353833E+04  0.7818609E-02  0.8987932E-01
       -1   -1    0    0    0  501  0.00000000000E+00  0.00000000000E+00  0.62855929334E+03  0.62855929336E+03  0.50400001928E-02 0. -1.
        1   -1    0    0  501    0  0.00000000000E+00  0.00000000000E+00 -0.72899375542E+03  0.72899375543E+03  0.50400001928E-02 0.  1.
    10030    2    1    2    0    0  0.00000000000E+00  0.00000000000E+00 -0.10043446208E+03  0.13575530488E+04  0.13538327811E+04 0.  0.
        4    1    3    3  502    0 -0.50244945076E+03  0.43038656116E+03  0.93445948008E+02  0.66814803800E+03  0.12699999809E+01 0. -1.
       -4    1    3    3    0  502  0.50244945076E+03 -0.43038656116E+03 -0.19388041009E+03  0.68940501079E+03  0.12699999809E+01 0.  1.
</event>
<event>
 5   0  0.1700207E-03  0.1274281E+04  0.7818609E-02  0.9050213E-01
       -1   -1    0    0    0  501  0.00000000000E+00  0.00000000000E+00  0.31671699211E+03  0.31671699215E+03  0.50400001928E-02 0. -1.
        1   -1    0    0  501    0  0.00000000000E+00  0.00000000000E+00 -0.12817366856E+04  0.12817366856E+04  0.50400001928E-02 0.  1.
    10030    2    1    2    0    0  0.00000000000E+00  0.00000000000E+00 -0.96501969349E+03  0.15984536778E+04  0.12742806406E+04 0.  0.
        2    1    3    3  502    0 -0.40825756013E+03 -0.48860986375E+03 -0.45352395574E+03  0.78172745429E+03  0.25500000920E-02 0. -1.
       -2    1    3    3    0  502  0.40825756013E+03  0.48860986375E+03 -0.51149573775E+03  0.81672622347E+03  0.25500000920E-02 0.  1.
</event>
<event>
 5   0  0.2917809E-03  0.8537912E+03  0.7818609E-02  0.9485263E-01
        2   -1    0    0  501    0  0.00000000000E+00  0.00000000000E+00  0.48459193024E+03  0.48459193025E+03  0.25500000920E-02 0.  1.
       -2   -1    0    0    0  501  0.00000000000E+00  0.00000000000E+00 -0.37606869565E+03  0.37606869566E+03  0.25500000920E-02 0. -1.
    10030    2    1    2    0    0  0.00000000000E+00  0.00000000000E+00  0.10852323459E+03  0.86066062591E+03  0.85379120430E+03 0.  0.
        2    1    3    3  502    0  0.26907410148E+03  0.33006030725E+03  0.84489154290E+02  0.43414179217E+03  0.25500000920E-02 0.  1.
       -2    1    3    3    0  502 -0.26907410148E+03 -0.33006030725E+03  0.24034080298E+02  0.42651883374E+03  0.25500000920E-02 0. -1.
</event>
<event>
 5   0  0.1560957E-03  0.1444618E+04  0.7818609E-02  0.8922140E-01
       -1   -1    0    0    0  501  0.00000000000E+00  0.00000000000E+00  0.28796778945E+03  0.28796778949E+03  0.50400001928E-02 0.  1.
        1   -1    0    0  501    0  0.00000000000E+00  0.00000000000E+00 -0.18117658579E+04  0.18117658579E+04  0.50400001928E-02 0. -1.
    10030    2    1    2    0    0  0.00000000000E+00  0.00000000000E+00 -0.15237980684E+04  0.20997336474E+04  0.14446178860E+04 0.  0.
        5    1    3    3  502    0 -0.54304152669E+03  0.19626414234E+03 -0.13118872635E+03  0.59215393708E+03  0.46999998093E+01 0. -1.
       -5    1    3    3    0  502  0.54304152669E+03 -0.19626414234E+03 -0.13926093421E+04  0.15075797103E+04  0.46999998093E+01 0.  1.
</event>
<event>
 5   0  0.1631380E-03  0.1414043E+04  0.7818609E-02  0.8943716E-01
       -1   -1    0    0    0  501  0.00000000000E+00  0.00000000000E+00  0.11988912366E+04  0.11988912366E+04  0.50400001928E-02 0.  1.
        1   -1    0    0  501    0  0.00000000000E+00  0.00000000000E+00 -0.41695127052E+03  0.41695127055E+03  0.50400001928E-02 0. -1.
    10030    2    1    2    0    0  0.00000000000E+00  0.00000000000E+00  0.78193996610E+03  0.16158425072E+04  0.14140427495E+04 0.  0.
        3    1    3    3  502    0  0.90388701258E+02 -0.65025374634E+03  0.91067254213E+02  0.66279205407E+03  0.10100000352E+00 0. -1.
       -3    1    3    3    0  502 -0.90388701258E+02  0.65025374634E+03  0.69087271189E+03  0.95305045311E+03  0.10100000352E+00 0.  1.
</event>
<event>
 5   0  0.2917809E-03  0.1334391E+04  0.7818609E-02  0.9002729E-01
       -2   -1    0    0    0  501  0.00000000000E+00  0.00000000000E+00  0.45812093845E+03  0.45812093846E+03  0.25500000920E-02 0. -1.
        2   -1    0    0  501    0  0.00000000000E+00  0.00000000000E+00 -0.97168625474E+03  0.97168625475E+03  0.25500000920E-02 0.  1.
    10030    2    1    2    0    0  0.00000000000E+00  0.00000000000E+00 -0.51356531629E+03  0.14298071932E+04  0.13343909756E+04 0.  0.
        2    1    3    3  502    0 -0.13661687606E+03  0.50936001990E+03 -0.69470998461E+03  0.87220052936E+03  0.25500000920E-02 0. -1.
       -2    1    3    3    0  502  0.13661687606E+03 -0.50936001990E+03  0.18114466832E+03  0.55760666384E+03  0.25500000920E-02 0.  1.
</event>
<event>
 5   0  0.1700207E-03  0.1425563E+04  0.7818609E-02  0.8935520E-01
        1   -1    0    0  501    0  0.00000000000E+00  0.00000000000E+00  0.11011615305E+04  0.11011615305E+04  0.50400001928E-02 0. -1.
       -1   -1    0    0    0  501  0.00000000000E+00  0.00000000000E+00 -0.46138335131E+03  0.46138335134E+03  0.50400001928E-02 0.  1.
    10030    2    1    2    0    0  0.00000000000E+00  0.00000000000E+00  0.63977817922E+03  0.15625448819E+04  0.14255631832E+04 0.  0.
        2    1    3    3  502    0 -0.68892202830E+03 -0.18247737948E+03  0.30664307442E+03  0.77584890938E+03  0.25500000920E-02 0. -1.
       -2    1    3    3    0  502  0.68892202830E+03  0.18247737948E+03  0.33313510480E+03  0.78669597250E+03  0.25500000920E-02 0.  1.
</event>
<event>
 5   0  0.1560957E-03  0.1349811E+04  0.7818609E-02  0.8990971E-01
       -1   -1    0    0    0  501  0.00000000000E+00  0.00000000000E+00  0.68119238453E+03  0.68119238455E+03  0.50400001928E-02 0.  1.
        1   -1    0    0  501    0  0.00000000000E+00  0.00000000000E+00 -0.66867680962E+03  0.66867680964E+03  0.50400001928E-02 0. -1.
    10030    2    1    2    0    0  0.00000000000E+00  0.00000000000E+00  0.12515574906E+02  0.13498691942E+04  0.13498111727E+04 0.  0.
        5    1    3    3  502    0 -0.17660278410E+03 -0.16389652210E+03  0.63670129360E+03  0.68077987674E+03  0.46999998093E+01 0.  1.
       -5    1    3    3    0  502  0.17660278410E+03  0.16389652210E+03 -0.62418571869E+03  0.66908931745E+03  0.46999998093E+01 0. -1.
</event>
<event>
 5   0  0.3006737E-03  0.1526824E+04  0.7818609E-02  0.8866809E-01
       -2   -1    0    0    0  501  0.00000000000E+00  0.00000000000E+00  0.85546818675E+03  0.85546818675E+03  0.25500000920E-02 0.  1.
        2   -1    0    0  501    0  0.00000000000E+00  0.00000000000E+00 -0.68126165466E+03  0.68126165467E+03  0.25500000920E-02 0. -1.
    10030    2    1    2    0    0  0.00000000000E+00  0.00000000000E+00  0.17420653208E+03  0.15367298414E+04  0.15268237258E+04 0.  0.
        1    1    3    3  502    0 -0.34840076331E+03 -0.67921508858E+03  0.96186449413E+02  0.76939460715E+03  0.50400001928E-02 0. -1.
       -1    1    3    3    0  502  0.34840076331E+03  0.67921508858E+03  0.78020082670E+02  0.76733523427E+03  0.50400001928E-02 0.  1.
</event>
<event>
 5   0  0.2917809E-03  0.1398238E+04  0.7818609E-02  0.8955095E-01
        2   -1    0    0  501    0  0.00000000000E+00  0.00000000000E+00  0.33027061825E+03  0.33027061826E+03  0.25500000920E-02 0.  1.
       -2   -1    0    0    0  501  0.00000000000E+00  0.00000000000E+00 -0.14798994003E+04  0.14798994003E+04  0.25500000920E-02 0. -1.
    10030    2    1    2    0    0  0.00000000000E+00  0.00000000000E+00 -0.11496287820E+04  0.18101700185E+04  0.13982378766E+04 0.  0.
        2    1    3    3  502    0 -0.37284599962E+03 -0.38992665017E+03 -0.11504571104E+04  0.12706724578E+04  0.25500000920E-02 0. -1.
       -2    1    3    3    0  502  0.37284599962E+03  0.38992665017E+03  0.82832842369E+00  0.53949756077E+03  0.25500000920E-02 0.  1.
</event>
<event>
 5   0  0.2760807E-03  0.1408446E+04  0.7818609E-02  0.8947727E-01
        2   -1    0    0  501    0  0.00000000000E+00  0.00000000000E+00  0.13034881255E+04  0.13034881255E+04  0.25500000920E-02 0. -1.
       -2   -1    0    0    0  501  0.00000000000E+00  0.00000000000E+00 -0.38046401852E+03  0.38046401853E+03  0.25500000920E-02 0.  1.
    10030    2    1    2    0    0  0.00000000000E+00  0.00000000000E+00  0.92302410694E+03  0.16839521440E+04  0.14084464212E+04 0.  0.
        4    1    3    3  502    0 -0.40765390717E+03  0.57422452607E+03  0.45716768664E+03  0.83959479571E+03  0.12699999809E+01 0.  1.
       -4    1    3    3    0  502  0.40765390717E+03 -0.57422452607E+03  0.46585642030E+03  0.84435734829E+03  0.12699999809E+01 0. -1.
</event>
<event>
 5   0  0.2889469E-03  0.1399496E+04  0.7818609E-02  0.8954183E-01
       -2   -1    0    0    0  501  0.00000000000E+00  0.00000000000E+00  0.47771228205E+03  0.47771228206E+03  0.25500000920E-02 0. -1.
        2   -1    0    0  501    0  0.00000000000E+00  0.00000000000E+00 -0.10249841156E+04  0.10249841156E+04  0.25500000920E-02 0.  1.
    10030    2    1    2    0    0  0.00000000000E+00  0.00000000000E+00 -0.54727183356E+03  0.15026963977E+04  0.13994963393E+04 0.  0.
        5    1    3    3  502    0  0.64347093294E+03 -0.56057161703E+02  0.15334388473E+02  0.64610717407E+03  0.46999998093E+01 0. -1.
       -5    1    3    3    0  502 -0.64347093294E+03  0.56057161703E+02 -0.56260622203E+03  0.85658922360E+03  0.46999998093E+01 0.  1.
</event>
<event>
 5   0  0.2760807E-03  0.1452240E+04  0.7818609E-02  0.8916849E-01
        2   -1    0    0  501    0  0.00000000000E+00  0.00000000000E+00  0.12539051409E+04  0.12539051409E+04  0.25500000920E-02 0. -1.
       -2   -1    0    0    0  501  0.00000000000E+00  0.00000000000E+00 -0.42048677055E+03  0.42048677056E+03  0.25500000920E-02 0.  1.
    10030    2    1    2    0    0  0.00000000000E+00  0.00000000000E+00  0.83341837033E+03  0.16743919114E+04  0.14522403703E+04 0.  0.
        4    1    3    3  502    0 -0.16859542078E+03  0.60189686394E+03  0.84275467445E+03  0.10492575017E+04  0.12699999809E+01 0.  1.
       -4    1    3    3    0  502  0.16859542078E+03 -0.60189686394E+03 -0.93363041191E+01  0.62513440971E+03  0.12699999809E+01 0. -1.
</event>
<event>
 5   0  0.3006737E-03  0.1380398E+04  0.7818609E-02  0.8968131E-01
       -2   -1    0    0    0  501  0.00000000000E+00  0.00000000000E+00  0.47275399040E+03  0.47275399041E+03  0.25500000920E-02 0. -1.
        2   -1    0    0  501    0  0.00000000000E+00  0.00000000000E+00 -0.10076593595E+04  0.10076593596E+04  0.25500000920E-02 0.  1.
    10030    2    1    2    0    0  0.00000000000E+00  0.00000000000E+00 -0.53490536915E+03  0.14804133500E+04  0.13803984689E+04 0.  0.
        1    1    3    3  502    0  0.41351194132E+03  0.51452770735E+03 -0.48366342187E+03  0.81832829166E+03  0.50400001928E-02 0.  1.
       -1    1    3    3    0  502 -0.41351194132E+03 -0.51452770735E+03 -0.51241947277E+02  0.66208505831E+03  0.50400001928E-02 0. -1.
</event>
<event>
 5   0  0.1700207E-03  0.1393474E+04  0.7818609E-02  0.8958556E-01
        1   -1    0    0  501    0  0.00000000000E+00  0.00000000000E+00  0.90428609176E+03  0.90428609178E+03  0.50400001928E-02 0.  1.
       -1   -1    0    0    0  501  0.00000000000E+00  0.00000000000E+00 -0.53682413084E+03  0.53682413086E+03  0.50400001928E-02 0. -1.
    10030    2    1    2    0    0  0.00000000000E+00  0.00000000000E+00  0.36746196092E+03  0.14411102226E+04  0.13934742126E+04 0.  0.
        2    1    3    3  502    0 -0.26353580297E+03  0.18888471256E+03  0.82150884595E+03  0.88317910871E+03  0.25500000920E-02 0.  1.
       -2    1    3    3    0  502  0.26353580297E+03 -0.18888471256E+03 -0.45404688502E+03  0.55793111393E+03  0.25500000920E-02 0. -1.
</event>
<event>
 5   0  0.2917809E-03  0.1394375E+04  0.7818609E-02  0.8957900E-01
        2   -1    0    0  501    0  0.00000000000E+00  0.00000000000E+00  0.51109003924E+03  0.51109003925E+03  0.25500000920E-02 0. -1.
       -2   -1    0    0    0  501  0.00000000000E+00  0.00000000000E+00 -0.95104714567E+03  0.95104714567E+03  0.25500000920E-02 0.  1.
    10030    2    1    2    0    0  0.00000000000E+00  0.00000000000E+00 -0.43995710643E+03  0.14621371849E+04  0.13943754487E+04 0.  0.
        2    1    3    3  502    0 -0.16575432671E+03  0.25244075632E+02 -0.92959173825E+03  0.94459121318E+03  0.25500000920E-02 0.  1.
       -2    1    3    3    0  502  0.16575432671E+03 -0.25244075632E+02  0.48963463183E+03  0.51754597174E+03  0.25500000920E-02 0. -1.
</event>
<event>
 5   0  0.2993993E-03  0.1400333E+04  0.7818609E-02  0.8953578E-01
       -2   -1    0    0    0  501  0.00000000000E+00  0.00000000000E+00  0.10607400010E+04  0.10607400010E+04  0.25500000920E-02 0.  1.
        2   -1    0    0  501    0  0.00000000000E+00  0.00000000000E+00 -0.46216144723E+03  0.46216144723E+03  0.25500000920E-02 0. -1.
    10030    2    1    2    0    0  0.00000000000E+00  0.00000000000E+00  0.59857855376E+03  0.15229014482E+04  0.14003330090E+04 0.  0.
        3    1    3    3  502    0  0.31983319268E+03  0.47601633736E+02 -0.37609449176E+03  0.49599018499E+03  0.10100000352E+00 0. -1.
       -3    1    3    3    0  502 -0.31983319268E+03 -0.47601633736E+02  0.97467304553E+03  0.10269112632E+04  0.10100000352E+00 0.  1.
</event>
<event>
 5   0  0.2889469E-03  0.1465997E+04  0.7818609E-02  0.8907384E-01
        2   -1    0    0  501    0  0.00000000000E+00  0.00000000000E+00  0.16892012158E+04  0.16892012158E+04  0.25500000920E-02 0. -1.
       -2   -1    0    0    0  501  0.00000000000E+00  0.00000000000E+00 -0.31807169839E+03  0.31807169840E+03  0.25500000920E-02 0.  1.
    10030    2    1    2    0    0  0.00000000000E+00  0.00000000000E+00  0.13711295174E+04  0.20072729142E+04  0.14659974074E+04 0.  0.
        5    1    3    3  502    0  0.15918152374E+01  0.52161447765E+03 -0.19524778953E+02  0.52200335646E+03  0.46999998093E+01 0.  1.
       -5    1    3    3    0  502 -0.15918152374E+01 -0.52161447765E+03  0.13906542964E+04  0.14852695577E+04  0.46999998093E+01 0. -1.
</event>
<event>
 5   0  0.3006737E-03  0.1409813E+04  0.7818609E-02  0.8946746E-01
        2   -1    0    0  501    0  0.00000000000E+00  0.00000000000E+00  0.24992939106E+04  0.24992939106E+04  0.25500000920E-02 0.  1.
       -2   -1    0    0    0  501  0.00000000000E+00  0.00000000000E+00 -0.19881335481E+03  0.19881335483E+03  0.25500000920E-02 0. -1.
    10030    2    1    2    0    0  0.00000000000E+00  0.00000000000E+00  0.23004805558E+04  0.26981072655E+04  0.14098127635E+04 0.  0.
        1    1    3    3  502    0  0.46503446820E+03 -0.43813361486E+03  0.17201395374E+04  0.18349654354E+04  0.50400001928E-02 0.  1.
       -1    1    3    3    0  502 -0.46503446820E+03  0.43813361486E+03  0.58034101847E+03  0.86314183007E+03  0.50400001928E-02 0. -1.
</event>
<event>
 5   0  0.1586022E-03  0.1439063E+04  0.7818609E-02  0.8926018E-01
        1   -1    0    0  501    0  0.00000000000E+00  0.00000000000E+00  0.61830524657E+03  0.61830524659E+03  0.50400001928E-02 0. -1.
       -1   -1    0    0    0  501  0.00000000000E+00  0.00000000000E+00 -0.83732974686E+03  0.83732974688E+03  0.50400001928E-02 0.  1.
    10030    2    1    2    0    0  0.00000000000E+00  0.00000000000E+00 -0.21902450030E+03  0.14556349935E+04  0.14390627167E+04 0.  0.
        1    1    3    3  502    0 -0.13634291559E+03 -0.29886143924E+03 -0.75705461647E+03  0.82525101808E+03  0.50400001928E-02 0.  1.
       -1    1    3    3    0  502  0.13634291559E+03  0.29886143924E+03  0.53803011617E+03  0.63038397539E+03  0.50400001928E-02 0. -1.
</event>
<event>
 5   0  0.2917809E-03  0.1431690E+04  0.7818609E-02  0.8931194E-01
        2   -1    0    0  501    0  0.00000000000E+00  0.00000000000E+00  0.51904436009E+03  0.51904436010E+03  0.25500000920E-02 0.  1.
       -2   -1    0    0    0  501  0.00000000000E+00  0.00000000000E+00 -0.98726426654E+03  0.98726426654E+03  0.25500000920E-02 0. -1.
    10030    2    1    2    0    0  0.00000000000E+00  0.00000000000E+00 -0.46821990644E+03  0.15063086266E+04  0.14316898400E+04 0.  0.
        2    1    3    3  502    0 -0.45510474444E+03 -0.53898686329E+03 -0.36213512439E+03  0.79294956683E+03  0.25500000920E-02 0.  1.
       -2    1    3    3    0  502  0.45510474444E+03  0.53898686329E+03 -0.10608478205E+03  0.71335905981E+03  0.25500000920E-02 0. -1.
</event>
<event>
 5   0  0.1631380E-03  0.1416010E+04  0.7818609E-02  0.8942311E-01
       -1   -1    0    0    0  501  0.00000000000E+00  0.00000000000E+00  0.53828816444E+03  0.53828816447E+03  0.50400001928E-02 0. -1.
        1   -1    0    0  501    0  0.00000000000E+00  0.00000000000E+00 -0.93123188759E+03  0.93123188760E+03  0.50400001928E-02 0.  1.
    10030    2    1    2    0    0  0.00000000000E+00  0.00000000000E+00 -0.39294372315E+03  0.14695200521E+04  0.14160100331E+04 0.  0.
        3    1    3    3  502    0 -0.28512792122E+03  0.12767751533E+03 -0.85583291567E+03  0.91107050722E+03  0.10100000352E+00 0.  1.
       -3    1    3    3    0  502  0.28512792122E+03 -0.12767751533E+03  0.46288919253E+03  0.55844954485E+03  0.10100000352E+00 0. -1.
</event>
<event>
 5   0  0.2889469E-03  0.1388981E+04  0.7818609E-02  0.8961833E-01
        2   -1    0    0  501    0  0.00000000000E+00  0.00000000000E+00  0.18449365667E+04  0.18449365667E+04  0.25500000920E-02 0.  1.
       -2   -1    0    0    0  501  0.00000000000E+00  0.00000000000E+00 -0.26142758911E+03  0.26142758913E+03  0.25500000920E-02 0. -1.
    10030    2    1    2    0    0  0.00000000000E+00  0.00000000000E+00  0.15835089775E+04  0.21063641558E+04  0.13889813803E+04 0.  0.
        5    1    3    3  502    0  0.55908229633E+03 -0.32684008650E+03  0.41142967222E+03  0.76726391900E+03  0.46999998093E+01 0.  1.
       -5    1    3    3    0  502 -0.55908229633E+03  0.32684008650E+03  0.11720793053E+04  0.13391002368E+04  0.46999998093E+01 0. -1.
</event>
<event>
 5   0  0.1644571E-03  0.1477252E+04  0.7818609E-02  0.8899722E-01
       -1   -1    0    0    0  501  0.00000000000E+00  0.00000000000E+00  0.13677044901E+04  0.13677044901E+04  0.50400001928E-02 0.  1.
        1   -1    0    0  501    0  0.00000000000E+00  0.00000000000E+00 -0.39889351995E+03  0.39889351998E+03  0.50400001928E-02 0. -1.
    10030    2    1    2    0    0  0.00000000000E+00  0.00000000000E+00  0.96881097013E+03  0.17665980101E+04  0.14772521225E+04 0.  0.
        4    1    3    3  502    0 -0.63820924288E+03 -0.11452004624E+03  0.61364088570E+02  0.65130103866E+03  0.12699999809E+01 0. -1.
       -4    1    3    3    0  502  0.63820924288E+03  0.11452004624E+03  0.90744688155E+03  0.11152969714E+04  0.12699999809E+01 0.  1.
</event>
<event>
 5   0  0.2760807E-03  0.1419259E+04  0.7818609E-02  0.8939995E-01
       -2   -1    0    0    0  501  0.00000000000E+00  0.00000000000E+00  0.94865986560E+03  0.94865986561E+03  0.25500000920E-02 0.  1.
        2   -1    0    0  501    0  0.00000000000E+00  0.00000000000E+00 -0.53082684581E+03  0.53082684582E+03  0.25500000920E-02 0. -1.
    10030    2    1    2    0    0  0.00000000000E+00  0.00000000000E+00  0.41783301979E+03  0.14794867114E+04  0.14192591366E+04 0.  0.
        4    1    3    3  502    0 -0.69481813739E+03 -0.14315539012E+03  0.19065746152E+03  0.73458667991E+03  0.12699999809E+01 0.  1.
       -4    1    3    3    0  502  0.69481813739E+03  0.14315539012E+03  0.22717555828E+03  0.74490003151E+03  0.12699999809E+01 0. -1.
</event>
<event>
 5   0  0.1586022E-03  0.1546561E+04  0.7818609E-02  0.8854068E-01
        1   -1    0    0  501    0  0.00000000000E+00  0.00000000000E+00  0.60091112896E+03  0.60091112898E+03  0.50400001928E-02 0. -1.
       -1   -1    0    0    0  501  0.00000000000E+00  0.00000000000E+00 -0.99509288499E+03  0.99509288500E+03  0.50400001928E-02 0.  1.
    10030    2    1    2    0    0  0.00000000000E+00  0.00000000000E+00 -0.39418175603E+03  0.15960040140E+04  0.15465605568E+04 0.  0.
        1    1    3    3  502    0 -0.28489770209E+03  0.36633472245E+02  0.54381300428E+03  0.61501324831E+03  0.50400001928E-02 0. -1.
       -1    1    3    3    0  502  0.28489770209E+03 -0.36633472245E+02 -0.93799476031E+03  0.98099076567E+03  0.50400001928E-02 0.  1.
</event>
<event>
 5   0  0.3006737E-03  0.1358515E+04  0.7818609E-02  0.8984407E-01
        2   -1    0    0  501    0  0.00000000000E+00  0.00000000000E+00  0.16392842371E+04  0.16392842371E+04  0.25500000920E-02 0. -1.
       -2   -1    0    0    0  501  0.00000000000E+00  0.00000000000E+00 -0.28145882288E+03  0.28145882289E+03  0.25500000920E-02 0.  1.
    10030    2    1    2    0    0  0.00000000000E+00  0.00000000000E+00  0.13578254142E+04  0.19207430600E+04  0.13585153834E+04 0.  0.
        1    1    3    3  502    0  0.48836329693E+03 -0.11310106792E+01  0.11413121256E+02  0.48849795121E+03  0.50400001928E-02 0.  1.
       -1    1    3    3    0  502 -0.48836329693E+03  0.11310106792E+01  0.13464122930E+04  0.14322451088E+04  0.50400001928E-02 0. -1.
</event>
<event>
 5   0  0.1644571E-03  0.1335434E+04  0.7818609E-02  0.9001928E-01
        1   -1    0    0  501    0  0.00000000000E+00  0.00000000000E+00  0.14117641308E+04  0.14117641308E+04  0.50400001928E-02 0. -1.
       -1   -1    0    0    0  501  0.00000000000E+00  0.00000000000E+00 -0.31580769387E+03  0.31580769391E+03  0.50400001928E-02 0.  1.
    10030    2    1    2    0    0  0.00000000000E+00  0.00000000000E+00  0.10959564369E+04  0.17275718247E+04  0.13354339736E+04 0.  0.
        4    1    3    3  502    0  0.50197954837E+03 -0.29402971201E+03  0.12401240326E+03  0.59482571194E+03  0.12699999809E+01 0.  1.
       -4    1    3    3    0  502 -0.50197954837E+03  0.29402971201E+03  0.97194403365E+03  0.11327461128E+04  0.12699999809E+01 0. -1.
</event>
<event>
 5   0  0.1104538E-03  0.1395681E+04  0.7818609E-02  0.8956951E-01
        3   -1    0    0  501    0  0.00000000000E+00  0.00000000000E+00  0.59216822895E+03  0.59216823756E+03  0.10100000352E+00 0.  1.
       -3   -1    0    0    0  501  0.00000000000E+00  0.00000000000E+00 -0.82237017550E+03  0.82237018170E+03  0.10100000352E+00 0. -1.
    10030    2    1    2    0    0  0.00000000000E+00  0.00000000000E+00 -0.23020194655E+03  0.14145384193E+04  0.13956811969E+04 0.  0.
        3    1    3    3  502    0 -0.51361127265E+03 -0.19210300738E+03  0.32233374590E+03  0.63608109450E+03  0.10100000352E+00 0.  1.
       -3    1    3    3    0  502  0.51361127265E+03  0.19210300738E+03 -0.55253569246E+03  0.77845732476E+03  0.10100000352E+00 0. -1.
</event>
<event>
 5   0  0.2993993E-03  0.1407499E+04  0.7818609E-02  0.8948408E-01
       -2   -1    0    0    0  501  0.00000000000E+00  0.00000000000E+00  0.70477924718E+03  0.70477924719E+03  0.25500000920E-02 0. -1.
        2   -1    0    0  501    0  0.00000000000E+00  0.00000000000E+00 -0.70272150529E+03  0.70272150530E+03  0.25500000920E-02 0.  1.
    10030    2    1    2    0    0  0.00000000000E+00  0.00000000000E+00  0.20577418913E+01  0.14075007525E+04  0.14074992483E+04 0.  0.
        3    1    3    3  502    0 -0.42345011222E+03  0.46728161794E+03  0.31344145694E+03  0.70420711807E+03  0.10100000352E+00 0. -1.
       -3    1    3    3    0  502  0.42345011222E+03 -0.46728161794E+03 -0.31138371505E+03  0.70329363441E+03  0.10100000352E+00 0.  1.
</event>
<event>
 5   0  0.1631380E-03  0.1415307E+04  0.7818609E-02  0.8942813E-01
        1   -1    0    0  501    0  0.00000000000E+00  0.00000000000E+00  0.69438709802E+03  0.69438709803E+03  0.50400001928E-02 0. -1.
       -1   -1    0    0    0  501  0.00000000000E+00  0.00000000000E+00 -0.72117291534E+03  0.72117291535E+03  0.50400001928E-02 0.  1.
    10030    2    1    2    0    0  0.00000000000E+00  0.00000000000E+00 -0.26785817321E+02  0.14155600134E+04  0.14153065645E+04 0.  0.
        3    1    3    3  502    0  0.45045844822E+03  0.50606892878E+03 -0.21776888410E+03  0.71164729419E+03  0.10100000352E+00 0.  1.
       -3    1    3    3    0  502 -0.45045844822E+03 -0.50606892878E+03  0.19098306678E+03  0.70391271920E+03  0.10100000352E+00 0. -1.
</event>
<event>
 5   0  0.3006737E-03  0.1398998E+04  0.7818609E-02  0.8954544E-01
       -2   -1    0    0    0  501  0.00000000000E+00  0.00000000000E+00  0.38849844053E+03  0.38849844054E+03  0.25500000920E-02 0. -1.
        2   -1    0    0  501    0  0.00000000000E+00  0.00000000000E+00 -0.12594607656E+04  0.12594607656E+04  0.25500000920E-02 0.  1.
    10030    2    1    2    0    0  0.00000000000E+00  0.00000000000E+00 -0.87096232509E+03  0.16479592062E+04  0.13989975602E+04 0.  0.
        1    1    3    3  502    0  0.74419984753E+02  0.97922470147E+02  0.37566137524E+03  0.39528295329E+03  0.50400001928E-02 0. -1.
       -1    1    3    3    0  502 -0.74419984753E+02 -0.97922470147E+02 -0.12466237003E+04  0.12526762529E+04  0.50400001928E-02 0.  1.
</event>
<event>
 5   0  0.1644571E-03  0.1697056E+04  0.7818609E-02  0.8763045E-01
        1   -1    0    0  501    0  0.00000000000E+00  0.00000000000E+00  0.76830722685E+03  0.76830722687E+03  0.50400001928E-02 0.  1.
       -1   -1    0    0    0  501  0.00000000000E+00  0.00000000000E+00 -0.93712455507E+03  0.93712455509E+03  0.50400001928E-02 0. -1.
    10030    2    1    2    0    0  0.00000000000E+00  0.00000000000E+00 -0.16881732822E+03  0.17054317820E+04  0.16970557659E+04 0.  0.
        4    1    3    3  502    0 -0.17599027411E+03 -0.80058778636E+03  0.13595558068E+03  0.83090246904E+03  0.12699999809E+01 0.  1.
       -4    1    3    3    0  502  0.17599027411E+03  0.80058778636E+03 -0.30477290890E+03  0.87452931291E+03  0.12699999809E+01 0. -1.
</event>
<event>
 5   0  0.2993993E-03  0.1407867E+04  0.7818609E-02  0.8948144E-01
       -2   -1    0    0    0  501  0.00000000000E+00  0.00000000000E+00  0.25999332795E+03  0.25999332796E+03  0.25500000920E-02 0. -1.
        2   -1    0    0  501    0  0.00000000000E+00  0.00000000000E+00 -0.19059035188E+04  0.19059035188E+04  0.25500000920E-02 0.  1.
    10030    2    1    2    0    0  0.00000000000E+00  0.00000000000E+00 -0.16459101908E+04  0.21658968468E+04  0.14078667531E+04 0.  0.
        3    1    3    3  502    0 -0.69948757423E+03  0.77433540276E+02 -0.84695495079E+03  0.11011864141E+04  0.10100000352E+00 0.  1.
       -3    1    3    3    0  502  0.69948757423E+03 -0.77433540276E+02 -0.79895524006E+03  0.10647104327E+04  0.10100000352E+00 0. -1.
</event>
<event>
 5   0  0.1644571E-03  0.1362055E+04  0.7818609E-02  0.8981753E-01
       -1   -1    0    0    0  501  0.00000000000E+00  0.00000000000E+00  0.39731084942E+03  0.39731084945E+03  0.50400001928E-02 0.  1.
        1   -1    0    0  501    0  0.00000000000E+00  0.00000000000E+00 -0.11673439630E+04  0.11673439630E+04  0.50400001928E-02 0. -1.
    10030    2    1    2    0    0  0.00000000000E+00  0.00000000000E+00 -0.77003311354E+03  0.15646548124E+04  0.13620549497E+04 0.  0.
        4    1    3    3  502    0  0.36667676636E+02  0.25670079410E+02  0.39561794640E+03  0.39814399896E+03  0.12699999809E+01 0.  1.
       -4    1    3    3    0  502 -0.36667676636E+02 -0.25670079410E+02 -0.11656510599E+04  0.11665108135E+04  0.12699999809E+01 0. -1.
</event>
<event>
 5   0  0.1104538E-03  0.1512371E+04  0.7818609E-02  0.8876268E-01
        3   -1    0    0  501    0  0.00000000000E+00  0.00000000000E+00  0.29031912297E+03  0.29031914054E+03  0.10100000352E+00 0. -1.
       -3   -1    0    0    0  501  0.00000000000E+00  0.00000000000E+00 -0.19696137646E+04  0.19696137672E+04  0.10100000352E+00 0.  1.
    10030    2    1    2    0    0  0.00000000000E+00  0.00000000000E+00 -0.16792946417E+04  0.22599329078E+04  0.15123710702E+04 0.  0.
        2    1    3    3  502    0  0.18308316287E+03 -0.58972830069E+02 -0.19324474316E+04  0.19419964766E+04  0.25500000920E-02 0.  1.
       -2    1    3    3    0  502 -0.18308316287E+03  0.58972830069E+02  0.25315278993E+03  0.31793643117E+03  0.25500000920E-02 0. -1.
</event>
<event>
 5   0  0.1644571E-03  0.1376149E+04  0.7818609E-02  0.8971266E-01
       -1   -1    0    0    0  501  0.00000000000E+00  0.00000000000E+00  0.15789069853E+04  0.15789069853E+04  0.50400001928E-02 0.  1.
        1   -1    0    0  501    0  0.00000000000E+00  0.00000000000E+00 -0.29985729151E+03  0.29985729155E+03  0.50400001928E-02 0. -1.
    10030    2    1    2    0    0  0.00000000000E+00  0.00000000000E+00  0.12790496938E+04  0.18787642768E+04  0.13761493701E+04 0.  0.
        4    1    3    3  502    0  0.49298552237E+03 -0.35649666898E+03  0.10783586684E+04  0.12381371615E+04  0.12699999809E+01 0.  1.
       -4    1    3    3    0  502 -0.49298552237E+03  0.35649666898E+03  0.20069102540E+03  0.64062711528E+03  0.12699999809E+01 0. -1.
</event>
<event>
 5   0  0.1560957E-03  0.1336897E+04  0.7818609E-02  0.9000806E-01
        1   -1    0    0  501    0  0.00000000000E+00  0.00000000000E+00  0.82180176757E+03  0.82180176759E+03  0.50400001928E-02 0.  1.
       -1   -1    0    0    0  501  0.00000000000E+00  0.00000000000E+00 -0.54371207279E+03  0.54371207282E+03  0.50400001928E-02 0. -1.
    10030    2    1    2    0    0  0.00000000000E+00  0.00000000000E+00  0.27808969478E+03  0.13655138404E+04  0.13368972174E+04 0.  0.
        5    1    3    3  502    0  0.25134967051E+03 -0.56685300025E+03  0.39399232847E+03  0.73467749772E+03  0.46999998093E+01 0.  1.
       -5    1    3    3    0  502 -0.25134967051E+03  0.56685300025E+03 -0.11590263369E+03  0.63083634269E+03  0.46999998093E+01 0. -1.
</event>
<event>
 5   0  0.2917809E-03  0.1476904E+04  0.7818609E-02  0.8899958E-01
        2   -1    0    0  501    0  0.00000000000E+00  0.00000000000E+00  0.29011780815E+04  0.29011780815E+04  0.25500000920E-02 0.  1.
       -2   -1    0    0    0  501  0.00000000000E+00  0.00000000000E+00 -0.18796207955E+03  0.18796207957E+03  0.25500000920E-02 0. -1.
    10030    2    1    2    0    0  0.00000000000E+00  0.00000000000E+00  0.27132160019E+04  0.30891401610E+04  0.14769041477E+04 0.  0.
        2    1    3    3  502    0  0.47212761135E+03 -0.47184470632E+03  0.20172776039E+04  0.21248413680E+04  0.25500000920E-02 0.  1.
       -2    1    3    3    0  502 -0.47212761135E+03  0.47184470632E+03  0.69593839805E+03  0.96429879299E+03  0.25500000920E-02 0. -1.
</event>
<event>
 5   0  0.2760807E-03  0.1372015E+04  0.7818609E-02  0.8974329E-01
        2   -1    0    0  501    0  0.00000000000E+00  0.00000000000E+00  0.97924792822E+03  0.97924792823E+03  0.25500000920E-02 0.  1.
       -2   -1    0    0    0  501  0.00000000000E+00  0.00000000000E+00 -0.48057903765E+03  0.48057903765E+03  0.25500000920E-02 0. -1.
    10030    2    1    2    0    0  0.00000000000E+00  0.00000000000E+00  0.49866889058E+03  0.14598269659E+04  0.13720146165E+04 0.  0.
        4    1    3    3  502    0  0.47875332160E+03  0.48979601843E+03  0.29053664796E+03  0.74398792955E+03  0.12699999809E+01 0.  1.
       -4    1    3    3    0  502 -0.47875332160E+03 -0.48979601843E+03  0.20813224262E+03  0.71583903633E+03  0.12699999809E+01 0. -1.
</event>
<event>
 5   0  0.2889469E-03  0.1512425E+04  0.7818609E-02  0.8876232E-01
       -2   -1    0    0    0  501  0.00000000000E+00  0.00000000000E+00  0.47467202991E+03  0.47467202992E+03  0.25500000920E-02 0. -1.
        2   -1    0    0  501    0  0.00000000000E+00  0.00000000000E+00 -0.12047419047E+04  0.12047419047E+04  0.25500000920E-02 0.  1.
    10030    2    1    2    0    0  0.00000000000E+00  0.00000000000E+00 -0.73006987475E+03  0.16794139346E+04  0.15124249210E+04 0.  0.
        5    1    3    3  502    0  0.46852865428E+03  0.37066213417E+03  0.14975266592E+03  0.61592001797E+03  0.46999998093E+01 0. -1.
       -5    1    3    3    0  502 -0.46852865428E+03 -0.37066213417E+03 -0.87982254068E+03  0.10634939166E+04  0.46999998093E+01 0.  1.
</event>
<event>
 5   0  0.2889469E-03  0.1385951E+04  0.7818609E-02  0.8964051E-01
       -2   -1    0    0    0  501  0.00000000000E+00  0.00000000000E+00  0.34871621534E+03  0.34871621535E+03  0.25500000920E-02 0.  1.
        2   -1    0    0  501    0  0.00000000000E+00  0.00000000000E+00 -0.13770940973E+04  0.13770940973E+04  0.25500000920E-02 0. -1.
    10030    2    1    2    0    0  0.00000000000E+00  0.00000000000E+00 -0.10283778819E+04  0.17258103126E+04  0.13859509974E+04 0.  0.
        5    1    3    3  502    0  0.22217951425E+03 -0.17729942575E+03 -0.13011369168E+04  0.13318326431E+04  0.46999998093E+01 0. -1.
       -5    1    3    3    0  502 -0.22217951425E+03  0.17729942575E+03  0.27275903492E+03  0.39397766949E+03  0.46999998093E+01 0.  1.
</event>
<event>
 5   0  0.1644571E-03  0.1539206E+04  0.7818609E-02  0.8858792E-01
        1   -1    0    0  501    0  0.00000000000E+00  0.00000000000E+00  0.77754210217E+03  0.77754210219E+03  0.50400001928E-02 0.  1.
       -1   -1    0    0    0  501  0.00000000000E+00  0.00000000000E+00 -0.76174451749E+03  0.76174451751E+03  0.50400001928E-02 0. -1.
    10030    2    1    2    0    0  0.00000000000E+00  0.00000000000E+00  0.15797584681E+02  0.15392866197E+04  0.15392055528E+04 0.  0.
        4    1    3    3  502    0  0.24192672712E+03 -0.81972398108E+02 -0.71811382658E+03  0.76219229606E+03  0.12699999809E+01 0. -1.
       -4    1    3    3    0  502 -0.24192672712E+03  0.81972398108E+02  0.73391141126E+03  0.77709432364E+03  0.12699999809E+01 0.  1.
</event>
<event>
 5   0  0.1586022E-03  0.1410848E+04  0.7818609E-02  0.8946004E-01
       -1   -1    0    0    0  501  0.00000000000E+00  0.00000000000E+00  0.24451926418E+03  0.24451926423E+03  0.50400001928E-02 0. -1.
        1   -1    0    0  501    0  0.00000000000E+00  0.00000000000E+00 -0.20351069056E+04  0.20351069056E+04  0.50400001928E-02 0.  1.
    10030    2    1    2    0    0  0.00000000000E+00  0.00000000000E+00 -0.17905876414E+04  0.22796261699E+04  0.14108477496E+04 0.  0.
        1    1    3    3  502    0 -0.56314537075E+02 -0.58317641579E+03 -0.26048004124E+03  0.64118321167E+03  0.50400001928E-02 0. -1.
       -1    1    3    3    0  502  0.56314537075E+02  0.58317641579E+03 -0.15301076002E+04  0.16384429582E+04  0.50400001928E-02 0.  1.
</event>
<event>
 5   0  0.2993993E-03  0.9352523E+03  0.7818609E-02  0.9382556E-01
       -2   -1    0    0    0  501  0.00000000000E+00  0.00000000000E+00  0.49652222971E+03  0.49652222972E+03  0.25500000920E-02 0. -1.
        2   -1    0    0  501    0  0.00000000000E+00  0.00000000000E+00 -0.44041168918E+03  0.44041168919E+03  0.25500000920E-02 0.  1.
    10030    2    1    2    0    0  0.00000000000E+00  0.00000000000E+00  0.56110540530E+02  0.93693391890E+03  0.93525225241E+03 0.  0.
        3    1    3    3  502    0  0.39904125853E+02 -0.41106668726E+03  0.24778049958E+03  0.48162573312E+03  0.10100000352E+00 0.  1.
       -3    1    3    3    0  502 -0.39904125853E+02  0.41106668726E+03 -0.19166995905E+03  0.45530818578E+03  0.10100000352E+00 0. -1.
</event>
<event>
 5   0  0.3006737E-03  0.1398071E+04  0.7818609E-02  0.8955216E-01
        2   -1    0    0  501    0  0.00000000000E+00  0.00000000000E+00  0.17586806504E+04  0.17586806504E+04  0.25500000920E-02 0. -1.
       -2   -1    0    0    0  501  0.00000000000E+00  0.00000000000E+00 -0.27785057585E+03  0.27785057586E+03  0.25500000920E-02 0.  1.
    10030    2    1    2    0    0  0.00000000000E+00  0.00000000000E+00  0.14808300746E+04  0.20365312263E+04  0.13980707156E+04 0.  0.
        1    1    3    3  502    0 -0.85020447952E+02 -0.68134339315E+03  0.54941235011E+03  0.87938116106E+03  0.50400001928E-02 0.  1.
       -1    1    3    3    0  502  0.85020447952E+02  0.68134339315E+03  0.93141772448E+03  0.11571500652E+04  0.50400001928E-02 0. -1.
</event>
<event>
 5   0  0.1104538E-03  0.1337898E+04  0.7818609E-02  0.9000040E-01
        3   -1    0    0  501    0  0.00000000000E+00  0.00000000000E+00  0.27616714962E+03  0.27616716808E+03  0.10100000352E+00 0. -1.
       -3   -1    0    0    0  501  0.00000000000E+00  0.00000000000E+00 -0.16203685419E+04  0.16203685451E+04  0.10100000352E+00 0.  1.
    10030    2    1    2    0    0  0.00000000000E+00  0.00000000000E+00 -0.13442013923E+04  0.18965357131E+04  0.13378977271E+04 0.  0.
        3    1    3    3  502    0 -0.64146912207E+03  0.14018409563E+03 -0.49079646269E+03  0.81976545013E+03  0.10100000352E+00 0.  1.
       -3    1    3    3    0  502  0.64146912207E+03 -0.14018409563E+03 -0.85340492960E+03  0.10767702630E+04  0.10100000352E+00 0. -1.
</event>
<event>
 5   0  0.2889469E-03  0.1011419E+04  0.7818609E-02  0.9296108E-01
       -2   -1    0    0    0  501  0.00000000000E+00  0.00000000000E+00  0.46012864928E+03  0.46012864929E+03  0.25500000920E-02 0.  1.
        2   -1    0    0  501    0  0.00000000000E+00  0.00000000000E+00 -0.55580616091E+03  0.55580616091E+03  0.25500000920E-02 0. -1.
    10030    2    1    2    0    0  0.00000000000E+00  0.00000000000E+00 -0.95677511625E+02  0.10159348102E+04  0.10114194740E+04 0.  0.
        5    1    3    3  502    0  0.35348017671E+03 -0.12448648329E+03  0.29319890203E+03  0.47584956236E+03  0.46999998093E+01 0.  1.
       -5    1    3    3    0  502 -0.35348017671E+03  0.12448648329E+03 -0.38887641365E+03  0.54008524785E+03  0.46999998093E+01 0. -1.
</event>
<event>
 5   0  0.1631380E-03  0.1424894E+04  0.7818609E-02  0.8935994E-01
       -1   -1    0    0    0  501  0.00000000000E+00  0.00000000000E+00  0.50174662773E+03  0.50174662776E+03  0.50400001928E-02 0. -1.
        1   -1    0    0  501    0  0.00000000000E+00  0.00000000000E+00 -0.10116274131E+04  0.10116274131E+04  0.50400001928E-02 0.  1.
    10030    2    1    2    0    0  0.00000000000E+00  0.00000000000E+00 -0.50988078537E+03  0.15133740409E+04  0.14248938811E+04 0.  0.
        3    1    3    3  502    0 -0.26468934985E+03  0.14601245757E+03  0.43025601916E+03  0.52583299812E+03  0.10100000352E+00 0. -1.
       -3    1    3    3    0  502  0.26468934985E+03 -0.14601245757E+03 -0.94013680452E+03  0.98754104275E+03  0.10100000352E+00 0.  1.
</event>
<event>
 5   0  0.1104538E-03  0.1419544E+04  0.7818609E-02  0.8939792E-01
       -3   -1    0    0    0  501  0.00000000000E+00  0.00000000000E+00  0.10135963797E+04  0.10135963848E+04  0.10100000352E+00 0. -1.
        3   -1    0    0  501    0  0.00000000000E+00  0.00000000000E+00 -0.49701835520E+03  0.49701836546E+03  0.10100000352E+00 0.  1.
    10030    2    1    2    0    0  0.00000000000E+00  0.00000000000E+00  0.51657802453E+03  0.15106147502E+04  0.14195436126E+04 0.  0.
        5    1    3    3  502    0 -0.49910867872E+03  0.24489622402E+03 -0.21123177287E+03  0.59474749733E+03  0.46999998093E+01 0.  1.
       -5    1    3    3    0  502  0.49910867872E+03 -0.24489622402E+03  0.72780979740E+03  0.91586725288E+03  0.46999998093E+01 0. -1.
</event>
<event>
 5   0  0.2917809E-03  0.1428937E+04  0.7818609E-02  0.8933135E-01
       -2   -1    0    0    0  501  0.00000000000E+00  0.00000000000E+00  0.35153086770E+03  0.35153086771E+03  0.25500000920E-02 0.  1.
        2   -1    0    0  501    0  0.00000000000E+00  0.00000000000E+00 -0.14521210669E+04  0.14521210669E+04  0.25500000920E-02 0. -1.
    10030    2    1    2    0    0  0.00000000000E+00  0.00000000000E+00 -0.11005901992E+04  0.18036519346E+04  0.14289371976E+04 0.  0.
        2    1    3    3  502    0 -0.72946990221E+02 -0.44360937784E+03 -0.12512094820E+04  0.13295246185E+04  0.25500000920E-02 0. -1.
       -2    1    3    3    0  502  0.72946990221E+02  0.44360937784E+03  0.15061928279E+03  0.47412731607E+03  0.25500000920E-02 0.  1.
</event>
<event>
 5   0  0.1586022E-03  0.7202638E+03  0.7818609E-02  0.9683192E-01
       -1   -1    0    0    0  501  0.00000000000E+00  0.00000000000E+00  0.19939732801E+03  0.19939732808E+03  0.50400001928E-02 0.  1.
        1   -1    0    0  501    0  0.00000000000E+00  0.00000000000E+00 -0.65043489380E+03  0.65043489382E+03  0.50400001928E-02 0. -1.
    10030    2    1    2    0    0  0.00000000000E+00  0.00000000000E+00 -0.45103756578E+03  0.84983222189E+03  0.72026378475E+03 0.  0.
        1    1    3    3  502    0 -0.19674878334E+03  0.27680809388E+03 -0.84118028530E+02  0.34986947185E+03  0.50400001928E-02 0.  1.
       -1    1    3    3    0  502  0.19674878334E+03 -0.27680809388E+03 -0.36691953725E+03  0.49996275004E+03  0.50400001928E-02 0. -1.
</event>
<event>
 5   0  0.2993993E-03  0.1295696E+04  0.7818609E-02  0.9032985E-01
        2   -1    0    0  501    0  0.00000000000E+00  0.00000000000E+00  0.35795255165E+03  0.35795255166E+03  0.25500000920E-02 0. -1.
       -2   -1    0    0    0  501  0.00000000000E+00  0.00000000000E+00 -0.11725211952E+04  0.11725211952E+04  0.25500000920E-02 0.  1.
    10030    2    1    2    0    0  0.00000000000E+00  0.00000000000E+00 -0.81456864352E+03  0.15304737468E+04  0.12956958805E+04 0.  0.
        3    1    3    3  502    0  0.83466356305E+02  0.63854172291E+03 -0.32372108446E+03  0.72076176040E+03  0.10100000352E+00 0. -1.
       -3    1    3    3    0  502 -0.83466356305E+02 -0.63854172291E+03 -0.49084755906E+03  0.80971198643E+03  0.10100000352E+00 0.  1.
</event>
<event>
 5   0  0.2917809E-03  0.1433654E+04  0.7818609E-02  0.8929812E-01
       -2   -1    0    0    0  501  0.00000000000E+00  0.00000000000E+00  0.42720099928E+03  0.42720099928E+03  0.25500000920E-02 0.  1.
        2   -1    0    0  501    0  0.00000000000E+00  0.00000000000E+00 -0.12028089161E+04  0.12028089161E+04  0.25500000920E-02 0. -1.
    10030    2    1    2    0    0  0.00000000000E+00  0.00000000000E+00 -0.77560791680E+03  0.16300099154E+04  0.14336543110E+04 0.  0.
        2    1    3    3  502    0  0.58663788697E+03  0.13961756254E+03 -0.82844677050E+03  0.10246761077E+04  0.25500000920E-02 0. -1.
       -2    1    3    3    0  502 -0.58663788697E+03 -0.13961756254E+03  0.52838853699E+02  0.60533380763E+03  0.25500000920E-02 0.  1.
</event>
<event>
 5   0  0.1586022E-03  0.1384563E+04  0.7818609E-02  0.8965069E-01
        1   -1    0    0  501    0  0.00000000000E+00  0.00000000000E+00  0.14703524870E+04  0.14703524870E+04  0.50400001928E-02 0.  1.
       -1   -1    0    0    0  501  0.00000000000E+00  0.00000000000E+00 -0.32594460819E+03  0.32594460823E+03  0.50400001928E-02 0. -1.
    10030    2    1    2    0    0  0.00000000000E+00  0.00000000000E+00  0.11444078788E+04  0.17962970952E+04  0.13845626968E+04 0.  0.
        1    1    3    3  502    0  0.42005853328E+03  0.52308541380E+03  0.79384611874E+03  0.10393551759E+04  0.50400001928E-02 0.  1.
       -1    1    3    3    0  502 -0.42005853328E+03 -0.52308541380E+03  0.35056176003E+03  0.75694191926E+03  0.50400001928E-02 0. -1.
</event>
<event>
 5   0  0.2889469E-03  0.1375321E+04  0.7818609E-02  0.8971879E-01
       -2   -1    0    0    0  501  0.00000000000E+00  0.00000000000E+00  0.56361148962E+03  0.56361148962E+03  0.25500000920E-02 0. -1.
        2   -1    0    0  501    0  0.00000000000E+00  0.00000000000E+00 -0.83901203936E+03  0.83901203936E+03  0.25500000920E-02 0.  1.
    10030    2    1    2    0    0  0.00000000000E+00  0.00000000000E+00 -0.27540054974E+03  0.14026235290E+04  0.13753207994E+04 0.  0.
        5    1    3    3  502    0  0.65334485818E+03  0.43820351204E+02  0.76407930315E+02  0.65927231756E+03  0.46999998093E+01 0. -1.
       -5    1    3    3    0  502 -0.65334485818E+03 -0.43820351204E+02 -0.35180848006E+03  0.74335121143E+03  0.46999998093E+01 0.  1.
</event>
<event>
 5   0  0.2917809E-03  0.1292548E+04  0.7818609E-02  0.9035495E-01
        2   -1    0    0  501    0  0.00000000000E+00  0.00000000000E+00  0.11920637743E+04  0.11920637744E+04  0.25500000920E-02 0.  1.
       -2   -1    0    0    0  501  0.00000000000E+00  0.00000000000E+00 -0.35037572597E+03  0.35037572598E+03  0.25500000920E-02 0. -1.
    10030    2    1    2    0    0  0.00000000000E+00  0.00000000000E+00  0.84168804838E+03  0.15424395003E+04  0.12925481969E+04 0.  0.
        2    1    3    3  502    0  0.49345953403E+03 -0.22518621570E+03  0.84014211744E+03  0.10000249602E+04  0.25500000920E-02 0.  1.
       -2    1    3    3    0  502 -0.49345953403E+03  0.22518621570E+03  0.15459309382E+01  0.54241454016E+03  0.25500000920E-02 0. -1.
</event>
<event>
 5   0  0.2889469E-03  0.1391451E+04  0.7818609E-02  0.8960030E-01
        2   -1    0    0  501    0  0.00000000000E+00  0.00000000000E+00  0.67907318366E+03  0.67907318367E+03  0.25500000920E-02 0. -1.
       -2   -1    0    0    0  501  0.00000000000E+00  0.00000000000E+00 -0.71278568685E+03  0.71278568685E+03  0.25500000920E-02 0.  1.
    10030    2    1    2    0    0  0.00000000000E+00  0.00000000000E+00 -0.33712503184E+02  0.13918588705E+04  0.13914505318E+04 0.  0.
        5    1    3    3  502    0  0.86430367665E+02 -0.37715586437E+02 -0.70634721011E+03  0.71262973917E+03  0.46999998093E+01 0.  1.
       -5    1    3    3    0  502 -0.86430367665E+02  0.37715586437E+02  0.67263470693E+03  0.67922913135E+03  0.46999998093E+01 0. -1.
</event>
<event>
 5   0  0.1586022E-03  0.1365531E+04  0.7818609E-02  0.8979154E-01
       -1   -1    0    0    0  501  0.00000000000E+00  0.00000000000E+00  0.19517645920E+03  0.19517645927E+03  0.50400001928E-02 0. -1.
        1   -1    0    0  501    0  0.00000000000E+00  0.00000000000E+00 -0.23884484011E+04  0.23884484011E+04  0.50400001928E-02 0.  1.
    10030    2    1    2    0    0  0.00000000000E+00  0.00000000000E+00 -0.21932719419E+04  0.25836248604E+04  0.13655312549E+04 0.  0.
        1    1    3    3  502    0  0.56485410748E+03 -0.34995512052E+03 -0.79964071726E+03  0.10396893891E+04  0.50400001928E-02 0. -1.
       -1    1    3    3    0  502 -0.56485410748E+03  0.34995512052E+03 -0.13936312246E+04  0.15439354712E+04  0.50400001928E-02 0.  1.
</event>
<event>
 5   0  0.2760807E-03  0.1415760E+04  0.7818609E-02  0.8942489E-01
       -2   -1    0    0    0  501  0.00000000000E+00  0.00000000000E+00  0.47973448925E+03  0.47973448926E+03  0.25500000920E-02 0.  1.
        2   -1    0    0  501    0  0.00000000000E+00  0.00000000000E+00 -0.10445239172E+04  0.10445239172E+04  0.25500000920E-02 0. -1.
    10030    2    1    2    0    0  0.00000000000E+00  0.00000000000E+00 -0.56478942797E+03  0.15242584065E+04  0.14157600756E+04 0.  0.
        4    1    3    3  502    0 -0.49444476829E+03  0.17407983945E+03 -0.79457611010E+03  0.95190977883E+03  0.12699999809E+01 0. -1.
       -4    1    3    3    0  502  0.49444476829E+03 -0.17407983945E+03  0.22978668213E+03  0.57234862765E+03  0.12699999809E+01 0.  1.
</event>
<event>
 5   0  0.2993993E-03  0.1408299E+04  0.7818609E-02  0.8947833E-01
        2   -1    0    0  501    0  0.00000000000E+00  0.00000000000E+00  0.19701316097E+04  0.19701316097E+04  0.25500000920E-02 0. -1.
       -2   -1    0    0    0  501  0.00000000000E+00  0.00000000000E+00 -0.25167185015E+03  0.25167185016E+03  0.25500000920E-02 0.  1.
    10030    2    1    2    0    0  0.00000000000E+00  0.00000000000E+00  0.17184597596E+04  0.22218034599E+04  0.14082992115E+04 0.  0.
        3    1    3    3  502    0 -0.54961098022E+03  0.86145161268E+02  0.17821578269E+03  0.58416957623E+03  0.10100000352E+00 0.  1.
       -3    1    3    3    0  502  0.54961098022E+03 -0.86145161268E+02  0.15402439769E+04  0.16376338836E+04  0.10100000352E+00 0. -1.
</event>
<event>
 5   0  0.2889469E-03  0.1446814E+04  0.7818609E-02  0.8920613E-01
        2   -1    0    0  501    0  0.00000000000E+00  0.00000000000E+00  0.34478764377E+03  0.34478764378E+03  0.25500000920E-02 0. -1.
       -2   -1    0    0    0  501  0.00000000000E+00  0.00000000000E+00 -0.15177961134E+04  0.15177961134E+04  0.25500000920E-02 0.  1.
    10030    2    1    2    0    0  0.00000000000E+00  0.00000000000E+00 -0.11730084697E+04  0.18625837572E+04  0.14468135273E+04 0.  0.
        5    1    3    3  502    0  0.17978471844E+03 -0.55030652317E+03 -0.11448954265E+04  0.12829526266E+04  0.46999998093E+01 0.  1.
       -5    1    3    3    0  502 -0.17978471844E+03  0.55030652317E+03 -0.28113043182E+02  0.57963113065E+03  0.46999998093E+01 0. -1.
</event>
<event>
 5   0  0.2993993E-03  0.1397863E+04  0.7818609E-02  0.8955367E-01
        2   -1    0    0  501    0  0.00000000000E+00  0.00000000000E+00  0.41167081533E+03  0.41167081534E+03  0.25500000920E-02 0. -1.
       -2   -1    0    0    0  501  0.00000000000E+00  0.00000000000E+00 -0.11866398993E+04  0.11866398993E+04  0.25500000920E-02 0.  1.
    10030    2    1    2    0    0  0.00000000000E+00  0.00000000000E+00 -0.77496908400E+03  0.15983107147E+04  0.13978626755E+04 0.  0.
        3    1    3    3  502    0 -0.32491307919E+02 -0.34844681783E+03  0.30427872308E+03  0.46374176162E+03  0.10100000352E+00 0. -1.
       -3    1    3    3    0  502  0.32491307919E+02  0.34844681783E+03 -0.10792478071E+04  0.11345689531E+04  0.10100000352E+00 0.  1.
</event>
<event>
 5   0  0.1631380E-03  0.1499206E+04  0.7818609E-02  0.8884981E-01
        1   -1    0    0  501    0  0.00000000000E+00  0.00000000000E+00  0.15463804273E+04  0.15463804273E+04  0.50400001928E-02 0.  1.
       -1   -1    0    0    0  501  0.00000000000E+00  0.00000000000E+00 -0.36336755881E+03  0.36336755884E+03  0.50400001928E-02 0. -1.
    10030    2    1    2    0    0  0.00000000000E+00  0.00000000000E+00  0.11830128685E+04  0.19097479862E+04  0.14992057643E+04 0.  0.
        3    1    3    3  502    0  0.15155288827E+02 -0.51014841984E+03 -0.10785758239E+03  0.52164581981E+03  0.10100000352E+00 0. -1.
       -3    1    3    3    0  502 -0.15155288827E+02  0.51014841984E+03  0.12908704509E+04  0.13881021664E+04  0.10100000352E+00 0.  1.
</event>
<event>
 5   0  0.1631380E-03  0.1386804E+04  0.7818609E-02  0.8963426E-01
       -1   -1    0    0    0  501  0.00000000000E+00  0.00000000000E+00  0.27405887793E+03  0.27405887798E+03  0.50400001928E-02 0. -1.
        1   -1    0    0  501    0  0.00000000000E+00  0.00000000000E+00 -0.17543898765E+04  0.17543898765E+04  0.50400001928E-02 0.  1.
    10030    2    1    2    0    0  0.00000000000E+00  0.00000000000E+00 -0.14803309985E+04  0.20284487545E+04  0.13868036935E+04 0.  0.
        3    1    3    3  502    0 -0.46529008979E+03 -0.39416175252E+03 -0.12229554210E+04  0.13665571071E+04  0.10100000352E+00 0.  1.
       -3    1    3    3    0  502  0.46529008979E+03  0.39416175252E+03 -0.25737557750E+03  0.66189164740E+03  0.10100000352E+00 0. -1.
</event>
<event>
 5   0  0.2760807E-03  0.1356497E+04  0.7818609E-02  0.8985925E-01
        2   -1    0    0  501    0  0.00000000000E+00  0.00000000000E+00  0.96820196292E+03  0.96820196292E+03  0.25500000920E-02 0. -1.
       -2   -1    0    0    0  501  0.00000000000E+00  0.00000000000E+00 -0.47512886009E+03  0.47512886010E+03  0.25500000920E-02 0.  1.
    10030    2    1    2    0    0  0.00000000000E+00  0.00000000000E+00  0.49307310283E+03  0.14433308230E+04  0.13564965094E+04 0.  0.
        4    1    3    3  502    0 -0.48407866980E+03  0.44266765436E+03  0.63068161638E+02  0.65898863168E+03  0.12699999809E+01 0.  1.
       -4    1    3    3    0  502  0.48407866980E+03 -0.44266765436E+03  0.43000494119E+03  0.78434219134E+03  0.12699999809E+01 0. -1.
</event>
<event>
 5   0  0.1560957E-03  0.1371177E+04  0.7818609E-02  0.8974951E-01
        1   -1    0    0  501    0  0.00000000000E+00  0.00000000000E+00  0.11763320061E+04  0.11763320061E+04  0.50400001928E-02 0. -1.
       -1   -1    0    0    0  501  0.00000000000E+00  0.00000000000E+00 -0.39957384357E+03  0.39957384360E+03  0.50400001928E-02 0.  1.
    10030    2    1    2    0    0  0.00000000000E+00  0.00000000000E+00  0.77675816256E+03  0.15759058497E+04  0.13711768683E+04 0.  0.
        5    1    3    3  502    0  0.48369781211E+03 -0.28632411853E+03  0.83949468455E+03  0.10103061366E+04  0.46999998093E+01 0. -1.
       -5    1    3    3    0  502 -0.48369781211E+03  0.28632411853E+03 -0.62736521986E+02  0.56559971312E+03  0.46999998093E+01 0.  1.
</event>
<event>
 5   0  0.1104538E-03  0.1501135E+04  0.7818609E-02  0.8883699E-01
        3   -1    0    0  501    0  0.00000000000E+00  0.00000000000E+00  0.36493318655E+03  0.36493320053E+03  0.10100000352E+00 0.  1.
       -3   -1    0    0    0  501  0.00000000000E+00  0.00000000000E+00 -0.15437113298E+04  0.15437113331E+04  0.10100000352E+00 0. -1.
    10030    2    1    2    0    0  0.00000000000E+00  0.00000000000E+00 -0.11787781433E+04  0.19086445337E+04  0.15011349189E+04 0.  0.
        1    1    3    3  502    0  0.56051822716E+03 -0.25827893486E+03 -0.46273172244E+02  0.61889409245E+03  0.50400001928E-02 0.  1.
       -1    1    3    3    0  502 -0.56051822716E+03  0.25827893486E+03 -0.11325049710E+04  0.12897504412E+04  0.50400001928E-02 0. -1.
</event>
<event>
 5   0  0.1631380E-03  0.1192612E+04  0.7818609E-02  0.9119348E-01
        1   -1    0    0  501    0  0.00000000000E+00  0.00000000000E+00  0.78899241313E+03  0.78899241314E+03  0.50400001928E-02 0.  1.
       -1   -1    0    0    0  501  0.00000000000E+00  0.00000000000E+00 -0.45067700067E+03  0.45067700070E+03  0.50400001928E-02 0. -1.
    10030    2    1    2    0    0  0.00000000000E+00  0.00000000000E+00  0.33831541246E+03  0.12396694138E+04  0.11926118133E+04 0.  0.
        3    1    3    3  502    0 -0.33588429600E+03  0.32959830803E+03 -0.21152711709E+03  0.51594286158E+03  0.10100000352E+00 0. -1.
       -3    1    3    3    0  502  0.33588429600E+03 -0.32959830803E+03  0.54984252955E+03  0.72372655226E+03  0.10100000352E+00 0.  1.
</event>
<event>
 5   0  0.1104538E-03  0.1481452E+04  0.7818609E-02  0.8896882E-01
        3   -1    0    0  501    0  0.00000000000E+00  0.00000000000E+00  0.61855219500E+03  0.61855220325E+03  0.10100000352E+00 0. -1.
       -3   -1    0    0    0  501  0.00000000000E+00  0.00000000000E+00 -0.88703055722E+03  0.88703056297E+03  0.10100000352E+00 0.  1.
    10030    2    1    2    0    0  0.00000000000E+00  0.00000000000E+00 -0.26847836222E+03  0.15055827662E+04  0.14814515972E+04 0.  0.
        2    1    3    3  502    0  0.88657152912E+02 -0.69415992309E+03  0.11252575780E+03  0.70878779318E+03  0.25500000920E-02 0. -1.
       -2    1    3    3    0  502 -0.88657152912E+02  0.69415992309E+03 -0.38100412002E+03  0.79679497304E+03  0.25500000920E-02 0.  1.
</event>
<event>
 5   0  0.1631380E-03  0.1431380E+04  0.7818609E-02  0.8931412E-01
        1   -1    0    0  501    0  0.00000000000E+00  0.00000000000E+00  0.46351068734E+03  0.46351068737E+03  0.50400001928E-02 0.  1.
       -1   -1    0    0    0  501  0.00000000000E+00  0.00000000000E+00 -0.11050713545E+04  0.11050713545E+04  0.50400001928E-02 0. -1.
    10030    2    1    2    0    0  0.00000000000E+00  0.00000000000E+00 -0.64156066719E+03  0.15685820419E+04  0.14313802893E+04 0.  0.
        3    1    3    3  502    0 -0.13510987397E+03 -0.38390330153E+03 -0.96591654177E+03  0.10481560947E+04  0.10100000352E+00 0. -1.
       -3    1    3    3    0  502  0.13510987397E+03  0.38390330153E+03  0.32435587458E+03  0.52042594723E+03  0.10100000352E+00 0.  1.
</event>
<event>
 5   0  0.3006737E-03  0.1396331E+04  0.7818609E-02  0.8956479E-01
       -2   -1    0    0    0  501  0.00000000000E+00  0.00000000000E+00  0.25472049054E+03  0.25472049055E+03  0.25500000920E-02 0.  1.
        2   -1    0    0  501    0  0.00000000000E+00  0.00000000000E+00 -0.19136072891E+04  0.19136072891E+04  0.25500000920E-02 0. -1.
    10030    2    1    2    0    0  0.00000000000E+00  0.00000000000E+00 -0.16588867986E+04  0.21683277797E+04  0.13963308883E+04 0.  0.
        1    1    3    3  502    0  0.50205620629E+02  0.26514163123E+03 -0.18293483675E+04  0.18491447046E+04  0.50400001928E-02 0. -1.
       -1    1    3    3    0  502 -0.50205620629E+02 -0.26514163123E+03  0.17046156885E+03  0.31918307511E+03  0.50400001928E-02 0.  1.
</event>
<event>
 5   0  0.1700207E-03  0.1385518E+04  0.7818609E-02  0.8964368E-01
        1   -1    0    0  501    0  0.00000000000E+00  0.00000000000E+00  0.87801971873E+03  0.87801971874E+03  0.50400001928E-02 0. -1.
       -1   -1    0    0    0  501  0.00000000000E+00  0.00000000000E+00 -0.54658810539E+03  0.54658810542E+03  0.50400001928E-02 0.  1.
    10030    2    1    2    0    0  0.00000000000E+00  0.00000000000E+00  0.33143161333E+03  0.14246078242E+04  0.13855181480E+04 0.  0.
        2    1    3    3  502    0  0.50639542363E+03  0.14245939714E+03  0.62919260481E+03  0.82013068401E+03  0.25500000920E-02 0. -1.
       -2    1    3    3    0  502 -0.50639542363E+03 -0.14245939714E+03 -0.29776099148E+03  0.60447714015E+03  0.25500000920E-02 0.  1.
</event>
<event>
 5   0  0.1631380E-03  0.1374745E+04  0.7818609E-02  0.8972305E-01
       -1   -1    0    0    0  501  0.00000000000E+00  0.00000000000E+00  0.61055499375E+03  0.61055499377E+03  0.50400001928E-02 0. -1.
        1   -1    0    0  501    0  0.00000000000E+00  0.00000000000E+00 -0.77385465553E+03  0.77385465555E+03  0.50400001928E-02 0.  1.
    10030    2    1    2    0    0  0.00000000000E+00  0.00000000000E+00 -0.16329966178E+03  0.13844096493E+04  0.13747448118E+04 0.  0.
        3    1    3    3  502    0 -0.23524927138E+03 -0.35041439473E+03  0.46470316461E+03  0.62775911711E+03  0.10100000352E+00 0. -1.
       -3    1    3    3    0  502  0.23524927138E+03  0.35041439473E+03 -0.62800282640E+03  0.75665053220E+03  0.10100000352E+00 0.  1.
</event>
<event>
 5   0  0.1700207E-03  0.1402535E+04  0.7818609E-02  0.8951985E-01
       -1   -1    0    0    0  501  0.00000000000E+00  0.00000000000E+00  0.57390752826E+03  0.57390752828E+03  0.50400001928E-02 0. -1.
        1   -1    0    0  501    0  0.00000000000E+00  0.00000000000E+00 -0.85689129411E+03  0.85689129413E+03  0.50400001928E-02 0.  1.
    10030    2    1    2    0    0  0.00000000000E+00  0.00000000000E+00 -0.28298376585E+03  0.14307988224E+04  0.14025353680E+04 0.  0.
        2    1    3    3  502    0  0.18965359177E+03 -0.21080878067E+01  0.54724533107E+03  0.57918078463E+03  0.25500000920E-02 0. -1.
       -2    1    3    3    0  502 -0.18965359177E+03  0.21080878067E+01 -0.83022909692E+03  0.85161803778E+03  0.25500000920E-02 0.  1.
</event>
<event>
 5   0  0.1631380E-03  0.1434915E+04  0.7818609E-02  0.8928926E-01
        1   -1    0    0  501    0  0.00000000000E+00  0.00000000000E+00  0.72115332126E+03  0.72115332128E+03  0.50400001928E-02 0. -1.
       -1   -1    0    0    0  501  0.00000000000E+00  0.00000000000E+00 -0.71378061308E+03  0.71378061310E+03  0.50400001928E-02 0.  1.
    10030    2    1    2    0    0  0.00000000000E+00  0.00000000000E+00  0.73727081852E+01  0.14349339344E+04  0.14349149937E+04 0.  0.
        3    1    3    3  502    0  0.61687006872E+03 -0.29693433496E+03 -0.21090112054E+03  0.71636441411E+03  0.10100000352E+00 0.  1.
       -3    1    3    3    0  502 -0.61687006872E+03  0.29693433496E+03  0.21827382873E+03  0.71856952027E+03  0.10100000352E+00 0. -1.
</event>
<event>
 5   0  0.2889469E-03  0.1411826E+04  0.7818609E-02  0.8945302E-01
       -2   -1    0    0    0  501  0.00000000000E+00  0.00000000000E+00  0.62254384603E+03  0.62254384603E+03  0.25500000920E-02 0.  1.
        2   -1    0    0  501    0  0.00000000000E+00  0.00000000000E+00 -0.80044687453E+03  0.80044687454E+03  0.25500000920E-02 0. -1.
    10030    2    1    2    0    0  0.00000000000E+00  0.00000000000E+00 -0.17790302850E+03  0.14229907206E+04  0.14118261590E+04 0.  0.
        5    1    3    3  502    0 -0.68885200564E+03  0.13521007903E+03 -0.14255171258E+02  0.70215678524E+03  0.46999998093E+01 0.  1.
       -5    1    3    3    0  502  0.68885200564E+03 -0.13521007903E+03 -0.16364785725E+03  0.72083393533E+03  0.46999998093E+01 0. -1.
</event>
<event>
 5   0  0.3006737E-03  0.1393683E+04  0.7818609E-02  0.8958404E-01
        2   -1    0    0  501    0  0.00000000000E+00  0.00000000000E+00  0.21732145806E+04  0.21732145806E+04  0.25500000920E-02 0. -1.
       -2   -1    0    0    0  501  0.00000000000E+00  0.00000000000E+00 -0.22344214721E+03  0.22344214722E+03  0.25500000920E-02 0.  1.
    10030    2    1    2    0    0  0.00000000000E+00  0.00000000000E+00  0.19497724334E+04  0.23966567278E+04  0.13936825065E+04 0.  0.
        1    1    3    3  502    0  0.62566356604E+03 -0.15897619375E+03  0.14261428678E+04  0.15654430068E+04  0.50400001928E-02 0. -1.
       -1    1    3    3    0  502 -0.62566356604E+03  0.15897619375E+03  0.52362956553E+03  0.83121372099E+03  0.50400001928E-02 0.  1.
</event>
<event>
 5   0  0.1586022E-03  0.1365155E+04  0.7818609E-02  0.8979435E-01
        1   -1    0    0  501    0  0.00000000000E+00  0.00000000000E+00  0.82218571605E+03  0.82218571607E+03  0.50400001928E-02 0.  1.
       -1   -1    0    0    0  501  0.00000000000E+00  0.00000000000E+00 -0.56667468540E+03  0.56667468542E+03  0.50400001928E-02 0. -1.
    10030    2    1    2    0    0  0.00000000000E+00  0.00000000000E+00  0.25551103065E+03  0.13888604015E+04  0.13651546902E+04 0.  0.
        1    1    3    3  502    0 -0.67459457855E+03 -0.10260914750E+03  0.14553320330E+03  0.69770079250E+03  0.50400001928E-02 0. -1.
       -1    1    3    3    0  502  0.67459457855E+03  0.10260914750E+03  0.10997782735E+03  0.69115960899E+03  0.50400001928E-02 0.  1.
</event>
<event>
 5   0  0.2917809E-03  0.1416523E+04  0.7818609E-02  0.8941945E-01
        2   -1    0    0  501    0  0.00000000000E+00  0.00000000000E+00  0.53311666237E+03  0.53311666237E+03  0.25500000920E-02 0.  1.
       -2   -1    0    0    0  501  0.00000000000E+00  0.00000000000E+00 -0.94094640237E+03  0.94094640238E+03  0.25500000920E-02 0. -1.
    10030    2    1    2    0    0  0.00000000000E+00  0.00000000000E+00 -0.40782974001E+03  0.14740630648E+04  0.14165227926E+04 0.  0.
        2    1    3    3  502    0  0.55831032258E+03 -0.42207121531E+03 -0.31685784272E+03  0.76827951918E+03  0.25500000920E-02 0. -1.
       -2    1    3    3    0  502 -0.55831032258E+03  0.42207121531E+03 -0.90971897290E+02  0.70578354557E+03  0.25500000920E-02 0.  1.
</event>
<event>
 5   0  0.2889469E-03  0.1413929E+04  0.7818609E-02  0.8943798E-01
        2   -1    0    0  501    0  0.00000000000E+00  0.00000000000E+00  0.45301625730E+03  0.45301625731E+03  0.25500000920E-02 0. -1.
       -2   -1    0    0    0  501  0.00000000000E+00  0.00000000000E+00 -0.11032682668E+04  0.11032682668E+04  0.25500000920E-02 0.  1.
    10030    2    1    2    0    0  0.00000000000E+00  0.00000000000E+00 -0.65025200946E+03  0.15562845241E+04  0.14139285145E+04 0.  0.
        5    1    3    3  502    0  0.56315631030E+03 -0.37120772005E+03 -0.55819032802E+03  0.87552197776E+03  0.46999998093E+01 0.  1.
       -5    1    3    3    0  502 -0.56315631030E+03  0.37120772005E+03 -0.92061681441E+02  0.68076254630E+03  0.46999998093E+01 0. -1.
</event>
<event>
 5   0  0.1700207E-03  0.1418376E+04  0.7818609E-02  0.8940623E-01
       -1   -1    0    0    0  501  0.00000000000E+00  0.00000000000E+00  0.24899684721E+03  0.24899684727E+03  0.50400001928E-02 0. -1.
        1   -1    0    0  501    0  0.00000000000E+00  0.00000000000E+00 -0.20198962815E+04  0.20198962815E+04  0.50400001928E-02 0.  1.
    10030    2    1    2    0    0  0.00000000000E+00  0.00000000000E+00 -0.17708994343E+04  0.22688931288E+04  0.14183762630E+04 0.  0.
        2    1    3    3  502    0 -0.45516115028E+02 -0.68526703026E+03 -0.60251127468E+03  0.91360957504E+03  0.25500000920E-02 0. -1.
       -2    1    3    3    0  502  0.45516115028E+02  0.68526703026E+03 -0.11683881596E+04  0.13552835537E+04  0.25500000920E-02 0.  1.
</event>
<event>
 5   0  0.2917809E-03  0.1315116E+04  0.7818609E-02  0.9017663E-01
       -2   -1    0    0    0  501  0.00000000000E+00  0.00000000000E+00  0.53377659261E+03  0.53377659261E+03  0.25500000920E-02 0.  1.
        2   -1    0    0  501    0  0.00000000000E+00  0.00000000000E+00 -0.81004452551E+03  0.81004452551E+03  0.25500000920E-02 0. -1.
    10030    2    1    2    0    0  0.00000000000E+00  0.00000000000E+00 -0.27626793290E+03  0.13438211181E+04  0.13151164309E+04 0.  0.
        2    1    3    3  502    0 -0.95844179461E+02 -0.64860353339E+03 -0.18932897873E+03  0.68243542731E+03  0.25500000920E-02 0. -1.
       -2    1    3    3    0  502  0.95844179461E+02  0.64860353339E+03 -0.86938954171E+02  0.66138569082E+03  0.25500000920E-02 0.  1.
</event>
<event>
 5   0  0.2993993E-03  0.1381509E+04  0.7818609E-02  0.8967313E-01
       -2   -1    0    0    0  501  0.00000000000E+00  0.00000000000E+00  0.59572282164E+03  0.59572282165E+03  0.25500000920E-02 0.  1.
        2   -1    0    0  501    0  0.00000000000E+00  0.00000000000E+00 -0.80094570629E+03  0.80094570629E+03  0.25500000920E-02 0. -1.
    10030    2    1    2    0    0  0.00000000000E+00  0.00000000000E+00 -0.20522288465E+03  0.13966685279E+04  0.13815087928E+04 0.  0.
        3    1    3    3  502    0  0.25516972338E+03 -0.64093963215E+03 -0.67206785042E+02  0.69313199460E+03  0.10100000352E+00 0.  1.
       -3    1    3    3    0  502 -0.25516972338E+03  0.64093963215E+03 -0.13801609961E+03  0.70353653334E+03  0.10100000352E+00 0. -1.
</event>
<event>
 5   0  0.1560957E-03  0.1415618E+04  0.7818609E-02  0.8942590E-01
        1   -1    0    0  501    0  0.00000000000E+00  0.00000000000E+00  0.14846878370E+04  0.14846878370E+04  0.50400001928E-02 0. -1.
       -1   -1    0    0    0  501  0.00000000000E+00  0.00000000000E+00 -0.33744052924E+03  0.33744052928E+03  0.50400001928E-02 0.  1.
    10030    2    1    2    0    0  0.00000000000E+00  0.00000000000E+00  0.11472473077E+04  0.18221283663E+04  0.14156183801E+04 0.  0.
        5    1    3    3  502    0 -0.91507487419E+02 -0.30655292800E+03  0.13862935895E+04  0.14227369132E+04  0.46999998093E+01 0. -1.
       -5    1    3    3    0  502  0.91507487419E+02  0.30655292800E+03 -0.23904628179E+03  0.39939145303E+03  0.46999998093E+01 0.  1.
</event>
<event>
 5   0  0.1560957E-03  0.1383721E+04  0.7818609E-02  0.8965687E-01
        1   -1    0    0  501    0  0.00000000000E+00  0.00000000000E+00  0.74750418499E+03  0.74750418501E+03  0.50400001928E-02 0. -1.
       -1   -1    0    0    0  501  0.00000000000E+00  0.00000000000E+00 -0.64035844641E+03  0.64035844643E+03  0.50400001928E-02 0.  1.
    10030    2    1    2    0    0  0.00000000000E+00  0.00000000000E+00  0.10714573857E+03  0.13878626314E+04  0.13837205189E+04 0.  0.
        5    1    3    3  502    0 -0.90560601646E+02 -0.26906538523E+03 -0.57922867299E+03  0.64507778578E+03  0.46999998093E+01 0.  1.
       -5    1    3    3    0  502  0.90560601646E+02  0.26906538523E+03  0.68637441156E+03  0.74278484566E+03  0.46999998093E+01 0. -1.
</event>
<event>
 5   0  0.3006737E-03  0.1532292E+04  0.7818609E-02  0.8863259E-01
        2   -1    0    0  501    0  0.00000000000E+00  0.00000000000E+00  0.15750379881E+04  0.15750379881E+04  0.25500000920E-02 0. -1.
       -2   -1    0    0    0  501  0.00000000000E+00  0.00000000000E+00 -0.37267659661E+03  0.37267659662E+03  0.25500000920E-02 0.  1.
    10030    2    1    2    0    0  0.00000000000E+00  0.00000000000E+00  0.12023613915E+04  0.19477145847E+04  0.15322921353E+04 0.  0.
        1    1    3    3  502    0 -0.33441354713E+03 -0.36559600626E+03 -0.14161741617E+03  0.51531383921E+03  0.50400001928E-02 0.  1.
       -1    1    3    3    0  502  0.33441354713E+03  0.36559600626E+03  0.13439788077E+04  0.14324007455E+04  0.50400001928E-02 0. -1.
</event>
<event>
 5   0  0.1644571E-03  0.1303757E+04  0.7818609E-02  0.9026591E-01
        1   -1    0    0  501    0  0.00000000000E+00  0.00000000000E+00  0.37443105163E+03  0.37443105166E+03  0.50400001928E-02 0. -1.
       -1   -1    0    0    0  501  0.00000000000E+00  0.00000000000E+00 -0.11349103823E+04  0.11349103823E+04  0.50400001928E-02 0.  1.
    10030    2    1    2    0    0  0.00000000000E+00  0.00000000000E+00 -0.76047933071E+03  0.15093414340E+04  0.13037571676E+04 0.  0.
        4    1    3    3  502    0  0.30364122675E+03 -0.55915127645E+03 -0.54435336876E+03  0.83735915086E+03  0.12699999809E+01 0. -1.
       -4    1    3    3    0  502 -0.30364122675E+03  0.55915127645E+03 -0.21612596195E+03  0.67198228315E+03  0.12699999809E+01 0.  1.
</event>
<event>
 5   0  0.1700207E-03  0.1443428E+04  0.7818609E-02  0.8922969E-01
       -1   -1    0    0    0  501  0.00000000000E+00  0.00000000000E+00  0.11047098122E+04  0.11047098122E+04  0.50400001928E-02 0.  1.
        1   -1    0    0  501    0  0.00000000000E+00  0.00000000000E+00 -0.47150063217E+03  0.47150063219E+03  0.50400001928E-02 0. -1.
    10030    2    1    2    0    0  0.00000000000E+00  0.00000000000E+00  0.63320917999E+03  0.15762104444E+04  0.14434283838E+04 0.  0.
        2    1    3    3  502    0  0.49421623780E+03 -0.31311818738E+03 -0.14485510126E+03  0.60272355963E+03  0.25500000920E-02 0. -1.
       -2    1    3    3    0  502 -0.49421623780E+03  0.31311818738E+03  0.77806428125E+03  0.97348688472E+03  0.25500000920E-02 0.  1.
</event>
<event>
 5   0  0.2760807E-03  0.1496254E+04  0.7818609E-02  0.8886948E-01
        2   -1    0    0  501    0  0.00000000000E+00  0.00000000000E+00  0.89855675545E+03  0.89855675545E+03  0.25500000920E-02 0.  1.
       -2   -1    0    0    0  501  0.00000000000E+00  0.00000000000E+00 -0.62288112151E+03  0.62288112152E+03  0.25500000920E-02 0. -1.
    10030    2    1    2    0    0  0.00000000000E+00  0.00000000000E+00  0.27567563393E+03  0.15214378770E+04  0.14962540420E+04 0.  0.
        4    1    3    3  502    0  0.14159875984E+03  0.29993995627E+03  0.81970505451E+03  0.88426928899E+03  0.12699999809E+01 0.  1.
       -4    1    3    3    0  502 -0.14159875984E+03 -0.29993995627E+03 -0.54402942058E+03  0.63716858798E+03  0.12699999809E+01 0. -1.
</event>
<event>
 5   0  0.2917809E-03  0.1389318E+04  0.7818609E-02  0.8961588E-01
        2   -1    0    0  501    0  0.00000000000E+00  0.00000000000E+00  0.13537854738E+04  0.13537854738E+04  0.25500000920E-02 0.  1.
       -2   -1    0    0    0  501  0.00000000000E+00  0.00000000000E+00 -0.35644553987E+03  0.35644553988E+03  0.25500000920E-02 0. -1.
    10030    2    1    2    0    0  0.00000000000E+00  0.00000000000E+00  0.99733993389E+03  0.17102310137E+04  0.13893175218E+04 0.  0.
        2    1    3    3  502    0  0.85712348008E+02  0.29963653726E+03  0.12628955819E+04  0.13007820385E+04  0.25500000920E-02 0.  1.
       -2    1    3    3    0  502 -0.85712348008E+02 -0.29963653726E+03 -0.26555564796E+03  0.40944897513E+03  0.25500000920E-02 0. -1.
</event>
<event>
 5   0  0.2993993E-03  0.1430753E+04  0.7818609E-02  0.8931854E-01
        2   -1    0    0  501    0  0.00000000000E+00  0.00000000000E+00  0.10629950713E+04  0.10629950713E+04  0.25500000920E-02 0. -1.
       -2   -1    0    0    0  501  0.00000000000E+00  0.00000000000E+00 -0.48143562325E+03  0.48143562326E+03  0.25500000920E-02 0.  1.
    10030    2    1    2    0    0  0.00000000000E+00  0.00000000000E+00  0.58155944800E+03  0.15444306945E+04  0.14307532207E+04 0.  0.
        3    1    3    3  502    0  0.98767764430E+02 -0.26759328933E+03 -0.41739603528E+03  0.50554989887E+03  0.10100000352E+00 0.  1.
       -3    1    3    3    0  502 -0.98767764430E+02  0.26759328933E+03  0.99895548328E+03  0.10388807956E+04  0.10100000352E+00 0. -1.
</event>
<event>
 5   0  0.1104538E-03  0.1446611E+04  0.7818609E-02  0.8920753E-01
       -4   -1    0    0    0  501  0.00000000000E+00  0.00000000000E+00  0.62596843860E+03  0.62596972692E+03  0.12699999809E+01 0.  1.
        4   -1    0    0  501    0  0.00000000000E+00  0.00000000000E+00 -0.83577563707E+03  0.83577660198E+03  0.12699999809E+01 0. -1.
    10030    2    1    2    0    0  0.00000000000E+00  0.00000000000E+00 -0.20980719847E+03  0.14617463289E+04  0.14466109600E+04 0.  0.
        1    1    3    3  502    0 -0.53349434232E+03  0.45661694035E+03 -0.28008289370E+03  0.75601697790E+03  0.50400001928E-02 0. -1.
       -1    1    3    3    0  502  0.53349434232E+03 -0.45661694035E+03  0.70275695234E+02  0.70572935100E+03  0.50400001928E-02 0.  1.
</event>
<event>
 5   0  0.2760807E-03  0.1488639E+04  0.7818609E-02  0.8892043E-01
       -2   -1    0    0    0  501  0.00000000000E+00  0.00000000000E+00  0.35128398448E+03  0.35128398449E+03  0.25500000920E-02 0. -1.
        2   -1    0    0  501    0  0.00000000000E+00  0.00000000000E+00 -0.15771041189E+04  0.15771041189E+04  0.25500000920E-02 0.  1.
    10030    2    1    2    0    0  0.00000000000E+00  0.00000000000E+00 -0.12258201344E+04  0.19283881034E+04  0.14886388667E+04 0.  0.
        4    1    3    3  502    0 -0.87669255322E+02 -0.28225617338E+03  0.27200832005E+03  0.40167721471E+03  0.12699999809E+01 0. -1.
       -4    1    3    3    0  502  0.87669255322E+02  0.28225617338E+03 -0.14978284545E+04  0.15267108887E+04  0.12699999809E+01 0.  1.
</event>
<event>
 5   0  0.2993993E-03  0.1418617E+04  0.7818609E-02  0.8940452E-01
        2   -1    0    0  501    0  0.00000000000E+00  0.00000000000E+00  0.13278044393E+04  0.13278044393E+04  0.25500000920E-02 0.  1.
       -2   -1    0    0    0  501  0.00000000000E+00  0.00000000000E+00 -0.37891022535E+03  0.37891022536E+03  0.25500000920E-02 0. -1.
    10030    2    1    2    0    0  0.00000000000E+00  0.00000000000E+00  0.94889421394E+03  0.17067146646E+04  0.14186171849E+04 0.  0.
        3    1    3    3  502    0 -0.33446444552E+03  0.62217048450E+03  0.55200719281E+03  0.89647896138E+03  0.10100000352E+00 0. -1.
       -3    1    3    3    0  502  0.33446444552E+03 -0.62217048450E+03  0.39688702114E+03  0.81023570326E+03  0.10100000352E+00 0.  1.
</event>
<event>
 5   0  0.1631380E-03  0.1395790E+04  0.7818609E-02  0.8956872E-01
        1   -1    0    0  501    0  0.00000000000E+00  0.00000000000E+00  0.11514874807E+04  0.11514874807E+04  0.50400001928E-02 0. -1.
       -1   -1    0    0    0  501  0.00000000000E+00  0.00000000000E+00 -0.42298115718E+03  0.42298115721E+03  0.50400001928E-02 0.  1.
    10030    2    1    2    0    0  0.00000000000E+00  0.00000000000E+00  0.72850632354E+03  0.15744686379E+04  0.13957901090E+04 0.  0.
        3    1    3    3  502    0 -0.12471297192E+03 -0.26122516197E+03 -0.35207079968E+03  0.45579136543E+03  0.10100000352E+00 0.  1.
       -3    1    3    3    0  502  0.12471297192E+03  0.26122516197E+03  0.10805771232E+04  0.11186772725E+04  0.10100000352E+00 0. -1.
</event>
<event>
 5   0  0.2993993E-03  0.1397939E+04  0.7818609E-02  0.8955312E-01
       -2   -1    0    0    0  501  0.00000000000E+00  0.00000000000E+00  0.61124884820E+03  0.61124884820E+03  0.25500000920E-02 0.  1.
        2   -1    0    0  501    0  0.00000000000E+00  0.00000000000E+00 -0.79927900876E+03  0.79927900877E+03  0.25500000920E-02 0. -1.
    10030    2    1    2    0    0  0.00000000000E+00  0.00000000000E+00 -0.18803016057E+03  0.14105278570E+04  0.13979390166E+04 0.  0.
        3    1    3    3  502    0  0.20495472162E+02  0.22898411124E+03  0.57200834103E+03  0.61647979690E+03  0.10100000352E+00 0.  1.
       -3    1    3    3    0  502 -0.20495472162E+02 -0.22898411124E+03 -0.76003850160E+03  0.79404806006E+03  0.10100000352E+00 0. -1.
</event>
<event>
 5   0  0.1700207E-03  0.1279692E+04  0.7818609E-02  0.9045826E-01
       -1   -1    0    0    0  501  0.00000000000E+00  0.00000000000E+00  0.44766419571E+03  0.44766419574E+03  0.50400001928E-02 0. -1.
        1   -1    0    0  501    0  0.00000000000E+00  0.00000000000E+00 -0.91453155883E+03  0.91453155885E+03  0.50400001928E-02 0.  1.
    10030    2    1    2    0    0  0.00000000000E+00  0.00000000000E+00 -0.46686736312E+03  0.13621957546E+04  0.12796922048E+04 0.  0.
        2    1    3    3  502    0  0.47492327317E+03 -0.19760623919E+03  0.17162907909E+03  0.54227011900E+03  0.25500000920E-02 0. -1.
       -2    1    3    3    0  502 -0.47492327317E+03  0.19760623919E+03 -0.63849644221E+03  0.81992563559E+03  0.25500000920E-02 0.  1.
</event>
<event>
 5   0  0.1586022E-03  0.9198893E+03  0.7818609E-02  0.9401055E-01
       -1   -1    0    0    0  501  0.00000000000E+00  0.00000000000E+00  0.21035207702E+03  0.21035207708E+03  0.50400001928E-02 0.  1.
        1   -1    0    0  501    0  0.00000000000E+00  0.00000000000E+00 -0.10056904821E+04  0.10056904822E+04  0.50400001928E-02 0. -1.
    10030    2    1    2    0    0  0.00000000000E+00  0.00000000000E+00 -0.79533840513E+03  0.12160425592E+04  0.91988930160E+03 0.  0.
        1    1    3    3  502    0 -0.33935549401E+03  0.11583628441E+03 -0.16892090829E+02  0.35897846573E+03  0.50400001928E-02 0.  1.
       -1    1    3    3    0  502  0.33935549401E+03 -0.11583628441E+03 -0.77844631430E+03  0.85706409351E+03  0.50400001928E-02 0. -1.
</event>
<event>
 5   0  0.2760807E-03  0.1394600E+04  0.7818609E-02  0.8957736E-01
       -2   -1    0    0    0  501  0.00000000000E+00  0.00000000000E+00  0.34360394499E+03  0.34360394500E+03  0.25500000920E-02 0.  1.
        2   -1    0    0  501    0  0.00000000000E+00  0.00000000000E+00 -0.14150811565E+04  0.14150811565E+04  0.25500000920E-02 0. -1.
    10030    2    1    2    0    0  0.00000000000E+00  0.00000000000E+00 -0.10714772116E+04  0.17586851015E+04  0.13946002551E+04 0.  0.
        4    1    3    3  502    0  0.13549855997E+03  0.57481667045E+03 -0.10032729783E+04  0.11641874189E+04  0.12699999809E+01 0. -1.
       -4    1    3    3    0  502 -0.13549855997E+03 -0.57481667045E+03 -0.68204233277E+02  0.59449768269E+03  0.12699999809E+01 0.  1.
</event>
<event>
 5   0  0.2760807E-03  0.1393053E+04  0.7818609E-02  0.8958862E-01
       -2   -1    0    0    0  501  0.00000000000E+00  0.00000000000E+00  0.97792021852E+03  0.97792021853E+03  0.25500000920E-02 0. -1.
        2   -1    0    0  501    0  0.00000000000E+00  0.00000000000E+00 -0.49610316807E+03  0.49610316807E+03  0.25500000920E-02 0.  1.
    10030    2    1    2    0    0  0.00000000000E+00  0.00000000000E+00  0.48181705045E+03  0.14740233866E+04  0.13930532201E+04 0.  0.
        4    1    3    3  502    0  0.65212279024E+03  0.24093860340E+03  0.19561683386E+03  0.72220710516E+03  0.12699999809E+01 0.  1.
       -4    1    3    3    0  502 -0.65212279024E+03 -0.24093860340E+03  0.28620021659E+03  0.75181628144E+03  0.12699999809E+01 0. -1.
</event>
<event>
 5   0  0.2760807E-03  0.1367983E+04  0.7818609E-02  0.8977326E-01
       -2   -1    0    0    0  501  0.00000000000E+00  0.00000000000E+00  0.66517923037E+03  0.66517923037E+03  0.25500000920E-02 0. -1.
        2   -1    0    0  501    0  0.00000000000E+00  0.00000000000E+00 -0.70333565263E+03  0.70333565263E+03  0.25500000920E-02 0.  1.
    10030    2    1    2    0    0  0.00000000000E+00  0.00000000000E+00 -0.38156422262E+02  0.13685148830E+04  0.13679828480E+04 0.  0.
        4    1    3    3  502    0 -0.26561425222E+03 -0.34589758101E+03  0.50804852309E+03  0.66956029023E+03  0.12699999809E+01 0. -1.
       -4    1    3    3    0  502  0.26561425222E+03  0.34589758101E+03 -0.54620494536E+03  0.69895459278E+03  0.12699999809E+01 0.  1.
</event>
<event>
 5   0  0.1104538E-03  0.1423589E+04  0.7818609E-02  0.8936918E-01
        3   -1    0    0  501    0  0.00000000000E+00  0.00000000000E+00  0.76382883073E+03  0.76382883741E+03  0.10100000352E+00 0.  1.
       -3   -1    0    0    0  501  0.00000000000E+00  0.00000000000E+00 -0.66330519873E+03  0.66330520642E+03  0.10100000352E+00 0. -1.
    10030    2    1    2    0    0  0.00000000000E+00  0.00000000000E+00  0.10052363200E+03  0.14271340438E+04  0.14235893293E+04 0.  0.
        3    1    3    3  502    0 -0.17905797310E+03 -0.87220166092E+02 -0.63480093481E+03  0.66531297307E+03  0.10100000352E+00 0. -1.
       -3    1    3    3    0  502  0.17905797310E+03  0.87220166092E+02  0.73532456681E+03  0.76182107076E+03  0.10100000352E+00 0.  1.
</event>
<event>
 5   0  0.1586022E-03  0.1406026E+04  0.7818609E-02  0.8949468E-01
       -1   -1    0    0    0  501  0.00000000000E+00  0.00000000000E+00  0.28387042301E+03  0.28387042305E+03  0.50400001928E-02 0. -1.
        1   -1    0    0  501    0  0.00000000000E+00  0.00000000000E+00 -0.17410321185E+04  0.17410321185E+04  0.50400001928E-02 0.  1.
    10030    2    1    2    0    0  0.00000000000E+00  0.00000000000E+00 -0.14571616955E+04  0.20249025415E+04  0.14060263497E+04 0.  0.
        1    1    3    3  502    0 -0.33889736956E+02  0.36937979311E+03 -0.15886318707E+04  0.16313617522E+04  0.50400001928E-02 0.  1.
       -1    1    3    3    0  502  0.33889736956E+02 -0.36937979311E+03  0.13147017529E+03  0.39354078930E+03  0.50400001928E-02 0. -1.
</event>
<event>
 5   0  0.1104538E-03  0.1403283E+04  0.7818609E-02  0.8951446E-01
       -3   -1    0    0    0  501  0.00000000000E+00  0.00000000000E+00  0.64122459758E+03  0.64122460554E+03  0.10100000352E+00 0.  1.
        3   -1    0    0  501    0  0.00000000000E+00  0.00000000000E+00 -0.76775055208E+03  0.76775055872E+03  0.10100000352E+00 0. -1.
    10030    2    1    2    0    0  0.00000000000E+00  0.00000000000E+00 -0.12652595450E+03  0.14089751643E+04  0.14032826502E+04 0.  0.
        3    1    3    3  502    0 -0.55818229297E+03  0.32801400025E+03 -0.33480391337E+03  0.72887195525E+03  0.10100000352E+00 0.  1.
       -3    1    3    3    0  502  0.55818229297E+03 -0.32801400025E+03  0.20827795887E+03  0.68010320901E+03  0.10100000352E+00 0. -1.
</event>
<event>
 5   0  0.2993993E-03  0.1450006E+04  0.7818609E-02  0.8918396E-01
        2   -1    0    0  501    0  0.00000000000E+00  0.00000000000E+00  0.16105658724E+04  0.16105658724E+04  0.25500000920E-02 0. -1.
       -2   -1    0    0    0  501  0.00000000000E+00  0.00000000000E+00 -0.32636304373E+03  0.32636304374E+03  0.25500000920E-02 0.  1.
    10030    2    1    2    0    0  0.00000000000E+00  0.00000000000E+00  0.12842028287E+04  0.19369289162E+04  0.14500057659E+04 0.  0.
        3    1    3    3  502    0 -0.24123557154E+03 -0.47443645070E+03  0.12996996632E+04  0.14044585331E+04  0.10100000352E+00 0. -1.
       -3    1    3    3    0  502  0.24123557154E+03  0.47443645070E+03 -0.15496834440E+02  0.53247038303E+03  0.10100000352E+00 0.  1.
</event>
<event>
 5   0  0.3006737E-03  0.1495611E+04  0.7818609E-02  0.8887377E-01
        2   -1    0    0  501    0  0.00000000000E+00  0.00000000000E+00  0.11272648386E+04  0.11272648386E+04  0.25500000920E-02 0.  1.
       -2   -1    0    0    0  501  0.00000000000E+00  0.00000000000E+00 -0.49607966668E+03  0.49607966668E+03  0.25500000920E-02 0. -1.
    10030    2    1    2    0    0  0.00000000000E+00  0.00000000000E+00  0.63118517195E+03  0.16233445053E+04  0.14956111332E+04 0.  0.
        1    1    3    3  502    0  0.31396098605E+03 -0.67870586597E+03  0.31571206279E+03  0.81171870736E+03  0.50400001928E-02 0. -1.
       -1    1    3    3    0  502 -0.31396098605E+03  0.67870586597E+03  0.31547310916E+03  0.81162579795E+03  0.50400001928E-02 0.  1.
</event>
<event>
 5   0  0.1104538E-03  0.1530896E+04  0.7818609E-02  0.8864163E-01
        4   -1    0    0  501    0  0.00000000000E+00  0.00000000000E+00  0.54328770024E+03  0.54328918463E+03  0.12699999809E+01 0. -1.
       -4   -1    0    0    0  501  0.00000000000E+00  0.00000000000E+00 -0.10784510096E+04  0.10784517573E+04  0.12699999809E+01 0.  1.
    10030    2    1    2    0    0  0.00000000000E+00  0.00000000000E+00 -0.53516330931E+03  0.16217409420E+04  0.15308964417E+04 0.  0.
        3    1    3    3  502    0 -0.29356611999E+03  0.45780795959E+03 -0.83819352018E+03  0.99916844533E+03  0.10100000352E+00 0.  1.
       -3    1    3    3    0  502  0.29356611999E+03 -0.45780795959E+03  0.30303021087E+03  0.62257249663E+03  0.10100000352E+00 0. -1.
</event>
<event>
 5   0  0.1586022E-03  0.1281253E+04  0.7818609E-02  0.9044565E-01
       -1   -1    0    0    0  501  0.00000000000E+00  0.00000000000E+00  0.97781729496E+03  0.97781729497E+03  0.50400001928E-02 0.  1.
        1   -1    0    0  501    0  0.00000000000E+00  0.00000000000E+00 -0.41971252735E+03  0.41971252738E+03  0.50400001928E-02 0. -1.
    10030    2    1    2    0    0  0.00000000000E+00  0.00000000000E+00  0.55810476760E+03  0.13975298224E+04  0.12812527747E+04 0.  0.
        1    1    3    3  502    0 -0.38116665516E+03  0.31151637035E+03  0.72622331281E+03  0.87734301622E+03  0.50400001928E-02 0.  1.
       -1    1    3    3    0  502  0.38116665516E+03 -0.31151637035E+03 -0.16811854521E+03  0.52018680613E+03  0.50400001928E-02 0. -1.
</event>
<event>
 5   0  0.1700207E-03  0.1427214E+04  0.7818609E-02  0.8934352E-01
        1   -1    0    0  501    0  0.00000000000E+00  0.00000000000E+00  0.14351744590E+04  0.14351744590E+04  0.50400001928E-02 0. -1.
       -1   -1    0    0    0  501  0.00000000000E+00  0.00000000000E+00 -0.35482431682E+03  0.35482431685E+03  0.50400001928E-02 0.  1.
    10030    2    1    2    0    0  0.00000000000E+00  0.00000000000E+00  0.10803501422E+04  0.17899987758E+04  0.14272137849E+04 0.  0.
        2    1    3    3  502    0  0.40783190549E+03  0.54151574553E+03  0.81968986440E+03  0.10636999763E+04  0.25500000920E-02 0. -1.
       -2    1    3    3    0  502 -0.40783190549E+03 -0.54151574553E+03  0.26066027777E+03  0.72629879953E+03  0.25500000920E-02 0.  1.
</event>
<event>
 5   0  0.2993993E-03  0.1280121E+04  0.7818609E-02  0.9045479E-01
       -2   -1    0    0    0  501  0.00000000000E+00  0.00000000000E+00  0.32262373348E+03  0.32262373349E+03  0.25500000920E-02 0.  1.
        2   -1    0    0  501    0  0.00000000000E+00  0.00000000000E+00 -0.12698309270E+04  0.12698309270E+04  0.25500000920E-02 0. -1.
    10030    2    1    2    0    0  0.00000000000E+00  0.00000000000E+00 -0.94720719354E+03  0.15924546605E+04  0.12801212358E+04 0.  0.
        3    1    3    3  502    0  0.10358779062E+03 -0.62295822599E+03 -0.34390514413E+03  0.71908145579E+03  0.10100000352E+00 0.  1.
       -3    1    3    3    0  502 -0.10358779062E+03  0.62295822599E+03 -0.60330204941E+03  0.87337320472E+03  0.10100000352E+00 0. -1.
</event>
<event>
 5   0  0.1700207E-03  0.1415235E+04  0.7818609E-02  0.8942864E-01
       -1   -1    0    0    0  501  0.00000000000E+00  0.00000000000E+00  0.34758993736E+03  0.34758993740E+03  0.50400001928E-02 0.  1.
        1   -1    0    0  501    0  0.00000000000E+00  0.00000000000E+00 -0.14405546535E+04  0.14405546535E+04  0.50400001928E-02 0. -1.
    10030    2    1    2    0    0  0.00000000000E+00  0.00000000000E+00 -0.10929647162E+04  0.17881445909E+04  0.14152346828E+04 0.  0.
        2    1    3    3  502    0  0.39675003941E+03  0.29208442987E+02 -0.12858802239E+04  0.13460132529E+04  0.25500000920E-02 0. -1.
       -2    1    3    3    0  502 -0.39675003941E+03 -0.29208442987E+02  0.19291550772E+03  0.44213133799E+03  0.25500000920E-02 0.  1.
</event>
<event>
 5   0  0.2760807E-03  0.1385436E+04  0.7818609E-02  0.8964429E-01
        2   -1    0    0  501    0  0.00000000000E+00  0.00000000000E+00  0.13426585272E+04  0.13426585272E+04  0.25500000920E-02 0. -1.
       -2   -1    0    0    0  501  0.00000000000E+00  0.00000000000E+00 -0.35739396253E+03  0.35739396254E+03  0.25500000920E-02 0.  1.
    10030    2    1    2    0    0  0.00000000000E+00  0.00000000000E+00  0.98526456471E+03  0.17000524898E+04  0.13854357457E+04 0.  0.
        4    1    3    3  502    0  0.10491326482E+03 -0.97143921145E+02 -0.33908828677E+03  0.36800300770E+03  0.12699999809E+01 0.  1.
       -4    1    3    3    0  502 -0.10491326482E+03  0.97143921145E+02  0.13243528515E+04  0.13320494821E+04  0.12699999809E+01 0. -1.
</event>
<event>
 5   0  0.1631380E-03  0.1191467E+04  0.7818609E-02  0.9120359E-01
       -1   -1    0    0    0  501  0.00000000000E+00  0.00000000000E+00  0.22804571697E+03  0.22804571702E+03  0.50400001928E-02 0.  1.
        1   -1    0    0  501    0  0.00000000000E+00  0.00000000000E+00 -0.15562593244E+04  0.15562593244E+04  0.50400001928E-02 0. -1.
    10030    2    1    2    0    0  0.00000000000E+00  0.00000000000E+00 -0.13282136075E+04  0.17843050415E+04  0.11914667826E+04 0.  0.
        3    1    3    3  502    0  0.96223740948E+02  0.24333600774E+02 -0.15437901574E+04  0.15469774377E+04  0.10100000352E+00 0. -1.
       -3    1    3    3    0  502 -0.96223740948E+02 -0.24333600774E+02  0.21557654991E+03  0.23732760379E+03  0.10100000352E+00 0.  1.
</event>
<event>
 5   0  0.1586022E-03  0.1382663E+04  0.7818609E-02  0.8966465E-01
       -1   -1    0    0    0  501  0.00000000000E+00  0.00000000000E+00  0.59148938020E+03  0.59148938023E+03  0.50400001928E-02 0. -1.
        1   -1    0    0  501    0  0.00000000000E+00  0.00000000000E+00 -0.80802626454E+03  0.80802626456E+03  0.50400001928E-02 0.  1.
    10030    2    1    2    0    0  0.00000000000E+00  0.00000000000E+00 -0.21653688434E+03  0.13995156448E+04  0.13826625827E+04 0.  0.
        1    1    3    3  502    0 -0.11551048300E+03 -0.49540274087E+03 -0.58213328233E+03  0.77307548516E+03  0.50400001928E-02 0.  1.
       -1    1    3    3    0  502  0.11551048300E+03  0.49540274087E+03  0.36559639799E+03  0.62644015962E+03  0.50400001928E-02 0. -1.
</event>
<event>
 5   0  0.2760807E-03  0.1318904E+04  0.7818609E-02  0.9014707E-01
        2   -1    0    0  501    0  0.00000000000E+00  0.00000000000E+00  0.26375551195E+04  0.26375551195E+04  0.25500000920E-02 0.  1.
       -2   -1    0    0    0  501  0.00000000000E+00  0.00000000000E+00 -0.16487884888E+03  0.16487884890E+03  0.25500000920E-02 0. -1.
    10030    2    1    2    0    0  0.00000000000E+00  0.00000000000E+00  0.24726762706E+04  0.28024339684E+04  0.13189041694E+04 0.  0.
        4    1    3    3  502    0  0.78392445657E+02 -0.54927839231E+03  0.47904527519E+03  0.73303350290E+03  0.12699999809E+01 0.  1.
       -4    1    3    3    0  502 -0.78392445657E+02  0.54927839231E+03  0.19936309954E+04  0.20694004655E+04  0.12699999809E+01 0. -1.
</event>
<event>
 5   0  0.2889469E-03  0.1408438E+04  0.7818609E-02  0.8947734E-01
        2   -1    0    0  501    0  0.00000000000E+00  0.00000000000E+00  0.15356636177E+04  0.15356636177E+04  0.25500000920E-02 0.  1.
       -2   -1    0    0    0  501  0.00000000000E+00  0.00000000000E+00 -0.32293797598E+03  0.32293797599E+03  0.25500000920E-02 0. -1.
    10030    2    1    2    0    0  0.00000000000E+00  0.00000000000E+00  0.12127256417E+04  0.18586015937E+04  0.14084375748E+04 0.  0.
        5    1    3    3  502    0  0.25766651800E+03 -0.62751725889E+03  0.35691611970E+03  0.76653842122E+03  0.46999998093E+01 0. -1.
       -5    1    3    3    0  502 -0.25766651800E+03  0.62751725889E+03  0.85580952201E+03  0.10920631725E+04  0.46999998093E+01 0.  1.
</event>
<event>
 5   0  0.1700207E-03  0.1498632E+04  0.7818609E-02  0.8885363E-01
        1   -1    0    0  501    0  0.00000000000E+00  0.00000000000E+00  0.65658721568E+03  0.65658721570E+03  0.50400001928E-02 0. -1.
       -1   -1    0    0    0  501  0.00000000000E+00  0.00000000000E+00 -0.85514067966E+03  0.85514067968E+03  0.50400001928E-02 0.  1.
    10030    2    1    2    0    0  0.00000000000E+00  0.00000000000E+00 -0.19855346398E+03  0.15117278954E+04  0.14986319600E+04 0.  0.
        2    1    3    3  502    0  0.61549417835E+02 -0.65032855116E+03  0.27102635922E+03  0.70722757489E+03  0.25500000920E-02 0. -1.
       -2    1    3    3    0  502 -0.61549417835E+02  0.65032855116E+03 -0.46957982320E+03  0.80450032048E+03  0.25500000920E-02 0.  1.
</event>
<event>
 5   0  0.1700207E-03  0.1367031E+04  0.7818609E-02  0.8978035E-01
       -1   -1    0    0    0  501  0.00000000000E+00  0.00000000000E+00  0.25848165608E+03  0.25848165613E+03  0.50400001928E-02 0.  1.
        1   -1    0    0  501    0  0.00000000000E+00  0.00000000000E+00 -0.18074526247E+04  0.18074526247E+04  0.50400001928E-02 0. -1.
    10030    2    1    2    0    0  0.00000000000E+00  0.00000000000E+00 -0.15489709686E+04  0.20659342808E+04  0.13670308669E+04 0.  0.
        2    1    3    3  502    0  0.20389522765E+03  0.12809532736E+03 -0.17412310464E+04  0.17578018187E+04  0.25500000920E-02 0. -1.
       -2    1    3    3    0  502 -0.20389522765E+03 -0.12809532736E+03  0.19226007776E+03  0.30813246219E+03  0.25500000920E-02 0.  1.
</event>
<event>
 5   0  0.1586022E-03  0.1425623E+04  0.7818609E-02  0.8935478E-01
       -1   -1    0    0    0  501  0.00000000000E+00  0.00000000000E+00  0.62397257313E+03  0.62397257315E+03  0.50400001928E-02 0. -1.
        1   -1    0    0  501    0  0.00000000000E+00  0.00000000000E+00 -0.81429850972E+03  0.81429850974E+03  0.50400001928E-02 0.  1.
    10030    2    1    2    0    0  0.00000000000E+00  0.00000000000E+00 -0.19032593659E+03  0.14382710829E+04  0.14256225818E+04 0.  0.
        1    1    3    3  502    0 -0.46386284054E+03 -0.29756614004E+03 -0.55126428242E+03  0.77949127746E+03  0.50400001928E-02 0.  1.
       -1    1    3    3    0  502  0.46386284054E+03  0.29756614004E+03  0.36093834583E+03  0.65877980543E+03  0.50400001928E-02 0. -1.
</event>
<event>
 5   0  0.1560957E-03  0.1387981E+04  0.7818609E-02  0.8962564E-01
        1   -1    0    0  501    0  0.00000000000E+00  0.00000000000E+00  0.18638729956E+04  0.18638729956E+04  0.50400001928E-02 0. -1.
       -1   -1    0    0    0  501  0.00000000000E+00  0.00000000000E+00 -0.25839911690E+03  0.25839911695E+03  0.50400001928E-02 0.  1.
    10030    2    1    2    0    0  0.00000000000E+00  0.00000000000E+00  0.16054738787E+04  0.21222721126E+04  0.13879814641E+04 0.  0.
        5    1    3    3  502    0 -0.16009463241E+03 -0.58111874455E+03  0.13285821588E+04  0.14589317767E+04  0.46999998093E+01 0. -1.
       -5    1    3    3    0  502  0.16009463241E+03  0.58111874455E+03  0.27689171997E+03  0.66334033586E+03  0.46999998093E+01 0.  1.
</event>
<event>
 5   0  0.1631380E-03  0.1276481E+04  0.7818609E-02  0.9048427E-01
       -1   -1    0    0    0  501  0.00000000000E+00  0.00000000000E+00  0.76190597445E+03  0.76190597447E+03  0.50400001928E-02 0. -1.
        1   -1    0    0  501    0  0.00000000000E+00  0.00000000000E+00 -0.53464721799E+03  0.53464721802E+03  0.50400001928E-02 0.  1.
    10030    2    1    2    0    0  0.00000000000E+00  0.00000000000E+00  0.22725875646E+03  0.12965531925E+04  0.12764809589E+04 0.  0.
        3    1    3    3  502    0 -0.86371264590E+02  0.31208655374E+03 -0.44501261867E+03  0.55035829543E+03  0.10100000352E+00 0.  1.
       -3    1    3    3    0  502  0.86371264590E+02 -0.31208655374E+03  0.67227137513E+03  0.74619489705E+03  0.10100000352E+00 0. -1.
</event>
<event>
 5   0  0.3006737E-03  0.1428315E+04  0.7818609E-02  0.8933574E-01
        2   -1    0    0  501    0  0.00000000000E+00  0.00000000000E+00  0.68443472764E+03  0.68443472765E+03  0.25500000920E-02 0. -1.
       -2   -1    0    0    0  501  0.00000000000E+00  0.00000000000E+00 -0.74517143382E+03  0.74517143382E+03  0.25500000920E-02 0.  1.
    10030    2    1    2    0    0  0.00000000000E+00  0.00000000000E+00 -0.60736706177E+02  0.14296061615E+04  0.14283153816E+04 0.  0.
        1    1    3    3  502    0 -0.31000528191E+03 -0.62680012585E+03  0.11481284104E+03  0.70863506903E+03  0.50400001928E-02 0.  1.
       -1    1    3    3    0  502  0.31000528191E+03  0.62680012585E+03 -0.17554954722E+03  0.72097109243E+03  0.50400001928E-02 0. -1.
</event>
<event>
 5   0  0.1560957E-03  0.1412822E+04  0.7818609E-02  0.8944589E-01
       -1   -1    0    0    0  501  0.00000000000E+00  0.00000000000E+00  0.84610264548E+03  0.84610264549E+03  0.50400001928E-02 0. -1.
        1   -1    0    0  501    0  0.00000000000E+00  0.00000000000E+00 -0.58978254267E+03  0.58978254270E+03  0.50400001928E-02 0.  1.
    10030    2    1    2    0    0  0.00000000000E+00  0.00000000000E+00  0.25632010280E+03  0.14358851882E+04  0.14128220973E+04 0.  0.
        5    1    3    3  502    0  0.69502855794E+03 -0.21929398248E+02  0.25448257810E+03  0.74049244926E+03  0.46999998093E+01 0. -1.
       -5    1    3    3    0  502 -0.69502855794E+03  0.21929398248E+02  0.18375247059E+01  0.69539273893E+03  0.46999998093E+01 0.  1.
</event>
<event>
 5   0  0.1586022E-03  0.1284281E+04  0.7818609E-02  0.9042124E-01
       -1   -1    0    0    0  501  0.00000000000E+00  0.00000000000E+00  0.34637608376E+03  0.34637608380E+03  0.50400001928E-02 0. -1.
        1   -1    0    0  501    0  0.00000000000E+00  0.00000000000E+00 -0.11904527506E+04  0.11904527506E+04  0.50400001928E-02 0.  1.
    10030    2    1    2    0    0  0.00000000000E+00  0.00000000000E+00 -0.84407666682E+03  0.15368288344E+04  0.12842809065E+04 0.  0.
        1    1    3    3  502    0  0.45388596037E+03  0.76124793597E+02  0.11383560530E+03  0.47409492117E+03  0.50400001928E-02 0.  1.
       -1    1    3    3    0  502 -0.45388596037E+03 -0.76124793597E+02 -0.95791227211E+03  0.10627339132E+04  0.50400001928E-02 0. -1.
</event>
<event>
 5   0  0.1586022E-03  0.1415635E+04  0.7818609E-02  0.8942578E-01
        1   -1    0    0  501    0  0.00000000000E+00  0.00000000000E+00  0.17032871114E+04  0.17032871114E+04  0.50400001928E-02 0.  1.
       -1   -1    0    0    0  501  0.00000000000E+00  0.00000000000E+00 -0.29414052004E+03  0.29414052009E+03  0.50400001928E-02 0. -1.
    10030    2    1    2    0    0  0.00000000000E+00  0.00000000000E+00  0.14091465913E+04  0.19974276315E+04  0.14156352027E+04 0.  0.
        1    1    3    3  502    0 -0.28179960504E+03 -0.29774133602E+03  0.15187259469E+04  0.15730827767E+04  0.50400001928E-02 0.  1.
       -1    1    3    3    0  502  0.28179960504E+03  0.29774133602E+03 -0.10957935556E+03  0.42434485476E+03  0.50400001928E-02 0. -1.
</event>
<event>
 5   0  0.1644571E-03  0.1598132E+04  0.7818609E-02  0.8821696E-01
       -1   -1    0    0    0  501  0.00000000000E+00  0.00000000000E+00  0.43869323328E+03  0.43869323331E+03  0.50400001928E-02 0. -1.
        1   -1    0    0  501    0  0.00000000000E+00  0.00000000000E+00 -0.14554737373E+04  0.14554737373E+04  0.50400001928E-02 0.  1.
    10030    2    1    2    0    0  0.00000000000E+00  0.00000000000E+00 -0.10167805041E+04  0.18941669707E+04  0.15981320093E+04 0.  0.
        4    1    3    3  502    0 -0.25205278471E+03 -0.19256259671E+03  0.36087820673E+03  0.48046399753E+03  0.12699999809E+01 0. -1.
       -4    1    3    3    0  502  0.25205278471E+03  0.19256259671E+03 -0.13776587108E+04  0.14137029731E+04  0.12699999809E+01 0.  1.
</event>
<event>
 5   0  0.1631380E-03  0.1319712E+04  0.7818609E-02  0.9014078E-01
        1   -1    0    0  501    0  0.00000000000E+00  0.00000000000E+00  0.13535328740E+04  0.13535328740E+04  0.50400001928E-02 0. -1.
       -1   -1    0    0    0  501  0.00000000000E+00  0.00000000000E+00 -0.32168423258E+03  0.32168423262E+03  0.50400001928E-02 0.  1.
    10030    2    1    2    0    0  0.00000000000E+00  0.00000000000E+00  0.10318486414E+04  0.16752171066E+04  0.13197123685E+04 0.  0.
        3    1    3    3  502    0  0.61379469357E+03  0.23129642206E+03  0.60718044349E+03  0.89381768939E+03  0.10100000352E+00 0.  1.
       -3    1    3    3    0  502 -0.61379469357E+03 -0.23129642206E+03  0.42466819789E+03  0.78139941721E+03  0.10100000352E+00 0. -1.
</event>
<event>
 5   0  0.3006737E-03  0.1454353E+04  0.7818609E-02  0.8915388E-01
       -2   -1    0    0    0  501  0.00000000000E+00  0.00000000000E+00  0.46765007916E+03  0.46765007917E+03  0.25500000920E-02 0.  1.
        2   -1    0    0  501    0  0.00000000000E+00  0.00000000000E+00 -0.11307300332E+04  0.11307300332E+04  0.25500000920E-02 0. -1.
    10030    2    1    2    0    0  0.00000000000E+00  0.00000000000E+00 -0.66307995400E+03  0.15983801123E+04  0.14543534502E+04 0.  0.
        1    1    3    3  502    0 -0.14717107441E+03  0.54270646449E+03 -0.83828327271E+03  0.10094099648E+04  0.50400001928E-02 0. -1.
       -1    1    3    3    0  502  0.14717107441E+03 -0.54270646449E+03  0.17520331871E+03  0.58897014751E+03  0.50400001928E-02 0.  1.
</event>
<event>
 5   0  0.2993993E-03  0.1401917E+04  0.7818609E-02  0.8952432E-01
       -2   -1    0    0    0  501  0.00000000000E+00  0.00000000000E+00  0.85494325854E+03  0.85494325855E+03  0.25500000920E-02 0.  1.
        2   -1    0    0  501    0  0.00000000000E+00  0.00000000000E+00 -0.57470817721E+03  0.57470817722E+03  0.25500000920E-02 0. -1.
    10030    2    1    2    0    0  0.00000000000E+00  0.00000000000E+00  0.28023508133E+03  0.14296514358E+04  0.14019170899E+04 0.  0.
        3    1    3    3  502    0  0.26686445128E+03 -0.83869953550E+02 -0.51531992447E+03  0.58634924680E+03  0.10100000352E+00 0. -1.
       -3    1    3    3    0  502 -0.26686445128E+03  0.83869953550E+02  0.79555500580E+03  0.84330218897E+03  0.10100000352E+00 0.  1.
</event>
<event>
 5   0  0.1631380E-03  0.1247850E+04  0.7818609E-02  0.9071975E-01
        1   -1    0    0  501    0  0.00000000000E+00  0.00000000000E+00  0.57046948417E+03  0.57046948419E+03  0.50400001928E-02 0.  1.
       -1   -1    0    0    0  501  0.00000000000E+00  0.00000000000E+00 -0.68238947220E+03  0.68238947222E+03  0.50400001928E-02 0. -1.
    10030    2    1    2    0    0  0.00000000000E+00  0.00000000000E+00 -0.11191998803E+03  0.12528589564E+04  0.12478499433E+04 0.  0.
        3    1    3    3  502    0  0.32308148744E+03  0.31009608002E+03  0.38022738784E+03  0.58746412915E+03  0.10100000352E+00 0.  1.
       -3    1    3    3    0  502 -0.32308148744E+03 -0.31009608002E+03 -0.49214737587E+03  0.66539482726E+03  0.10100000352E+00 0. -1.
</event>
<event>
 5   0  0.2889469E-03  0.1405377E+04  0.7818609E-02  0.8949936E-01
        2   -1    0    0  501    0  0.00000000000E+00  0.00000000000E+00  0.66876955599E+03  0.66876955600E+03  0.25500000920E-02 0.  1.
       -2   -1    0    0    0  501  0.00000000000E+00  0.00000000000E+00 -0.73832780991E+03  0.73832780992E+03  0.25500000920E-02 0. -1.
    10030    2    1    2    0    0  0.00000000000E+00  0.00000000000E+00 -0.69558253917E+02  0.14070973659E+04  0.14053770478E+04 0.  0.
        5    1    3    3  502    0 -0.28265808957E+03 -0.62300702799E+03  0.12577838518E+03  0.69561170541E+03  0.46999998093E+01 0.  1.
       -5    1    3    3    0  502  0.28265808957E+03  0.62300702799E+03 -0.19533663910E+03  0.71148566050E+03  0.46999998093E+01 0. -1.
</event>
<event>
 5   0  0.1644571E-03  0.1477481E+04  0.7818609E-02  0.8899568E-01
        1   -1    0    0  501    0  0.00000000000E+00  0.00000000000E+00  0.18353726446E+04  0.18353726447E+04  0.50400001928E-02 0.  1.
       -1   -1    0    0    0  501  0.00000000000E+00  0.00000000000E+00 -0.29734411375E+03  0.29734411379E+03  0.50400001928E-02 0. -1.
    10030    2    1    2    0    0  0.00000000000E+00  0.00000000000E+00  0.15380285309E+04  0.21327167584E+04  0.14774806293E+04 0.  0.
        4    1    3    3  502    0 -0.14220745646E+03  0.48766715402E+03  0.15432556024E+04  0.16247097221E+04  0.12699999809E+01 0.  1.
       -4    1    3    3    0  502  0.14220745646E+03 -0.48766715402E+03 -0.52270715419E+01  0.50800703633E+03  0.12699999809E+01 0. -1.
</event>
<event>
 5   0  0.1700207E-03  0.1352312E+04  0.7818609E-02  0.8989080E-01
        1   -1    0    0  501    0  0.00000000000E+00  0.00000000000E+00  0.12292133799E+04  0.12292133799E+04  0.50400001928E-02 0.  1.
       -1   -1    0    0    0  501  0.00000000000E+00  0.00000000000E+00 -0.37193471961E+03  0.37193471965E+03  0.50400001928E-02 0. -1.
    10030    2    1    2    0    0  0.00000000000E+00  0.00000000000E+00  0.85727866025E+03  0.16011480995E+04  0.13523122921E+04 0.  0.
        2    1    3    3  502    0  0.34317315970E+03  0.56322994425E+03  0.25226055074E+03  0.70613821105E+03  0.25500000920E-02 0. -1.
       -2    1    3    3    0  502 -0.34317315970E+03 -0.56322994425E+03  0.60501810951E+03  0.89500988848E+03  0.25500000920E-02 0.  1.
</event>
<event>
 5   0  0.1586022E-03  0.1385469E+04  0.7818609E-02  0.8964405E-01
       -1   -1    0    0    0  501  0.00000000000E+00  0.00000000000E+00  0.10559950045E+04  0.10559950045E+04  0.50400001928E-02 0. -1.
        1   -1    0    0  501    0  0.00000000000E+00  0.00000000000E+00 -0.45443489671E+03  0.45443489674E+03  0.50400001928E-02 0.  1.
    10030    2    1    2    0    0  0.00000000000E+00  0.00000000000E+00  0.60156010777E+03  0.15104299012E+04  0.13854688460E+04 0.  0.
        1    1    3    3  502    0 -0.42321616967E+03 -0.75837951106E+02 -0.29136460557E+03  0.51938103017E+03  0.50400001928E-02 0.  1.
       -1    1    3    3    0  502  0.42321616967E+03  0.75837951106E+02  0.89292471335E+03  0.99104887106E+03  0.50400001928E-02 0. -1.
</event>
<event>
 5   0  0.1560957E-03  0.1419210E+04  0.7818609E-02  0.8940030E-01
        1   -1    0    0  501    0  0.00000000000E+00  0.00000000000E+00  0.46043181177E+03  0.46043181179E+03  0.50400001928E-02 0.  1.
       -1   -1    0    0    0  501  0.00000000000E+00  0.00000000000E+00 -0.10936238159E+04  0.10936238159E+04  0.50400001928E-02 0. -1.
    10030    2    1    2    0    0  0.00000000000E+00  0.00000000000E+00 -0.63319200410E+03  0.15540556277E+04  0.14192099139E+04 0.  0.
        5    1    3    3  502    0 -0.41517761150E+02 -0.70836624242E+03 -0.31302298527E+03  0.77557200645E+03  0.46999998093E+01 0. -1.
       -5    1    3    3    0  502  0.41517761150E+02  0.70836624242E+03 -0.32016901882E+03  0.77848362122E+03  0.46999998093E+01 0.  1.
</event>
<event>
 5   0  0.2889469E-03  0.1016636E+04  0.7818609E-02  0.9290485E-01
        2   -1    0    0  501    0  0.00000000000E+00  0.00000000000E+00  0.55384711392E+03  0.55384711393E+03  0.25500000920E-02 0.  1.
       -2   -1    0    0    0  501  0.00000000000E+00  0.00000000000E+00 -0.46653144089E+03  0.46653144090E+03  0.25500000920E-02 0. -1.
    10030    2    1    2    0    0  0.00000000000E+00  0.00000000000E+00  0.87315673029E+02  0.10203785548E+04  0.10166358091E+04 0.  0.
        5    1    3    3  502    0  0.50082963444E+02 -0.27694396327E+03  0.46848758412E+03  0.54654274168E+03  0.46999998093E+01 0.  1.
       -5    1    3    3    0  502 -0.50082963444E+02  0.27694396327E+03 -0.38117191109E+03  0.47383581314E+03  0.46999998093E+01 0. -1.
</event>
<event>
 5   0  0.2760807E-03  0.1436633E+04  0.7818609E-02  0.8927720E-01
        2   -1    0    0  501    0  0.00000000000E+00  0.00000000000E+00  0.50753957045E+03  0.50753957045E+03  0.25500000920E-02 0. -1.
       -2   -1    0    0    0  501  0.00000000000E+00  0.00000000000E+00 -0.10166278780E+04  0.10166278780E+04  0.25500000920E-02 0.  1.
    10030    2    1    2    0    0  0.00000000000E+00  0.00000000000E+00 -0.50908830755E+03  0.15241674485E+04  0.14366333931E+04 0.  0.
        4    1    3    3  502    0 -0.22775662586E+03  0.19054156180E+03 -0.94845895168E+03  0.99385872402E+03  0.12699999809E+01 0.  1.
       -4    1    3    3    0  502  0.22775662586E+03 -0.19054156180E+03  0.43937064412E+03  0.53030872443E+03  0.12699999809E+01 0. -1.
</event>
<event>
 5   0  0.1560957E-03  0.1399151E+04  0.7818609E-02  0.8954433E-01
       -1   -1    0    0    0  501  0.00000000000E+00  0.00000000000E+00  0.87547216250E+03  0.87547216251E+03  0.50400001928E-02 0. -1.
        1   -1    0    0  501    0  0.00000000000E+00  0.00000000000E+00 -0.55901973166E+03  0.55901973168E+03  0.50400001928E-02 0.  1.
    10030    2    1    2    0    0  0.00000000000E+00  0.00000000000E+00  0.31645243084E+03  0.14344918942E+04  0.13991514763E+04 0.  0.
        5    1    3    3  502    0  0.26366773056E+03  0.55572394116E+03  0.49986097036E+03  0.79261141211E+03  0.46999998093E+01 0. -1.
       -5    1    3    3    0  502 -0.26366773056E+03 -0.55572394116E+03 -0.18340853952E+03  0.64188048209E+03  0.46999998093E+01 0.  1.
</event>
<event>
 5   0  0.1104538E-03  0.1385643E+04  0.7818609E-02  0.8964277E-01
       -3   -1    0    0    0  501  0.00000000000E+00  0.00000000000E+00  0.32011646037E+03  0.32011647630E+03  0.10100000352E+00 0.  1.
        3   -1    0    0  501    0  0.00000000000E+00  0.00000000000E+00 -0.14994587103E+04  0.14994587137E+04  0.10100000352E+00 0. -1.
    10030    2    1    2    0    0  0.00000000000E+00  0.00000000000E+00 -0.11793422499E+04  0.18195751900E+04  0.13856427136E+04 0.  0.
        2    1    3    3  502    0  0.60885059008E+03  0.10904293596E+03 -0.17982103008E+03  0.64414672691E+03  0.25500000920E-02 0.  1.
       -2    1    3    3    0  502 -0.60885059008E+03 -0.10904293596E+03 -0.99952121986E+03  0.11754284631E+04  0.25500000920E-02 0. -1.
</event>
<event>
 5   0  0.3006737E-03  0.1393936E+04  0.7818609E-02  0.8958219E-01
        2   -1    0    0  501    0  0.00000000000E+00  0.00000000000E+00  0.98198520790E+03  0.98198520790E+03  0.25500000920E-02 0.  1.
       -2   -1    0    0    0  501  0.00000000000E+00  0.00000000000E+00 -0.49467611892E+03  0.49467611893E+03  0.25500000920E-02 0. -1.
    10030    2    1    2    0    0  0.00000000000E+00  0.00000000000E+00  0.48730908898E+03  0.14766613268E+04  0.13939363421E+04 0.  0.
        1    1    3    3  502    0 -0.49387008019E+03 -0.45010980991E+03  0.45354988061E+03  0.80759766673E+03  0.50400001928E-02 0.  1.
       -1    1    3    3    0  502  0.49387008019E+03  0.45010980991E+03  0.33759208371E+02  0.66906366010E+03  0.50400001928E-02 0. -1.
</event>
<event>
 5   0  0.2760807E-03  0.1400969E+04  0.7818609E-02  0.8953117E-01
       -2   -1    0    0    0  501  0.00000000000E+00  0.00000000000E+00  0.30426142328E+03  0.30426142329E+03  0.25500000920E-02 0. -1.
        2   -1    0    0  501    0  0.00000000000E+00  0.00000000000E+00 -0.16126874635E+04  0.16126874635E+04  0.25500000920E-02 0.  1.
    10030    2    1    2    0    0  0.00000000000E+00  0.00000000000E+00 -0.13084260402E+04  0.19169488868E+04  0.14009690688E+04 0.  0.
        4    1    3    3  502    0  0.35450578779E+03 -0.69249112245E+02 -0.14754304662E+04  0.15190017994E+04  0.12699999809E+01 0.  1.
       -4    1    3    3    0  502 -0.35450578779E+03  0.69249112245E+02  0.16700442601E+03  0.39794708735E+03  0.12699999809E+01 0. -1.
</event>
<event>
 5   0  0.2760807E-03  0.1029890E+04  0.7818609E-02  0.9276356E-01
       -2   -1    0    0    0  501  0.00000000000E+00  0.00000000000E+00  0.36993377747E+03  0.36993377748E+03  0.25500000920E-02 0. -1.
        2   -1    0    0  501    0  0.00000000000E+00  0.00000000000E+00 -0.71679997746E+03  0.71679997746E+03  0.25500000920E-02 0.  1.
    10030    2    1    2    0    0  0.00000000000E+00  0.00000000000E+00 -0.34686619999E+03  0.10867337549E+04  0.10298903308E+04 0.  0.
        4    1    3    3  502    0  0.71539129708E+02 -0.39415864588E+02 -0.70991939271E+03  0.71460381647E+03  0.12699999809E+01 0.  1.
       -4    1    3    3    0  502 -0.71539129708E+02  0.39415864588E+02  0.36305319272E+03  0.37212993847E+03  0.12699999809E+01 0. -1.
</event>
<event>
 5   0  0.1644571E-03  0.1486896E+04  0.7818609E-02  0.8893214E-01
       -1   -1    0    0    0  501  0.00000000000E+00  0.00000000000E+00  0.80828748849E+03  0.80828748850E+03  0.50400001928E-02 0. -1.
        1   -1    0    0  501    0  0.00000000000E+00  0.00000000000E+00 -0.68380985532E+03  0.68380985534E+03  0.50400001928E-02 0.  1.
    10030    2    1    2    0    0  0.00000000000E+00  0.00000000000E+00  0.12447763316E+03  0.14920973438E+04  0.14868960294E+04 0.  0.
        4    1    3    3  502    0  0.58471807855E+03 -0.45108322830E+03  0.14822418520E+03  0.75322196743E+03  0.12699999809E+01 0. -1.
       -4    1    3    3    0  502 -0.58471807855E+03  0.45108322830E+03 -0.23746552041E+02  0.73887537642E+03  0.12699999809E+01 0.  1.
</event>
<event>
 5   0  0.1631380E-03  0.1458531E+04  0.7818609E-02  0.8912507E-01
       -1   -1    0    0    0  501  0.00000000000E+00  0.00000000000E+00  0.43544000358E+03  0.43544000361E+03  0.50400001928E-02 0. -1.
        1   -1    0    0  501    0  0.00000000000E+00  0.00000000000E+00 -0.12213582407E+04  0.12213582407E+04  0.50400001928E-02 0.  1.
    10030    2    1    2    0    0  0.00000000000E+00  0.00000000000E+00 -0.78591823715E+03  0.16567982444E+04  0.14585310922E+04 0.  0.
        3    1    3    3  502    0 -0.55136020773E+03 -0.21284256670E+03 -0.87826874655E+03  0.10586104280E+04  0.10100000352E+00 0.  1.
       -3    1    3    3    0  502  0.55136020773E+03  0.21284256670E+03  0.92350509397E+02  0.59818781637E+03  0.10100000352E+00 0. -1.
</event>
<event>
 5   0  0.1631380E-03  0.1378715E+04  0.7818609E-02  0.8969372E-01
        1   -1    0    0  501    0  0.00000000000E+00  0.00000000000E+00  0.15349576584E+04  0.15349576584E+04  0.50400001928E-02 0.  1.
       -1   -1    0    0    0  501  0.00000000000E+00  0.00000000000E+00 -0.30959384413E+03  0.30959384418E+03  0.50400001928E-02 0. -1.
    10030    2    1    2    0    0  0.00000000000E+00  0.00000000000E+00  0.12253638142E+04  0.18445515025E+04  0.13787145347E+04 0.  0.
        3    1    3    3  502    0 -0.41287161093E+03 -0.45620218073E+03  0.19679763134E+03  0.64599745720E+03  0.10100000352E+00 0. -1.
       -3    1    3    3    0  502  0.41287161093E+03  0.45620218073E+03  0.10285661829E+04  0.11985540453E+04  0.10100000352E+00 0.  1.
</event>
<event>
 5   0  0.2760807E-03  0.1421032E+04  0.7818609E-02  0.8938734E-01
       -2   -1    0    0    0  501  0.00000000000E+00  0.00000000000E+00  0.82131089493E+03  0.82131089494E+03  0.25500000920E-02 0. -1.
        2   -1    0    0  501    0  0.00000000000E+00  0.00000000000E+00 -0.61466732728E+03  0.61466732729E+03  0.25500000920E-02 0.  1.
    10030    2    1    2    0    0  0.00000000000E+00  0.00000000000E+00  0.20664356765E+03  0.14359782222E+04  0.14210319809E+04 0.  0.
        4    1    3    3  502    0  0.70583049666E+03  0.39582105932E+02  0.17525991663E+03  0.72834132411E+03  0.12699999809E+01 0.  1.
       -4    1    3    3    0  502 -0.70583049666E+03 -0.39582105932E+02  0.31383651015E+02  0.70763689812E+03  0.12699999809E+01 0. -1.
</event>
<event>
 5   0  0.1644571E-03  0.1535258E+04  0.7818609E-02  0.8861339E-01
       -1   -1    0    0    0  501  0.00000000000E+00  0.00000000000E+00  0.63777550434E+03  0.63777550436E+03  0.50400001928E-02 0.  1.
        1   -1    0    0  501    0  0.00000000000E+00  0.00000000000E+00 -0.92392113116E+03  0.92392113117E+03  0.50400001928E-02 0. -1.
    10030    2    1    2    0    0  0.00000000000E+00  0.00000000000E+00 -0.28614562681E+03  0.15616966355E+04  0.15352579789E+04 0.  0.
        4    1    3    3  502    0 -0.28746517728E+03 -0.18937534654E+02 -0.86684380500E+03  0.91346300064E+03  0.12699999809E+01 0. -1.
       -4    1    3    3    0  502  0.28746517728E+03  0.18937534654E+02  0.58069817819E+03  0.64823363490E+03  0.12699999809E+01 0.  1.
</event>
<event>
 5   0  0.3006737E-03  0.1393932E+04  0.7818609E-02  0.8958223E-01
       -2   -1    0    0    0  501  0.00000000000E+00  0.00000000000E+00  0.45659792615E+03  0.45659792616E+03  0.25500000920E-02 0. -1.
        2   -1    0    0  501    0  0.00000000000E+00  0.00000000000E+00 -0.10638714500E+04  0.10638714501E+04  0.25500000920E-02 0.  1.
    10030    2    1    2    0    0  0.00000000000E+00  0.00000000000E+00 -0.60727352390E+03  0.15204693762E+04  0.13939318460E+04 0.  0.
        1    1    3    3  502    0 -0.68525901537E+03  0.78306085731E+02 -0.41298542459E+03  0.80390840409E+03  0.50400001928E-02 0. -1.
       -1    1    3    3    0  502  0.68525901537E+03 -0.78306085731E+02 -0.19428809931E+03  0.71656097212E+03  0.50400001928E-02 0.  1.
</event>
<event>
 5   0  0.1560957E-03  0.1378010E+04  0.7818609E-02  0.8969891E-01
       -1   -1    0    0    0  501  0.00000000000E+00  0.00000000000E+00  0.33075593820E+03  0.33075593823E+03  0.50400001928E-02 0.  1.
        1   -1    0    0  501    0  0.00000000000E+00  0.00000000000E+00 -0.14352825176E+04  0.14352825176E+04  0.50400001928E-02 0. -1.
    10030    2    1    2    0    0  0.00000000000E+00  0.00000000000E+00 -0.11045265794E+04  0.17660384558E+04  0.13780104727E+04 0.  0.
        5    1    3    3  502    0 -0.51469958236E+03 -0.27618493152E+03 -0.10205462518E+04  0.11758956240E+04  0.46999998093E+01 0. -1.
       -5    1    3    3    0  502  0.51469958236E+03  0.27618493152E+03 -0.83980327533E+02  0.59014283177E+03  0.46999998093E+01 0.  1.
</event>
<event>
 5   0  0.2993993E-03  0.1379571E+04  0.7818609E-02  0.8968740E-01
        2   -1    0    0  501    0  0.00000000000E+00  0.00000000000E+00  0.27672985330E+04  0.27672985330E+04  0.25500000920E-02 0. -1.
       -2   -1    0    0    0  501  0.00000000000E+00  0.00000000000E+00 -0.17193816995E+03  0.17193816997E+03  0.25500000920E-02 0.  1.
    10030    2    1    2    0    0  0.00000000000E+00  0.00000000000E+00  0.25953603631E+04  0.29392367030E+04  0.13795713037E+04 0.  0.
        3    1    3    3  502    0 -0.48975511472E+03 -0.16856071934E+02  0.26341148674E+03  0.55635404294E+03  0.10100000352E+00 0.  1.
       -3    1    3    3    0  502  0.48975511472E+03  0.16856071934E+02  0.23319488763E+04  0.23828826600E+04  0.10100000352E+00 0. -1.
</event>
<event>
 5   0  0.3006737E-03  0.1439447E+04  0.7818609E-02  0.8925750E-01
        2   -1    0    0  501    0  0.00000000000E+00  0.00000000000E+00  0.62741830235E+03  0.62741830235E+03  0.25500000920E-02 0.  1.
       -2   -1    0    0    0  501  0.00000000000E+00  0.00000000000E+00 -0.82560803678E+03  0.82560803679E+03  0.25500000920E-02 0. -1.
    10030    2    1    2    0    0  0.00000000000E+00  0.00000000000E+00 -0.19818973444E+03  0.14530263391E+04  0.14394465504E+04 0.  0.
        1    1    3    3  502    0  0.24554385152E+03 -0.33845831885E+03  0.49222653815E+03  0.64585817445E+03  0.50400001928E-02 0.  1.
       -1    1    3    3    0  502 -0.24554385152E+03  0.33845831885E+03 -0.69041627258E+03  0.80716816469E+03  0.50400001928E-02 0. -1.
</event>
<event>
 5   0  0.1560957E-03  0.1395936E+04  0.7818609E-02  0.8956766E-01
       -1   -1    0    0    0  501  0.00000000000E+00  0.00000000000E+00  0.28533824894E+03  0.28533824899E+03  0.50400001928E-02 0.  1.
        1   -1    0    0  501    0  0.00000000000E+00  0.00000000000E+00 -0.17073044282E+04  0.17073044282E+04  0.50400001928E-02 0. -1.
    10030    2    1    2    0    0  0.00000000000E+00  0.00000000000E+00 -0.14219661793E+04  0.19926426772E+04  0.13959358954E+04 0.  0.
        5    1    3    3  502    0 -0.63502288770E+03  0.27591786166E+03 -0.58529824056E+03  0.90663159811E+03  0.46999998093E+01 0.  1.
       -5    1    3    3    0  502  0.63502288770E+03 -0.27591786166E+03 -0.83666793872E+03  0.10860110791E+04  0.46999998093E+01 0. -1.
</event>
<event>
 5   0  0.1700207E-03  0.1432393E+04  0.7818609E-02  0.8930699E-01
       -1   -1    0    0    0  501  0.00000000000E+00  0.00000000000E+00  0.82927502416E+03  0.82927502418E+03  0.50400001928E-02 0.  1.
        1   -1    0    0  501    0  0.00000000000E+00  0.00000000000E+00 -0.61853684079E+03  0.61853684081E+03  0.50400001928E-02 0. -1.
    10030    2    1    2    0    0  0.00000000000E+00  0.00000000000E+00  0.21073818337E+03  0.14478118650E+04  0.14323926188E+04 0.  0.
        2    1    3    3  502    0 -0.38822469500E+03  0.34227207562E+02 -0.50197116761E+03  0.63550371255E+03  0.25500000920E-02 0. -1.
       -2    1    3    3    0  502  0.38822469500E+03 -0.34227207562E+02  0.71270935098E+03  0.81230815244E+03  0.25500000920E-02 0.  1.
</event>
<event>
 5   0  0.2917809E-03  0.1468583E+04  0.7818609E-02  0.8905618E-01
        2   -1    0    0  501    0  0.00000000000E+00  0.00000000000E+00  0.14949862076E+04  0.14949862076E+04  0.25500000920E-02 0.  1.
       -2   -1    0    0    0  501  0.00000000000E+00  0.00000000000E+00 -0.36066167070E+03  0.36066167071E+03  0.25500000920E-02 0. -1.
    10030    2    1    2    0    0  0.00000000000E+00  0.00000000000E+00  0.11343245369E+04  0.18556478784E+04  0.14685832947E+04 0.  0.
        2    1    3    3  502    0 -0.12163208460E+02  0.36006914989E+03  0.13756319487E+04  0.14220270724E+04  0.25500000920E-02 0.  1.
       -2    1    3    3    0  502  0.12163208460E+02 -0.36006914989E+03 -0.24130741179E+03  0.43362080593E+03  0.25500000920E-02 0. -1.
</event>
<event>
 5   0  0.2917809E-03  0.1291604E+04  0.7818609E-02  0.9036250E-01
       -2   -1    0    0    0  501  0.00000000000E+00  0.00000000000E+00  0.15871069623E+03  0.15871069625E+03  0.25500000920E-02 0.  1.
        2   -1    0    0  501    0  0.00000000000E+00  0.00000000000E+00 -0.26277999434E+04  0.26277999434E+04  0.25500000920E-02 0. -1.
    10030    2    1    2    0    0  0.00000000000E+00  0.00000000000E+00 -0.24690892471E+04  0.27865106396E+04  0.12916035903E+04 0.  0.
        2    1    3    3  502    0 -0.34882049617E+03 -0.11254531019E+03 -0.87426826192E+02  0.37680981322E+03  0.25500000920E-02 0.  1.
       -2    1    3    3    0  502  0.34882049617E+03  0.11254531019E+03 -0.23816624209E+04  0.24097008264E+04  0.25500000920E-02 0. -1.
</event>
<event>
 5   0  0.1631380E-03  0.1401400E+04  0.7818609E-02  0.8952806E-01
       -1   -1    0    0    0  501  0.00000000000E+00  0.00000000000E+00  0.35340968906E+03  0.35340968910E+03  0.50400001928E-02 0. -1.
        1   -1    0    0  501    0  0.00000000000E+00  0.00000000000E+00 -0.13892664060E+04  0.13892664060E+04  0.50400001928E-02 0.  1.
    10030    2    1    2    0    0  0.00000000000E+00  0.00000000000E+00 -0.10358567170E+04  0.17426760951E+04  0.14013995984E+04 0.  0.
        3    1    3    3  502    0 -0.66292843508E+03 -0.20664030807E+03 -0.63462029736E+03  0.94070040873E+03  0.10100000352E+00 0.  1.
       -3    1    3    3    0  502  0.66292843508E+03  0.20664030807E+03 -0.40123641961E+03  0.80197568640E+03  0.10100000352E+00 0. -1.
</event>
<event>
 5   0  0.1700207E-03  0.1312131E+04  0.7818609E-02  0.9020000E-01
        1   -1    0    0  501    0  0.00000000000E+00  0.00000000000E+00  0.71904410224E+03  0.71904410226E+03  0.50400001928E-02 0.  1.
       -1   -1    0    0    0  501  0.00000000000E+00  0.00000000000E+00 -0.59860291860E+03  0.59860291862E+03  0.50400001928E-02 0. -1.
    10030    2    1    2    0    0  0.00000000000E+00  0.00000000000E+00  0.12044118364E+03  0.13176470209E+04  0.13121309359E+04 0.  0.
        2    1    3    3  502    0  0.19056678052E+03  0.51425606383E+03 -0.30135822553E+03  0.62577294375E+03  0.25500000920E-02 0. -1.
       -2    1    3    3    0  502 -0.19056678052E+03 -0.51425606383E+03  0.42179940917E+03  0.69187407714E+03  0.25500000920E-02 0.  1.
</event>
<event>
 5   0  0.3006737E-03  0.1406544E+04  0.7818609E-02  0.8949095E-01
       -2   -1    0    0    0  501  0.00000000000E+00  0.00000000000E+00  0.42219542750E+03  0.42219542750E+03  0.25500000920E-02 0.  1.
        2   -1    0    0  501    0  0.00000000000E+00  0.00000000000E+00 -0.11714759421E+04  0.11714759421E+04  0.25500000920E-02 0. -1.
    10030    2    1    2    0    0  0.00000000000E+00  0.00000000000E+00 -0.74928051458E+03  0.15936713696E+04  0.14065443984E+04 0.  0.
        1    1    3    3  502    0  0.16075256906E+03  0.35265851143E+03  0.29027420864E+03  0.48421950639E+03  0.50400001928E-02 0.  1.
       -1    1    3    3    0  502 -0.16075256906E+03 -0.35265851143E+03 -0.10395547232E+04  0.11094518632E+04  0.50400001928E-02 0. -1.
</event>
<event>
 5   0  0.1644571E-03  0.1422035E+04  0.7818609E-02  0.8938021E-01
        1   -1    0    0  501    0  0.00000000000E+00  0.00000000000E+00  0.90389254147E+03  0.90389254149E+03  0.50400001928E-02 0. -1.
       -1   -1    0    0    0  501  0.00000000000E+00  0.00000000000E+00 -0.55929899667E+03  0.55929899669E+03  0.50400001928E-02 0.  1.
    10030    2    1    2    0    0  0.00000000000E+00  0.00000000000E+00  0.34459354480E+03  0.14631915382E+04  0.14220354307E+04 0.  0.
        4    1    3    3  502    0 -0.27981854174E+03 -0.65358002735E+03  0.16313340026E+03  0.72943772019E+03  0.12699999809E+01 0. -1.
       -4    1    3    3    0  502  0.27981854174E+03  0.65358002735E+03  0.18146014454E+03  0.73375381799E+03  0.12699999809E+01 0.  1.
</event>
<event>
 5   0  0.3006737E-03  0.1231020E+04  0.7818609E-02  0.9086130E-01
        2   -1    0    0  501    0  0.00000000000E+00  0.00000000000E+00  0.63086988610E+03  0.63086988610E+03  0.25500000920E-02 0.  1.
       -2   -1    0    0    0  501  0.00000000000E+00  0.00000000000E+00 -0.60052404202E+03  0.60052404202E+03  0.25500000920E-02 0. -1.
    10030    2    1    2    0    0  0.00000000000E+00  0.00000000000E+00  0.30345844080E+02  0.12313939281E+04  0.12310199576E+04 0.  0.
        1    1    3    3  502    0 -0.91117939897E+02  0.21686422785E+03 -0.55378802149E+03  0.60167578068E+03  0.50400001928E-02 0. -1.
       -1    1    3    3    0  502  0.91117939897E+02 -0.21686422785E+03  0.58413386557E+03  0.62971814744E+03  0.50400001928E-02 0.  1.
</event>
<event>
 5   0  0.1586022E-03  0.9957116E+03  0.7818609E-02  0.9313261E-01
        1   -1    0    0  501    0  0.00000000000E+00  0.00000000000E+00  0.86564565459E+03  0.86564565460E+03  0.50400001928E-02 0.  1.
       -1   -1    0    0    0  501  0.00000000000E+00  0.00000000000E+00 -0.28633006954E+03  0.28633006958E+03  0.50400001928E-02 0. -1.
    10030    2    1    2    0    0  0.00000000000E+00  0.00000000000E+00  0.57931558505E+03  0.11519757242E+04  0.99571156568E+03 0.  0.
        1    1    3    3  502    0 -0.86731132468E+02  0.33233268306E+03 -0.12731025986E+03  0.36629933642E+03  0.50400001928E-02 0. -1.
       -1    1    3    3    0  502  0.86731132468E+02 -0.33233268306E+03  0.70662584491E+03  0.78567638776E+03  0.50400001928E-02 0.  1.
</event>
<event>
 5   0  0.2760807E-03  0.1380582E+04  0.7818609E-02  0.8967995E-01
        2   -1    0    0  501    0  0.00000000000E+00  0.00000000000E+00  0.75437609235E+03  0.75437609235E+03  0.25500000920E-02 0.  1.
       -2   -1    0    0    0  501  0.00000000000E+00  0.00000000000E+00 -0.63165025234E+03  0.63165025234E+03  0.25500000920E-02 0. -1.
    10030    2    1    2    0    0  0.00000000000E+00  0.00000000000E+00  0.12272584001E+03  0.13860263447E+04  0.13805822672E+04 0.  0.
        4    1    3    3  502    0  0.33919268951E+03 -0.60116464822E+03  0.54290902719E+02  0.69238697988E+03  0.12699999809E+01 0.  1.
       -4    1    3    3    0  502 -0.33919268951E+03  0.60116464822E+03  0.68434937292E+02  0.69363936482E+03  0.12699999809E+01 0. -1.
</event>
<event>
 5   0  0.1104538E-03  0.7255727E+03  0.7818609E-02  0.9674472E-01
       -3   -1    0    0    0  501  0.00000000000E+00  0.00000000000E+00  0.82504026603E+03  0.82504027221E+03  0.10100000352E+00 0. -1.
        3   -1    0    0  501    0  0.00000000000E+00  0.00000000000E+00 -0.15952424029E+03  0.15952427227E+03  0.10100000352E+00 0.  1.
    10030    2    1    2    0    0  0.00000000000E+00  0.00000000000E+00  0.66551602574E+03  0.98456454448E+03  0.72557271292E+03 0.  0.
        2    1    3    3  502    0 -0.24995434550E+03 -0.23953570474E+03  0.18560944178E+03  0.39281725212E+03  0.25500000920E-02 0.  1.
       -2    1    3    3    0  502  0.24995434550E+03  0.23953570474E+03  0.47990658396E+03  0.59174729236E+03  0.25500000920E-02 0. -1.
</event>
<event>
 5   0  0.2993993E-03  0.1388673E+04  0.7818609E-02  0.8962058E-01
       -2   -1    0    0    0  501  0.00000000000E+00  0.00000000000E+00  0.36813856215E+03  0.36813856216E+03  0.25500000920E-02 0.  1.
        2   -1    0    0  501    0  0.00000000000E+00  0.00000000000E+00 -0.13095704891E+04  0.13095704891E+04  0.25500000920E-02 0. -1.
    10030    2    1    2    0    0  0.00000000000E+00  0.00000000000E+00 -0.94143192695E+03  0.16777090513E+04  0.13886733193E+04 0.  0.
        3    1    3    3  502    0  0.65460175302E+03  0.13224957404E+03 -0.70029392268E+03  0.96768021227E+03  0.10100000352E+00 0.  1.
       -3    1    3    3    0  502 -0.65460175302E+03 -0.13224957404E+03 -0.24113800427E+03  0.71002883899E+03  0.10100000352E+00 0. -1.
</event>
<event>
 5   0  0.2917809E-03  0.1412361E+04  0.7818609E-02  0.8944920E-01
        2   -1    0    0  501    0  0.00000000000E+00  0.00000000000E+00  0.66060377710E+03  0.66060377711E+03  0.25500000920E-02 0.  1.
       -2   -1    0    0    0  501  0.00000000000E+00  0.00000000000E+00 -0.75490135262E+03  0.75490135262E+03  0.25500000920E-02 0. -1.
    10030    2    1    2    0    0  0.00000000000E+00  0.00000000000E+00 -0.94297575511E+02  0.14155051297E+04  0.14123606974E+04 0.  0.
        2    1    3    3  502    0  0.29732994677E+03  0.63201377797E+03  0.57218410333E+02  0.70079987106E+03  0.25500000920E-02 0.  1.
       -2    1    3    3    0  502 -0.29732994677E+03 -0.63201377797E+03 -0.15151598584E+03  0.71470525867E+03  0.25500000920E-02 0. -1.
</event>
<event>
 5   0  0.3006737E-03  0.1404992E+04  0.7818609E-02  0.8950213E-01
        2   -1    0    0  501    0  0.00000000000E+00  0.00000000000E+00  0.53241191260E+03  0.53241191261E+03  0.25500000920E-02 0. -1.
       -2   -1    0    0    0  501  0.00000000000E+00  0.00000000000E+00 -0.92691546260E+03  0.92691546260E+03  0.25500000920E-02 0.  1.
    10030    2    1    2    0    0  0.00000000000E+00  0.00000000000E+00 -0.39450354999E+03  0.14593273752E+04  0.14049922908E+04 0.  0.
        1    1    3    3  502    0  0.51145215741E+03  0.87055470307E+02 -0.68921320151E+03  0.86265682713E+03  0.50400001928E-02 0.  1.
       -1    1    3    3    0  502 -0.51145215741E+03 -0.87055470307E+02  0.29470965152E+03  0.59667054808E+03  0.50400001928E-02 0. -1.
</event>
<event>
 5   0  0.1700207E-03  0.1391807E+04  0.7818609E-02  0.8959770E-01
       -1   -1    0    0    0  501  0.00000000000E+00  0.00000000000E+00  0.68372604461E+03  0.68372604463E+03  0.50400001928E-02 0.  1.
        1   -1    0    0  501    0  0.00000000000E+00  0.00000000000E+00 -0.70829792064E+03  0.70829792065E+03  0.50400001928E-02 0. -1.
    10030    2    1    2    0    0  0.00000000000E+00  0.00000000000E+00 -0.24571876028E+02  0.13920239653E+04  0.13918070782E+04 0.  0.
        2    1    3    3  502    0  0.59474385338E+03 -0.32028644906E+03  0.15500660670E+03  0.69305895038E+03  0.25500000920E-02 0. -1.
       -2    1    3    3    0  502 -0.59474385338E+03  0.32028644906E+03 -0.17957848273E+03  0.69896501490E+03  0.25500000920E-02 0.  1.
</event>
<event>
 5   0  0.2917809E-03  0.7413070E+03  0.7818609E-02  0.9649088E-01
       -2   -1    0    0    0  501  0.00000000000E+00  0.00000000000E+00  0.37448090716E+03  0.37448090717E+03  0.25500000920E-02 0.  1.
        2   -1    0    0  501    0  0.00000000000E+00  0.00000000000E+00 -0.36686525529E+03  0.36686525530E+03  0.25500000920E-02 0. -1.
    10030    2    1    2    0    0  0.00000000000E+00  0.00000000000E+00  0.76156518698E+01  0.74134616247E+03  0.74130704465E+03 0.  0.
        2    1    3    3  502    0 -0.21995076860E+03 -0.25795327046E+03  0.15370170273E+03  0.37221290115E+03  0.25500000920E-02 0.  1.
       -2    1    3    3    0  502  0.21995076860E+03  0.25795327046E+03 -0.14608605086E+03  0.36913326132E+03  0.25500000920E-02 0. -1.
</event>
<event>
 5   0  0.1631380E-03  0.1300802E+04  0.7818609E-02  0.9028930E-01
       -1   -1    0    0    0  501  0.00000000000E+00  0.00000000000E+00  0.58979439997E+03  0.58979439999E+03  0.50400001928E-02 0.  1.
        1   -1    0    0  501    0  0.00000000000E+00  0.00000000000E+00 -0.71723497223E+03  0.71723497225E+03  0.50400001928E-02 0. -1.
    10030    2    1    2    0    0  0.00000000000E+00  0.00000000000E+00 -0.12744057226E+03  0.13070293722E+04  0.13008015531E+04 0.  0.
        3    1    3    3  502    0  0.44880645231E+03 -0.44679869768E+03 -0.21263528464E+03  0.66803449190E+03  0.10100000352E+00 0. -1.
       -3    1    3    3    0  502 -0.44880645231E+03  0.44679869768E+03  0.85194712382E+02  0.63899488034E+03  0.10100000352E+00 0.  1.
</event>
<event>
 5   0  0.1644571E-03  0.1056674E+04  0.7818609E-02  0.9248481E-01
        1   -1    0    0  501    0  0.00000000000E+00  0.00000000000E+00  0.32810816027E+03  0.32810816031E+03  0.50400001928E-02 0. -1.
       -1   -1    0    0    0  501  0.00000000000E+00  0.00000000000E+00 -0.85075550149E+03  0.85075550150E+03  0.50400001928E-02 0.  1.
    10030    2    1    2    0    0  0.00000000000E+00  0.00000000000E+00 -0.52264734121E+03  0.11788636618E+04  0.10566736913E+04 0.  0.
        4    1    3    3  502    0  0.43406452177E+03 -0.20070350373E+03 -0.10753854754E+02  0.47834209909E+03  0.12699999809E+01 0. -1.
       -4    1    3    3    0  502 -0.43406452177E+03  0.20070350373E+03 -0.51189348646E+03  0.70052156273E+03  0.12699999809E+01 0.  1.
</event>
<event>
 5   0  0.1700207E-03  0.1403203E+04  0.7818609E-02  0.8951503E-01
       -1   -1    0    0    0  501  0.00000000000E+00  0.00000000000E+00  0.17314470406E+04  0.17314470406E+04  0.50400001928E-02 0. -1.
        1   -1    0    0  501    0  0.00000000000E+00  0.00000000000E+00 -0.28429661245E+03  0.28429661249E+03  0.50400001928E-02 0.  1.
    10030    2    1    2    0    0  0.00000000000E+00  0.00000000000E+00  0.14471504281E+04  0.20157436531E+04  0.14032028055E+04 0.  0.
        2    1    3    3  502    0 -0.16511483761E+03  0.65019947398E+03  0.42839611103E+03  0.79595571078E+03  0.25500000920E-02 0.  1.
       -2    1    3    3    0  502  0.16511483761E+03 -0.65019947398E+03  0.10187543171E+04  0.12197879423E+04  0.25500000920E-02 0. -1.
</event>
<event>
 5   0  0.1560957E-03  0.1334547E+04  0.7818609E-02  0.9002609E-01
        1   -1    0    0  501    0  0.00000000000E+00  0.00000000000E+00  0.40748969024E+03  0.40748969027E+03  0.50400001928E-02 0.  1.
       -1   -1    0    0    0  501  0.00000000000E+00  0.00000000000E+00 -0.10926753919E+04  0.10926753920E+04  0.50400001928E-02 0. -1.
    10030    2    1    2    0    0  0.00000000000E+00  0.00000000000E+00 -0.68518570170E+03  0.15001650822E+04  0.13345470498E+04 0.  0.
        5    1    3    3  502    0 -0.17875025382E+03 -0.35120145767E+03  0.26268885120E+03  0.47362605466E+03  0.46999998093E+01 0.  1.
       -5    1    3    3    0  502  0.17875025382E+03  0.35120145767E+03 -0.94787455290E+03  0.10265390276E+04  0.46999998093E+01 0. -1.
</event>
<event>
 5   0  0.3006737E-03  0.1289458E+04  0.7818609E-02  0.9037967E-01
        2   -1    0    0  501    0  0.00000000000E+00  0.00000000000E+00  0.15335589166E+04  0.15335589166E+04  0.25500000920E-02 0.  1.
       -2   -1    0    0    0  501  0.00000000000E+00  0.00000000000E+00 -0.27105297619E+03  0.27105297620E+03  0.25500000920E-02 0. -1.
    10030    2    1    2    0    0  0.00000000000E+00  0.00000000000E+00  0.12625059405E+04  0.18046118929E+04  0.12894583491E+04 0.  0.
        1    1    3    3  502    0  0.24706663405E+03  0.52498470353E+03  0.10246746886E+04  0.11775436629E+04  0.50400001928E-02 0.  1.
       -1    1    3    3    0  502 -0.24706663405E+03 -0.52498470353E+03  0.23783125185E+03  0.62706822993E+03  0.50400001928E-02 0. -1.
</event>
<event>
 5   0  0.2760807E-03  0.1402921E+04  0.7818609E-02  0.8951707E-01
        2   -1    0    0  501    0  0.00000000000E+00  0.00000000000E+00  0.16658384758E+04  0.16658384758E+04  0.25500000920E-02 0.  1.
       -2   -1    0    0    0  501  0.00000000000E+00  0.00000000000E+00 -0.29537501971E+03  0.29537501972E+03  0.25500000920E-02 0. -1.
    10030    2    1    2    0    0  0.00000000000E+00  0.00000000000E+00  0.13704634561E+04  0.19612134955E+04  0.14029213415E+04 0.  0.
        4    1    3    3  502    0 -0.20475315645E+03  0.64799757589E+03  0.92825291842E+03  0.11504259241E+04  0.12699999809E+01 0.  1.
       -4    1    3    3    0  502  0.20475315645E+03 -0.64799757589E+03  0.44221053769E+03  0.81078757143E+03  0.12699999809E+01 0. -1.
</event>
<event>
 5   0  0.2993993E-03  0.1328515E+04  0.7818609E-02  0.9007253E-01
       -2   -1    0    0    0  501  0.00000000000E+00  0.00000000000E+00  0.19150706065E+03  0.19150706067E+03  0.25500000920E-02 0. -1.
        2   -1    0    0  501    0  0.00000000000E+00  0.00000000000E+00 -0.23040302965E+04  0.23040302965E+04  0.25500000920E-02 0.  1.
    10030    2    1    2    0    0  0.00000000000E+00  0.00000000000E+00 -0.21125232359E+04  0.24955373572E+04  0.13285150654E+04 0.  0.
        3    1    3    3  502    0 -0.58691148098E+02 -0.31997040260E+03  0.31633722391E+02  0.32684309997E+03  0.10100000352E+00 0. -1.
       -3    1    3    3    0  502  0.58691148098E+02  0.31997040260E+03 -0.21441569583E+04  0.21686942572E+04  0.10100000352E+00 0.  1.
</event>
<event>
 5   0  0.1700207E-03  0.1392831E+04  0.7818609E-02  0.8959024E-01
        1   -1    0    0  501    0  0.00000000000E+00  0.00000000000E+00  0.18244130789E+04  0.18244130789E+04  0.50400001928E-02 0. -1.
       -1   -1    0    0    0  501  0.00000000000E+00  0.00000000000E+00 -0.26583608266E+03  0.26583608270E+03  0.50400001928E-02 0.  1.
    10030    2    1    2    0    0  0.00000000000E+00  0.00000000000E+00  0.15585769962E+04  0.20902491616E+04  0.13928313984E+04 0.  0.
        2    1    3    3  502    0 -0.49787978687E+03 -0.33920054697E+03  0.13035822555E+04  0.14360598839E+04  0.25500000920E-02 0. -1.
       -2    1    3    3    0  502  0.49787978687E+03  0.33920054697E+03  0.25499474070E+03  0.65418927768E+03  0.25500000920E-02 0.  1.
</event>
<event>
 5   0  0.1104538E-03  0.1383287E+04  0.7818609E-02  0.8966006E-01
       -4   -1    0    0    0  501  0.00000000000E+00  0.00000000000E+00  0.32178942274E+03  0.32179192888E+03  0.12699999809E+01 0. -1.
        4   -1    0    0  501    0  0.00000000000E+00  0.00000000000E+00 -0.14865872127E+04  0.14865877551E+04  0.12699999809E+01 0.  1.
    10030    2    1    2    0    0  0.00000000000E+00  0.00000000000E+00 -0.11647977899E+04  0.18083796840E+04  0.13832870961E+04 0.  0.
        1    1    3    3  502    0  0.18517228570E+03  0.66542033981E+03 -0.62949446849E+03  0.93452463312E+03  0.50400001928E-02 0.  1.
       -1    1    3    3    0  502 -0.18517228570E+03 -0.66542033981E+03 -0.53530332143E+03  0.87385505090E+03  0.50400001928E-02 0. -1.
</event>
<event>
 5   0  0.1104538E-03  0.1397022E+04  0.7818609E-02  0.8955977E-01
        3   -1    0    0  501    0  0.00000000000E+00  0.00000000000E+00  0.23507830313E+03  0.23507832482E+03  0.10100000352E+00 0.  1.
       -3   -1    0    0    0  501  0.00000000000E+00  0.00000000000E+00 -0.20755542739E+04  0.20755542764E+04  0.10100000352E+00 0. -1.
    10030    2    1    2    0    0  0.00000000000E+00  0.00000000000E+00 -0.18404759708E+04  0.23106326012E+04  0.13970222685E+04 0.  0.
        4    1    3    3  502    0 -0.21396000587E+03  0.45370896424E+03 -0.11625642489E+03  0.51492511841E+03  0.12699999809E+01 0.  1.
       -4    1    3    3    0  502  0.21396000587E+03 -0.45370896424E+03 -0.17242195459E+04  0.17957074828E+04  0.12699999809E+01 0. -1.
</event>
<event>
 5   0  0.1104538E-03  0.1373536E+04  0.7818609E-02  0.8973200E-01
       -3   -1    0    0    0  501  0.00000000000E+00  0.00000000000E+00  0.69272211572E+03  0.69272212308E+03  0.10100000352E+00 0.  1.
        3   -1    0    0  501    0  0.00000000000E+00  0.00000000000E+00 -0.68086549103E+03  0.68086549852E+03  0.10100000352E+00 0. -1.
    10030    2    1    2    0    0  0.00000000000E+00  0.00000000000E+00  0.11856624696E+02  0.13735876216E+04  0.13735364482E+04 0.  0.
        2    1    3    3  502    0  0.99602010038E+02  0.31520214778E+03  0.60792884536E+03  0.69199019891E+03  0.25500000920E-02 0.  1.
       -2    1    3    3    0  502 -0.99602010038E+02 -0.31520214778E+03 -0.59607222066E+03  0.68159742269E+03  0.25500000920E-02 0. -1.
</event>
<event>
 5   0  0.1644571E-03  0.1408414E+04  0.7818609E-02  0.8947750E-01
        1   -1    0    0  501    0  0.00000000000E+00  0.00000000000E+00  0.11214462985E+04  0.11214462985E+04  0.50400001928E-02 0.  1.
       -1   -1    0    0    0  501  0.00000000000E+00  0.00000000000E+00 -0.44220373314E+03  0.44220373317E+03  0.50400001928E-02 0. -1.
    10030    2    1    2    0    0  0.00000000000E+00  0.00000000000E+00  0.67924256533E+03  0.15636500317E+04  0.14084143421E+04 0.  0.
        4    1    3    3  502    0  0.24723565352E+03 -0.65838322892E+03  0.29940460290E+03  0.76435507039E+03  0.12699999809E+01 0.  1.
       -4    1    3    3    0  502 -0.24723565352E+03  0.65838322892E+03  0.37983796243E+03  0.79929496126E+03  0.12699999809E+01 0. -1.
</event>
<event>
 5   0  0.1586022E-03  0.1434866E+04  0.7818609E-02  0.8928960E-01
       -1   -1    0    0    0  501  0.00000000000E+00  0.00000000000E+00  0.41202757424E+03  0.41202757427E+03  0.50400001928E-02 0.  1.
        1   -1    0    0  501    0  0.00000000000E+00  0.00000000000E+00 -0.12492130723E+04  0.12492130723E+04  0.50400001928E-02 0. -1.
    10030    2    1    2    0    0  0.00000000000E+00  0.00000000000E+00 -0.83718549804E+03  0.16612406466E+04  0.14348661706E+04 0.  0.
        1    1    3    3  502    0 -0.23682517599E+03  0.36817782790E+02 -0.12014936694E+04  0.12251647852E+04  0.50400001928E-02 0. -1.
       -1    1    3    3    0  502  0.23682517599E+03 -0.36817782790E+02  0.36430817140E+03  0.43607586139E+03  0.50400001928E-02 0.  1.
</event>
<event>
 5   0  0.2760807E-03  0.1390902E+04  0.7818609E-02  0.8960431E-01
        2   -1    0    0  501    0  0.00000000000E+00  0.00000000000E+00  0.16629510537E+04  0.16629510537E+04  0.25500000920E-02 0. -1.
       -2   -1    0    0    0  501  0.00000000000E+00  0.00000000000E+00 -0.29083954902E+03  0.29083954903E+03  0.25500000920E-02 0.  1.
    10030    2    1    2    0    0  0.00000000000E+00  0.00000000000E+00  0.13721115047E+04  0.19537906027E+04  0.13909017715E+04 0.  0.
        4    1    3    3  502    0  0.62047775014E+03  0.19382461070E+03  0.10332444387E+04  0.12207195834E+04  0.12699999809E+01 0. -1.
       -4    1    3    3    0  502 -0.62047775014E+03 -0.19382461070E+03  0.33886706593E+03  0.73307101935E+03  0.12699999809E+01 0.  1.
</event>
<event>
 5   0  0.2889469E-03  0.1205809E+04  0.7818609E-02  0.9107787E-01
       -2   -1    0    0    0  501  0.00000000000E+00  0.00000000000E+00  0.77390561974E+03  0.77390561975E+03  0.25500000920E-02 0.  1.
        2   -1    0    0  501    0  0.00000000000E+00  0.00000000000E+00 -0.46968740369E+03  0.46968740370E+03  0.25500000920E-02 0. -1.
    10030    2    1    2    0    0  0.00000000000E+00  0.00000000000E+00  0.30421821605E+03  0.12435930234E+04  0.12058088095E+04 0.  0.
        5    1    3    3  502    0 -0.51542065607E+03 -0.12846474996E+03 -0.14197514414E+03  0.54985514114E+03  0.46999998093E+01 0. -1.
       -5    1    3    3    0  502  0.51542065607E+03  0.12846474996E+03  0.44619336019E+03  0.69373788231E+03  0.46999998093E+01 0.  1.
</event>
<event>
 5   0  0.1560957E-03  0.1410173E+04  0.7818609E-02  0.8946488E-01
       -1   -1    0    0    0  501  0.00000000000E+00  0.00000000000E+00  0.66013774824E+03  0.66013774826E+03  0.50400001928E-02 0.  1.
        1   -1    0    0  501    0  0.00000000000E+00  0.00000000000E+00 -0.75309588097E+03  0.75309588099E+03  0.50400001928E-02 0. -1.
    10030    2    1    2    0    0  0.00000000000E+00  0.00000000000E+00 -0.92958132734E+02  0.14132336292E+04  0.14101730661E+04 0.  0.
        5    1    3    3  502    0  0.31323648283E+03 -0.49613460656E+03  0.34534043007E+03  0.68084414123E+03  0.46999998093E+01 0.  1.
       -5    1    3    3    0  502 -0.31323648283E+03  0.49613460656E+03 -0.43829856280E+03  0.73238948802E+03  0.46999998093E+01 0. -1.
</event>
<event>
 5   0  0.3006737E-03  0.1344670E+04  0.7818609E-02  0.8994873E-01
       -2   -1    0    0    0  501  0.00000000000E+00  0.00000000000E+00  0.38490921361E+03  0.38490921362E+03  0.25500000920E-02 0. -1.
        2   -1    0    0  501    0  0.00000000000E+00  0.00000000000E+00 -0.11743918539E+04  0.11743918539E+04  0.25500000920E-02 0.  1.
    10030    2    1    2    0    0  0.00000000000E+00  0.00000000000E+00 -0.78948264024E+03  0.15593010675E+04  0.13446698404E+04 0.  0.
        1    1    3    3  502    0  0.42795393736E+03 -0.39693494474E+03 -0.78179644580E+01  0.58374912716E+03  0.50400001928E-02 0. -1.
       -1    1    3    3    0  502 -0.42795393736E+03  0.39693494474E+03 -0.78166467578E+03  0.97555194032E+03  0.50400001928E-02 0.  1.
</event>
<event>
 5   0  0.2917809E-03  0.1497755E+04  0.7818609E-02  0.8885947E-01
       -2   -1    0    0    0  501  0.00000000000E+00  0.00000000000E+00  0.84457186691E+03  0.84457186692E+03  0.25500000920E-02 0.  1.
        2   -1    0    0  501    0  0.00000000000E+00  0.00000000000E+00 -0.66402572009E+03  0.66402572010E+03  0.25500000920E-02 0. -1.
    10030    2    1    2    0    0  0.00000000000E+00  0.00000000000E+00  0.18054614682E+03  0.15085975870E+04  0.14977549093E+04 0.  0.
        2    1    3    3  502    0  0.65056620138E+03  0.36656444997E+03  0.33192157971E+02  0.74746745596E+03  0.25500000920E-02 0.  1.
       -2    1    3    3    0  502 -0.65056620138E+03 -0.36656444997E+03  0.14735398885E+03  0.76113013106E+03  0.25500000920E-02 0. -1.
</event>
<event>
 5   0  0.2917809E-03  0.1376079E+04  0.7818609E-02  0.8971318E-01
        2   -1    0    0  501    0  0.00000000000E+00  0.00000000000E+00  0.81461209963E+03  0.81461209963E+03  0.25500000920E-02 0. -1.
       -2   -1    0    0    0  501  0.00000000000E+00  0.00000000000E+00 -0.58113336759E+03  0.58113336760E+03  0.25500000920E-02 0.  1.
    10030    2    1    2    0    0  0.00000000000E+00  0.00000000000E+00  0.23347873204E+03  0.13957454672E+04  0.13760788825E+04 0.  0.
        2    1    3    3  502    0 -0.36874760982E+01 -0.26680342791E+03  0.75999597406E+03  0.80547597557E+03  0.25500000920E-02 0. -1.
       -2    1    3    3    0  502  0.36874760982E+01  0.26680342791E+03 -0.52651724203E+03  0.59026949166E+03  0.25500000920E-02 0.  1.
</event>
<event>
 5   0  0.1644571E-03  0.1354909E+04  0.7818609E-02  0.8987120E-01
        1   -1    0    0  501    0  0.00000000000E+00  0.00000000000E+00  0.12440123460E+04  0.12440123460E+04  0.50400001928E-02 0. -1.
       -1   -1    0    0    0  501  0.00000000000E+00  0.00000000000E+00 -0.36892296333E+03  0.36892296336E+03  0.50400001928E-02 0.  1.
    10030    2    1    2    0    0  0.00000000000E+00  0.00000000000E+00  0.87508938264E+03  0.16129353093E+04  0.13549091794E+04 0.  0.
        4    1    3    3  502    0  0.10937621318E+03  0.11218720910E+03  0.12221453427E+04  0.12321485209E+04  0.12699999809E+01 0. -1.
       -4    1    3    3    0  502 -0.10937621318E+03 -0.11218720910E+03 -0.34705596011E+03  0.38078678843E+03  0.12699999809E+01 0.  1.
</event>
<event>
 5   0  0.1586022E-03  0.1370264E+04  0.7818609E-02  0.8975629E-01
       -1   -1    0    0    0  501  0.00000000000E+00  0.00000000000E+00  0.43096829509E+03  0.43096829512E+03  0.50400001928E-02 0.  1.
        1   -1    0    0  501    0  0.00000000000E+00  0.00000000000E+00 -0.10891885455E+04  0.10891885455E+04  0.50400001928E-02 0. -1.
    10030    2    1    2    0    0  0.00000000000E+00  0.00000000000E+00 -0.65822025038E+03  0.15201568406E+04  0.13702638147E+04 0.  0.
        1    1    3    3  502    0 -0.56403436092E+02  0.30610533960E+02 -0.10858469086E+04  0.10877416336E+04  0.50400001928E-02 0. -1.
       -1    1    3    3    0  502  0.56403436092E+02 -0.30610533960E+02  0.42762665825E+03  0.43241520702E+03  0.50400001928E-02 0.  1.
</event>
<event>
 5   0  0.2889469E-03  0.1392206E+04  0.7818609E-02  0.8959480E-01
        2   -1    0    0  501    0  0.00000000000E+00  0.00000000000E+00  0.45313088245E+03  0.45313088246E+03  0.25500000920E-02 0. -1.
       -2   -1    0    0    0  501  0.00000000000E+00  0.00000000000E+00 -0.10693588182E+04  0.10693588182E+04  0.25500000920E-02 0.  1.
    10030    2    1    2    0    0  0.00000000000E+00  0.00000000000E+00 -0.61622793574E+03  0.15224897007E+04  0.13922061700E+04 0.  0.
        5    1    3    3  502    0  0.96138945258E+02  0.19130621766E+03 -0.10324381220E+04  0.10544151608E+04  0.46999998093E+01 0.  1.
       -5    1    3    3    0  502 -0.96138945258E+02 -0.19130621766E+03  0.41621018622E+03  0.46807453982E+03  0.46999998093E+01 0. -1.
</event>
<event>
 5   0  0.1560957E-03  0.1443137E+04  0.7818609E-02  0.8923172E-01
        1   -1    0    0  501    0  0.00000000000E+00  0.00000000000E+00  0.15765906443E+04  0.15765906443E+04  0.50400001928E-02 0. -1.
       -1   -1    0    0    0  501  0.00000000000E+00  0.00000000000E+00 -0.33024484071E+03  0.33024484075E+03  0.50400001928E-02 0.  1.
    10030    2    1    2    0    0  0.00000000000E+00  0.00000000000E+00  0.12463458036E+04  0.19068354850E+04  0.14431367589E+04 0.  0.
        5    1    3    3  502    0 -0.28003793607E+02  0.34059973685E+03  0.14628530146E+04  0.15022494551E+04  0.46999998093E+01 0. -1.
       -5    1    3    3    0  502  0.28003793607E+02 -0.34059973685E+03 -0.21650721099E+03  0.40458602992E+03  0.46999998093E+01 0.  1.
</event>
<event>
 5   0  0.2917809E-03  0.1045410E+04  0.7818609E-02  0.9260096E-01
       -2   -1    0    0    0  501  0.00000000000E+00  0.00000000000E+00  0.87087908173E+03  0.87087908174E+03  0.25500000920E-02 0.  1.
        2   -1    0    0  501    0  0.00000000000E+00  0.00000000000E+00 -0.31372949312E+03  0.31372949313E+03  0.25500000920E-02 0. -1.
    10030    2    1    2    0    0  0.00000000000E+00  0.00000000000E+00  0.55714958861E+03  0.11846085749E+04  0.10454098773E+04 0.  0.
        2    1    3    3  502    0 -0.21158287062E+02 -0.51621474989E+03  0.36848106750E+03  0.63458934613E+03  0.25500000920E-02 0.  1.
       -2    1    3    3    0  502  0.21158287062E+02  0.51621474989E+03  0.18866852111E+03  0.55001922873E+03  0.25500000920E-02 0. -1.
</event>
<event>
 5   0  0.2760807E-03  0.1434239E+04  0.7818609E-02  0.8929401E-01
       -2   -1    0    0    0  501  0.00000000000E+00  0.00000000000E+00  0.11554679316E+04  0.11554679316E+04  0.25500000920E-02 0. -1.
        2   -1    0    0  501    0  0.00000000000E+00  0.00000000000E+00 -0.44506650416E+03  0.44506650416E+03  0.25500000920E-02 0.  1.
    10030    2    1    2    0    0  0.00000000000E+00  0.00000000000E+00  0.71040142743E+03  0.16005344358E+04  0.14342385757E+04 0.  0.
        4    1    3    3  502    0 -0.70866581182E+03 -0.46362386573E+02  0.46624590107E+03  0.84955491694E+03  0.12699999809E+01 0.  1.
       -4    1    3    3    0  502  0.70866581182E+03  0.46362386573E+02  0.24415552636E+03  0.75097951881E+03  0.12699999809E+01 0. -1.
</event>
<event>
 5   0  0.1644571E-03  0.1380587E+04  0.7818609E-02  0.8967991E-01
        1   -1    0    0  501    0  0.00000000000E+00  0.00000000000E+00  0.17414852083E+04  0.17414852083E+04  0.50400001928E-02 0. -1.
       -1   -1    0    0    0  501  0.00000000000E+00  0.00000000000E+00 -0.27362010959E+03  0.27362010964E+03  0.50400001928E-02 0.  1.
    10030    2    1    2    0    0  0.00000000000E+00  0.00000000000E+00  0.14678650987E+04  0.20151053180E+04  0.13805873730E+04 0.  0.
        4    1    3    3  502    0 -0.35710979006E+03 -0.54887155242E+03  0.10527687205E+04  0.12398027968E+04  0.12699999809E+01 0.  1.
       -4    1    3    3    0  502  0.35710979006E+03  0.54887155242E+03  0.41509637825E+03  0.77530252118E+03  0.12699999809E+01 0. -1.
</event>
<event>
 5   0  0.2889469E-03  0.1352127E+04  0.7818609E-02  0.8989220E-01
        2   -1    0    0  501    0  0.00000000000E+00  0.00000000000E+00  0.14105716886E+04  0.14105716886E+04  0.25500000920E-02 0.  1.
       -2   -1    0    0    0  501  0.00000000000E+00  0.00000000000E+00 -0.32402583480E+03  0.32402583481E+03  0.25500000920E-02 0. -1.
    10030    2    1    2    0    0  0.00000000000E+00  0.00000000000E+00  0.10865458538E+04  0.17345975234E+04  0.13521267233E+04 0.  0.
        5    1    3    3  502    0  0.48612410211E+03 -0.26692409321E+03  0.10392536863E+04  0.11779793838E+04  0.46999998093E+01 0.  1.
       -5    1    3    3    0  502 -0.48612410211E+03  0.26692409321E+03  0.47292167439E+02  0.55661813956E+03  0.46999998093E+01 0. -1.
</event>
<event>
 5   0  0.2993993E-03  0.1434415E+04  0.7818609E-02  0.8929277E-01
        2   -1    0    0  501    0  0.00000000000E+00  0.00000000000E+00  0.15923190949E+04  0.15923190949E+04  0.25500000920E-02 0. -1.
       -2   -1    0    0    0  501  0.00000000000E+00  0.00000000000E+00 -0.32304230024E+03  0.32304230025E+03  0.25500000920E-02 0.  1.
    10030    2    1    2    0    0  0.00000000000E+00  0.00000000000E+00  0.12692767946E+04  0.19153613951E+04  0.14344147561E+04 0.  0.
        3    1    3    3  502    0 -0.24873981273E+03  0.67264950456E+03  0.64476924609E+03  0.96439423543E+03  0.10100000352E+00 0. -1.
       -3    1    3    3    0  502  0.24873981273E+03 -0.67264950456E+03  0.62450754854E+03  0.95096715969E+03  0.10100000352E+00 0.  1.
</event>
<event>
 5   0  0.2760807E-03  0.9395790E+03  0.7818609E-02  0.9377415E-01
       -2   -1    0    0    0  501  0.00000000000E+00  0.00000000000E+00  0.27839733056E+03  0.27839733058E+03  0.25500000920E-02 0.  1.
        2   -1    0    0  501    0  0.00000000000E+00  0.00000000000E+00 -0.79275967268E+03  0.79275967269E+03  0.25500000920E-02 0. -1.
    10030    2    1    2    0    0  0.00000000000E+00  0.00000000000E+00 -0.51436234212E+03  0.10711570033E+04  0.93957900501E+03 0.  0.
        4    1    3    3  502    0 -0.53691920332E+02 -0.41249051598E+03 -0.82729239241E+01  0.41605444626E+03  0.12699999809E+01 0.  1.
       -4    1    3    3    0  502  0.53691920332E+02  0.41249051598E+03 -0.50608941820E+03  0.65510255700E+03  0.12699999809E+01 0. -1.
</event>
<event>
 5   0  0.1700207E-03  0.1349725E+04  0.7818609E-02  0.8991036E-01
        1   -1    0    0  501    0  0.00000000000E+00  0.00000000000E+00  0.12833001130E+04  0.12833001130E+04  0.50400001928E-02 0.  1.
       -1   -1    0    0    0  501  0.00000000000E+00  0.00000000000E+00 -0.35489691795E+03  0.35489691798E+03  0.50400001928E-02 0. -1.
    10030    2    1    2    0    0  0.00000000000E+00  0.00000000000E+00  0.92840319508E+03  0.16381970310E+04  0.13497247941E+04 0.  0.
        2    1    3    3  502    0 -0.34739736611E+03 -0.51025385289E+03  0.79525171599E+03  0.10067120821E+04  0.25500000920E-02 0. -1.
       -2    1    3    3    0  502  0.34739736611E+03  0.51025385289E+03  0.13315147909E+03  0.63148494896E+03  0.25500000920E-02 0.  1.
</event>
<event>
 5   0  0.2993993E-03  0.1378674E+04  0.7818609E-02  0.8969402E-01
        2   -1    0    0  501    0  0.00000000000E+00  0.00000000000E+00  0.34933214140E+03  0.34933214140E+03  0.25500000920E-02 0. -1.
       -2   -1    0    0    0  501  0.00000000000E+00  0.00000000000E+00 -0.13602684470E+04  0.13602684470E+04  0.25500000920E-02 0.  1.
    10030    2    1    2    0    0  0.00000000000E+00  0.00000000000E+00 -0.10109363056E+04  0.17096005884E+04  0.13786739853E+04 0.  0.
        3    1    3    3  502    0 -0.32459772503E+03  0.60605418689E+03 -0.56771875805E+03  0.89161087868E+03  0.10100000352E+00 0.  1.
       -3    1    3    3    0  502  0.32459772503E+03 -0.60605418689E+03 -0.44321754753E+03  0.81798970970E+03  0.10100000352E+00 0. -1.
</event>
<event>
 5   0  0.1560957E-03  0.1391249E+04  0.7818609E-02  0.8960177E-01
        1   -1    0    0  501    0  0.00000000000E+00  0.00000000000E+00  0.72879038337E+03  0.72879038338E+03  0.50400001928E-02 0.  1.
       -1   -1    0    0    0  501  0.00000000000E+00  0.00000000000E+00 -0.66396816101E+03  0.66396816103E+03  0.50400001928E-02 0. -1.
    10030    2    1    2    0    0  0.00000000000E+00  0.00000000000E+00  0.64822222352E+02  0.13927585444E+04  0.13912492381E+04 0.  0.
        5    1    3    3  502    0 -0.60625658163E+03 -0.28598317285E+03 -0.15363480025E+03  0.68772026273E+03  0.46999998093E+01 0. -1.
       -5    1    3    3    0  502  0.60625658163E+03  0.28598317285E+03  0.21845702260E+03  0.70503828169E+03  0.46999998093E+01 0.  1.
</event>
<event>
 5   0  0.2760807E-03  0.1419148E+04  0.7818609E-02  0.8940074E-01
       -2   -1    0    0    0  501  0.00000000000E+00  0.00000000000E+00  0.15177652479E+04  0.15177652479E+04  0.25500000920E-02 0. -1.
        2   -1    0    0  501    0  0.00000000000E+00  0.00000000000E+00 -0.33173439869E+03  0.33173439870E+03  0.25500000920E-02 0.  1.
    10030    2    1    2    0    0  0.00000000000E+00  0.00000000000E+00  0.11860308493E+04  0.18494996466E+04  0.14191475496E+04 0.  0.
        4    1    3    3  502    0 -0.37584851558E+03  0.23591139768E+03 -0.12858455241E+03  0.46200854346E+03  0.12699999809E+01 0.  1.
       -4    1    3    3    0  502  0.37584851558E+03 -0.23591139768E+03  0.13146154017E+04  0.13874911032E+04  0.12699999809E+01 0. -1.
</event>
<event>
 5   0  0.1586022E-03  0.1378011E+04  0.7818609E-02  0.8969891E-01
       -1   -1    0    0    0  501  0.00000000000E+00  0.00000000000E+00  0.30310106001E+03  0.30310106005E+03  0.50400001928E-02 0.  1.
        1   -1    0    0  501    0  0.00000000000E+00  0.00000000000E+00 -0.15662391807E+04  0.15662391807E+04  0.50400001928E-02 0. -1.
    10030    2    1    2    0    0  0.00000000000E+00  0.00000000000E+00 -0.12631381207E+04  0.18693402407E+04  0.13780112568E+04 0.  0.
        1    1    3    3  502    0  0.38528557477E+03  0.53025134007E+03 -0.34342668518E+03  0.73996847628E+03  0.50400001928E-02 0.  1.
       -1    1    3    3    0  502 -0.38528557477E+03 -0.53025134007E+03 -0.91971143549E+03  0.11293717645E+04  0.50400001928E-02 0. -1.
</event>
<event>
 5   0  0.2889469E-03  0.1384554E+04  0.7818609E-02  0.8965076E-01
       -2   -1    0    0    0  501  0.00000000000E+00  0.00000000000E+00  0.68613868917E+03  0.68613868918E+03  0.25500000920E-02 0.  1.
        2   -1    0    0  501    0  0.00000000000E+00  0.00000000000E+00 -0.69847023673E+03  0.69847023673E+03  0.25500000920E-02 0. -1.
    10030    2    1    2    0    0  0.00000000000E+00  0.00000000000E+00 -0.12331547555E+02  0.13846089259E+04  0.13845540115E+04 0.  0.
        5    1    3    3  502    0 -0.43740241560E+03 -0.19723309966E+03  0.49285661684E+03  0.68786009009E+03  0.46999998093E+01 0.  1.
       -5    1    3    3    0  502  0.43740241560E+03  0.19723309966E+03 -0.50518816440E+03  0.69674883582E+03  0.46999998093E+01 0. -1.
</event>
<event>
 5   0  0.1560957E-03  0.1358782E+04  0.7818609E-02  0.8984207E-01
        1   -1    0    0  501    0  0.00000000000E+00  0.00000000000E+00  0.96722064546E+03  0.96722064547E+03  0.50400001928E-02 0.  1.
       -1   -1    0    0    0  501  0.00000000000E+00  0.00000000000E+00 -0.47721463108E+03  0.47721463111E+03  0.50400001928E-02 0. -1.
    10030    2    1    2    0    0  0.00000000000E+00  0.00000000000E+00  0.49000601438E+03  0.14444352766E+04  0.13587815770E+04 0.  0.
        5    1    3    3  502    0 -0.78555768511E+02 -0.61003045881E+03 -0.61700402830E+02  0.61817246716E+03  0.46999998093E+01 0.  1.
       -5    1    3    3    0  502  0.78555768511E+02  0.61003045881E+03  0.55170641721E+03  0.82626280942E+03  0.46999998093E+01 0. -1.
</event>
<event>
 5   0  0.1560957E-03  0.1455350E+04  0.7818609E-02  0.8914700E-01
        1   -1    0    0  501    0  0.00000000000E+00  0.00000000000E+00  0.60086226680E+03  0.60086226682E+03  0.50400001928E-02 0. -1.
       -1   -1    0    0    0  501  0.00000000000E+00  0.00000000000E+00 -0.88125129630E+03  0.88125129631E+03  0.50400001928E-02 0.  1.
    10030    2    1    2    0    0  0.00000000000E+00  0.00000000000E+00 -0.28038902950E+03  0.14821135631E+04  0.14553496508E+04 0.  0.
        5    1    3    3  502    0  0.22152845611E+03 -0.28321958172E+03 -0.78444221990E+03  0.86293677329E+03  0.46999998093E+01 0.  1.
       -5    1    3    3    0  502 -0.22152845611E+03  0.28321958172E+03  0.50405319039E+03  0.61917678984E+03  0.46999998093E+01 0. -1.
</event>
<event>
 5   0  0.2889469E-03  0.1278310E+04  0.7818609E-02  0.9046944E-01
       -2   -1    0    0    0  501  0.00000000000E+00  0.00000000000E+00  0.34737853625E+03  0.34737853626E+03  0.25500000920E-02 0.  1.
        2   -1    0    0  501    0  0.00000000000E+00  0.00000000000E+00 -0.11760059335E+04  0.11760059335E+04  0.25500000920E-02 0. -1.
    10030    2    1    2    0    0  0.00000000000E+00  0.00000000000E+00 -0.82862739721E+03  0.15233844697E+04  0.12783101655E+04 0.  0.
        5    1    3    3  502    0 -0.60076599764E+03  0.84868291672E+02 -0.17485642283E+03  0.63144221387E+03  0.46999998093E+01 0.  1.
       -5    1    3    3    0  502  0.60076599764E+03 -0.84868291672E+02 -0.65377097438E+03  0.89194225586E+03  0.46999998093E+01 0. -1.
</event>
<event>
 5   0  0.1644571E-03  0.1397581E+04  0.7818609E-02  0.8955571E-01
        1   -1    0    0  501    0  0.00000000000E+00  0.00000000000E+00  0.17269139094E+04  0.17269139094E+04  0.50400001928E-02 0. -1.
       -1   -1    0    0    0  501  0.00000000000E+00  0.00000000000E+00 -0.28276356380E+03  0.28276356385E+03  0.50400001928E-02 0.  1.
    10030    2    1    2    0    0  0.00000000000E+00  0.00000000000E+00  0.14441503456E+04  0.20096774733E+04  0.13975812412E+04 0.  0.
        4    1    3    3  502    0  0.49031313457E+03  0.70590541502E+02  0.13349753510E+02  0.49555002099E+03  0.12699999809E+01 0.  1.
       -4    1    3    3    0  502 -0.49031313457E+03 -0.70590541502E+02  0.14308005921E+04  0.15141274523E+04  0.12699999809E+01 0. -1.
</event>
<event>
 5   0  0.1644571E-03  0.1420253E+04  0.7818609E-02  0.8939287E-01
       -1   -1    0    0    0  501  0.00000000000E+00  0.00000000000E+00  0.93701395550E+03  0.93701395551E+03  0.50400001928E-02 0.  1.
        1   -1    0    0  501    0  0.00000000000E+00  0.00000000000E+00 -0.53817752793E+03  0.53817752796E+03  0.50400001928E-02 0. -1.
    10030    2    1    2    0    0  0.00000000000E+00  0.00000000000E+00  0.39883642757E+03  0.14751914835E+04  0.14202532932E+04 0.  0.
        4    1    3    3  502    0 -0.31260900391E+03  0.18134775064E+03 -0.43551036311E+03  0.56593487723E+03  0.12699999809E+01 0. -1.
       -4    1    3    3    0  502  0.31260900391E+03 -0.18134775064E+03  0.83434679068E+03  0.90925660624E+03  0.12699999809E+01 0.  1.
</event>
<event>
 5   0  0.1560957E-03  0.1343329E+04  0.7818609E-02  0.8995893E-01
        1   -1    0    0  501    0  0.00000000000E+00  0.00000000000E+00  0.21331574421E+04  0.21331574421E+04  0.50400001928E-02 0. -1.
       -1   -1    0    0    0  501  0.00000000000E+00  0.00000000000E+00 -0.21148626864E+03  0.21148626870E+03  0.50400001928E-02 0.  1.
    10030    2    1    2    0    0  0.00000000000E+00  0.00000000000E+00  0.19216711734E+04  0.23446437108E+04  0.13433294576E+04 0.  0.
        5    1    3    3  502    0  0.29501081612E+03  0.49676273779E+03  0.15586356370E+04  0.16622790795E+04  0.46999998093E+01 0. -1.
       -5    1    3    3    0  502 -0.29501081612E+03 -0.49676273779E+03  0.36303553644E+03  0.68236463127E+03  0.46999998093E+01 0.  1.
</event>
<event>
 5   0  0.1644571E-03  0.1361682E+04  0.7818609E-02  0.8982032E-01
       -1   -1    0    0    0  501  0.00000000000E+00  0.00000000000E+00  0.53503011352E+03  0.53503011355E+03  0.50400001928E-02 0.  1.
        1   -1    0    0  501    0  0.00000000000E+00  0.00000000000E+00 -0.86638899374E+03  0.86638899375E+03  0.50400001928E-02 0. -1.
    10030    2    1    2    0    0  0.00000000000E+00  0.00000000000E+00 -0.33135888022E+03  0.14014191073E+04  0.13616816099E+04 0.  0.
        4    1    3    3  502    0 -0.15452658051E+03  0.59513390080E+03  0.13522189981E+03  0.62956286346E+03  0.12699999809E+01 0.  1.
       -4    1    3    3    0  502  0.15452658051E+03 -0.59513390080E+03 -0.46658078003E+03  0.77185624384E+03  0.12699999809E+01 0. -1.
</event>
<event>
 5   0  0.1644571E-03  0.1330798E+04  0.7818609E-02  0.9005492E-01
        1   -1    0    0  501    0  0.00000000000E+00  0.00000000000E+00  0.61639159851E+03  0.61639159854E+03  0.50400001928E-02 0.  1.
       -1   -1    0    0    0  501  0.00000000000E+00  0.00000000000E+00 -0.71830320315E+03  0.71830320317E+03  0.50400001928E-02 0. -1.
    10030    2    1    2    0    0  0.00000000000E+00  0.00000000000E+00 -0.10191160464E+03  0.13346948017E+04  0.13307983463E+04 0.  0.
        4    1    3    3  502    0 -0.52220925845E+03 -0.40021160893E+03 -0.15065816261E+03  0.67496024801E+03  0.12699999809E+01 0.  1.
       -4    1    3    3    0  502  0.52220925845E+03  0.40021160893E+03  0.48746557972E+02  0.65973455370E+03  0.12699999809E+01 0. -1.
</event>
<event>
 5   0  0.1644571E-03  0.1344545E+04  0.7818609E-02  0.8994968E-01
       -1   -1    0    0    0  501  0.00000000000E+00  0.00000000000E+00  0.28046708229E+03  0.28046708234E+03  0.50400001928E-02 0. -1.
        1   -1    0    0  501    0  0.00000000000E+00  0.00000000000E+00 -0.16114209012E+04  0.16114209012E+04  0.50400001928E-02 0.  1.
    10030    2    1    2    0    0  0.00000000000E+00  0.00000000000E+00 -0.13309538189E+04  0.18918879835E+04  0.13445453039E+04 0.  0.
        4    1    3    3  502    0 -0.65058282317E+03 -0.16938282268E+03 -0.66463826242E+03  0.94535399888E+03  0.12699999809E+01 0.  1.
       -4    1    3    3    0  502  0.65058282317E+03  0.16938282268E+03 -0.66631555648E+03  0.94653398467E+03  0.12699999809E+01 0. -1.
</event>
<event>
 5   0  0.1586022E-03  0.1333150E+04  0.7818609E-02  0.9003682E-01
        1   -1    0    0  501    0  0.00000000000E+00  0.00000000000E+00  0.97156268022E+03  0.97156268023E+03  0.50400001928E-02 0. -1.
       -1   -1    0    0    0  501  0.00000000000E+00  0.00000000000E+00 -0.45732761989E+03  0.45732761992E+03  0.50400001928E-02 0.  1.
    10030    2    1    2    0    0  0.00000000000E+00  0.00000000000E+00  0.51423506033E+03  0.14288903001E+04  0.13331503263E+04 0.  0.
        1    1    3    3  502    0 -0.34973039722E+03  0.37099059964E+03  0.71734572597E+03  0.88007401186E+03  0.50400001928E-02 0. -1.
       -1    1    3    3    0  502  0.34973039722E+03 -0.37099059964E+03 -0.20311066564E+03  0.54881628828E+03  0.50400001928E-02 0.  1.
</event>
<event>
 5   0  0.2917809E-03  0.1421139E+04  0.7818609E-02  0.8938657E-01
       -2   -1    0    0    0  501  0.00000000000E+00  0.00000000000E+00  0.75431793126E+03  0.75431793126E+03  0.25500000920E-02 0. -1.
        2   -1    0    0  501    0  0.00000000000E+00  0.00000000000E+00 -0.66935871300E+03  0.66935871301E+03  0.25500000920E-02 0.  1.
    10030    2    1    2    0    0  0.00000000000E+00  0.00000000000E+00  0.84959218257E+02  0.14236766443E+04  0.14211393734E+04 0.  0.
        2    1    3    3  502    0  0.13033370111E+03  0.47564604936E+03  0.55494276180E+03  0.74242003394E+03  0.25500000920E-02 0. -1.
       -2    1    3    3    0  502 -0.13033370111E+03 -0.47564604936E+03 -0.46998354354E+03  0.68125661033E+03  0.25500000920E-02 0.  1.
</event>
<event>
 5   0  0.1586022E-03  0.1265784E+04  0.7818609E-02  0.9057148E-01
       -1   -1    0    0    0  501  0.00000000000E+00  0.00000000000E+00  0.70179513935E+03  0.70179513937E+03  0.50400001928E-02 0. -1.
        1   -1    0    0  501    0  0.00000000000E+00  0.00000000000E+00 -0.57075352088E+03  0.57075352090E+03  0.50400001928E-02 0.  1.
    10030    2    1    2    0    0  0.00000000000E+00  0.00000000000E+00  0.13104161847E+03  0.12725486603E+04  0.12657836257E+04 0.  0.
        1    1    3    3  502    0  0.39465705639E+03 -0.40172547466E+03 -0.22483845947E+03  0.60637437448E+03  0.50400001928E-02 0. -1.
       -1    1    3    3    0  502 -0.39465705639E+03  0.40172547466E+03  0.35588007794E+03  0.66617428579E+03  0.50400001928E-02 0.  1.
</event>
<event>
 5   0  0.1644571E-03  0.1396652E+04  0.7818609E-02  0.8956246E-01
        1   -1    0    0  501    0  0.00000000000E+00  0.00000000000E+00  0.14666073025E+04  0.14666073025E+04  0.50400001928E-02 0.  1.
       -1   -1    0    0    0  501  0.00000000000E+00  0.00000000000E+00 -0.33250825855E+03  0.33250825859E+03  0.50400001928E-02 0. -1.
    10030    2    1    2    0    0  0.00000000000E+00  0.00000000000E+00  0.11340990439E+04  0.17991155611E+04  0.13966517679E+04 0.  0.
        4    1    3    3  502    0 -0.25661962243E+03 -0.15632026558E+03  0.13790704918E+04  0.14114271821E+04  0.12699999809E+01 0.  1.
       -4    1    3    3    0  502  0.25661962243E+03  0.15632026558E+03 -0.24497144787E+03  0.38768837901E+03  0.12699999809E+01 0. -1.
</event>
<event>
 5   0  0.2889469E-03  0.1180649E+04  0.7818609E-02  0.9129965E-01
       -2   -1    0    0    0  501  0.00000000000E+00  0.00000000000E+00  0.33652355953E+03  0.33652355954E+03  0.25500000920E-02 0.  1.
        2   -1    0    0  501    0  0.00000000000E+00  0.00000000000E+00 -0.10355381205E+04  0.10355381205E+04  0.25500000920E-02 0. -1.
    10030    2    1    2    0    0  0.00000000000E+00  0.00000000000E+00 -0.69901456095E+03  0.13720616800E+04  0.11806489306E+04 0.  0.
        5    1    3    3  502    0  0.24093913745E+03 -0.40042062418E+03 -0.76863430846E+03  0.89956052290E+03  0.46999998093E+01 0. -1.
       -5    1    3    3    0  502 -0.24093913745E+03  0.40042062418E+03  0.69619747512E+02  0.47250115711E+03  0.46999998093E+01 0.  1.
</event>
<event>
 5   0  0.1104538E-03  0.7256059E+03  0.7818609E-02  0.9674418E-01
       -4   -1    0    0    0  501  0.00000000000E+00  0.00000000000E+00  0.17447106965E+03  0.17447569185E+03  0.12699999809E+01 0.  1.
        4   -1    0    0  501    0  0.00000000000E+00  0.00000000000E+00 -0.75441345246E+03  0.75441452144E+03  0.12699999809E+01 0. -1.
    10030    2    1    2    0    0  0.00000000000E+00  0.00000000000E+00 -0.57994238281E+03  0.92889021329E+03  0.72560585786E+03 0.  0.
        2    1    3    3  502    0  0.81070317290E+02  0.28252012773E+03 -0.17697645689E+02  0.29445411457E+03  0.25500000920E-02 0.  1.
       -2    1    3    3    0  502 -0.81070317290E+02 -0.28252012773E+03 -0.56224473712E+03  0.63443609871E+03  0.25500000920E-02 0. -1.
</event>
<event>
 5   0  0.1631380E-03  0.1448332E+04  0.7818609E-02  0.8919558E-01
        1   -1    0    0  501    0  0.00000000000E+00  0.00000000000E+00  0.12219735471E+04  0.12219735471E+04  0.50400001928E-02 0.  1.
       -1   -1    0    0    0  501  0.00000000000E+00  0.00000000000E+00 -0.42915516660E+03  0.42915516663E+03  0.50400001928E-02 0. -1.
    10030    2    1    2    0    0  0.00000000000E+00  0.00000000000E+00  0.79281838047E+03  0.16511287137E+04  0.14483318145E+04 0.  0.
        3    1    3    3  502    0 -0.21562069846E+03 -0.68368020983E+03  0.27956211798E+03  0.76945818790E+03  0.10100000352E+00 0. -1.
       -3    1    3    3    0  502  0.21562069846E+03  0.68368020983E+03  0.51325626249E+03  0.88167052582E+03  0.10100000352E+00 0.  1.
</event>
<event>
 5   0  0.1644571E-03  0.1010407E+04  0.7818609E-02  0.9297203E-01
       -1   -1    0    0    0  501  0.00000000000E+00  0.00000000000E+00  0.50540750573E+03  0.50540750576E+03  0.50400001928E-02 0.  1.
        1   -1    0    0  501    0  0.00000000000E+00  0.00000000000E+00 -0.50499977623E+03  0.50499977626E+03  0.50400001928E-02 0. -1.
    10030    2    1    2    0    0  0.00000000000E+00  0.00000000000E+00  0.40772949732E+00  0.10104072820E+04  0.10104071997E+04 0.  0.
        4    1    3    3  502    0 -0.26111595066E+03 -0.31873815478E+03  0.29252821772E+03  0.50532160261E+03  0.12699999809E+01 0.  1.
       -4    1    3    3    0  502  0.26111595066E+03  0.31873815478E+03 -0.29212048822E+03  0.50508567941E+03  0.12699999809E+01 0. -1.
</event>
<event>
 5   0  0.1644571E-03  0.1429366E+04  0.7818609E-02  0.8932832E-01
       -1   -1    0    0    0  501  0.00000000000E+00  0.00000000000E+00  0.94734481827E+03  0.94734481828E+03  0.50400001928E-02 0.  1.
        1   -1    0    0  501    0  0.00000000000E+00  0.00000000000E+00 -0.53916118317E+03  0.53916118319E+03  0.50400001928E-02 0. -1.
    10030    2    1    2    0    0  0.00000000000E+00  0.00000000000E+00  0.40818363510E+03  0.14865060015E+04  0.14293656679E+04 0.  0.
        4    1    3    3  502    0 -0.36598748749E+03 -0.31679448036E+03 -0.34272629816E+03  0.59310076052E+03  0.12699999809E+01 0. -1.
       -4    1    3    3    0  502  0.36598748749E+03  0.31679448036E+03  0.75090993326E+03  0.89340524095E+03  0.12699999809E+01 0.  1.
</event>
<event>
 5   0  0.2760807E-03  0.1378793E+04  0.7818609E-02  0.8969314E-01
        2   -1    0    0  501    0  0.00000000000E+00  0.00000000000E+00  0.78323085444E+03  0.78323085444E+03  0.25500000920E-02 0.  1.
       -2   -1    0    0    0  501  0.00000000000E+00  0.00000000000E+00 -0.60680399914E+03  0.60680399915E+03  0.25500000920E-02 0. -1.
    10030    2    1    2    0    0  0.00000000000E+00  0.00000000000E+00  0.17642685529E+03  0.13900348536E+04  0.13787931168E+04 0.  0.
        4    1    3    3  502    0  0.10133969461E+03  0.52407285252E+03  0.52805480264E+03  0.75084324326E+03  0.12699999809E+01 0.  1.
       -4    1    3    3    0  502 -0.10133969461E+03 -0.52407285252E+03 -0.35162794735E+03  0.63919161033E+03  0.12699999809E+01 0. -1.
</event>
<event>
 5   0  0.1104538E-03  0.1411207E+04  0.7818609E-02  0.8945746E-01
        3   -1    0    0  501    0  0.00000000000E+00  0.00000000000E+00  0.75557713820E+03  0.75557714495E+03  0.10100000352E+00 0. -1.
       -3   -1    0    0    0  501  0.00000000000E+00  0.00000000000E+00 -0.65893469146E+03  0.65893469920E+03  0.10100000352E+00 0.  1.
    10030    2    1    2    0    0  0.00000000000E+00  0.00000000000E+00  0.96642446740E+02  0.14145118442E+04  0.14112065741E+04 0.  0.
        4    1    3    3  502    0 -0.87843366794E+02  0.73735812718E+02  0.74617092402E+03  0.75493449247E+03  0.12699999809E+01 0. -1.
       -4    1    3    3    0  502  0.87843366794E+02 -0.73735812718E+02 -0.64952847728E+03  0.65957735169E+03  0.12699999809E+01 0.  1.
</event>
<event>
 5   0  0.1631380E-03  0.1421057E+04  0.7818609E-02  0.8938716E-01
       -1   -1    0    0    0  501  0.00000000000E+00  0.00000000000E+00  0.55322258173E+03  0.55322258175E+03  0.50400001928E-02 0. -1.
        1   -1    0    0  501    0  0.00000000000E+00  0.00000000000E+00 -0.91256329917E+03  0.91256329919E+03  0.50400001928E-02 0.  1.
    10030    2    1    2    0    0  0.00000000000E+00  0.00000000000E+00 -0.35934071745E+03  0.14657858809E+04  0.14210568242E+04 0.  0.
        3    1    3    3  502    0  0.26030916108E+03  0.10086771837E+03 -0.85362400887E+03  0.89811419912E+03  0.10100000352E+00 0.  1.
       -3    1    3    3    0  502 -0.26030916108E+03 -0.10086771837E+03  0.49428329142E+03  0.56767168181E+03  0.10100000352E+00 0. -1.
</event>
<event>
 5   0  0.2917809E-03  0.1444028E+04  0.7818609E-02  0.8922551E-01
       -2   -1    0    0    0  501  0.00000000000E+00  0.00000000000E+00  0.43655223913E+03  0.43655223914E+03  0.25500000920E-02 0.  1.
        2   -1    0    0  501    0  0.00000000000E+00  0.00000000000E+00 -0.11941398748E+04  0.11941398748E+04  0.25500000920E-02 0. -1.
    10030    2    1    2    0    0  0.00000000000E+00  0.00000000000E+00 -0.75758763565E+03  0.16306921139E+04  0.14440283047E+04 0.  0.
        2    1    3    3  502    0 -0.64782260117E+03  0.26459037168E+03 -0.57960719531E+03  0.90864002126E+03  0.25500000920E-02 0.  1.
       -2    1    3    3    0  502  0.64782260117E+03 -0.26459037168E+03 -0.17798044035E+03  0.72205209267E+03  0.25500000920E-02 0. -1.
</event>
<event>
 5   0  0.2889469E-03  0.1406726E+04  0.7818609E-02  0.8948964E-01
        2   -1    0    0  501    0  0.00000000000E+00  0.00000000000E+00  0.10248931694E+04  0.10248931694E+04  0.25500000920E-02 0. -1.
       -2   -1    0    0    0  501  0.00000000000E+00  0.00000000000E+00 -0.48270366433E+03  0.48270366433E+03  0.25500000920E-02 0.  1.
    10030    2    1    2    0    0  0.00000000000E+00  0.00000000000E+00  0.54218950507E+03  0.15075968337E+04  0.14067262540E+04 0.  0.
        5    1    3    3  502    0 -0.14623918527E+03 -0.65206318851E+03  0.50620000759E+03  0.83835126218E+03  0.46999998093E+01 0. -1.
       -5    1    3    3    0  502  0.14623918527E+03  0.65206318851E+03  0.35989497485E+02  0.66924557156E+03  0.46999998093E+01 0.  1.
</event>
<event>
 5   0  0.2993993E-03  0.1414156E+04  0.7818609E-02  0.8943635E-01
        2   -1    0    0  501    0  0.00000000000E+00  0.00000000000E+00  0.17214395586E+04  0.17214395586E+04  0.25500000920E-02 0.  1.
       -2   -1    0    0    0  501  0.00000000000E+00  0.00000000000E+00 -0.29043089361E+03  0.29043089362E+03  0.25500000920E-02 0. -1.
    10030    2    1    2    0    0  0.00000000000E+00  0.00000000000E+00  0.14310086650E+04  0.20118704522E+04  0.14141559027E+04 0.  0.
        3    1    3    3  502    0 -0.65112291904E+03 -0.11328408462E+03  0.10730574409E+04  0.12602565696E+04  0.10100000352E+00 0.  1.
       -3    1    3    3    0  502  0.65112291904E+03  0.11328408462E+03  0.35795122408E+03  0.75161388262E+03  0.10100000352E+00 0. -1.
</event>
<event>
 5   0  0.1700207E-03  0.8558144E+03  0.7818609E-02  0.9482566E-01
        1   -1    0    0  501    0  0.00000000000E+00  0.00000000000E+00  0.10698955925E+04  0.10698955925E+04  0.50400001928E-02 0.  1.
       -1   -1    0    0    0  501  0.00000000000E+00  0.00000000000E+00 -0.17114247668E+03  0.17114247676E+03  0.50400001928E-02 0. -1.
    10030    2    1    2    0    0  0.00000000000E+00  0.00000000000E+00  0.89875311580E+03  0.12410380692E+04  0.85581442274E+03 0.  0.
        2    1    3    3  502    0 -0.38007782746E+03 -0.16458359406E+03  0.29347853962E+03  0.50761852565E+03  0.25500000920E-02 0.  1.
       -2    1    3    3    0  502  0.38007782746E+03  0.16458359406E+03  0.60527457618E+03  0.73341954360E+03  0.25500000920E-02 0. -1.
</event>
<event>
 5   0  0.2993993E-03  0.1411734E+04  0.7818609E-02  0.8945368E-01
       -2   -1    0    0    0  501  0.00000000000E+00  0.00000000000E+00  0.78320195815E+03  0.78320195816E+03  0.25500000920E-02 0.  1.
        2   -1    0    0  501    0  0.00000000000E+00  0.00000000000E+00 -0.63616861108E+03  0.63616861108E+03  0.25500000920E-02 0. -1.
    10030    2    1    2    0    0  0.00000000000E+00  0.00000000000E+00  0.14703334708E+03  0.14193705692E+04  0.14117343970E+04 0.  0.
        3    1    3    3  502    0 -0.30535450780E+03  0.20994321189E+03  0.67754161256E+03  0.77225654714E+03  0.10100000352E+00 0.  1.
       -3    1    3    3    0  502  0.30535450780E+03 -0.20994321189E+03 -0.53050826548E+03  0.64711402210E+03  0.10100000352E+00 0. -1.
</event>
<event>
 5   0  0.1560957E-03  0.1365776E+04  0.7818609E-02  0.8978971E-01
       -1   -1    0    0    0  501  0.00000000000E+00  0.00000000000E+00  0.30177970188E+03  0.30177970193E+03  0.50400001928E-02 0.  1.
        1   -1    0    0  501    0  0.00000000000E+00  0.00000000000E+00 -0.15452857054E+04  0.15452857054E+04  0.50400001928E-02 0. -1.
    10030    2    1    2    0    0  0.00000000000E+00  0.00000000000E+00 -0.12435060035E+04  0.18470654073E+04  0.13657757642E+04 0.  0.
        5    1    3    3  502    0  0.21849902458E+03  0.13832204599E+03  0.23297529613E+03  0.34810112145E+03  0.46999998093E+01 0.  1.
       -5    1    3    3    0  502 -0.21849902458E+03 -0.13832204599E+03 -0.14764812996E+04  0.14989642859E+04  0.46999998093E+01 0. -1.
</event>
<event>
 5   0  0.1631380E-03  0.1395880E+04  0.7818609E-02  0.8956807E-01
        1   -1    0    0  501    0  0.00000000000E+00  0.00000000000E+00  0.95954209476E+03  0.95954209478E+03  0.50400001928E-02 0. -1.
       -1   -1    0    0    0  501  0.00000000000E+00  0.00000000000E+00 -0.50765875907E+03  0.50765875909E+03  0.50400001928E-02 0.  1.
    10030    2    1    2    0    0  0.00000000000E+00  0.00000000000E+00  0.45188333569E+03  0.14672008539E+04  0.13958795781E+04 0.  0.
        3    1    3    3  502    0 -0.75024484344E+02  0.68000284558E+03  0.80725505338E+02  0.68887528672E+03  0.10100000352E+00 0.  1.
       -3    1    3    3    0  502  0.75024484344E+02 -0.68000284558E+03  0.37115783035E+03  0.77832556715E+03  0.10100000352E+00 0. -1.
</event>
<event>
 5   0  0.1644571E-03  0.1461661E+04  0.7818609E-02  0.8910356E-01
        1   -1    0    0  501    0  0.00000000000E+00  0.00000000000E+00  0.11980307764E+04  0.11980307764E+04  0.50400001928E-02 0. -1.
       -1   -1    0    0    0  501  0.00000000000E+00  0.00000000000E+00 -0.44582579389E+03  0.44582579391E+03  0.50400001928E-02 0.  1.
    10030    2    1    2    0    0  0.00000000000E+00  0.00000000000E+00  0.75220498250E+03  0.16438565703E+04  0.14616607295E+04 0.  0.
        4    1    3    3  502    0  0.23465374768E+03 -0.58617548131E+03 -0.37804318689E+02  0.63253051752E+03  0.12699999809E+01 0.  1.
       -4    1    3    3    0  502 -0.23465374768E+03  0.58617548131E+03  0.79000930119E+03  0.10113260528E+04  0.12699999809E+01 0. -1.
</event>
<event>
 5   0  0.2760807E-03  0.1385000E+04  0.7818609E-02  0.8964748E-01
       -2   -1    0    0    0  501  0.00000000000E+00  0.00000000000E+00  0.53656597968E+03  0.53656597969E+03  0.25500000920E-02 0. -1.
        2   -1    0    0  501    0  0.00000000000E+00  0.00000000000E+00 -0.89375128733E+03  0.89375128733E+03  0.25500000920E-02 0.  1.
    10030    2    1    2    0    0  0.00000000000E+00  0.00000000000E+00 -0.35718530765E+03  0.14303172670E+04  0.13850004117E+04 0.  0.
        4    1    3    3  502    0  0.55375757995E+03  0.32230204943E+03 -0.44992265081E+03  0.78291638956E+03  0.12699999809E+01 0.  1.
       -4    1    3    3    0  502 -0.55375757995E+03 -0.32230204943E+03  0.92737343168E+02  0.64740087746E+03  0.12699999809E+01 0. -1.
</event>
<event>
 5   0  0.1644571E-03  0.1402058E+04  0.7818609E-02  0.8952330E-01
       -1   -1    0    0    0  501  0.00000000000E+00  0.00000000000E+00  0.14806455484E+04  0.14806455484E+04  0.50400001928E-02 0. -1.
        1   -1    0    0  501    0  0.00000000000E+00  0.00000000000E+00 -0.33191028536E+03  0.33191028540E+03  0.50400001928E-02 0.  1.
    10030    2    1    2    0    0  0.00000000000E+00  0.00000000000E+00  0.11487352630E+04  0.18125558338E+04  0.14020577542E+04 0.  0.
        4    1    3    3  502    0  0.50265007356E+03  0.19829415967E+03  0.11517397342E+04  0.12721964072E+04  0.12699999809E+01 0. -1.
       -4    1    3    3    0  502 -0.50265007356E+03 -0.19829415967E+03 -0.30044711404E+01  0.54035942664E+03  0.12699999809E+01 0.  1.
</event>
<event>
 5   0  0.2889469E-03  0.1417021E+04  0.7818609E-02  0.8941589E-01
       -2   -1    0    0    0  501  0.00000000000E+00  0.00000000000E+00  0.26106728205E+03  0.26106728207E+03  0.25500000920E-02 0. -1.
        2   -1    0    0  501    0  0.00000000000E+00  0.00000000000E+00 -0.19228260714E+04  0.19228260714E+04  0.25500000920E-02 0.  1.
    10030    2    1    2    0    0  0.00000000000E+00  0.00000000000E+00 -0.16617587894E+04  0.21838933535E+04  0.14170207851E+04 0.  0.
        5    1    3    3  502    0  0.33155726260E+03 -0.13293656943E+03  0.11209824906E+03  0.37442016147E+03  0.46999998093E+01 0. -1.
       -5    1    3    3    0  502 -0.33155726260E+03  0.13293656943E+03 -0.17738570384E+04  0.18094731920E+04  0.46999998093E+01 0.  1.
</event>
<event>
 5   0  0.1631380E-03  0.1400264E+04  0.7818609E-02  0.8953628E-01
        1   -1    0    0  501    0  0.00000000000E+00  0.00000000000E+00  0.78576343813E+03  0.78576343814E+03  0.50400001928E-02 0.  1.
       -1   -1    0    0    0  501  0.00000000000E+00  0.00000000000E+00 -0.62383249730E+03  0.62383249732E+03  0.50400001928E-02 0. -1.
    10030    2    1    2    0    0  0.00000000000E+00  0.00000000000E+00  0.16193094083E+03  0.14095959355E+04  0.14002639293E+04 0.  0.
        3    1    3    3  502    0  0.63772464044E+03 -0.54368402873E+00 -0.20990960341E+03  0.67138294915E+03  0.10100000352E+00 0. -1.
       -3    1    3    3    0  502 -0.63772464044E+03  0.54368402873E+00  0.37184054424E+03  0.73821298631E+03  0.10100000352E+00 0.  1.
</event>
<event>
 5   0  0.2917809E-03  0.1432242E+04  0.7818609E-02  0.8930805E-01
       -2   -1    0    0    0  501  0.00000000000E+00  0.00000000000E+00  0.50932306103E+03  0.50932306104E+03  0.25500000920E-02 0. -1.
        2   -1    0    0  501    0  0.00000000000E+00  0.00000000000E+00 -0.10068839716E+04  0.10068839716E+04  0.25500000920E-02 0.  1.
    10030    2    1    2    0    0  0.00000000000E+00  0.00000000000E+00 -0.49756091057E+03  0.15162070326E+04  0.14322419161E+04 0.  0.
        2    1    3    3  502    0 -0.40465773552E+03  0.94292562622E+02 -0.86623225698E+03  0.96072748130E+03  0.25500000920E-02 0.  1.
       -2    1    3    3    0  502  0.40465773552E+03 -0.94292562622E+02  0.36867134641E+03  0.55547955134E+03  0.25500000920E-02 0. -1.
</event>
<event>
 5   0  0.2760807E-03  0.1393918E+04  0.7818609E-02  0.8958233E-01
        2   -1    0    0  501    0  0.00000000000E+00  0.00000000000E+00  0.67672759833E+03  0.67672759834E+03  0.25500000920E-02 0. -1.
       -2   -1    0    0    0  501  0.00000000000E+00  0.00000000000E+00 -0.71779501069E+03  0.71779501069E+03  0.25500000920E-02 0.  1.
    10030    2    1    2    0    0  0.00000000000E+00  0.00000000000E+00 -0.41067412357E+02  0.13945226090E+04  0.13939177790E+04 0.  0.
        4    1    3    3  502    0  0.29281778133E+02 -0.19173284946E+03  0.64918276452E+03  0.67753876844E+03  0.12699999809E+01 0. -1.
       -4    1    3    3    0  502 -0.29281778133E+02  0.19173284946E+03 -0.69025017688E+03  0.71698384059E+03  0.12699999809E+01 0.  1.
</event>
<event>
 5   0  0.2917809E-03  0.1416154E+04  0.7818609E-02  0.8942208E-01
        2   -1    0    0  501    0  0.00000000000E+00  0.00000000000E+00  0.12766533976E+04  0.12766533976E+04  0.25500000920E-02 0. -1.
       -2   -1    0    0    0  501  0.00000000000E+00  0.00000000000E+00 -0.39272425159E+03  0.39272425160E+03  0.25500000920E-02 0.  1.
    10030    2    1    2    0    0  0.00000000000E+00  0.00000000000E+00  0.88392914598E+03  0.16693776492E+04  0.14161535935E+04 0.  0.
        2    1    3    3  502    0 -0.38967726912E+03  0.42433459877E+00 -0.25495531558E+03  0.46567238170E+03  0.25500000920E-02 0.  1.
       -2    1    3    3    0  502  0.38967726912E+03 -0.42433459877E+00  0.11388844616E+04  0.12037052675E+04  0.25500000920E-02 0. -1.
</event>
<event>
 5   0  0.1644571E-03  0.1403199E+04  0.7818609E-02  0.8951506E-01
        1   -1    0    0  501    0  0.00000000000E+00  0.00000000000E+00  0.55686498579E+03  0.55686498581E+03  0.50400001928E-02 0. -1.
       -1   -1    0    0    0  501  0.00000000000E+00  0.00000000000E+00 -0.88395212197E+03  0.88395212199E+03  0.50400001928E-02 0.  1.
    10030    2    1    2    0    0  0.00000000000E+00  0.00000000000E+00 -0.32708713619E+03  0.14408171078E+04  0.14031991817E+04 0.  0.
        4    1    3    3  502    0 -0.52808607855E+03  0.34047679630E+03 -0.48406748370E+03  0.79317229960E+03  0.12699999809E+01 0.  1.
       -4    1    3    3    0  502  0.52808607855E+03 -0.34047679630E+03  0.15698034752E+03  0.64764480820E+03  0.12699999809E+01 0. -1.
</event>
<event>
 5   0  0.2889469E-03  0.1397133E+04  0.7818609E-02  0.8955897E-01
        2   -1    0    0  501    0  0.00000000000E+00  0.00000000000E+00  0.64754341505E+03  0.64754341506E+03  0.25500000920E-02 0. -1.
       -2   -1    0    0    0  501  0.00000000000E+00  0.00000000000E+00 -0.75360967683E+03  0.75360967684E+03  0.25500000920E-02 0.  1.
    10030    2    1    2    0    0  0.00000000000E+00  0.00000000000E+00 -0.10606626178E+03  0.14011530919E+04  0.13971327550E+04 0.  0.
        5    1    3    3  502    0  0.14883455090E+02  0.15099861209E+03 -0.73686826865E+03  0.75234236451E+03  0.46999998093E+01 0.  1.
       -5    1    3    3    0  502 -0.14883455090E+02 -0.15099861209E+03  0.63080200688E+03  0.64881072738E+03  0.46999998093E+01 0. -1.
</event>
<event>
 5   0  0.1700207E-03  0.1166636E+04  0.7818609E-02  0.9142572E-01
        1   -1    0    0  501    0  0.00000000000E+00  0.00000000000E+00  0.12572841183E+04  0.12572841184E+04  0.50400001928E-02 0.  1.
       -1   -1    0    0    0  501  0.00000000000E+00  0.00000000000E+00 -0.27063088882E+03  0.27063088886E+03  0.50400001928E-02 0. -1.
    10030    2    1    2    0    0  0.00000000000E+00  0.00000000000E+00  0.98665322953E+03  0.15279150072E+04  0.11666360503E+04 0.  0.
        2    1    3    3  502    0  0.53016615978E+03  0.21114944024E+03  0.65157358500E+03  0.86614570355E+03  0.25500000920E-02 0.  1.
       -2    1    3    3    0  502 -0.53016615978E+03 -0.21114944024E+03  0.33507964452E+03  0.66176930367E+03  0.25500000920E-02 0. -1.
</event>
<event>
 5   0  0.1586022E-03  0.1426542E+04  0.7818609E-02  0.8934827E-01
       -1   -1    0    0    0  501  0.00000000000E+00  0.00000000000E+00  0.15241391154E+04  0.15241391154E+04  0.50400001928E-02 0. -1.
        1   -1    0    0  501    0  0.00000000000E+00  0.00000000000E+00 -0.33379871469E+03  0.33379871473E+03  0.50400001928E-02 0.  1.
    10030    2    1    2    0    0  0.00000000000E+00  0.00000000000E+00  0.11903404007E+04  0.18579378301E+04  0.14265422220E+04 0.  0.
        1    1    3    3  502    0 -0.57705603611E+03  0.34848777237E+03  0.29162766454E+03  0.73449580738E+03  0.50400001928E-02 0.  1.
       -1    1    3    3    0  502  0.57705603611E+03 -0.34848777237E+03  0.89871273615E+03  0.11234420227E+04  0.50400001928E-02 0. -1.
</event>
<event>
 5   0  0.1560957E-03  0.8776425E+03  0.7818609E-02  0.9453969E-01
       -1   -1    0    0    0  501  0.00000000000E+00  0.00000000000E+00  0.35600301273E+03  0.35600301277E+03  0.50400001928E-02 0. -1.
        1   -1    0    0  501    0  0.00000000000E+00  0.00000000000E+00 -0.54090579512E+03  0.54090579514E+03  0.50400001928E-02 0.  1.
    10030    2    1    2    0    0  0.00000000000E+00  0.00000000000E+00 -0.18490278238E+03  0.89690880791E+03  0.87764250739E+03 0.  0.
        5    1    3    3  502    0  0.33841104467E+03  0.22145992300E+03  0.81507200990E+02  0.41259186427E+03  0.46999998093E+01 0. -1.
       -5    1    3    3    0  502 -0.33841104467E+03 -0.22145992300E+03 -0.26640998337E+03  0.48431694364E+03  0.46999998093E+01 0.  1.
</event>
<event>
 5   0  0.1644571E-03  0.1418692E+04  0.7818609E-02  0.8940399E-01
        1   -1    0    0  501    0  0.00000000000E+00  0.00000000000E+00  0.85303552663E+03  0.85303552665E+03  0.50400001928E-02 0. -1.
       -1   -1    0    0    0  501  0.00000000000E+00  0.00000000000E+00 -0.58986009619E+03  0.58986009621E+03  0.50400001928E-02 0.  1.
    10030    2    1    2    0    0  0.00000000000E+00  0.00000000000E+00  0.26317543044E+03  0.14428956229E+04  0.14186918169E+04 0.  0.
        4    1    3    3  502    0 -0.40654765115E+03  0.48764002567E+03 -0.19018979408E+03  0.66275754086E+03  0.12699999809E+01 0.  1.
       -4    1    3    3    0  502  0.40654765115E+03 -0.48764002567E+03  0.45336522451E+03  0.78013808200E+03  0.12699999809E+01 0. -1.
</event>
<event>
 5   0  0.3006737E-03  0.1383426E+04  0.7818609E-02  0.8965904E-01
       -2   -1    0    0    0  501  0.00000000000E+00  0.00000000000E+00  0.24471788837E+03  0.24471788838E+03  0.25500000920E-02 0. -1.
        2   -1    0    0  501    0  0.00000000000E+00  0.00000000000E+00 -0.19551768341E+04  0.19551768341E+04  0.25500000920E-02 0.  1.
    10030    2    1    2    0    0  0.00000000000E+00  0.00000000000E+00 -0.17104589458E+04  0.21998947225E+04  0.13834258148E+04 0.  0.
        1    1    3    3  502    0 -0.78405823916E+02  0.65599642025E+03 -0.52938642480E+03  0.84659834833E+03  0.50400001928E-02 0. -1.
       -1    1    3    3    0  502  0.78405823916E+02 -0.65599642025E+03 -0.11810725210E+04  0.13532963742E+04  0.50400001928E-02 0.  1.
</event>
<event>
 5   0  0.1586022E-03  0.1392596E+04  0.7818609E-02  0.8959195E-01
       -1   -1    0    0    0  501  0.00000000000E+00  0.00000000000E+00  0.50681127340E+03  0.50681127343E+03  0.50400001928E-02 0. -1.
        1   -1    0    0  501    0  0.00000000000E+00  0.00000000000E+00 -0.95663049366E+03  0.95663049367E+03  0.50400001928E-02 0.  1.
    10030    2    1    2    0    0  0.00000000000E+00  0.00000000000E+00 -0.44981922026E+03  0.14634417671E+04  0.13925963072E+04 0.  0.
        1    1    3    3  502    0  0.43362511599E+03  0.52353978022E+03 -0.38326216523E+03  0.78039383006E+03  0.50400001928E-02 0. -1.
       -1    1    3    3    0  502 -0.43362511599E+03 -0.52353978022E+03 -0.66557055029E+02  0.68304793703E+03  0.50400001928E-02 0.  1.
</event>
<event>
 5   0  0.2993993E-03  0.1381578E+04  0.7818609E-02  0.8967263E-01
       -2   -1    0    0    0  501  0.00000000000E+00  0.00000000000E+00  0.46989514486E+03  0.46989514487E+03  0.25500000920E-02 0. -1.
        2   -1    0    0  501    0  0.00000000000E+00  0.00000000000E+00 -0.10155226576E+04  0.10155226576E+04  0.25500000920E-02 0.  1.
    10030    2    1    2    0    0  0.00000000000E+00  0.00000000000E+00 -0.54562751272E+03  0.14854178025E+04  0.13815776001E+04 0.  0.
        3    1    3    3  502    0 -0.60557525116E+03  0.44067274795E+02  0.81379209829E+02  0.61260582393E+03  0.10100000352E+00 0. -1.
       -3    1    3    3    0  502  0.60557525116E+03 -0.44067274795E+02 -0.62700672255E+03  0.87281197852E+03  0.10100000352E+00 0.  1.
</event>
<event>
 5   0  0.3006737E-03  0.1390210E+04  0.7818609E-02  0.8960935E-01
       -2   -1    0    0    0  501  0.00000000000E+00  0.00000000000E+00  0.12429721499E+04  0.12429721499E+04  0.25500000920E-02 0.  1.
        2   -1    0    0  501    0  0.00000000000E+00  0.00000000000E+00 -0.38872255381E+03  0.38872255382E+03  0.25500000920E-02 0. -1.
    10030    2    1    2    0    0  0.00000000000E+00  0.00000000000E+00  0.85424959605E+03  0.16316947037E+04  0.13902104998E+04 0.  0.
        1    1    3    3  502    0 -0.59829537847E+03  0.28703675642E+03  0.67001007446E+03  0.94300634109E+03  0.50400001928E-02 0.  1.
       -1    1    3    3    0  502  0.59829537847E+03 -0.28703675642E+03  0.18423952159E+03  0.68868836260E+03  0.50400001928E-02 0. -1.
</event>
<event>
 5   0  0.3006737E-03  0.1400950E+04  0.7818609E-02  0.8953131E-01
        2   -1    0    0  501    0  0.00000000000E+00  0.00000000000E+00  0.12200198107E+04  0.12200198107E+04  0.25500000920E-02 0.  1.
       -2   -1    0    0    0  501  0.00000000000E+00  0.00000000000E+00 -0.40217820765E+03  0.40217820766E+03  0.25500000920E-02 0. -1.
    10030    2    1    2    0    0  0.00000000000E+00  0.00000000000E+00  0.81784160307E+03  0.16221980184E+04  0.14009502215E+04 0.  0.
        1    1    3    3  502    0 -0.58195356702E+03  0.36818034920E+03  0.55738246762E+03  0.88594691655E+03  0.50400001928E-02 0. -1.
       -1    1    3    3    0  502  0.58195356702E+03 -0.36818034920E+03  0.26045913545E+03  0.73625110184E+03  0.50400001928E-02 0.  1.
</event>
<event>
 5   0  0.2889469E-03  0.1416438E+04  0.7818609E-02  0.8942005E-01
        2   -1    0    0  501    0  0.00000000000E+00  0.00000000000E+00  0.13865474887E+04  0.13865474887E+04  0.25500000920E-02 0.  1.
       -2   -1    0    0    0  501  0.00000000000E+00  0.00000000000E+00 -0.36174327732E+03  0.36174327733E+03  0.25500000920E-02 0. -1.
    10030    2    1    2    0    0  0.00000000000E+00  0.00000000000E+00  0.10248042114E+04  0.17482907660E+04  0.14164381140E+04 0.  0.
        5    1    3    3  502    0 -0.23700254595E+03 -0.25017273508E+03  0.12760611385E+04  0.13217831605E+04  0.46999998093E+01 0.  1.
       -5    1    3    3    0  502  0.23700254595E+03  0.25017273508E+03 -0.25125692712E+03  0.42650760555E+03  0.46999998093E+01 0. -1.
</event>
<event>
 5   0  0.1560957E-03  0.1371074E+04  0.7818609E-02  0.8975027E-01
       -1   -1    0    0    0  501  0.00000000000E+00  0.00000000000E+00  0.14624926720E+04  0.14624926720E+04  0.50400001928E-02 0.  1.
        1   -1    0    0  501    0  0.00000000000E+00  0.00000000000E+00 -0.32134226501E+03  0.32134226505E+03  0.50400001928E-02 0. -1.
    10030    2    1    2    0    0  0.00000000000E+00  0.00000000000E+00  0.11411504070E+04  0.17838349371E+04  0.13710736053E+04 0.  0.
        5    1    3    3  502    0 -0.62568404853E+03  0.17263757510E+03  0.28359313372E+03  0.70833001942E+03  0.46999998093E+01 0. -1.
       -5    1    3    3    0  502  0.62568404853E+03 -0.17263757510E+03  0.85755727327E+03  0.10755049176E+04  0.46999998093E+01 0.  1.
</event>
<event>
 5   0  0.2993993E-03  0.1397057E+04  0.7818609E-02  0.8955951E-01
       -2   -1    0    0    0  501  0.00000000000E+00  0.00000000000E+00  0.36521092522E+03  0.36521092523E+03  0.25500000920E-02 0.  1.
        2   -1    0    0  501    0  0.00000000000E+00  0.00000000000E+00 -0.13360560311E+04  0.13360560311E+04  0.25500000920E-02 0. -1.
    10030    2    1    2    0    0  0.00000000000E+00  0.00000000000E+00 -0.97084510592E+03  0.17012669564E+04  0.13970572777E+04 0.  0.
        3    1    3    3  502    0  0.11340233329E+03 -0.39286916966E+03 -0.11750778758E+04  0.12441922271E+04  0.10100000352E+00 0. -1.
       -3    1    3    3    0  502 -0.11340233329E+03  0.39286916966E+03  0.20423276984E+03  0.45707472928E+03  0.10100000352E+00 0.  1.
</event>
<event>
 5   0  0.1700207E-03  0.1388448E+04  0.7818609E-02  0.8962223E-01
        1   -1    0    0  501    0  0.00000000000E+00  0.00000000000E+00  0.97207998001E+03  0.97207998002E+03  0.50400001928E-02 0. -1.
       -1   -1    0    0    0  501  0.00000000000E+00  0.00000000000E+00 -0.49578917576E+03  0.49578917579E+03  0.50400001928E-02 0.  1.
    10030    2    1    2    0    0  0.00000000000E+00  0.00000000000E+00  0.47629080425E+03  0.14678691558E+04  0.13884476686E+04 0.  0.
        2    1    3    3  502    0 -0.27862730808E+03  0.21225087688E+03  0.87181686329E+03  0.93954683474E+03  0.25500000920E-02 0. -1.
       -2    1    3    3    0  502  0.27862730808E+03 -0.21225087688E+03 -0.39552605905E+03  0.52832232107E+03  0.25500000920E-02 0.  1.
</event>
<event>
 5   0  0.1586022E-03  0.1396747E+04  0.7818609E-02  0.8956177E-01
        1   -1    0    0  501    0  0.00000000000E+00  0.00000000000E+00  0.56598924414E+03  0.56598924416E+03  0.50400001928E-02 0. -1.
       -1   -1    0    0    0  501  0.00000000000E+00  0.00000000000E+00 -0.86172215390E+03  0.86172215392E+03  0.50400001928E-02 0.  1.
    10030    2    1    2    0    0  0.00000000000E+00  0.00000000000E+00 -0.29573290976E+03  0.14277113981E+04  0.13967468927E+04 0.  0.
        1    1    3    3  502    0 -0.16610270550E+03  0.35513454996E+02  0.54455339954E+03  0.57042941652E+03  0.50400001928E-02 0. -1.
       -1    1    3    3    0  502  0.16610270550E+03 -0.35513454996E+02 -0.84028630931E+03  0.85728198155E+03  0.50400001928E-02 0.  1.
</event>
<event>
 5   0  0.1631380E-03  0.1313368E+04  0.7818609E-02  0.9019031E-01
       -1   -1    0    0    0  501  0.00000000000E+00  0.00000000000E+00  0.11067327295E+04  0.11067327296E+04  0.50400001928E-02 0. -1.
        1   -1    0    0  501    0  0.00000000000E+00  0.00000000000E+00 -0.38964594344E+03  0.38964594347E+03  0.50400001928E-02 0.  1.
    10030    2    1    2    0    0  0.00000000000E+00  0.00000000000E+00  0.71708678611E+03  0.14963786730E+04  0.13133680650E+04 0.  0.
        3    1    3    3  502    0  0.45589811531E+03  0.12420434482E+03 -0.16103279660E+03  0.49920074379E+03  0.10100000352E+00 0.  1.
       -3    1    3    3    0  502 -0.45589811531E+03 -0.12420434482E+03  0.87811958271E+03  0.99717792924E+03  0.10100000352E+00 0. -1.
</event>
<event>
 5   0  0.1631380E-03  0.1381489E+04  0.7818609E-02  0.8967328E-01
        1   -1    0    0  501    0  0.00000000000E+00  0.00000000000E+00  0.59826849439E+03  0.59826849441E+03  0.50400001928E-02 0.  1.
       -1   -1    0    0    0  501  0.00000000000E+00  0.00000000000E+00 -0.79751465786E+03  0.79751465788E+03  0.50400001928E-02 0. -1.
    10030    2    1    2    0    0  0.00000000000E+00  0.00000000000E+00 -0.19924616347E+03  0.13957831523E+04  0.13814888977E+04 0.  0.
        3    1    3    3  502    0  0.37813881509E+03  0.40565921197E+03 -0.51568432107E+03  0.75728375721E+03  0.10100000352E+00 0. -1.
       -3    1    3    3    0  502 -0.37813881509E+03 -0.40565921197E+03  0.31643815760E+03  0.63849939508E+03  0.10100000352E+00 0.  1.
</event>
<event>
 5   0  0.2917809E-03  0.1445205E+04  0.7818609E-02  0.8921732E-01
        2   -1    0    0  501    0  0.00000000000E+00  0.00000000000E+00  0.11783010774E+04  0.11783010774E+04  0.25500000920E-02 0.  1.
       -2   -1    0    0    0  501  0.00000000000E+00  0.00000000000E+00 -0.44314164989E+03  0.44314164989E+03  0.25500000920E-02 0. -1.
    10030    2    1    2    0    0  0.00000000000E+00  0.00000000000E+00  0.73515942746E+03  0.16214427272E+04  0.14452048761E+04 0.  0.
        2    1    3    3  502    0 -0.62920254522E+03 -0.31805250839E+03  0.54533317827E+03  0.89131448790E+03  0.25500000920E-02 0.  1.
       -2    1    3    3    0  502  0.62920254522E+03  0.31805250839E+03  0.18982624919E+03  0.73012823935E+03  0.25500000920E-02 0. -1.
</event>
<event>
 5   0  0.1560957E-03  0.1323461E+04  0.7818609E-02  0.9011164E-01
        1   -1    0    0  501    0  0.00000000000E+00  0.00000000000E+00  0.17155474809E+04  0.17155474809E+04  0.50400001928E-02 0.  1.
       -1   -1    0    0    0  501  0.00000000000E+00  0.00000000000E+00 -0.25524655535E+03  0.25524655540E+03  0.50400001928E-02 0. -1.
    10030    2    1    2    0    0  0.00000000000E+00  0.00000000000E+00  0.14603009255E+04  0.19707940363E+04  0.13234614994E+04 0.  0.
        5    1    3    3  502    0  0.11436127995E+03 -0.29336215995E+03  0.15968208565E+04  0.16275745135E+04  0.46999998093E+01 0.  1.
       -5    1    3    3    0  502 -0.11436127995E+03  0.29336215995E+03 -0.13651993100E+03  0.34321952276E+03  0.46999998093E+01 0. -1.
</event>
<event>
 5   0  0.2889469E-03  0.1393587E+04  0.7818609E-02  0.8958473E-01
       -2   -1    0    0    0  501  0.00000000000E+00  0.00000000000E+00  0.73911428525E+03  0.73911428525E+03  0.25500000920E-02 0.  1.
        2   -1    0    0  501    0  0.00000000000E+00  0.00000000000E+00 -0.65689627603E+03  0.65689627604E+03  0.25500000920E-02 0. -1.
    10030    2    1    2    0    0  0.00000000000E+00  0.00000000000E+00  0.82218009216E+02  0.13960105613E+04  0.13935873443E+04 0.  0.
        5    1    3    3  502    0 -0.29001044339E+03  0.63278391679E+03  0.97850152504E+01  0.69616045503E+03  0.46999998093E+01 0. -1.
       -5    1    3    3    0  502  0.29001044339E+03 -0.63278391679E+03  0.72432993965E+02  0.69985010626E+03  0.46999998093E+01 0.  1.
</event>
<event>
 5   0  0.1700207E-03  0.1424645E+04  0.7818609E-02  0.8936170E-01
        1   -1    0    0  501    0  0.00000000000E+00  0.00000000000E+00  0.48874372806E+03  0.48874372809E+03  0.50400001928E-02 0. -1.
       -1   -1    0    0    0  501  0.00000000000E+00  0.00000000000E+00 -0.10381781318E+04  0.10381781318E+04  0.50400001928E-02 0.  1.
    10030    2    1    2    0    0  0.00000000000E+00  0.00000000000E+00 -0.54943440370E+03  0.15269218599E+04  0.14246445880E+04 0.  0.
        2    1    3    3  502    0  0.38868555479E+01 -0.46912090177E+03  0.29978052323E+03  0.55673861931E+03  0.25500000920E-02 0. -1.
       -2    1    3    3    0  502 -0.38868555479E+01  0.46912090177E+03 -0.84921492693E+03  0.97018324055E+03  0.25500000920E-02 0.  1.
</event>
<event>
 5   0  0.1104538E-03  0.1242540E+04  0.7818609E-02  0.9076416E-01
       -4   -1    0    0    0  501  0.00000000000E+00  0.00000000000E+00  0.31788090104E+03  0.31788343799E+03  0.12699999809E+01 0. -1.
        4   -1    0    0  501    0  0.00000000000E+00  0.00000000000E+00 -0.12142084547E+04  0.12142091189E+04  0.12699999809E+01 0.  1.
    10030    2    1    2    0    0  0.00000000000E+00  0.00000000000E+00 -0.89632755370E+03  0.15320925569E+04  0.12425395444E+04 0.  0.
        4    1    3    3  502    0 -0.58362611186E+03  0.96291565309E+02 -0.68238496549E+03  0.90307383863E+03  0.12699999809E+01 0. -1.
       -4    1    3    3    0  502  0.58362611186E+03 -0.96291565309E+02 -0.21394258821E+03  0.62901871828E+03  0.12699999809E+01 0.  1.
</event>
<event>
 5   0  0.1586022E-03  0.1362786E+04  0.7818609E-02  0.8981205E-01
        1   -1    0    0  501    0  0.00000000000E+00  0.00000000000E+00  0.43186358497E+03  0.43186358500E+03  0.50400001928E-02 0. -1.
       -1   -1    0    0    0  501  0.00000000000E+00  0.00000000000E+00 -0.10750996257E+04  0.10750996257E+04  0.50400001928E-02 0.  1.
    10030    2    1    2    0    0  0.00000000000E+00  0.00000000000E+00 -0.64323604071E+03  0.15069632107E+04  0.13627859385E+04 0.  0.
        1    1    3    3  502    0  0.53022783967E+03 -0.10804779429E+03  0.13629433852E+03  0.55802511999E+03  0.50400001928E-02 0. -1.
       -1    1    3    3    0  502 -0.53022783967E+03  0.10804779429E+03 -0.77953037923E+03  0.94893809069E+03  0.50400001928E-02 0.  1.
</event>
<event>
 5   0  0.1700207E-03  0.1527907E+04  0.7818609E-02  0.8866104E-01
        1   -1    0    0  501    0  0.00000000000E+00  0.00000000000E+00  0.13414333271E+04  0.13414333271E+04  0.50400001928E-02 0.  1.
       -1   -1    0    0    0  501  0.00000000000E+00  0.00000000000E+00 -0.43507570337E+03  0.43507570340E+03  0.50400001928E-02 0. -1.
    10030    2    1    2    0    0  0.00000000000E+00  0.00000000000E+00  0.90635762369E+03  0.17765090305E+04  0.15279071285E+04 0.  0.
        2    1    3    3  502    0 -0.44317814063E+03  0.34296753973E+03 -0.15052444697E+03  0.58025098602E+03  0.25500000920E-02 0. -1.
       -2    1    3    3    0  502  0.44317814063E+03 -0.34296753973E+03  0.10568820707E+04  0.11962580445E+04  0.25500000920E-02 0.  1.
</event>
<event>
 5   0  0.3006737E-03  0.1400949E+04  0.7818609E-02  0.8953132E-01
        2   -1    0    0  501    0  0.00000000000E+00  0.00000000000E+00  0.16433035721E+04  0.16433035721E+04  0.25500000920E-02 0. -1.
       -2   -1    0    0    0  501  0.00000000000E+00  0.00000000000E+00 -0.29858424020E+03  0.29858424021E+03  0.25500000920E-02 0.  1.
    10030    2    1    2    0    0  0.00000000000E+00  0.00000000000E+00  0.13447193319E+04  0.19418878123E+04  0.14009490333E+04 0.  0.
        1    1    3    3  502    0  0.40634463758E+03  0.33322492446E+03  0.13143452884E+04  0.14155063942E+04  0.50400001928E-02 0. -1.
       -1    1    3    3    0  502 -0.40634463758E+03 -0.33322492446E+03  0.30374043461E+02  0.52638141810E+03  0.50400001928E-02 0.  1.
</event>
<event>
 5   0  0.3006737E-03  0.1389250E+04  0.7818609E-02  0.8961637E-01
       -2   -1    0    0    0  501  0.00000000000E+00  0.00000000000E+00  0.75702903055E+03  0.75702903056E+03  0.25500000920E-02 0.  1.
        2   -1    0    0  501    0  0.00000000000E+00  0.00000000000E+00 -0.63736513548E+03  0.63736513549E+03  0.25500000920E-02 0. -1.
    10030    2    1    2    0    0  0.00000000000E+00  0.00000000000E+00  0.11966389507E+03  0.13943941660E+04  0.13892500288E+04 0.  0.
        1    1    3    3  502    0 -0.67046865362E+03 -0.10236728140E+03  0.21037611069E+03  0.71011645789E+03  0.50400001928E-02 0.  1.
       -1    1    3    3    0  502  0.67046865362E+03  0.10236728140E+03 -0.90712215621E+02  0.68427770816E+03  0.50400001928E-02 0. -1.
</event>
<event>
 5   0  0.1104538E-03  0.1413205E+04  0.7818609E-02  0.8944315E-01
       -3   -1    0    0    0  501  0.00000000000E+00  0.00000000000E+00  0.43277824905E+03  0.43277826084E+03  0.10100000352E+00 0.  1.
        3   -1    0    0  501    0  0.00000000000E+00  0.00000000000E+00 -0.11536793768E+04  0.11536793812E+04  0.10100000352E+00 0. -1.
    10030    2    1    2    0    0  0.00000000000E+00  0.00000000000E+00 -0.72090112776E+03  0.15864576421E+04  0.14132053687E+04 0.  0.
        4    1    3    3  502    0 -0.14417337323E+03  0.68426219932E+03 -0.47429866928E+03  0.84496246044E+03  0.12699999809E+01 0. -1.
       -4    1    3    3    0  502  0.14417337323E+03 -0.68426219932E+03 -0.24660245847E+03  0.74149518164E+03  0.12699999809E+01 0.  1.
</event>
<event>
 5   0  0.1644571E-03  0.1380346E+04  0.7818609E-02  0.8968169E-01
       -1   -1    0    0    0  501  0.00000000000E+00  0.00000000000E+00  0.43188128803E+03  0.43188128806E+03  0.50400001928E-02 0.  1.
        1   -1    0    0  501    0  0.00000000000E+00  0.00000000000E+00 -0.11029398742E+04  0.11029398742E+04  0.50400001928E-02 0. -1.
    10030    2    1    2    0    0  0.00000000000E+00  0.00000000000E+00 -0.67105858615E+03  0.15348211623E+04  0.13803464688E+04 0.  0.
        4    1    3    3  502    0  0.15568218966E+03  0.45576032819E+03 -0.88520332348E+03  0.10077405210E+04  0.12699999809E+01 0. -1.
       -4    1    3    3    0  502 -0.15568218966E+03 -0.45576032819E+03  0.21414473733E+03  0.52708064123E+03  0.12699999809E+01 0.  1.
</event>
<event>
 5   0  0.2889469E-03  0.1396943E+04  0.7818609E-02  0.8956034E-01
        2   -1    0    0  501    0  0.00000000000E+00  0.00000000000E+00  0.10521242321E+04  0.10521242321E+04  0.25500000920E-02 0. -1.
       -2   -1    0    0    0  501  0.00000000000E+00  0.00000000000E+00 -0.46369288588E+03  0.46369288589E+03  0.25500000920E-02 0.  1.
    10030    2    1    2    0    0  0.00000000000E+00  0.00000000000E+00  0.58843134618E+03  0.15158171180E+04  0.13969431219E+04 0.  0.
        5    1    3    3  502    0  0.26253361249E+03  0.36170904179E+03 -0.28819185042E+03  0.53182136216E+03  0.46999998093E+01 0.  1.
       -5    1    3    3    0  502 -0.26253361249E+03 -0.36170904179E+03  0.87662319660E+03  0.98399575579E+03  0.46999998093E+01 0. -1.
</event>
<event>
 5   0  0.1560957E-03  0.1423543E+04  0.7818609E-02  0.8936951E-01
       -1   -1    0    0    0  501  0.00000000000E+00  0.00000000000E+00  0.67448066091E+03  0.67448066093E+03  0.50400001928E-02 0.  1.
        1   -1    0    0  501    0  0.00000000000E+00  0.00000000000E+00 -0.75112451314E+03  0.75112451315E+03  0.50400001928E-02 0. -1.
    10030    2    1    2    0    0  0.00000000000E+00  0.00000000000E+00 -0.76643852229E+02  0.14256051741E+04  0.14235434072E+04 0.  0.
        5    1    3    3  502    0  0.19795821671E+02  0.45648412132E+03  0.50820398554E+03  0.68342008200E+03  0.46999998093E+01 0.  1.
       -5    1    3    3    0  502 -0.19795821671E+02 -0.45648412132E+03 -0.58484783776E+03  0.74218509208E+03  0.46999998093E+01 0. -1.
</event>
<event>
 5   0  0.1700207E-03  0.1475955E+04  0.7818609E-02  0.8900602E-01
        1   -1    0    0  501    0  0.00000000000E+00  0.00000000000E+00  0.17317869895E+04  0.17317869895E+04  0.50400001928E-02 0.  1.
       -1   -1    0    0    0  501  0.00000000000E+00  0.00000000000E+00 -0.31447909539E+03  0.31447909543E+03  0.50400001928E-02 0. -1.
    10030    2    1    2    0    0  0.00000000000E+00  0.00000000000E+00  0.14173078941E+04  0.20462660849E+04  0.14759550209E+04 0.  0.
        2    1    3    3  502    0 -0.39727613522E+03 -0.49262361843E+03  0.12349470491E+04  0.13876601065E+04  0.25500000920E-02 0.  1.
       -2    1    3    3    0  502  0.39727613522E+03  0.49262361843E+03  0.18236084501E+03  0.65860597845E+03  0.25500000920E-02 0. -1.
</event>
<event>
 5   0  0.2889469E-03  0.1324114E+04  0.7818609E-02  0.9010658E-01
       -2   -1    0    0    0  501  0.00000000000E+00  0.00000000000E+00  0.28687194313E+03  0.28687194314E+03  0.25500000920E-02 0.  1.
        2   -1    0    0  501    0  0.00000000000E+00  0.00000000000E+00 -0.15279272241E+04  0.15279272241E+04  0.25500000920E-02 0. -1.
    10030    2    1    2    0    0  0.00000000000E+00  0.00000000000E+00 -0.12410552810E+04  0.18147991672E+04  0.13241139705E+04 0.  0.
        5    1    3    3  502    0  0.31745902355E+03 -0.57306795815E+03 -0.75134586267E+03  0.99685997595E+03  0.46999998093E+01 0.  1.
       -5    1    3    3    0  502 -0.31745902355E+03  0.57306795815E+03 -0.48970941831E+03  0.81793919130E+03  0.46999998093E+01 0. -1.
</event>
<event>
 5   0  0.3006737E-03  0.1390123E+04  0.7818609E-02  0.8960999E-01
        2   -1    0    0  501    0  0.00000000000E+00  0.00000000000E+00  0.84544329632E+03  0.84544329633E+03  0.25500000920E-02 0.  1.
       -2   -1    0    0    0  501  0.00000000000E+00  0.00000000000E+00 -0.57142847393E+03  0.57142847393E+03  0.25500000920E-02 0. -1.
    10030    2    1    2    0    0  0.00000000000E+00  0.00000000000E+00  0.27401482240E+03  0.14168717703E+04  0.13901228329E+04 0.  0.
        1    1    3    3  502    0 -0.53041341859E+03 -0.30610062406E+03 -0.19806506804E+03  0.64363480163E+03  0.50400001928E-02 0. -1.
       -1    1    3    3    0  502  0.53041341859E+03  0.30610062406E+03  0.47207989044E+03  0.77323696863E+03  0.50400001928E-02 0.  1.
</event>
<event>
 5   0  0.1700207E-03  0.1404010E+04  0.7818609E-02  0.8950921E-01
        1   -1    0    0  501    0  0.00000000000E+00  0.00000000000E+00  0.63837932913E+03  0.63837932915E+03  0.50400001928E-02 0.  1.
       -1   -1    0    0    0  501  0.00000000000E+00  0.00000000000E+00 -0.77197256528E+03  0.77197256529E+03  0.50400001928E-02 0. -1.
    10030    2    1    2    0    0  0.00000000000E+00  0.00000000000E+00 -0.13359323614E+03  0.14103518944E+04  0.14040104392E+04 0.  0.
        2    1    3    3  502    0  0.31348977908E+03  0.49175000424E+03 -0.45935245448E+03  0.74236014555E+03  0.25500000920E-02 0. -1.
       -2    1    3    3    0  502 -0.31348977908E+03 -0.49175000424E+03  0.32575921834E+03  0.66799174890E+03  0.25500000920E-02 0.  1.
</event>
<event>
 5   0  0.1560957E-03  0.1412960E+04  0.7818609E-02  0.8944491E-01
        1   -1    0    0  501    0  0.00000000000E+00  0.00000000000E+00  0.30884638030E+04  0.30884638030E+04  0.50400001928E-02 0.  1.
       -1   -1    0    0    0  501  0.00000000000E+00  0.00000000000E+00 -0.16160584925E+03  0.16160584933E+03  0.50400001928E-02 0. -1.
    10030    2    1    2    0    0  0.00000000000E+00  0.00000000000E+00  0.29268579538E+04  0.32500696523E+04  0.14129597530E+04 0.  0.
        5    1    3    3  502    0 -0.51368248636E+03 -0.28635555410E+03  0.23638055477E+04  0.24358710880E+04  0.46999998093E+01 0.  1.
       -5    1    3    3    0  502  0.51368248636E+03  0.28635555410E+03  0.56305240605E+03  0.81419856430E+03  0.46999998093E+01 0. -1.
</event>
<event>
 5   0  0.1631380E-03  0.1387617E+04  0.7818609E-02  0.8962831E-01
        1   -1    0    0  501    0  0.00000000000E+00  0.00000000000E+00  0.10211510671E+04  0.10211510671E+04  0.50400001928E-02 0. -1.
       -1   -1    0    0    0  501  0.00000000000E+00  0.00000000000E+00 -0.47139994559E+03  0.47139994562E+03  0.50400001928E-02 0.  1.
    10030    2    1    2    0    0  0.00000000000E+00  0.00000000000E+00  0.54975112152E+03  0.14925510127E+04  0.13876174653E+04 0.  0.
        3    1    3    3  502    0  0.40580786028E+03  0.35097405194E+03  0.74803618865E+03  0.92055469926E+03  0.10100000352E+00 0. -1.
       -3    1    3    3    0  502 -0.40580786028E+03 -0.35097405194E+03 -0.19828506713E+03  0.57199631349E+03  0.10100000352E+00 0.  1.
</event>
<event>
 5   0  0.1631380E-03  0.1265402E+04  0.7818609E-02  0.9057461E-01
       -1   -1    0    0    0  501  0.00000000000E+00  0.00000000000E+00  0.33037775300E+03  0.33037775304E+03  0.50400001928E-02 0. -1.
        1   -1    0    0  501    0  0.00000000000E+00  0.00000000000E+00 -0.12116749036E+04  0.12116749036E+04  0.50400001928E-02 0.  1.
    10030    2    1    2    0    0  0.00000000000E+00  0.00000000000E+00 -0.88129715057E+03  0.15420526566E+04  0.12654018050E+04 0.  0.
        3    1    3    3  502    0 -0.24735789130E+03 -0.26809808736E+03  0.18933309536E+03  0.41098606064E+03  0.10100000352E+00 0. -1.
       -3    1    3    3    0  502  0.24735789130E+03  0.26809808736E+03 -0.10706302459E+04  0.11310665960E+04  0.10100000352E+00 0.  1.
</event>
<event>
 5   0  0.1560957E-03  0.1419881E+04  0.7818609E-02  0.8939552E-01
       -1   -1    0    0    0  501  0.00000000000E+00  0.00000000000E+00  0.41720526355E+03  0.41720526358E+03  0.50400001928E-02 0.  1.
        1   -1    0    0  501    0  0.00000000000E+00  0.00000000000E+00 -0.12080764529E+04  0.12080764529E+04  0.50400001928E-02 0. -1.
    10030    2    1    2    0    0  0.00000000000E+00  0.00000000000E+00 -0.79087118932E+03  0.16252817165E+04  0.14198814809E+04 0.  0.
        5    1    3    3  502    0 -0.67939001547E+02  0.48581454946E+03  0.19199064504E+03  0.52679595878E+03  0.46999998093E+01 0.  1.
       -5    1    3    3    0  502  0.67939001547E+02 -0.48581454946E+03 -0.98286183436E+03  0.10984857577E+04  0.46999998093E+01 0. -1.
</event>
<event>
 5   0  0.1644571E-03  0.1374339E+04  0.7818609E-02  0.8972606E-01
        1   -1    0    0  501    0  0.00000000000E+00  0.00000000000E+00  0.47990141852E+03  0.47990141855E+03  0.50400001928E-02 0.  1.
       -1   -1    0    0    0  501  0.00000000000E+00  0.00000000000E+00 -0.98395538122E+03  0.98395538123E+03  0.50400001928E-02 0. -1.
    10030    2    1    2    0    0  0.00000000000E+00  0.00000000000E+00 -0.50405396270E+03  0.14638567998E+04  0.13743385074E+04 0.  0.
        4    1    3    3  502    0 -0.23809346514E+03  0.46197569428E+03 -0.73085242103E+03  0.89680372127E+03  0.12699999809E+01 0. -1.
       -4    1    3    3    0  502  0.23809346514E+03 -0.46197569428E+03  0.22679845834E+03  0.56705307851E+03  0.12699999809E+01 0.  1.
</event>
<event>
 5   0  0.1560957E-03  0.1532482E+04  0.7818609E-02  0.8863135E-01
       -1   -1    0    0    0  501  0.00000000000E+00  0.00000000000E+00  0.29039187687E+03  0.29039187692E+03  0.50400001928E-02 0. -1.
        1   -1    0    0  501    0  0.00000000000E+00  0.00000000000E+00 -0.20218390704E+04  0.20218390704E+04  0.50400001928E-02 0.  1.
    10030    2    1    2    0    0  0.00000000000E+00  0.00000000000E+00 -0.17314471935E+04  0.23122309473E+04  0.15324824860E+04 0.  0.
        5    1    3    3  502    0 -0.28098798457E+03 -0.28862933641E+03 -0.18491675676E+04  0.18925390153E+04  0.46999998093E+01 0.  1.
       -5    1    3    3    0  502  0.28098798457E+03  0.28862933641E+03  0.11772037411E+03  0.41969193200E+03  0.46999998093E+01 0. -1.
</event>
<event>
 5   0  0.2760807E-03  0.1264995E+04  0.7818609E-02  0.9057795E-01
       -2   -1    0    0    0  501  0.00000000000E+00  0.00000000000E+00  0.55713775956E+03  0.55713775956E+03  0.25500000920E-02 0.  1.
        2   -1    0    0  501    0  0.00000000000E+00  0.00000000000E+00 -0.71805052812E+03  0.71805052813E+03  0.25500000920E-02 0. -1.
    10030    2    1    2    0    0  0.00000000000E+00  0.00000000000E+00 -0.16091276857E+03  0.12751882877E+04  0.12649949605E+04 0.  0.
        4    1    3    3  502    0  0.47989907932E+03 -0.41025206888E+03 -0.11873025362E+03  0.64242382613E+03  0.12699999809E+01 0. -1.
       -4    1    3    3    0  502 -0.47989907932E+03  0.41025206888E+03 -0.42182514948E+02  0.63276446156E+03  0.12699999809E+01 0.  1.
</event>
<event>
 5   0  0.1560957E-03  0.7913265E+03  0.7818609E-02  0.9572657E-01
        1   -1    0    0  501    0  0.00000000000E+00  0.00000000000E+00  0.29680789125E+03  0.29680789129E+03  0.50400001928E-02 0. -1.
       -1   -1    0    0    0  501  0.00000000000E+00  0.00000000000E+00 -0.52744358046E+03  0.52744358049E+03  0.50400001928E-02 0.  1.
    10030    2    1    2    0    0  0.00000000000E+00  0.00000000000E+00 -0.23063568921E+03  0.82425147178E+03  0.79132652400E+03 0.  0.
        5    1    3    3  502    0 -0.39122694836E+03  0.22390531077E+02 -0.58576858839E+02  0.39624891091E+03  0.46999998093E+01 0. -1.
       -5    1    3    3    0  502  0.39122694836E+03 -0.22390531077E+02 -0.17205883038E+03  0.42800256087E+03  0.46999998093E+01 0.  1.
</event>
<event>
 5   0  0.2993993E-03  0.1398196E+04  0.7818609E-02  0.8955125E-01
        2   -1    0    0  501    0  0.00000000000E+00  0.00000000000E+00  0.12911685015E+04  0.12911685015E+04  0.25500000920E-02 0.  1.
       -2   -1    0    0    0  501  0.00000000000E+00  0.00000000000E+00 -0.37852387927E+03  0.37852387928E+03  0.25500000920E-02 0. -1.
    10030    2    1    2    0    0  0.00000000000E+00  0.00000000000E+00  0.91264462227E+03  0.16696923808E+04  0.13981961379E+04 0.  0.
        3    1    3    3  502    0 -0.58023711680E+03  0.55939518637E+02 -0.45333659468E+01  0.58294502577E+03  0.10100000352E+00 0. -1.
       -3    1    3    3    0  502  0.58023711680E+03 -0.55939518637E+02  0.91717798822E+03  0.10867473551E+04  0.10100000352E+00 0.  1.
</event>
<event>
 5   0  0.2993993E-03  0.1380969E+04  0.7818609E-02  0.8967711E-01
       -2   -1    0    0    0  501  0.00000000000E+00  0.00000000000E+00  0.35624693029E+03  0.35624693030E+03  0.25500000920E-02 0. -1.
        2   -1    0    0  501    0  0.00000000000E+00  0.00000000000E+00 -0.13383099910E+04  0.13383099910E+04  0.25500000920E-02 0.  1.
    10030    2    1    2    0    0  0.00000000000E+00  0.00000000000E+00 -0.98206306070E+03  0.16945569213E+04  0.13809689730E+04 0.  0.
        3    1    3    3  502    0 -0.28382119885E+03  0.27563199427E+03 -0.11854334971E+04  0.12497119890E+04  0.10100000352E+00 0.  1.
       -3    1    3    3    0  502  0.28382119885E+03 -0.27563199427E+03  0.20337043641E+03  0.44484493229E+03  0.10100000352E+00 0. -1.
</event>
<event>
 5   0  0.1104538E-03  0.1491786E+04  0.7818609E-02  0.8889933E-01
       -4   -1    0    0    0  501  0.00000000000E+00  0.00000000000E+00  0.55569510634E+03  0.55569655758E+03  0.12699999809E+01 0. -1.
        4   -1    0    0  501    0  0.00000000000E+00  0.00000000000E+00 -0.10011873983E+04  0.10011882038E+04  0.12699999809E+01 0.  1.
    10030    2    1    2    0    0  0.00000000000E+00  0.00000000000E+00 -0.44549229196E+03  0.15568847614E+04  0.14917864385E+04 0.  0.
        4    1    3    3  502    0  0.62843161628E+03 -0.38537029468E+03 -0.34136568033E+03  0.81238457702E+03  0.12699999809E+01 0.  1.
       -4    1    3    3    0  502 -0.62843161628E+03  0.38537029468E+03 -0.10412661163E+03  0.74450018436E+03  0.12699999809E+01 0. -1.
</event>
<event>
 5   0  0.2889469E-03  0.1428241E+04  0.7818609E-02  0.8933626E-01
       -2   -1    0    0    0  501  0.00000000000E+00  0.00000000000E+00  0.39173302487E+03  0.39173302488E+03  0.25500000920E-02 0. -1.
        2   -1    0    0  501    0  0.00000000000E+00  0.00000000000E+00 -0.13018253052E+04  0.13018253052E+04  0.25500000920E-02 0.  1.
    10030    2    1    2    0    0  0.00000000000E+00  0.00000000000E+00 -0.91009228033E+03  0.16935583301E+04  0.14282408266E+04 0.  0.
        5    1    3    3  502    0  0.36373975390E+03 -0.13371930064E+03 -0.11662665261E+04  0.12289780957E+04  0.46999998093E+01 0.  1.
       -5    1    3    3    0  502 -0.36373975390E+03  0.13371930064E+03  0.25617424577E+03  0.46458023433E+03  0.46999998093E+01 0. -1.
</event>
<event>
 5   0  0.1560957E-03  0.1381569E+04  0.7818609E-02  0.8967269E-01
        1   -1    0    0  501    0  0.00000000000E+00  0.00000000000E+00  0.10123773624E+04  0.10123773624E+04  0.50400001928E-02 0.  1.
       -1   -1    0    0    0  501  0.00000000000E+00  0.00000000000E+00 -0.47134946329E+03  0.47134946332E+03  0.50400001928E-02 0. -1.
    10030    2    1    2    0    0  0.00000000000E+00  0.00000000000E+00  0.54102789910E+03  0.14837268257E+04  0.13815694357E+04 0.  0.
        5    1    3    3  502    0 -0.18981862930E+03  0.41951160577E+03 -0.28247841390E+03  0.54021962545E+03  0.46999998093E+01 0. -1.
       -5    1    3    3    0  502  0.18981862930E+03 -0.41951160577E+03  0.82350631300E+03  0.94350720027E+03  0.46999998093E+01 0.  1.
</event>
<event>
 5   0  0.1700207E-03  0.1395362E+04  0.7818609E-02  0.8957182E-01
        1   -1    0    0  501    0  0.00000000000E+00  0.00000000000E+00  0.56225950066E+03  0.56225950068E+03  0.50400001928E-02 0.  1.
       -1   -1    0    0    0  501  0.00000000000E+00  0.00000000000E+00 -0.86571963088E+03  0.86571963089E+03  0.50400001928E-02 0. -1.
    10030    2    1    2    0    0  0.00000000000E+00  0.00000000000E+00 -0.30346013022E+03  0.14279791316E+04  0.13953624438E+04 0.  0.
        2    1    3    3  502    0 -0.50318664285E+03  0.17543818304E+03 -0.61257136038E+03  0.81192304141E+03  0.25500000920E-02 0. -1.
       -2    1    3    3    0  502  0.50318664285E+03 -0.17543818304E+03  0.30911123016E+03  0.61605609016E+03  0.25500000920E-02 0.  1.
</event>
<event>
 5   0  0.2889469E-03  0.1350062E+04  0.7818609E-02  0.8990781E-01
       -2   -1    0    0    0  501  0.00000000000E+00  0.00000000000E+00  0.23578576052E+03  0.23578576053E+03  0.25500000920E-02 0.  1.
        2   -1    0    0  501    0  0.00000000000E+00  0.00000000000E+00 -0.19325474821E+04  0.19325474821E+04  0.25500000920E-02 0. -1.
    10030    2    1    2    0    0  0.00000000000E+00  0.00000000000E+00 -0.16967617216E+04  0.21683332426E+04  0.13500624842E+04 0.  0.
        5    1    3    3  502    0 -0.43841629815E+03 -0.48403431003E+03 -0.11225820086E+04  0.12987341991E+04  0.46999998093E+01 0. -1.
       -5    1    3    3    0  502  0.43841629815E+03  0.48403431003E+03 -0.57417971294E+03  0.86959904354E+03  0.46999998093E+01 0.  1.
</event>
<event>
 5   0  0.3006737E-03  0.1398312E+04  0.7818609E-02  0.8955041E-01
       -2   -1    0    0    0  501  0.00000000000E+00  0.00000000000E+00  0.25648496937E+03  0.25648496938E+03  0.25500000920E-02 0.  1.
        2   -1    0    0  501    0  0.00000000000E+00  0.00000000000E+00 -0.19058393516E+04  0.19058393516E+04  0.25500000920E-02 0. -1.
    10030    2    1    2    0    0  0.00000000000E+00  0.00000000000E+00 -0.16493543822E+04  0.21623243210E+04  0.13983120506E+04 0.  0.
        1    1    3    3  502    0  0.25471754947E+03  0.26422667349E+02 -0.18307051841E+04  0.18485293231E+04  0.50400001928E-02 0. -1.
       -1    1    3    3    0  502 -0.25471754947E+03 -0.26422667349E+02  0.18135080182E+03  0.31379499789E+03  0.50400001928E-02 0.  1.
</event>
<event>
 5   0  0.1700207E-03  0.7910872E+03  0.7818609E-02  0.9573008E-01
        1   -1    0    0  501    0  0.00000000000E+00  0.00000000000E+00  0.10208425521E+04  0.10208425522E+04  0.50400001928E-02 0.  1.
       -1   -1    0    0    0  501  0.00000000000E+00  0.00000000000E+00 -0.15326038649E+03  0.15326038658E+03  0.50400001928E-02 0. -1.
    10030    2    1    2    0    0  0.00000000000E+00  0.00000000000E+00  0.86758216565E+03  0.11741029387E+04  0.79108716118E+03 0.  0.
        2    1    3    3  502    0 -0.14258641845E+02 -0.39004575826E+03  0.52900596644E+03  0.65740878830E+03  0.25500000920E-02 0.  1.
       -2    1    3    3    0  502  0.14258641845E+02  0.39004575826E+03  0.33857619921E+03  0.51669415043E+03  0.25500000920E-02 0. -1.
</event>
<event>
 5   0  0.3006737E-03  0.1407058E+04  0.7818609E-02  0.8948726E-01
        2   -1    0    0  501    0  0.00000000000E+00  0.00000000000E+00  0.78296675382E+03  0.78296675383E+03  0.25500000920E-02 0. -1.
       -2   -1    0    0    0  501  0.00000000000E+00  0.00000000000E+00 -0.63215054511E+03  0.63215054512E+03  0.25500000920E-02 0.  1.
    10030    2    1    2    0    0  0.00000000000E+00  0.00000000000E+00  0.15081620871E+03  0.14151172989E+04  0.14070577248E+04 0.  0.
        1    1    3    3  502    0 -0.27949784993E+03 -0.59151298058E+03 -0.18481359558E+03  0.67982550662E+03  0.50400001928E-02 0.  1.
       -1    1    3    3    0  502  0.27949784993E+03  0.59151298058E+03  0.33562980428E+03  0.73529179233E+03  0.50400001928E-02 0. -1.
</event>
<event>
 5   0  0.1644571E-03  0.1395283E+04  0.7818609E-02  0.8957240E-01
        1   -1    0    0  501    0  0.00000000000E+00  0.00000000000E+00  0.46024303607E+03  0.46024303610E+03  0.50400001928E-02 0.  1.
       -1   -1    0    0    0  501  0.00000000000E+00  0.00000000000E+00 -0.10574920505E+04  0.10574920506E+04  0.50400001928E-02 0. -1.
    10030    2    1    2    0    0  0.00000000000E+00  0.00000000000E+00 -0.59724901447E+03  0.15177350867E+04  0.13952825549E+04 0.  0.
        4    1    3    3  502    0 -0.57632745574E+02 -0.61156164212E+03  0.61114892573E+02  0.61730528790E+03  0.12699999809E+01 0.  1.
       -4    1    3    3    0  502  0.57632745574E+02  0.61156164212E+03 -0.65836390705E+03  0.90042979875E+03  0.12699999809E+01 0. -1.
</event>
<event>
 5   0  0.2993993E-03  0.1462540E+04  0.7818609E-02  0.8909752E-01
       -2   -1    0    0    0  501  0.00000000000E+00  0.00000000000E+00  0.44750532634E+03  0.44750532635E+03  0.25500000920E-02 0.  1.
        2   -1    0    0  501    0  0.00000000000E+00  0.00000000000E+00 -0.11949715626E+04  0.11949715626E+04  0.25500000920E-02 0. -1.
    10030    2    1    2    0    0  0.00000000000E+00  0.00000000000E+00 -0.74746623622E+03  0.16424768889E+04  0.14625404461E+04 0.  0.
        3    1    3    3  502    0  0.55854728949E+03  0.36545821664E+03 -0.38284684696E+02  0.66858096741E+03  0.10100000352E+00 0.  1.
       -3    1    3    3    0  502 -0.55854728949E+03 -0.36545821664E+03 -0.70918155153E+03  0.97389592151E+03  0.10100000352E+00 0. -1.
</event>
<event>
 5   0  0.1644571E-03  0.1096238E+04  0.7818609E-02  0.9208867E-01
       -1   -1    0    0    0  501  0.00000000000E+00  0.00000000000E+00  0.24927586802E+03  0.24927586807E+03  0.50400001928E-02 0. -1.
        1   -1    0    0  501    0  0.00000000000E+00  0.00000000000E+00 -0.12052280027E+04  0.12052280027E+04  0.50400001928E-02 0.  1.
    10030    2    1    2    0    0  0.00000000000E+00  0.00000000000E+00 -0.95595213470E+03  0.14545038708E+04  0.10962376687E+04 0.  0.
        4    1    3    3  502    0 -0.40310535238E+03  0.36881853322E+03 -0.41996516854E+03  0.68912509115E+03  0.12699999809E+01 0. -1.
       -4    1    3    3    0  502  0.40310535238E+03 -0.36881853322E+03 -0.53598696616E+03  0.76537877966E+03  0.12699999809E+01 0.  1.
</event>
<event>
 5   0  0.2993993E-03  0.1328282E+04  0.7818609E-02  0.9007433E-01
       -2   -1    0    0    0  501  0.00000000000E+00  0.00000000000E+00  0.59024393697E+03  0.59024393698E+03  0.25500000920E-02 0. -1.
        2   -1    0    0  501    0  0.00000000000E+00  0.00000000000E+00 -0.74729009094E+03  0.74729009094E+03  0.25500000920E-02 0.  1.
    10030    2    1    2    0    0  0.00000000000E+00  0.00000000000E+00 -0.15704615396E+03  0.13375340279E+04  0.13282822672E+04 0.  0.
        3    1    3    3  502    0 -0.27755687541E+03  0.48137670451E+03  0.28777162031E+03  0.62575863270E+03  0.10100000352E+00 0. -1.
       -3    1    3    3    0  502  0.27755687541E+03 -0.48137670451E+03 -0.44481777427E+03  0.71177539523E+03  0.10100000352E+00 0.  1.
</event>
<event>
 5   0  0.2760807E-03  0.1332930E+04  0.7818609E-02  0.9003851E-01
       -2   -1    0    0    0  501  0.00000000000E+00  0.00000000000E+00  0.46735589873E+03  0.46735589873E+03  0.25500000920E-02 0. -1.
        2   -1    0    0  501    0  0.00000000000E+00  0.00000000000E+00 -0.95040099618E+03  0.95040099619E+03  0.25500000920E-02 0.  1.
    10030    2    1    2    0    0  0.00000000000E+00  0.00000000000E+00 -0.48304509746E+03  0.14177568949E+04  0.13329298732E+04 0.  0.
        4    1    3    3  502    0 -0.86601903005E+01  0.41994887866E+03 -0.79188980498E+03  0.89639452013E+03  0.12699999809E+01 0.  1.
       -4    1    3    3    0  502  0.86601903005E+01 -0.41994887866E+03  0.30884470752E+03  0.52136237479E+03  0.12699999809E+01 0. -1.
</event>
<event>
 5   0  0.2917809E-03  0.1413313E+04  0.7818609E-02  0.8944238E-01
       -2   -1    0    0    0  501  0.00000000000E+00  0.00000000000E+00  0.45427537176E+03  0.45427537176E+03  0.25500000920E-02 0. -1.
        2   -1    0    0  501    0  0.00000000000E+00  0.00000000000E+00 -0.10992524840E+04  0.10992524840E+04  0.25500000920E-02 0.  1.
    10030    2    1    2    0    0  0.00000000000E+00  0.00000000000E+00 -0.64497711224E+03  0.15535278558E+04  0.14133128894E+04 0.  0.
        2    1    3    3  502    0  0.24818228595E+03  0.38466538549E+03 -0.91422863245E+03  0.10224362563E+04  0.25500000920E-02 0.  1.
       -2    1    3    3    0  502 -0.24818228595E+03 -0.38466538549E+03  0.26925152021E+03  0.53109159944E+03  0.25500000920E-02 0. -1.
</event>
<event>
 5   0  0.2917809E-03  0.1401535E+04  0.7818609E-02  0.8952708E-01
        2   -1    0    0  501    0  0.00000000000E+00  0.00000000000E+00  0.31041301155E+04  0.31041301155E+04  0.25500000920E-02 0. -1.
       -2   -1    0    0    0  501  0.00000000000E+00  0.00000000000E+00 -0.15820053532E+03  0.15820053534E+03  0.25500000920E-02 0.  1.
    10030    2    1    2    0    0  0.00000000000E+00  0.00000000000E+00  0.29459295802E+04  0.32623306508E+04  0.14015349386E+04 0.  0.
        2    1    3    3  502    0  0.12759482391E+03 -0.54239126762E+03  0.48375018613E+03  0.73789089225E+03  0.25500000920E-02 0.  1.
       -2    1    3    3    0  502 -0.12759482391E+03  0.54239126762E+03  0.24621793941E+04  0.25244397586E+04  0.25500000920E-02 0. -1.
</event>
<event>
 5   0  0.1644571E-03  0.1440049E+04  0.7818609E-02  0.8925328E-01
       -1   -1    0    0    0  501  0.00000000000E+00  0.00000000000E+00  0.34686262552E+03  0.34686262556E+03  0.50400001928E-02 0. -1.
        1   -1    0    0  501    0  0.00000000000E+00  0.00000000000E+00 -0.14946419144E+04  0.14946419144E+04  0.50400001928E-02 0.  1.
    10030    2    1    2    0    0  0.00000000000E+00  0.00000000000E+00 -0.11477792889E+04  0.18415045400E+04  0.14400491918E+04 0.  0.
        4    1    3    3  502    0 -0.27709874119E+03 -0.65646021176E+03 -0.70622987911E+03  0.10032377470E+04  0.12699999809E+01 0. -1.
       -4    1    3    3    0  502  0.27709874119E+03  0.65646021176E+03 -0.44154940978E+03  0.83826679295E+03  0.12699999809E+01 0.  1.
</event>
<event>
 5   0  0.2917809E-03  0.1380844E+04  0.7818609E-02  0.8967802E-01
        2   -1    0    0  501    0  0.00000000000E+00  0.00000000000E+00  0.18396106131E+04  0.18396106131E+04  0.25500000920E-02 0. -1.
       -2   -1    0    0    0  501  0.00000000000E+00  0.00000000000E+00 -0.25912151676E+03  0.25912151677E+03  0.25500000920E-02 0.  1.
    10030    2    1    2    0    0  0.00000000000E+00  0.00000000000E+00  0.15804890964E+04  0.20987321299E+04  0.13808442234E+04 0.  0.
        2    1    3    3  502    0  0.58881259851E+03 -0.25941129279E+03  0.40970025408E+03  0.76279013706E+03  0.25500000920E-02 0.  1.
       -2    1    3    3    0  502 -0.58881259851E+03  0.25941129279E+03  0.11707888423E+04  0.13359419928E+04  0.25500000920E-02 0. -1.
</event>
<event>
 5   0  0.2889469E-03  0.1430726E+04  0.7818609E-02  0.8931873E-01
       -2   -1    0    0    0  501  0.00000000000E+00  0.00000000000E+00  0.63603144128E+03  0.63603144128E+03  0.25500000920E-02 0.  1.
        2   -1    0    0  501    0  0.00000000000E+00  0.00000000000E+00 -0.80458973077E+03  0.80458973078E+03  0.25500000920E-02 0. -1.
    10030    2    1    2    0    0  0.00000000000E+00  0.00000000000E+00 -0.16855828949E+03  0.14406211721E+04  0.14307262018E+04 0.  0.
        5    1    3    3  502    0  0.39668358997E+03  0.34556494941E+03 -0.57234712151E+03  0.77741644072E+03  0.46999998093E+01 0. -1.
       -5    1    3    3    0  502 -0.39668358997E+03 -0.34556494941E+03  0.40378883202E+03  0.66320473134E+03  0.46999998093E+01 0.  1.
</event>
<event>
 5   0  0.2889469E-03  0.1403487E+04  0.7818609E-02  0.8951298E-01
        2   -1    0    0  501    0  0.00000000000E+00  0.00000000000E+00  0.13777650996E+04  0.13777650996E+04  0.25500000920E-02 0.  1.
       -2   -1    0    0    0  501  0.00000000000E+00  0.00000000000E+00 -0.35742228205E+03  0.35742228205E+03  0.25500000920E-02 0. -1.
    10030    2    1    2    0    0  0.00000000000E+00  0.00000000000E+00  0.10203428176E+04  0.17351873817E+04  0.14034870089E+04 0.  0.
        5    1    3    3  502    0  0.37119028301E+03 -0.39392738963E+03 -0.41990962828E+02  0.54290546641E+03  0.46999998093E+01 0. -1.
       -5    1    3    3    0  502 -0.37119028301E+03  0.39392738963E+03  0.10623337804E+04  0.11922819153E+04  0.46999998093E+01 0.  1.
</event>
<event>
 5   0  0.2993993E-03  0.1394714E+04  0.7818609E-02  0.8957654E-01
       -2   -1    0    0    0  501  0.00000000000E+00  0.00000000000E+00  0.30463835462E+03  0.30463835463E+03  0.25500000920E-02 0.  1.
        2   -1    0    0  501    0  0.00000000000E+00  0.00000000000E+00 -0.15963412085E+04  0.15963412085E+04  0.25500000920E-02 0. -1.
    10030    2    1    2    0    0  0.00000000000E+00  0.00000000000E+00 -0.12917028538E+04  0.19009795631E+04  0.13947139623E+04 0.  0.
        3    1    3    3  502    0  0.40207703874E+03  0.96545370315E+02 -0.14112152271E+04  0.14705493467E+04  0.10100000352E+00 0. -1.
       -3    1    3    3    0  502 -0.40207703874E+03 -0.96545370315E+02  0.11951237329E+03  0.43043021639E+03  0.10100000352E+00 0.  1.
</event>
<event>
 5   0  0.1560957E-03  0.1441309E+04  0.7818609E-02  0.8924448E-01
        1   -1    0    0  501    0  0.00000000000E+00  0.00000000000E+00  0.10848067649E+04  0.10848067649E+04  0.50400001928E-02 0. -1.
       -1   -1    0    0    0  501  0.00000000000E+00  0.00000000000E+00 -0.47874258444E+03  0.47874258446E+03  0.50400001928E-02 0.  1.
    10030    2    1    2    0    0  0.00000000000E+00  0.00000000000E+00  0.60606418042E+03  0.15635493493E+04  0.14413093967E+04 0.  0.
        5    1    3    3  502    0 -0.20497604999E+03 -0.48350176497E+03 -0.23231119894E+03  0.57426450435E+03  0.46999998093E+01 0.  1.
       -5    1    3    3    0  502  0.20497604999E+03  0.48350176497E+03  0.83837537936E+03  0.98928484499E+03  0.46999998093E+01 0. -1.
</event>
<event>
 5   0  0.1586022E-03  0.8926183E+03  0.7818609E-02  0.9434856E-01
        1   -1    0    0  501    0  0.00000000000E+00  0.00000000000E+00  0.77552265450E+03  0.77552265452E+03  0.50400001928E-02 0. -1.
       -1   -1    0    0    0  501  0.00000000000E+00  0.00000000000E+00 -0.25684853876E+03  0.25684853881E+03  0.50400001928E-02 0.  1.
    10030    2    1    2    0    0  0.00000000000E+00  0.00000000000E+00  0.51867411574E+03  0.10323711933E+04  0.89261830727E+03 0.  0.
        1    1    3    3  502    0  0.29198770324E+02  0.11406788781E+03  0.75723506052E+03  0.76633477549E+03  0.50400001928E-02 0. -1.
       -1    1    3    3    0  502 -0.29198770324E+02 -0.11406788781E+03 -0.23856094478E+03  0.26603641784E+03  0.50400001928E-02 0.  1.
</event>
<event>
 5   0  0.2993993E-03  0.1271516E+04  0.7818609E-02  0.9052463E-01
        2   -1    0    0  501    0  0.00000000000E+00  0.00000000000E+00  0.37980935878E+03  0.37980935878E+03  0.25500000920E-02 0. -1.
       -2   -1    0    0    0  501  0.00000000000E+00  0.00000000000E+00 -0.10641875077E+04  0.10641875077E+04  0.25500000920E-02 0.  1.
    10030    2    1    2    0    0  0.00000000000E+00  0.00000000000E+00 -0.68437814895E+03  0.14439968665E+04  0.12715162208E+04 0.  0.
        3    1    3    3  502    0  0.22302987935E+03  0.27848763469E+03 -0.93977245526E+03  0.10052213526E+04  0.10100000352E+00 0. -1.
       -3    1    3    3    0  502 -0.22302987935E+03 -0.27848763469E+03  0.25539430631E+03  0.43877551396E+03  0.10100000352E+00 0.  1.
</event>
<event>
 5   0  0.1104538E-03  0.1448693E+04  0.7818609E-02  0.8919307E-01
       -4   -1    0    0    0  501  0.00000000000E+00  0.00000000000E+00  0.61750413637E+03  0.61750544236E+03  0.12699999809E+01 0.  1.
        4   -1    0    0  501    0  0.00000000000E+00  0.00000000000E+00 -0.84967195365E+03  0.84967290278E+03  0.12699999809E+01 0. -1.
    10030    2    1    2    0    0  0.00000000000E+00  0.00000000000E+00 -0.23216781727E+03  0.14671783451E+04  0.14486926524E+04 0.  0.
        5    1    3    3  502    0  0.55770572207E+03 -0.14764294216E+03  0.32747895492E+03  0.66339932673E+03  0.46999998093E+01 0.  1.
       -5    1    3    3    0  502 -0.55770572207E+03  0.14764294216E+03 -0.55964677219E+03  0.80377901840E+03  0.46999998093E+01 0. -1.
</event>
<event>
 5   0  0.2760807E-03  0.1392436E+04  0.7818609E-02  0.8959312E-01
        2   -1    0    0  501    0  0.00000000000E+00  0.00000000000E+00  0.87585516054E+03  0.87585516054E+03  0.25500000920E-02 0. -1.
       -2   -1    0    0    0  501  0.00000000000E+00  0.00000000000E+00 -0.55342411010E+03  0.55342411010E+03  0.25500000920E-02 0.  1.
    10030    2    1    2    0    0  0.00000000000E+00  0.00000000000E+00  0.32243105044E+03  0.14292792706E+04  0.13924357979E+04 0.  0.
        4    1    3    3  502    0 -0.13895686361E+03 -0.39032157476E+03 -0.41310479868E+03  0.58507873765E+03  0.12699999809E+01 0.  1.
       -4    1    3    3    0  502  0.13895686361E+03  0.39032157476E+03  0.73553584912E+03  0.84420053299E+03  0.12699999809E+01 0. -1.
</event>
<event>
 5   0  0.1104538E-03  0.1474268E+04  0.7818609E-02  0.8901747E-01
        3   -1    0    0  501    0  0.00000000000E+00  0.00000000000E+00  0.74496926530E+03  0.74496927215E+03  0.10100000352E+00 0.  1.
       -3   -1    0    0    0  501  0.00000000000E+00  0.00000000000E+00 -0.72938136504E+03  0.72938137203E+03  0.10100000352E+00 0. -1.
    10030    2    1    2    0    0  0.00000000000E+00  0.00000000000E+00  0.15587900264E+02  0.14743506442E+04  0.14742682386E+04 0.  0.
        5    1    3    3  502    0  0.48749423547E+02  0.62073945122E+03 -0.38675395341E+03  0.73300387658E+03  0.46999998093E+01 0. -1.
       -5    1    3    3    0  502 -0.48749423547E+02 -0.62073945122E+03  0.40234185368E+03  0.74134676759E+03  0.46999998093E+01 0.  1.
</event>
<event>
 5   0  0.1644571E-03  0.1424457E+04  0.7818609E-02  0.8936303E-01
        1   -1    0    0  501    0  0.00000000000E+00  0.00000000000E+00  0.11406890646E+04  0.11406890646E+04  0.50400001928E-02 0.  1.
       -1   -1    0    0    0  501  0.00000000000E+00  0.00000000000E+00 -0.44470455683E+03  0.44470455686E+03  0.50400001928E-02 0. -1.
    10030    2    1    2    0    0  0.00000000000E+00  0.00000000000E+00  0.69598450772E+03  0.15853936214E+04  0.14244572650E+04 0.  0.
        4    1    3    3  502    0 -0.22380092555E+03 -0.11689487104E+02 -0.40443918265E+03  0.46238097252E+03  0.12699999809E+01 0. -1.
       -4    1    3    3    0  502  0.22380092555E+03  0.11689487104E+02  0.11004236904E+04  0.11230126489E+04  0.12699999809E+01 0.  1.
</event>
<event>
 5   0  0.2760807E-03  0.1425471E+04  0.7818609E-02  0.8935585E-01
       -2   -1    0    0    0  501  0.00000000000E+00  0.00000000000E+00  0.67458018775E+03  0.67458018775E+03  0.25500000920E-02 0.  1.
        2   -1    0    0  501    0  0.00000000000E+00  0.00000000000E+00 -0.75304860743E+03  0.75304860743E+03  0.25500000920E-02 0. -1.
    10030    2    1    2    0    0  0.00000000000E+00  0.00000000000E+00 -0.78468419682E+02  0.14276287952E+04  0.14254706886E+04 0.  0.
        4    1    3    3  502    0  0.53111999797E+02  0.70894529090E+03  0.11495691024E+02  0.71102607113E+03  0.12699999809E+01 0.  1.
       -4    1    3    3    0  502 -0.53111999797E+02 -0.70894529090E+03 -0.89964110706E+02  0.71660272406E+03  0.12699999809E+01 0. -1.
</event>
<event>
 5   0  0.3006737E-03  0.1434422E+04  0.7818609E-02  0.8929272E-01
       -2   -1    0    0    0  501  0.00000000000E+00  0.00000000000E+00  0.45040159903E+03  0.45040159903E+03  0.25500000920E-02 0.  1.
        2   -1    0    0  501    0  0.00000000000E+00  0.00000000000E+00 -0.11420727228E+04  0.11420727228E+04  0.25500000920E-02 0. -1.
    10030    2    1    2    0    0  0.00000000000E+00  0.00000000000E+00 -0.69167112376E+03  0.15924743218E+04  0.14344216682E+04 0.  0.
        1    1    3    3  502    0 -0.13996918338E+02 -0.30177059869E+03 -0.10679940099E+04  0.11098975688E+04  0.50400001928E-02 0. -1.
       -1    1    3    3    0  502  0.13996918338E+02  0.30177059869E+03  0.37632288612E+03  0.48257675307E+03  0.50400001928E-02 0.  1.
</event>
<event>
 5   0  0.2917809E-03  0.1398878E+04  0.7818609E-02  0.8954631E-01
        2   -1    0    0  501    0  0.00000000000E+00  0.00000000000E+00  0.11360474687E+04  0.11360474687E+04  0.25500000920E-02 0. -1.
       -2   -1    0    0    0  501  0.00000000000E+00  0.00000000000E+00 -0.43062863349E+03  0.43062863349E+03  0.25500000920E-02 0.  1.
    10030    2    1    2    0    0  0.00000000000E+00  0.00000000000E+00  0.70541883520E+03  0.15666761022E+04  0.13988775058E+04 0.  0.
        2    1    3    3  502    0  0.17604918252E+03 -0.67679612079E+03  0.33818172169E+03  0.77679674347E+03  0.25500000920E-02 0. -1.
       -2    1    3    3    0  502 -0.17604918252E+03  0.67679612079E+03  0.36723711351E+03  0.78987935871E+03  0.25500000920E-02 0.  1.
</event>
<event>
 5   0  0.1631380E-03  0.1438112E+04  0.7818609E-02  0.8926684E-01
        1   -1    0    0  501    0  0.00000000000E+00  0.00000000000E+00  0.11802922286E+04  0.11802922286E+04  0.50400001928E-02 0.  1.
       -1   -1    0    0    0  501  0.00000000000E+00  0.00000000000E+00 -0.43806216795E+03  0.43806216798E+03  0.50400001928E-02 0. -1.
    10030    2    1    2    0    0  0.00000000000E+00  0.00000000000E+00  0.74223006065E+03  0.16183543966E+04  0.14381117794E+04 0.  0.
        3    1    3    3  502    0  0.31952901304E+03  0.31950265369E+03  0.10005580819E+04  0.10978602923E+04  0.10100000352E+00 0.  1.
       -3    1    3    3    0  502 -0.31952901304E+03 -0.31950265369E+03 -0.25832802124E+03  0.52049410433E+03  0.10100000352E+00 0. -1.
</event>
<event>
 5   0  0.1104538E-03  0.1397641E+04  0.7818609E-02  0.8955528E-01
       -3   -1    0    0    0  501  0.00000000000E+00  0.00000000000E+00  0.63928505692E+03  0.63928506490E+03  0.10100000352E+00 0. -1.
        3   -1    0    0  501    0  0.00000000000E+00  0.00000000000E+00 -0.76389986144E+03  0.76389986812E+03  0.10100000352E+00 0.  1.
    10030    2    1    2    0    0  0.00000000000E+00  0.00000000000E+00 -0.12461480453E+03  0.14031849330E+04  0.13976405499E+04 0.  0.
        3    1    3    3  502    0 -0.16307839902E+01  0.57590970714E+03  0.33508488428E+03  0.66630063794E+03  0.10100000352E+00 0. -1.
       -3    1    3    3    0  502  0.16307839902E+01 -0.57590970714E+03 -0.45969968881E+03  0.73688429508E+03  0.10100000352E+00 0.  1.
</event>
<event>
 5   0  0.1586022E-03  0.1367843E+04  0.7818609E-02  0.8977430E-01
        1   -1    0    0  501    0  0.00000000000E+00  0.00000000000E+00  0.55386995091E+03  0.55386995094E+03  0.50400001928E-02 0. -1.
       -1   -1    0    0    0  501  0.00000000000E+00  0.00000000000E+00 -0.84450943360E+03  0.84450943361E+03  0.50400001928E-02 0.  1.
    10030    2    1    2    0    0  0.00000000000E+00  0.00000000000E+00 -0.29063948268E+03  0.13983793845E+04  0.13678426789E+04 0.  0.
        1    1    3    3  502    0 -0.56601026307E+03 -0.31343485328E+03  0.81303094387E+02  0.65208835163E+03  0.50400001928E-02 0. -1.
       -1    1    3    3    0  502  0.56601026307E+03  0.31343485328E+03 -0.37194257707E+03  0.74629103292E+03  0.50400001928E-02 0.  1.
</event>
<event>
 5   0  0.1700207E-03  0.1403347E+04  0.7818609E-02  0.8951399E-01
       -1   -1    0    0    0  501  0.00000000000E+00  0.00000000000E+00  0.96905111563E+03  0.96905111565E+03  0.50400001928E-02 0. -1.
        1   -1    0    0  501    0  0.00000000000E+00  0.00000000000E+00 -0.50806999530E+03  0.50806999532E+03  0.50400001928E-02 0.  1.
    10030    2    1    2    0    0  0.00000000000E+00  0.00000000000E+00  0.46098112033E+03  0.14771211110E+04  0.14033471357E+04 0.  0.
        2    1    3    3  502    0 -0.52129888132E+02 -0.51011355353E+03 -0.27365908748E+03  0.58122513616E+03  0.25500000920E-02 0.  1.
       -2    1    3    3    0  502  0.52129888132E+02  0.51011355353E+03  0.73464020782E+03  0.89589597481E+03  0.25500000920E-02 0. -1.
</event>
<event>
 5   0  0.2917809E-03  0.1393201E+04  0.7818609E-02  0.8958755E-01
        2   -1    0    0  501    0  0.00000000000E+00  0.00000000000E+00  0.38286997264E+03  0.38286997265E+03  0.25500000920E-02 0. -1.
       -2   -1    0    0    0  501  0.00000000000E+00  0.00000000000E+00 -0.12674080021E+04  0.12674080021E+04  0.25500000920E-02 0.  1.
    10030    2    1    2    0    0  0.00000000000E+00  0.00000000000E+00 -0.88453802950E+03  0.16502779748E+04  0.13932013022E+04 0.  0.
        2    1    3    3  502    0  0.42005274967E+03  0.12340660945E+03 -0.10840778599E+04  0.11691442640E+04  0.25500000920E-02 0.  1.
       -2    1    3    3    0  502 -0.42005274967E+03 -0.12340660945E+03  0.19953983036E+03  0.48113371080E+03  0.25500000920E-02 0. -1.
</event>
<event>
 5   0  0.2889469E-03  0.1448347E+04  0.7818609E-02  0.8919547E-01
        2   -1    0    0  501    0  0.00000000000E+00  0.00000000000E+00  0.12063859094E+04  0.12063859094E+04  0.25500000920E-02 0.  1.
       -2   -1    0    0    0  501  0.00000000000E+00  0.00000000000E+00 -0.43470946261E+03  0.43470946261E+03  0.25500000920E-02 0. -1.
    10030    2    1    2    0    0  0.00000000000E+00  0.00000000000E+00  0.77167644676E+03  0.16410953720E+04  0.14483471550E+04 0.  0.
        5    1    3    3  502    0 -0.20554107659E+03 -0.22176893234E+03 -0.35974032926E+03  0.46996147503E+03  0.46999998093E+01 0. -1.
       -5    1    3    3    0  502  0.20554107659E+03  0.22176893234E+03  0.11314167760E+04  0.11711338969E+04  0.46999998093E+01 0.  1.
</event>
<event>
 5   0  0.1586022E-03  0.1395811E+04  0.7818609E-02  0.8956856E-01
        1   -1    0    0  501    0  0.00000000000E+00  0.00000000000E+00  0.59744888030E+03  0.59744888032E+03  0.50400001928E-02 0.  1.
       -1   -1    0    0    0  501  0.00000000000E+00  0.00000000000E+00 -0.81525331345E+03  0.81525331347E+03  0.50400001928E-02 0. -1.
    10030    2    1    2    0    0  0.00000000000E+00  0.00000000000E+00 -0.21780443315E+03  0.14127021938E+04  0.13958111324E+04 0.  0.
        1    1    3    3  502    0 -0.50992582698E+03 -0.10882701456E+03 -0.57841740649E+03  0.77873895772E+03  0.50400001928E-02 0.  1.
       -1    1    3    3    0  502  0.50992582698E+03  0.10882701456E+03  0.36061297333E+03  0.63396323607E+03  0.50400001928E-02 0. -1.
</event>
<event>
 5   0  0.3006737E-03  0.1383536E+04  0.7818609E-02  0.8965823E-01
       -2   -1    0    0    0  501  0.00000000000E+00  0.00000000000E+00  0.52040463246E+03  0.52040463247E+03  0.25500000920E-02 0.  1.
        2   -1    0    0  501    0  0.00000000000E+00  0.00000000000E+00 -0.91955966178E+03  0.91955966179E+03  0.25500000920E-02 0. -1.
    10030    2    1    2    0    0  0.00000000000E+00  0.00000000000E+00 -0.39915502932E+03  0.14399642943E+04  0.13835362053E+04 0.  0.
        1    1    3    3  502    0  0.61670355689E+03  0.52703071239E+02 -0.52111488400E+03  0.80911161971E+03  0.50400001928E-02 0. -1.
       -1    1    3    3    0  502 -0.61670355689E+03 -0.52703071239E+02  0.12195985467E+03  0.63085267454E+03  0.50400001928E-02 0.  1.
</event>
<event>
 5   0  0.1586022E-03  0.1279234E+04  0.7818609E-02  0.9046196E-01
       -1   -1    0    0    0  501  0.00000000000E+00  0.00000000000E+00  0.10682657187E+04  0.10682657187E+04  0.50400001928E-02 0.  1.
        1   -1    0    0  501    0  0.00000000000E+00  0.00000000000E+00 -0.38296668457E+03  0.38296668460E+03  0.50400001928E-02 0. -1.
    10030    2    1    2    0    0  0.00000000000E+00  0.00000000000E+00  0.68529903411E+03  0.14512324033E+04  0.12792344282E+04 0.  0.
        1    1    3    3  502    0 -0.26929556043E+03  0.18190110932E+03 -0.28233269245E+03  0.43048793443E+03  0.50400001928E-02 0. -1.
       -1    1    3    3    0  502  0.26929556043E+03 -0.18190110932E+03  0.96763172656E+03  0.10207444689E+04  0.50400001928E-02 0.  1.
</event>
<event>
 5   0  0.2889469E-03  0.1382992E+04  0.7818609E-02  0.8966223E-01
        2   -1    0    0  501    0  0.00000000000E+00  0.00000000000E+00  0.45474438020E+03  0.45474438021E+03  0.25500000920E-02 0. -1.
       -2   -1    0    0    0  501  0.00000000000E+00  0.00000000000E+00 -0.10515061015E+04  0.10515061015E+04  0.25500000920E-02 0.  1.
    10030    2    1    2    0    0  0.00000000000E+00  0.00000000000E+00 -0.59676172133E+03  0.15062504817E+04  0.13829916709E+04 0.  0.
        5    1    3    3  502    0  0.11162760491E+03 -0.50446790155E+03  0.20213781622E+03  0.55482463231E+03  0.46999998093E+01 0. -1.
       -5    1    3    3    0  502 -0.11162760491E+03  0.50446790155E+03 -0.79889953755E+03  0.95142584943E+03  0.46999998093E+01 0.  1.
</event>
<event>
 5   0  0.2760807E-03  0.1413376E+04  0.7818609E-02  0.8944193E-01
        2   -1    0    0  501    0  0.00000000000E+00  0.00000000000E+00  0.85697361104E+03  0.85697361104E+03  0.25500000920E-02 0.  1.
       -2   -1    0    0    0  501  0.00000000000E+00  0.00000000000E+00 -0.58275764646E+03  0.58275764647E+03  0.25500000920E-02 0. -1.
    10030    2    1    2    0    0  0.00000000000E+00  0.00000000000E+00  0.27421596458E+03  0.14397312575E+04  0.14133759934E+04 0.  0.
        4    1    3    3  502    0  0.25131944858E+03 -0.61874277300E+03  0.37250632936E+03  0.76470037445E+03  0.12699999809E+01 0.  1.
       -4    1    3    3    0  502 -0.25131944858E+03  0.61874277300E+03 -0.98290364779E+02  0.67503088306E+03  0.12699999809E+01 0. -1.
</event>
<event>
 5   0  0.2889469E-03  0.1520832E+04  0.7818609E-02  0.8870717E-01
       -2   -1    0    0    0  501  0.00000000000E+00  0.00000000000E+00  0.88407287862E+03  0.88407287863E+03  0.25500000920E-02 0.  1.
        2   -1    0    0  501    0  0.00000000000E+00  0.00000000000E+00 -0.65405520832E+03  0.65405520832E+03  0.25500000920E-02 0. -1.
    10030    2    1    2    0    0  0.00000000000E+00  0.00000000000E+00  0.23001767031E+03  0.15381280869E+04  0.15208319707E+04 0.  0.
        5    1    3    3  502    0 -0.53910599416E+03 -0.31268363779E+03 -0.32561096295E+03  0.70317204117E+03  0.46999998093E+01 0. -1.
       -5    1    3    3    0  502  0.53910599416E+03  0.31268363779E+03  0.55562863326E+03  0.83495604578E+03  0.46999998093E+01 0.  1.
</event>
<event>
 5   0  0.2889469E-03  0.1347074E+04  0.7818609E-02  0.8993046E-01
        2   -1    0    0  501    0  0.00000000000E+00  0.00000000000E+00  0.21526646334E+04  0.21526646334E+04  0.25500000920E-02 0. -1.
       -2   -1    0    0    0  501  0.00000000000E+00  0.00000000000E+00 -0.21073987526E+03  0.21073987527E+03  0.25500000920E-02 0.  1.
    10030    2    1    2    0    0  0.00000000000E+00  0.00000000000E+00  0.19419247581E+04  0.23634045087E+04  0.13470742761E+04 0.  0.
        5    1    3    3  502    0 -0.46652659514E+02 -0.67055559042E+03  0.10455824570E+04  0.12430148972E+04  0.46999998093E+01 0.  1.
       -5    1    3    3    0  502  0.46652659514E+02  0.67055559042E+03  0.89634230117E+03  0.11203896114E+04  0.46999998093E+01 0. -1.
</event>
<event>
 5   0  0.1104538E-03  0.1482246E+04  0.7818609E-02  0.8896346E-01
       -4   -1    0    0    0  501  0.00000000000E+00  0.00000000000E+00  0.53698146792E+03  0.53698296974E+03  0.12699999809E+01 0.  1.
        4   -1    0    0  501    0  0.00000000000E+00  0.00000000000E+00 -0.10228680543E+04  0.10228688427E+04  0.12699999809E+01 0. -1.
    10030    2    1    2    0    0  0.00000000000E+00  0.00000000000E+00 -0.48588658641E+03  0.15598518125E+04  0.14822455606E+04 0.  0.
        4    1    3    3  502    0 -0.14126309985E+03  0.54897647138E+03  0.25947427580E+03  0.62342516970E+03  0.12699999809E+01 0.  1.
       -4    1    3    3    0  502  0.14126309985E+03 -0.54897647138E+03 -0.74536086221E+03  0.93642664279E+03  0.12699999809E+01 0. -1.
</event>
<event>
 5   0  0.3006737E-03  0.1410154E+04  0.7818609E-02  0.8946501E-01
       -2   -1    0    0    0  501  0.00000000000E+00  0.00000000000E+00  0.19891995226E+03  0.19891995227E+03  0.25500000920E-02 0. -1.
        2   -1    0    0  501    0  0.00000000000E+00  0.00000000000E+00 -0.24991643053E+04  0.24991643053E+04  0.25500000920E-02 0.  1.
    10030    2    1    2    0    0  0.00000000000E+00  0.00000000000E+00 -0.23002443530E+04  0.26980842575E+04  0.14101540970E+04 0.  0.
        1    1    3    3  502    0 -0.39153088849E+03 -0.37367866855E+03 -0.28551595511E+03  0.61192445990E+03  0.50400001928E-02 0.  1.
       -1    1    3    3    0  502  0.39153088849E+03  0.37367866855E+03 -0.20147283979E+04  0.20861597976E+04  0.50400001928E-02 0. -1.
</event>
<event>
 5   0  0.1700207E-03  0.1074267E+04  0.7818609E-02  0.9230643E-01
       -1   -1    0    0    0  501  0.00000000000E+00  0.00000000000E+00  0.51625639614E+03  0.51625639616E+03  0.50400001928E-02 0. -1.
        1   -1    0    0  501    0  0.00000000000E+00  0.00000000000E+00 -0.55885448048E+03  0.55885448050E+03  0.50400001928E-02 0.  1.
    10030    2    1    2    0    0  0.00000000000E+00  0.00000000000E+00 -0.42598084344E+02  0.10751108767E+04  0.10742666337E+04 0.  0.
        2    1    3    3  502    0 -0.47387949905E+03  0.24365423385E+03 -0.89050359692E+02  0.54023988363E+03  0.25500000920E-02 0. -1.
       -2    1    3    3    0  502  0.47387949905E+03 -0.24365423385E+03  0.46452275348E+02  0.53487099303E+03  0.25500000920E-02 0.  1.
</event>
<event>
 5   0  0.2760807E-03  0.1390876E+04  0.7818609E-02  0.8960450E-01
        2   -1    0    0  501    0  0.00000000000E+00  0.00000000000E+00  0.88727292820E+03  0.88727292820E+03  0.25500000920E-02 0.  1.
       -2   -1    0    0    0  501  0.00000000000E+00  0.00000000000E+00 -0.54507909054E+03  0.54507909054E+03  0.25500000920E-02 0. -1.
    10030    2    1    2    0    0  0.00000000000E+00  0.00000000000E+00  0.34219383766E+03  0.14323520187E+04  0.13908758690E+04 0.  0.
        4    1    3    3  502    0 -0.39966198640E+03 -0.56559038839E+03  0.10588305734E+03  0.70059619293E+03  0.12699999809E+01 0.  1.
       -4    1    3    3    0  502  0.39966198640E+03  0.56559038839E+03  0.23631078032E+03  0.73175582581E+03  0.12699999809E+01 0. -1.
</event>
<event>
 5   0  0.1631380E-03  0.9574686E+03  0.7818609E-02  0.9356463E-01
        1   -1    0    0  501    0  0.00000000000E+00  0.00000000000E+00  0.98198453314E+03  0.98198453315E+03  0.50400001928E-02 0. -1.
       -1   -1    0    0    0  501  0.00000000000E+00  0.00000000000E+00 -0.23339118215E+03  0.23339118221E+03  0.50400001928E-02 0.  1.
    10030    2    1    2    0    0  0.00000000000E+00  0.00000000000E+00  0.74859335098E+03  0.12153757154E+04  0.95746860228E+03 0.  0.
        3    1    3    3  502    0  0.32922809613E+03 -0.18500552852E+03  0.81822529693E+00  0.37764912890E+03  0.10100000352E+00 0. -1.
       -3    1    3    3    0  502 -0.32922809613E+03  0.18500552852E+03  0.74777512569E+03  0.83772658646E+03  0.10100000352E+00 0.  1.
</event>
<event>
 5   0  0.2993993E-03  0.1358837E+04  0.7818609E-02  0.8984165E-01
       -2   -1    0    0    0  501  0.00000000000E+00  0.00000000000E+00  0.82726641793E+03  0.82726641794E+03  0.25500000920E-02 0.  1.
        2   -1    0    0  501    0  0.00000000000E+00  0.00000000000E+00 -0.55799394176E+03  0.55799394177E+03  0.25500000920E-02 0. -1.
    10030    2    1    2    0    0  0.00000000000E+00  0.00000000000E+00  0.26927247617E+03  0.13852603597E+04  0.13588372227E+04 0.  0.
        3    1    3    3  502    0  0.84948374030E+02 -0.16077455146E+03  0.80199930128E+03  0.82235489425E+03  0.10100000352E+00 0.  1.
       -3    1    3    3    0  502 -0.84948374030E+02  0.16077455146E+03 -0.53272682511E+03  0.56290546545E+03  0.10100000352E+00 0. -1.
</event>
<event>
 5   0  0.1644571E-03  0.1408768E+04  0.7818609E-02  0.8947496E-01
       -1   -1    0    0    0  501  0.00000000000E+00  0.00000000000E+00  0.45278160422E+03  0.45278160425E+03  0.50400001928E-02 0. -1.
        1   -1    0    0  501    0  0.00000000000E+00  0.00000000000E+00 -0.10957972051E+04  0.10957972051E+04  0.50400001928E-02 0.  1.
    10030    2    1    2    0    0  0.00000000000E+00  0.00000000000E+00 -0.64301560088E+03  0.15485788094E+04  0.14087679957E+04 0.  0.
        4    1    3    3  502    0  0.50188470340E+03 -0.32940015448E+03 -0.72653456867E+03  0.94246846613E+03  0.12699999809E+01 0.  1.
       -4    1    3    3    0  502 -0.50188470340E+03  0.32940015448E+03  0.83518967793E+02  0.60611034322E+03  0.12699999809E+01 0. -1.
</event>
<event>
 5   0  0.3006737E-03  0.1395721E+04  0.7818609E-02  0.8956922E-01
       -2   -1    0    0    0  501  0.00000000000E+00  0.00000000000E+00  0.55856493804E+03  0.55856493805E+03  0.25500000920E-02 0. -1.
        2   -1    0    0  501    0  0.00000000000E+00  0.00000000000E+00 -0.87189347899E+03  0.87189347899E+03  0.25500000920E-02 0.  1.
    10030    2    1    2    0    0  0.00000000000E+00  0.00000000000E+00 -0.31332854094E+03  0.14304584170E+04  0.13957207845E+04 0.  0.
        1    1    3    3  502    0 -0.53203071104E+03  0.30431213929E+03  0.18532707521E+03  0.64031920199E+03  0.50400001928E-02 0. -1.
       -1    1    3    3    0  502  0.53203071104E+03 -0.30431213929E+03 -0.49865561615E+03  0.79013921505E+03  0.50400001928E-02 0.  1.
</event>
<event>
 5   0  0.1560957E-03  0.1401002E+04  0.7818609E-02  0.8953094E-01
        1   -1    0    0  501    0  0.00000000000E+00  0.00000000000E+00  0.10544003848E+04  0.10544003848E+04  0.50400001928E-02 0.  1.
       -1   -1    0    0    0  501  0.00000000000E+00  0.00000000000E+00 -0.46538460215E+03  0.46538460218E+03  0.50400001928E-02 0. -1.
    10030    2    1    2    0    0  0.00000000000E+00  0.00000000000E+00  0.58901578265E+03  0.15197849870E+04  0.14010020751E+04 0.  0.
        5    1    3    3  502    0  0.18061538677E+03 -0.75483136183E+02  0.10241089665E+04  0.10426604850E+04  0.46999998093E+01 0.  1.
       -5    1    3    3    0  502 -0.18061538677E+03  0.75483136183E+02 -0.43509318382E+03  0.47712450198E+03  0.46999998093E+01 0. -1.
</event>
<event>
 5   0  0.1644571E-03  0.1373937E+04  0.7818609E-02  0.8972903E-01
        1   -1    0    0  501    0  0.00000000000E+00  0.00000000000E+00  0.65983965172E+03  0.65983965174E+03  0.50400001928E-02 0.  1.
       -1   -1    0    0    0  501  0.00000000000E+00  0.00000000000E+00 -0.71521311507E+03  0.71521311509E+03  0.50400001928E-02 0. -1.
    10030    2    1    2    0    0  0.00000000000E+00  0.00000000000E+00 -0.55373463348E+02  0.13750527668E+04  0.13739373680E+04 0.  0.
        4    1    3    3  502    0 -0.39723194285E+03  0.45977606724E+03 -0.34847324728E+03  0.70044447703E+03  0.12699999809E+01 0. -1.
       -4    1    3    3    0  502  0.39723194285E+03 -0.45977606724E+03  0.29309978393E+03  0.67460828980E+03  0.12699999809E+01 0.  1.
</event>
<event>
 5   0  0.2993993E-03  0.1363762E+04  0.7818609E-02  0.8980475E-01
        2   -1    0    0  501    0  0.00000000000E+00  0.00000000000E+00  0.44906961251E+03  0.44906961251E+03  0.25500000920E-02 0.  1.
       -2   -1    0    0    0  501  0.00000000000E+00  0.00000000000E+00 -0.10353895435E+04  0.10353895435E+04  0.25500000920E-02 0. -1.
    10030    2    1    2    0    0  0.00000000000E+00  0.00000000000E+00 -0.58631993097E+03  0.14844591560E+04  0.13637624149E+04 0.  0.
        3    1    3    3  502    0 -0.14157711448E+03 -0.10851555253E+03 -0.10095422175E+04  0.10251805712E+04  0.10100000352E+00 0. -1.
       -3    1    3    3    0  502  0.14157711448E+03  0.10851555253E+03  0.42322228649E+03  0.45927858481E+03  0.10100000352E+00 0.  1.
</event>
<event>
 5   0  0.1560957E-03  0.1397250E+04  0.7818609E-02  0.8955812E-01
       -1   -1    0    0    0  501  0.00000000000E+00  0.00000000000E+00  0.14289801683E+04  0.14289801683E+04  0.50400001928E-02 0. -1.
        1   -1    0    0  501    0  0.00000000000E+00  0.00000000000E+00 -0.34155585625E+03  0.34155585628E+03  0.50400001928E-02 0.  1.
    10030    2    1    2    0    0  0.00000000000E+00  0.00000000000E+00  0.10874243121E+04  0.17705360246E+04  0.13972495053E+04 0.  0.
        5    1    3    3  502    0 -0.22805105894E+02 -0.46417379278E+03  0.12046745885E+04  0.12912166112E+04  0.46999998093E+01 0. -1.
       -5    1    3    3    0  502  0.22805105894E+02  0.46417379278E+03 -0.11725027645E+03  0.47931941343E+03  0.46999998093E+01 0.  1.
</event>
<event>
 5   0  0.1631380E-03  0.1359410E+04  0.7818609E-02  0.8983735E-01
        1   -1    0    0  501    0  0.00000000000E+00  0.00000000000E+00  0.84032881837E+03  0.84032881838E+03  0.50400001928E-02 0.  1.
       -1   -1    0    0    0  501  0.00000000000E+00  0.00000000000E+00 -0.54978370264E+03  0.54978370266E+03  0.50400001928E-02 0. -1.
    10030    2    1    2    0    0  0.00000000000E+00  0.00000000000E+00  0.29054511573E+03  0.13901125210E+04  0.13594102975E+04 0.  0.
        3    1    3    3  502    0  0.48411565700E+03  0.46908634887E+03  0.56189577806E+02  0.67643717440E+03  0.10100000352E+00 0.  1.
       -3    1    3    3    0  502 -0.48411565700E+03 -0.46908634887E+03  0.23435553792E+03  0.71367534665E+03  0.10100000352E+00 0. -1.
</event>
<event>
 5   0  0.1700207E-03  0.1156839E+04  0.7818609E-02  0.9151497E-01
        1   -1    0    0  501    0  0.00000000000E+00  0.00000000000E+00  0.14196737788E+04  0.14196737788E+04  0.50400001928E-02 0. -1.
       -1   -1    0    0    0  501  0.00000000000E+00  0.00000000000E+00 -0.23566622184E+03  0.23566622190E+03  0.50400001928E-02 0.  1.
    10030    2    1    2    0    0  0.00000000000E+00  0.00000000000E+00  0.11840075569E+04  0.16553400007E+04  0.11568390653E+04 0.  0.
        2    1    3    3  502    0 -0.85604731435E+02  0.48259891344E+03  0.15250210833E+03  0.51330962815E+03  0.25500000920E-02 0.  1.
       -2    1    3    3    0  502  0.85604731435E+02 -0.48259891344E+03  0.10315054486E+04  0.11420303725E+04  0.25500000920E-02 0. -1.
</event>
<event>
 5   0  0.2917809E-03  0.1331065E+04  0.7818609E-02  0.9005286E-01
        2   -1    0    0  501    0  0.00000000000E+00  0.00000000000E+00  0.90332205179E+03  0.90332205179E+03  0.25500000920E-02 0. -1.
       -2   -1    0    0    0  501  0.00000000000E+00  0.00000000000E+00 -0.49033874877E+03  0.49033874878E+03  0.25500000920E-02 0.  1.
    10030    2    1    2    0    0  0.00000000000E+00  0.00000000000E+00  0.41298330301E+03  0.13936608006E+04  0.13310654449E+04 0.  0.
        2    1    3    3  502    0  0.28892257961E+03  0.17902692999E+03  0.80559478846E+03  0.87436254602E+03  0.25500000920E-02 0. -1.
       -2    1    3    3    0  502 -0.28892257961E+03 -0.17902692999E+03 -0.39261148545E+03  0.51929825456E+03  0.25500000920E-02 0.  1.
</event>
<event>
 5   0  0.1700207E-03  0.1403906E+04  0.7818609E-02  0.8950996E-01
       -1   -1    0    0    0  501  0.00000000000E+00  0.00000000000E+00  0.66445533025E+03  0.66445533027E+03  0.50400001928E-02 0. -1.
        1   -1    0    0  501    0  0.00000000000E+00  0.00000000000E+00 -0.74156725642E+03  0.74156725644E+03  0.50400001928E-02 0.  1.
    10030    2    1    2    0    0  0.00000000000E+00  0.00000000000E+00 -0.77111926175E+02  0.14060225867E+04  0.14039064303E+04 0.  0.
        2    1    3    3  502    0 -0.58303852073E+03  0.37606717771E+03  0.68271953982E+02  0.69715242129E+03  0.25500000920E-02 0. -1.
       -2    1    3    3    0  502  0.58303852073E+03 -0.37606717771E+03 -0.14538388016E+03  0.70887016542E+03  0.25500000920E-02 0.  1.
</event>
<event>
 5   0  0.1700207E-03  0.1425022E+04  0.7818609E-02  0.8935903E-01
       -1   -1    0    0    0  501  0.00000000000E+00  0.00000000000E+00  0.11105982934E+04  0.11105982934E+04  0.50400001928E-02 0. -1.
        1   -1    0    0  501    0  0.00000000000E+00  0.00000000000E+00 -0.45711540893E+03  0.45711540896E+03  0.50400001928E-02 0.  1.
    10030    2    1    2    0    0  0.00000000000E+00  0.00000000000E+00  0.65348288449E+03  0.15677137024E+04  0.14250215340E+04 0.  0.
        2    1    3    3  502    0 -0.46028373423E+03  0.52180230310E+03  0.15797642088E+03  0.71350915137E+03  0.25500000920E-02 0. -1.
       -2    1    3    3    0  502  0.46028373423E+03 -0.52180230310E+03  0.49550646361E+03  0.85420455104E+03  0.25500000920E-02 0.  1.
</event>
<event>
 5   0  0.1631380E-03  0.1443859E+04  0.7818609E-02  0.8922669E-01
        1   -1    0    0  501    0  0.00000000000E+00  0.00000000000E+00  0.96650829979E+03  0.96650829980E+03  0.50400001928E-02 0.  1.
       -1   -1    0    0    0  501  0.00000000000E+00  0.00000000000E+00 -0.53924267189E+03  0.53924267191E+03  0.50400001928E-02 0. -1.
    10030    2    1    2    0    0  0.00000000000E+00  0.00000000000E+00  0.42726562790E+03  0.15057509717E+04  0.14438594364E+04 0.  0.
        3    1    3    3  502    0 -0.56243244661E+03  0.49554009322E+02 -0.25553682221E+03  0.61974586287E+03  0.10100000352E+00 0.  1.
       -3    1    3    3    0  502  0.56243244661E+03 -0.49554009322E+02  0.68280245010E+03  0.88600510885E+03  0.10100000352E+00 0. -1.
</event>
<event>
 5   0  0.3006737E-03  0.1287516E+04  0.7818609E-02  0.9039524E-01
        2   -1    0    0  501    0  0.00000000000E+00  0.00000000000E+00  0.13709313905E+04  0.13709313905E+04  0.25500000920E-02 0. -1.
       -2   -1    0    0    0  501  0.00000000000E+00  0.00000000000E+00 -0.30229415174E+03  0.30229415175E+03  0.25500000920E-02 0.  1.
    10030    2    1    2    0    0  0.00000000000E+00  0.00000000000E+00  0.10686372388E+04  0.16732255423E+04  0.12875162784E+04 0.  0.
        1    1    3    3  502    0 -0.27405291707E+03  0.34267995636E+03  0.11464866001E+04  0.12275854667E+04  0.50400001928E-02 0.  1.
       -1    1    3    3    0  502  0.27405291707E+03 -0.34267995636E+03 -0.77849361346E+02  0.44564007554E+03  0.50400001928E-02 0. -1.
</event>
<event>
 5   0  0.2760807E-03  0.1037035E+04  0.7818609E-02  0.9268833E-01
        2   -1    0    0  501    0  0.00000000000E+00  0.00000000000E+00  0.99315444068E+03  0.99315444068E+03  0.25500000920E-02 0.  1.
       -2   -1    0    0    0  501  0.00000000000E+00  0.00000000000E+00 -0.27071350999E+03  0.27071351000E+03  0.25500000920E-02 0. -1.
    10030    2    1    2    0    0  0.00000000000E+00  0.00000000000E+00  0.72244093069E+03  0.12638679507E+04  0.10370348588E+04 0.  0.
        4    1    3    3  502    0  0.48182811966E+03 -0.12129103273E+03  0.54194191645E+03  0.73523636010E+03  0.12699999809E+01 0.  1.
       -4    1    3    3    0  502 -0.48182811966E+03  0.12129103273E+03  0.18049901424E+03  0.52863159058E+03  0.12699999809E+01 0. -1.
</event>
<event>
 5   0  0.1586022E-03  0.1677387E+04  0.7818609E-02  0.8774367E-01
       -1   -1    0    0    0  501  0.00000000000E+00  0.00000000000E+00  0.38021917252E+03  0.38021917255E+03  0.50400001928E-02 0. -1.
        1   -1    0    0  501    0  0.00000000000E+00  0.00000000000E+00 -0.18500042399E+04  0.18500042399E+04  0.50400001928E-02 0.  1.
    10030    2    1    2    0    0  0.00000000000E+00  0.00000000000E+00 -0.14697850674E+04  0.22302234124E+04  0.16773873509E+04 0.  0.
        1    1    3    3  502    0  0.36239671714E+03  0.42755393335E+03 -0.15644420887E+04  0.16618100961E+04  0.50400001928E-02 0.  1.
       -1    1    3    3    0  502 -0.36239671714E+03 -0.42755393335E+03  0.94657021320E+02  0.56841331637E+03  0.50400001928E-02 0. -1.
</event>
<event>
 5   0  0.3006737E-03  0.1388098E+04  0.7818609E-02  0.8962479E-01
       -2   -1    0    0    0  501  0.00000000000E+00  0.00000000000E+00  0.12882806130E+04  0.12882806130E+04  0.25500000920E-02 0.  1.
        2   -1    0    0  501    0  0.00000000000E+00  0.00000000000E+00 -0.37391246569E+03  0.37391246570E+03  0.25500000920E-02 0. -1.
    10030    2    1    2    0    0  0.00000000000E+00  0.00000000000E+00  0.91436814727E+03  0.16621930787E+04  0.13880982393E+04 0.  0.
        1    1    3    3  502    0  0.17157866215E+03  0.45662615952E+03  0.10483920082E+04  0.11563185071E+04  0.50400001928E-02 0.  1.
       -1    1    3    3    0  502 -0.17157866215E+03 -0.45662615952E+03 -0.13402386094E+03  0.50587457160E+03  0.50400001928E-02 0. -1.
</event>
<event>
 5   0  0.2760807E-03  0.1425463E+04  0.7818609E-02  0.8935591E-01
       -2   -1    0    0    0  501  0.00000000000E+00  0.00000000000E+00  0.40095664778E+03  0.40095664779E+03  0.25500000920E-02 0.  1.
        2   -1    0    0  501    0  0.00000000000E+00  0.00000000000E+00 -0.12669354417E+04  0.12669354417E+04  0.25500000920E-02 0. -1.
    10030    2    1    2    0    0  0.00000000000E+00  0.00000000000E+00 -0.86597879390E+03  0.16678920895E+04  0.14254629952E+04 0.  0.
        4    1    3    3  502    0 -0.59650079413E+03 -0.39008390435E+03 -0.43014130868E+03  0.83246730156E+03  0.12699999809E+01 0. -1.
       -4    1    3    3    0  502  0.59650079413E+03  0.39008390435E+03 -0.43583748522E+03  0.83542478791E+03  0.12699999809E+01 0.  1.
</event>
<event>
 5   0  0.2889469E-03  0.1429637E+04  0.7818609E-02  0.8932641E-01
        2   -1    0    0  501    0  0.00000000000E+00  0.00000000000E+00  0.85183063539E+03  0.85183063540E+03  0.25500000920E-02 0. -1.
       -2   -1    0    0    0  501  0.00000000000E+00  0.00000000000E+00 -0.59984411321E+03  0.59984411321E+03  0.25500000920E-02 0.  1.
    10030    2    1    2    0    0  0.00000000000E+00  0.00000000000E+00  0.25198652219E+03  0.14516747486E+04  0.14296371457E+04 0.  0.
        5    1    3    3  502    0 -0.23774676070E+03  0.49860564615E+03 -0.33466541613E+03  0.64587471180E+03  0.46999998093E+01 0.  1.
       -5    1    3    3    0  502  0.23774676070E+03 -0.49860564615E+03  0.58665193832E+03  0.80580003681E+03  0.46999998093E+01 0. -1.
</event>
<event>
 5   0  0.3006737E-03  0.1380383E+04  0.7818609E-02  0.8968142E-01
       -2   -1    0    0    0  501  0.00000000000E+00  0.00000000000E+00  0.25445351675E+03  0.25445351677E+03  0.25500000920E-02 0.  1.
        2   -1    0    0  501    0  0.00000000000E+00  0.00000000000E+00 -0.18721079329E+04  0.18721079329E+04  0.25500000920E-02 0. -1.
    10030    2    1    2    0    0  0.00000000000E+00  0.00000000000E+00 -0.16176544162E+04  0.21265614497E+04  0.13803832037E+04 0.  0.
        1    1    3    3  502    0 -0.40529293720E+03 -0.23809883450E+03 -0.30256442477E+02  0.47102958747E+03  0.50400001928E-02 0.  1.
       -1    1    3    3    0  502  0.40529293720E+03  0.23809883450E+03 -0.15873979737E+04  0.16555318622E+04  0.50400001928E-02 0. -1.
</event>
<event>
 5   0  0.2889469E-03  0.1389882E+04  0.7818609E-02  0.8961175E-01
        2   -1    0    0  501    0  0.00000000000E+00  0.00000000000E+00  0.99177682079E+03  0.99177682079E+03  0.25500000920E-02 0. -1.
       -2   -1    0    0    0  501  0.00000000000E+00  0.00000000000E+00 -0.48694736455E+03  0.48694736456E+03  0.25500000920E-02 0.  1.
    10030    2    1    2    0    0  0.00000000000E+00  0.00000000000E+00  0.50482945624E+03  0.14787241853E+04  0.13898821664E+04 0.  0.
        5    1    3    3  502    0  0.59385271357E+03 -0.30853169583E+03  0.45164976870E+03  0.80737999500E+03  0.46999998093E+01 0.  1.
       -5    1    3    3    0  502 -0.59385271357E+03  0.30853169583E+03  0.53179687537E+02  0.67134419035E+03  0.46999998093E+01 0. -1.
</event>
<event>
 5   0  0.3006737E-03  0.1377376E+04  0.7818609E-02  0.8970359E-01
       -2   -1    0    0    0  501  0.00000000000E+00  0.00000000000E+00  0.10717523917E+04  0.10717523917E+04  0.25500000920E-02 0.  1.
        2   -1    0    0  501    0  0.00000000000E+00  0.00000000000E+00 -0.44253828060E+03  0.44253828061E+03  0.25500000920E-02 0. -1.
    10030    2    1    2    0    0  0.00000000000E+00  0.00000000000E+00  0.62921411107E+03  0.15142906723E+04  0.13773764346E+04 0.  0.
        1    1    3    3  502    0 -0.11720089668E+02  0.48635788640E+03 -0.22129947975E+03  0.53446685017E+03  0.50400001928E-02 0. -1.
       -1    1    3    3    0  502  0.11720089668E+02 -0.48635788640E+03  0.85051359082E+03  0.97982382211E+03  0.50400001928E-02 0.  1.
</event>
<event>
 5   0  0.1644571E-03  0.1472261E+04  0.7818609E-02  0.8903111E-01
       -1   -1    0    0    0  501  0.00000000000E+00  0.00000000000E+00  0.40165549655E+03  0.40165549658E+03  0.50400001928E-02 0. -1.
        1   -1    0    0  501    0  0.00000000000E+00  0.00000000000E+00 -0.13491369558E+04  0.13491369558E+04  0.50400001928E-02 0.  1.
    10030    2    1    2    0    0  0.00000000000E+00  0.00000000000E+00 -0.94748145922E+03  0.17507924524E+04  0.14722612186E+04 0.  0.
        4    1    3    3  502    0  0.48453617029E+03 -0.52325750447E+03 -0.25669247115E+03  0.75793558694E+03  0.12699999809E+01 0. -1.
       -4    1    3    3    0  502 -0.48453617029E+03  0.52325750447E+03 -0.69078898807E+03  0.99285686543E+03  0.12699999809E+01 0.  1.
</event>
<event>
 5   0  0.1631380E-03  0.1356225E+04  0.7818609E-02  0.8986129E-01
       -1   -1    0    0    0  501  0.00000000000E+00  0.00000000000E+00  0.42369202760E+03  0.42369202763E+03  0.50400001928E-02 0. -1.
        1   -1    0    0  501    0  0.00000000000E+00  0.00000000000E+00 -0.10853081225E+04  0.10853081226E+04  0.50400001928E-02 0.  1.
    10030    2    1    2    0    0  0.00000000000E+00  0.00000000000E+00 -0.66161609494E+03  0.15090001502E+04  0.13562247587E+04 0.  0.
        3    1    3    3  502    0 -0.42627539853E+03 -0.14360268210E+02 -0.91737432364E+03  0.10116781072E+04  0.10100000352E+00 0.  1.
       -3    1    3    3    0  502  0.42627539853E+03  0.14360268210E+02  0.25575822870E+03  0.49732204299E+03  0.10100000352E+00 0. -1.
</event>
<event>
 5   0  0.3006737E-03  0.1415671E+04  0.7818609E-02  0.8942553E-01
        2   -1    0    0  501    0  0.00000000000E+00  0.00000000000E+00  0.83484913048E+03  0.83484913049E+03  0.25500000920E-02 0. -1.
       -2   -1    0    0    0  501  0.00000000000E+00  0.00000000000E+00 -0.60014567055E+03  0.60014567056E+03  0.25500000920E-02 0.  1.
    10030    2    1    2    0    0  0.00000000000E+00  0.00000000000E+00  0.23470345993E+03  0.14349948010E+04  0.14156709946E+04 0.  0.
        1    1    3    3  502    0 -0.66266608643E+02  0.50150942421E+03 -0.38451056180E+03  0.63541430433E+03  0.50400001928E-02 0.  1.
       -1    1    3    3    0  502  0.66266608643E+02 -0.50150942421E+03  0.61921402173E+03  0.79958049671E+03  0.50400001928E-02 0. -1.
</event>
<event>
 5   0  0.1700207E-03  0.1400864E+04  0.7818609E-02  0.8953194E-01
        1   -1    0    0  501    0  0.00000000000E+00  0.00000000000E+00  0.11371799940E+04  0.11371799940E+04  0.50400001928E-02 0.  1.
       -1   -1    0    0    0  501  0.00000000000E+00  0.00000000000E+00 -0.43142215098E+03  0.43142215101E+03  0.50400001928E-02 0. -1.
    10030    2    1    2    0    0  0.00000000000E+00  0.00000000000E+00  0.70575784298E+03  0.15686021450E+04  0.14008635038E+04 0.  0.
        2    1    3    3  502    0  0.60164338517E+03  0.19711274486E+02 -0.48108740822E+02  0.60388554231E+03  0.25500000920E-02 0. -1.
       -2    1    3    3    0  502 -0.60164338517E+03 -0.19711274486E+02  0.75386658381E+03  0.96471660266E+03  0.25500000920E-02 0.  1.
</event>
<event>
 5   0  0.2917809E-03  0.1359904E+04  0.7818609E-02  0.8983364E-01
        2   -1    0    0  501    0  0.00000000000E+00  0.00000000000E+00  0.85848832753E+03  0.85848832753E+03  0.25500000920E-02 0. -1.
       -2   -1    0    0    0  501  0.00000000000E+00  0.00000000000E+00 -0.53854541915E+03  0.53854541916E+03  0.25500000920E-02 0.  1.
    10030    2    1    2    0    0  0.00000000000E+00  0.00000000000E+00  0.31994290838E+03  0.13970337467E+04  0.13599043440E+04 0.  0.
        2    1    3    3  502    0  0.57821686391E+03 -0.34738679607E+03  0.24788018975E+03  0.71864936950E+03  0.25500000920E-02 0. -1.
       -2    1    3    3    0  502 -0.57821686391E+03  0.34738679607E+03  0.72062718624E+02  0.67838437720E+03  0.25500000920E-02 0.  1.
</event>
<event>
 5   0  0.1644571E-03  0.1305793E+04  0.7818609E-02  0.9024984E-01
        1   -1    0    0  501    0  0.00000000000E+00  0.00000000000E+00  0.12977405387E+04  0.12977405387E+04  0.50400001928E-02 0.  1.
       -1   -1    0    0    0  501  0.00000000000E+00  0.00000000000E+00 -0.32847370781E+03  0.32847370785E+03  0.50400001928E-02 0. -1.
    10030    2    1    2    0    0  0.00000000000E+00  0.00000000000E+00  0.96926683084E+03  0.16262142465E+04  0.13057927041E+04 0.  0.
        4    1    3    3  502    0 -0.10694570125E+03  0.92868477181E+02  0.12783745371E+04  0.12861978880E+04  0.12699999809E+01 0.  1.
       -4    1    3    3    0  502  0.10694570125E+03 -0.92868477181E+02 -0.30910770628E+03  0.34001635850E+03  0.12699999809E+01 0. -1.
</event>
<event>
 5   0  0.2889469E-03  0.1338849E+04  0.7818609E-02  0.8999312E-01
        2   -1    0    0  501    0  0.00000000000E+00  0.00000000000E+00  0.17559463893E+04  0.17559463893E+04  0.25500000920E-02 0.  1.
       -2   -1    0    0    0  501  0.00000000000E+00  0.00000000000E+00 -0.25520679794E+03  0.25520679795E+03  0.25500000920E-02 0. -1.
    10030    2    1    2    0    0  0.00000000000E+00  0.00000000000E+00  0.15007395913E+04  0.20111531872E+04  0.13388494394E+04 0.  0.
        5    1    3    3  502    0  0.50464484427E+03  0.43981914829E+03  0.74999177561E+03  0.10052945118E+04  0.46999998093E+01 0.  1.
       -5    1    3    3    0  502 -0.50464484427E+03 -0.43981914829E+03  0.75074781571E+03  0.10058586754E+04  0.46999998093E+01 0. -1.
</event>
<event>
 5   0  0.1644571E-03  0.1504531E+04  0.7818609E-02  0.8881445E-01
       -1   -1    0    0    0  501  0.00000000000E+00  0.00000000000E+00  0.93614572206E+03  0.93614572208E+03  0.50400001928E-02 0.  1.
        1   -1    0    0  501    0  0.00000000000E+00  0.00000000000E+00 -0.60450349590E+03  0.60450349592E+03  0.50400001928E-02 0. -1.
    10030    2    1    2    0    0  0.00000000000E+00  0.00000000000E+00  0.33164222616E+03  0.15406492180E+04  0.15045309723E+04 0.  0.
        4    1    3    3  502    0 -0.67869132124E+03 -0.21617626573E+03  0.41359607126E+03  0.82366098029E+03  0.12699999809E+01 0. -1.
       -4    1    3    3    0  502  0.67869132124E+03  0.21617626573E+03 -0.81953845101E+02  0.71698823771E+03  0.12699999809E+01 0.  1.
</event>
<event>
 5   0  0.3006737E-03  0.1595336E+04  0.7818609E-02  0.8823418E-01
        2   -1    0    0  501    0  0.00000000000E+00  0.00000000000E+00  0.19462082837E+04  0.19462082837E+04  0.25500000920E-02 0. -1.
       -2   -1    0    0    0  501  0.00000000000E+00  0.00000000000E+00 -0.32693026761E+03  0.32693026762E+03  0.25500000920E-02 0.  1.
    10030    2    1    2    0    0  0.00000000000E+00  0.00000000000E+00  0.16192780161E+04  0.22731385513E+04  0.15953361966E+04 0.  0.
        1    1    3    3  502    0 -0.77902893814E+03  0.17034435269E+03  0.83708791391E+03  0.11561225976E+04  0.50400001928E-02 0. -1.
       -1    1    3    3    0  502  0.77902893814E+03 -0.17034435269E+03  0.78219010215E+03  0.11170159537E+04  0.50400001928E-02 0.  1.
</event>
<event>
 5   0  0.1700207E-03  0.1369010E+04  0.7818609E-02  0.8976562E-01
       -1   -1    0    0    0  501  0.00000000000E+00  0.00000000000E+00  0.10394237278E+04  0.10394237279E+04  0.50400001928E-02 0. -1.
        1   -1    0    0  501    0  0.00000000000E+00  0.00000000000E+00 -0.45077558202E+03  0.45077558205E+03  0.50400001928E-02 0.  1.
    10030    2    1    2    0    0  0.00000000000E+00  0.00000000000E+00  0.58864814581E+03  0.14901993099E+04  0.13690096215E+04 0.  0.
        2    1    3    3  502    0 -0.12759039593E+03  0.21332298011E+03  0.98856053814E+03  0.10193321051E+04  0.25500000920E-02 0. -1.
       -2    1    3    3    0  502  0.12759039593E+03 -0.21332298011E+03 -0.39991239233E+03  0.47086720477E+03  0.25500000920E-02 0.  1.
</event>
<event>
 5   0  0.1700207E-03  0.1341508E+04  0.7818609E-02  0.8997282E-01
        1   -1    0    0  501    0  0.00000000000E+00  0.00000000000E+00  0.78563532912E+03  0.78563532914E+03  0.50400001928E-02 0.  1.
       -1   -1    0    0    0  501  0.00000000000E+00  0.00000000000E+00 -0.57267103377E+03  0.57267103379E+03  0.50400001928E-02 0. -1.
    10030    2    1    2    0    0  0.00000000000E+00  0.00000000000E+00  0.21296429535E+03  0.13583063629E+04  0.13415075044E+04 0.  0.
        2    1    3    3  502    0 -0.16042388056E+03 -0.14644890688E+03 -0.53607279348E+03  0.57840914904E+03  0.25500000920E-02 0. -1.
       -2    1    3    3    0  502  0.16042388056E+03  0.14644890688E+03  0.74903708883E+03  0.77989721389E+03  0.25500000920E-02 0.  1.
</event>
<event>
 5   0  0.1631380E-03  0.1219778E+04  0.7818609E-02  0.9095719E-01
        1   -1    0    0  501    0  0.00000000000E+00  0.00000000000E+00  0.95089384377E+03  0.95089384378E+03  0.50400001928E-02 0. -1.
       -1   -1    0    0    0  501  0.00000000000E+00  0.00000000000E+00 -0.39117345216E+03  0.39117345220E+03  0.50400001928E-02 0.  1.
    10030    2    1    2    0    0  0.00000000000E+00  0.00000000000E+00  0.55972039160E+03  0.13420672960E+04  0.12197777298E+04 0.  0.
        3    1    3    3  502    0  0.49447571830E+03  0.35634837396E+03  0.30381490395E+03  0.68102415939E+03  0.10100000352E+00 0.  1.
       -3    1    3    3    0  502 -0.49447571830E+03 -0.35634837396E+03  0.25590548765E+03  0.66104313658E+03  0.10100000352E+00 0. -1.
</event>
<event>
 5   0  0.1560957E-03  0.1059052E+04  0.7818609E-02  0.9246048E-01
       -1   -1    0    0    0  501  0.00000000000E+00  0.00000000000E+00  0.32938985818E+03  0.32938985822E+03  0.50400001928E-02 0.  1.
        1   -1    0    0  501    0  0.00000000000E+00  0.00000000000E+00 -0.85126424409E+03  0.85126424411E+03  0.50400001928E-02 0. -1.
    10030    2    1    2    0    0  0.00000000000E+00  0.00000000000E+00 -0.52187438591E+03  0.11806541023E+04  0.10590520453E+04 0.  0.
        5    1    3    3  502    0 -0.11910272641E+03  0.46626602517E+03 -0.50717464524E+03  0.69916927595E+03  0.46999998093E+01 0.  1.
       -5    1    3    3    0  502  0.11910272641E+03 -0.46626602517E+03 -0.14699740672E+02  0.48148482638E+03  0.46999998093E+01 0. -1.
</event>
<event>
 5   0  0.1644571E-03  0.1396775E+04  0.7818609E-02  0.8956156E-01
        1   -1    0    0  501    0  0.00000000000E+00  0.00000000000E+00  0.44631525381E+03  0.44631525384E+03  0.50400001928E-02 0.  1.
       -1   -1    0    0    0  501  0.00000000000E+00  0.00000000000E+00 -0.10928264765E+04  0.10928264765E+04  0.50400001928E-02 0. -1.
    10030    2    1    2    0    0  0.00000000000E+00  0.00000000000E+00 -0.64651122272E+03  0.15391417304E+04  0.13967750374E+04 0.  0.
        4    1    3    3  502    0  0.17843055655E+03  0.44853754452E+03  0.23288393023E+03  0.53596635176E+03  0.12699999809E+01 0.  1.
       -4    1    3    3    0  502 -0.17843055655E+03 -0.44853754452E+03 -0.87939515295E+03  0.10031753786E+04  0.12699999809E+01 0. -1.
</event>
<event>
 5   0  0.2760807E-03  0.1424722E+04  0.7818609E-02  0.8936115E-01
       -2   -1    0    0    0  501  0.00000000000E+00  0.00000000000E+00  0.43467549423E+03  0.43467549424E+03  0.25500000920E-02 0.  1.
        2   -1    0    0  501    0  0.00000000000E+00  0.00000000000E+00 -0.11674418716E+04  0.11674418716E+04  0.25500000920E-02 0. -1.
    10030    2    1    2    0    0  0.00000000000E+00  0.00000000000E+00 -0.73276637732E+03  0.16021173658E+04  0.14247222501E+04 0.  0.
        4    1    3    3  502    0  0.13266313229E+03  0.66970434161E+03 -0.59505859420E+03  0.90564880349E+03  0.12699999809E+01 0. -1.
       -4    1    3    3    0  502 -0.13266313229E+03 -0.66970434161E+03 -0.13770778312E+03  0.69646856230E+03  0.12699999809E+01 0.  1.
</event>
<event>
 5   0  0.3006737E-03  0.1440585E+04  0.7818609E-02  0.8924954E-01
       -2   -1    0    0    0  501  0.00000000000E+00  0.00000000000E+00  0.11742660507E+04  0.11742660507E+04  0.25500000920E-02 0. -1.
        2   -1    0    0  501    0  0.00000000000E+00  0.00000000000E+00 -0.44182598544E+03  0.44182598545E+03  0.25500000920E-02 0.  1.
    10030    2    1    2    0    0  0.00000000000E+00  0.00000000000E+00  0.73244006522E+03  0.16160920361E+04  0.14405849576E+04 0.  0.
        1    1    3    3  502    0 -0.67461112555E+03 -0.23829911826E+03  0.45963971282E+03  0.85038538682E+03  0.50400001928E-02 0.  1.
       -1    1    3    3    0  502  0.67461112555E+03  0.23829911826E+03  0.27280035240E+03  0.76570664930E+03  0.50400001928E-02 0. -1.
</event>
<event>
 5   0  0.2889469E-03  0.1427571E+04  0.7818609E-02  0.8934100E-01
       -2   -1    0    0    0  501  0.00000000000E+00  0.00000000000E+00  0.31983368710E+03  0.31983368711E+03  0.25500000920E-02 0. -1.
        2   -1    0    0  501    0  0.00000000000E+00  0.00000000000E+00 -0.15929827665E+04  0.15929827665E+04  0.25500000920E-02 0.  1.
    10030    2    1    2    0    0  0.00000000000E+00  0.00000000000E+00 -0.12731490794E+04  0.19128164536E+04  0.14275707362E+04 0.  0.
        5    1    3    3  502    0 -0.41578290138E+03  0.48902161290E+03 -0.10548538344E+04  0.12348102125E+04  0.46999998093E+01 0.  1.
       -5    1    3    3    0  502  0.41578290138E+03 -0.48902161290E+03 -0.21829524497E+03  0.67800624108E+03  0.46999998093E+01 0. -1.
</event>
<event>
 5   0  0.2917809E-03  0.1407332E+04  0.7818609E-02  0.8948529E-01
       -2   -1    0    0    0  501  0.00000000000E+00  0.00000000000E+00  0.59724158462E+03  0.59724158463E+03  0.25500000920E-02 0. -1.
        2   -1    0    0  501    0  0.00000000000E+00  0.00000000000E+00 -0.82905410477E+03  0.82905410477E+03  0.25500000920E-02 0.  1.
    10030    2    1    2    0    0  0.00000000000E+00  0.00000000000E+00 -0.23181252015E+03  0.14262956894E+04  0.14073316415E+04 0.  0.
        2    1    3    3  502    0  0.65157784716E+03 -0.51344624205E+02 -0.38010200947E+03  0.75608696520E+03  0.25500000920E-02 0. -1.
       -2    1    3    3    0  502 -0.65157784716E+03  0.51344624205E+02  0.14828948932E+03  0.67020872420E+03  0.25500000920E-02 0.  1.
</event>
<event>
 5   0  0.1700207E-03  0.1353458E+04  0.7818609E-02  0.8988214E-01
       -1   -1    0    0    0  501  0.00000000000E+00  0.00000000000E+00  0.42102670439E+03  0.42102670442E+03  0.50400001928E-02 0. -1.
        1   -1    0    0  501    0  0.00000000000E+00  0.00000000000E+00 -0.10877273750E+04  0.10877273750E+04  0.50400001928E-02 0.  1.
    10030    2    1    2    0    0  0.00000000000E+00  0.00000000000E+00 -0.66670067064E+03  0.15087540795E+04  0.13534581959E+04 0.  0.
        2    1    3    3  502    0 -0.27734654219E+03  0.53782513863E+03  0.43722833259E+01  0.60514138933E+03  0.25500000920E-02 0. -1.
       -2    1    3    3    0  502  0.27734654219E+03 -0.53782513863E+03 -0.67107295396E+03  0.90361269013E+03  0.25500000920E-02 0.  1.
</event>
<event>
 5   0  0.1586022E-03  0.1404701E+04  0.7818609E-02  0.8950423E-01
       -1   -1    0    0    0  501  0.00000000000E+00  0.00000000000E+00  0.89609524973E+03  0.89609524975E+03  0.50400001928E-02 0. -1.
        1   -1    0    0  501    0  0.00000000000E+00  0.00000000000E+00 -0.55049539252E+03  0.55049539254E+03  0.50400001928E-02 0.  1.
    10030    2    1    2    0    0  0.00000000000E+00  0.00000000000E+00  0.34559985721E+03  0.14465906423E+04  0.14047011159E+04 0.  0.
        1    1    3    3  502    0 -0.48089560547E+03 -0.25667634556E+03 -0.28329912943E+03  0.61433030732E+03  0.50400001928E-02 0.  1.
       -1    1    3    3    0  502  0.48089560547E+03  0.25667634556E+03  0.62889898665E+03  0.83226033497E+03  0.50400001928E-02 0. -1.
</event>
<event>
 5   0  0.2889469E-03  0.1389577E+04  0.7818609E-02  0.8961398E-01
       -2   -1    0    0    0  501  0.00000000000E+00  0.00000000000E+00  0.61162511258E+03  0.61162511258E+03  0.25500000920E-02 0.  1.
        2   -1    0    0  501    0  0.00000000000E+00  0.00000000000E+00 -0.78925978649E+03  0.78925978649E+03  0.25500000920E-02 0. -1.
    10030    2    1    2    0    0  0.00000000000E+00  0.00000000000E+00 -0.17763467391E+03  0.14008848991E+04  0.13895770663E+04 0.  0.
        5    1    3    3  502    0  0.61108953908E+03  0.90926907429E+02  0.23159107656E+03  0.65981409806E+03  0.46999998093E+01 0.  1.
       -5    1    3    3    0  502 -0.61108953908E+03 -0.90926907429E+02 -0.40922575047E+03  0.74107080101E+03  0.46999998093E+01 0. -1.
</event>
<event>
 5   0  0.3006737E-03  0.1371615E+04  0.7818609E-02  0.8974625E-01
       -2   -1    0    0    0  501  0.00000000000E+00  0.00000000000E+00  0.34434192672E+03  0.34434192673E+03  0.25500000920E-02 0. -1.
        2   -1    0    0  501    0  0.00000000000E+00  0.00000000000E+00 -0.13658861225E+04  0.13658861225E+04  0.25500000920E-02 0.  1.
    10030    2    1    2    0    0  0.00000000000E+00  0.00000000000E+00 -0.10215441957E+04  0.17102280492E+04  0.13716149009E+04 0.  0.
        1    1    3    3  502    0  0.12238403734E+03  0.65703840824E+03 -0.70254138439E+03  0.96966062068E+03  0.50400001928E-02 0.  1.
       -1    1    3    3    0  502 -0.12238403734E+03 -0.65703840824E+03 -0.31900281135E+03  0.74056742852E+03  0.50400001928E-02 0. -1.
</event>
<event>
 5   0  0.1560957E-03  0.1349287E+04  0.7818609E-02  0.8991368E-01
        1   -1    0    0  501    0  0.00000000000E+00  0.00000000000E+00  0.81919149628E+03  0.81919149630E+03  0.50400001928E-02 0. -1.
       -1   -1    0    0    0  501  0.00000000000E+00  0.00000000000E+00 -0.55560122479E+03  0.55560122481E+03  0.50400001928E-02 0.  1.
    10030    2    1    2    0    0  0.00000000000E+00  0.00000000000E+00  0.26359027150E+03  0.13747927211E+04  0.13492869209E+04 0.  0.
        5    1    3    3  502    0 -0.81481984525E+02 -0.48021195534E+03 -0.34380336118E+03  0.59620942379E+03  0.46999998093E+01 0.  1.
       -5    1    3    3    0  502  0.81481984525E+02  0.48021195534E+03  0.60739363268E+03  0.77858329732E+03  0.46999998093E+01 0. -1.
</event>
<event>
 5   0  0.1631380E-03  0.1412961E+04  0.7818609E-02  0.8944489E-01
       -1   -1    0    0    0  501  0.00000000000E+00  0.00000000000E+00  0.62628154355E+03  0.62628154357E+03  0.50400001928E-02 0.  1.
        1   -1    0    0  501    0  0.00000000000E+00  0.00000000000E+00 -0.79694987100E+03  0.79694987102E+03  0.50400001928E-02 0. -1.
    10030    2    1    2    0    0  0.00000000000E+00  0.00000000000E+00 -0.17066832745E+03  0.14232314146E+04  0.14129614225E+04 0.  0.
        3    1    3    3  502    0 -0.30495691296E+03  0.37034132053E+03  0.43705234122E+03  0.64897316710E+03  0.10100000352E+00 0.  1.
       -3    1    3    3    0  502  0.30495691296E+03 -0.37034132053E+03 -0.60772066868E+03  0.77425824748E+03  0.10100000352E+00 0. -1.
</event>
<event>
 5   0  0.2889469E-03  0.1456192E+04  0.7818609E-02  0.8914119E-01
        2   -1    0    0  501    0  0.00000000000E+00  0.00000000000E+00  0.88860931358E+03  0.88860931358E+03  0.25500000920E-02 0. -1.
       -2   -1    0    0    0  501  0.00000000000E+00  0.00000000000E+00 -0.59657670693E+03  0.59657670693E+03  0.25500000920E-02 0.  1.
    10030    2    1    2    0    0  0.00000000000E+00  0.00000000000E+00  0.29203260665E+03  0.14851860205E+04  0.14561917704E+04 0.  0.
        5    1    3    3  502    0  0.67822094541E+03  0.24661054395E+03  0.24437886509E+03  0.76193407253E+03  0.46999998093E+01 0. -1.
       -5    1    3    3    0  502 -0.67822094541E+03 -0.24661054395E+03  0.47653741558E+02  0.72325194799E+03  0.46999998093E+01 0.  1.
</event>
<event>
 5   0  0.1631380E-03  0.1381763E+04  0.7818609E-02  0.8967126E-01
       -1   -1    0    0    0  501  0.00000000000E+00  0.00000000000E+00  0.47471530451E+03  0.47471530454E+03  0.50400001928E-02 0.  1.
        1   -1    0    0  501    0  0.00000000000E+00  0.00000000000E+00 -0.10054805000E+04  0.10054805000E+04  0.50400001928E-02 0. -1.
    10030    2    1    2    0    0  0.00000000000E+00  0.00000000000E+00 -0.53076519545E+03  0.14801958045E+04  0.13817626160E+04 0.  0.
        3    1    3    3  502    0  0.84277069313E+02 -0.50909888422E+03  0.22672557823E+03  0.56363888826E+03  0.10100000352E+00 0.  1.
       -3    1    3    3    0  502 -0.84277069313E+02  0.50909888422E+03 -0.75749077369E+03  0.91655691626E+03  0.10100000352E+00 0. -1.
</event>
<event>
 5   0  0.2889469E-03  0.1320170E+04  0.7818609E-02  0.9013722E-01
       -2   -1    0    0    0  501  0.00000000000E+00  0.00000000000E+00  0.49227831731E+03  0.49227831732E+03  0.25500000920E-02 0. -1.
        2   -1    0    0  501    0  0.00000000000E+00  0.00000000000E+00 -0.88509262134E+03  0.88509262134E+03  0.25500000920E-02 0.  1.
    10030    2    1    2    0    0  0.00000000000E+00  0.00000000000E+00 -0.39281430403E+03  0.13773709387E+04  0.13201695441E+04 0.  0.
        5    1    3    3  502    0  0.26344263307E+03 -0.55340189681E+03 -0.45204216605E+03  0.76159036903E+03  0.46999998093E+01 0. -1.
       -5    1    3    3    0  502 -0.26344263307E+03  0.55340189681E+03  0.59227862024E+02  0.61578056964E+03  0.46999998093E+01 0.  1.
</event>
<event>
 5   0  0.1700207E-03  0.1465115E+04  0.7818609E-02  0.8907988E-01
        1   -1    0    0  501    0  0.00000000000E+00  0.00000000000E+00  0.12245776633E+04  0.12245776633E+04  0.50400001928E-02 0.  1.
       -1   -1    0    0    0  501  0.00000000000E+00  0.00000000000E+00 -0.43822504898E+03  0.43822504900E+03  0.50400001928E-02 0. -1.
    10030    2    1    2    0    0  0.00000000000E+00  0.00000000000E+00  0.78635261428E+03  0.16628027123E+04  0.14651151579E+04 0.  0.
        2    1    3    3  502    0  0.28652185805E+03  0.15581047079E+03 -0.35127955696E+03  0.47934226300E+03  0.25500000920E-02 0. -1.
       -2    1    3    3    0  502 -0.28652185805E+03 -0.15581047079E+03  0.11376321712E+04  0.11834604493E+04  0.25500000920E-02 0.  1.
</event>
<event>
 5   0  0.3006737E-03  0.1287896E+04  0.7818609E-02  0.9039219E-01
       -2   -1    0    0    0  501  0.00000000000E+00  0.00000000000E+00  0.12920282073E+04  0.12920282073E+04  0.25500000920E-02 0. -1.
        2   -1    0    0  501    0  0.00000000000E+00  0.00000000000E+00 -0.32094433840E+03  0.32094433841E+03  0.25500000920E-02 0.  1.
    10030    2    1    2    0    0  0.00000000000E+00  0.00000000000E+00  0.97108386886E+03  0.16129725457E+04  0.12878961731E+04 0.  0.
        1    1    3    3  502    0  0.13511079349E+03  0.62941332914E+03  0.46561828885E+03  0.79449131924E+03  0.50400001928E-02 0.  1.
       -1    1    3    3    0  502 -0.13511079349E+03 -0.62941332914E+03  0.50546558001E+03  0.81848122642E+03  0.50400001928E-02 0. -1.
</event>
<event>
 5   0  0.1700207E-03  0.1436452E+04  0.7818609E-02  0.8927847E-01
       -1   -1    0    0    0  501  0.00000000000E+00  0.00000000000E+00  0.72823379526E+03  0.72823379528E+03  0.50400001928E-02 0. -1.
        1   -1    0    0  501    0  0.00000000000E+00  0.00000000000E+00 -0.70835579299E+03  0.70835579301E+03  0.50400001928E-02 0.  1.
    10030    2    1    2    0    0  0.00000000000E+00  0.00000000000E+00  0.19878002273E+02  0.14365895883E+04  0.14364520564E+04 0.  0.
        2    1    3    3  502    0  0.22132542438E+03 -0.33389847596E+03  0.60612986433E+03  0.72654425065E+03  0.25500000920E-02 0. -1.
       -2    1    3    3    0  502 -0.22132542438E+03  0.33389847596E+03 -0.58625186205E+03  0.71004533763E+03  0.25500000920E-02 0.  1.
</event>
<event>
 5   0  0.2760807E-03  0.1785060E+04  0.7818609E-02  0.8714285E-01
       -2   -1    0    0    0  501  0.00000000000E+00  0.00000000000E+00  0.75812599792E+03  0.75812599792E+03  0.25500000920E-02 0. -1.
        2   -1    0    0  501    0  0.00000000000E+00  0.00000000000E+00 -0.10507614966E+04  0.10507614966E+04  0.25500000920E-02 0.  1.
    10030    2    1    2    0    0  0.00000000000E+00  0.00000000000E+00 -0.29263549873E+03  0.18088874946E+04  0.17850597841E+04 0.  0.
        4    1    3    3  502    0 -0.60841884837E+03  0.53668157428E+03  0.23067971316E+03  0.84345441500E+03  0.12699999809E+01 0. -1.
       -4    1    3    3    0  502  0.60841884837E+03 -0.53668157428E+03 -0.52331521189E+03  0.96543307957E+03  0.12699999809E+01 0.  1.
</event>
<event>
 5   0  0.1644571E-03  0.1406735E+04  0.7818609E-02  0.8948958E-01
       -1   -1    0    0    0  501  0.00000000000E+00  0.00000000000E+00  0.41088774382E+03  0.41088774385E+03  0.50400001928E-02 0.  1.
        1   -1    0    0  501    0  0.00000000000E+00  0.00000000000E+00 -0.12040405837E+04  0.12040405837E+04  0.50400001928E-02 0. -1.
    10030    2    1    2    0    0  0.00000000000E+00  0.00000000000E+00 -0.79315283991E+03  0.16149283276E+04  0.14067345435E+04 0.  0.
        4    1    3    3  502    0  0.68340344014E+03 -0.16412116397E+03 -0.36518150848E+03  0.79204492644E+03  0.12699999809E+01 0. -1.
       -4    1    3    3    0  502 -0.68340344014E+03  0.16412116397E+03 -0.42797133143E+03  0.82288340115E+03  0.12699999809E+01 0.  1.
</event>
<event>
 5   0  0.1104538E-03  0.1383345E+04  0.7818609E-02  0.8965963E-01
        4   -1    0    0  501    0  0.00000000000E+00  0.00000000000E+00  0.87035558757E+03  0.87035651414E+03  0.12699999809E+01 0.  1.
       -4   -1    0    0    0  501  0.00000000000E+00  0.00000000000E+00 -0.54967091907E+03  0.54967238622E+03  0.12699999809E+01 0. -1.
    10030    2    1    2    0    0  0.00000000000E+00  0.00000000000E+00  0.32068466849E+03  0.14200289004E+04  0.13833450117E+04 0.  0.
        1    1    3    3  502    0  0.27114969747E+03 -0.56932221836E+03 -0.13137838311E+03  0.64413525469E+03  0.50400001928E-02 0. -1.
       -1    1    3    3    0  502 -0.27114969747E+03  0.56932221836E+03  0.45206305160E+03  0.77589364568E+03  0.50400001928E-02 0.  1.
</event>
<event>
 5   0  0.1560957E-03  0.1391950E+04  0.7818609E-02  0.8959666E-01
       -1   -1    0    0    0  501  0.00000000000E+00  0.00000000000E+00  0.57544061035E+03  0.57544061037E+03  0.50400001928E-02 0.  1.
        1   -1    0    0  501    0  0.00000000000E+00  0.00000000000E+00 -0.84175746426E+03  0.84175746428E+03  0.50400001928E-02 0. -1.
    10030    2    1    2    0    0  0.00000000000E+00  0.00000000000E+00 -0.26631685391E+03  0.14171980747E+04  0.13919503282E+04 0.  0.
        5    1    3    3  502    0  0.61496846814E+03 -0.22716137549E+03  0.10468278126E+03  0.66390442234E+03  0.46999998093E+01 0.  1.
       -5    1    3    3    0  502 -0.61496846814E+03  0.22716137549E+03 -0.37099963517E+03  0.75329365231E+03  0.46999998093E+01 0. -1.
</event>
<event>
 5   0  0.1700207E-03  0.1394229E+04  0.7818609E-02  0.8958006E-01
        1   -1    0    0  501    0  0.00000000000E+00  0.00000000000E+00  0.83731060218E+03  0.83731060220E+03  0.50400001928E-02 0. -1.
       -1   -1    0    0    0  501  0.00000000000E+00  0.00000000000E+00 -0.58039241267E+03  0.58039241270E+03  0.50400001928E-02 0.  1.
    10030    2    1    2    0    0  0.00000000000E+00  0.00000000000E+00  0.25691818951E+03  0.14177030149E+04  0.13942291355E+04 0.  0.
        2    1    3    3  502    0 -0.51945311711E+03 -0.23218536807E+03  0.53801468432E+03  0.78307176336E+03  0.25500000920E-02 0. -1.
       -2    1    3    3    0  502  0.51945311711E+03  0.23218536807E+03 -0.28109649481E+03  0.63463125153E+03  0.25500000920E-02 0.  1.
</event>
<event>
 5   0  0.1631380E-03  0.1378510E+04  0.7818609E-02  0.8969523E-01
       -1   -1    0    0    0  501  0.00000000000E+00  0.00000000000E+00  0.50067470368E+03  0.50067470370E+03  0.50400001928E-02 0. -1.
        1   -1    0    0  501    0  0.00000000000E+00  0.00000000000E+00 -0.94886458841E+03  0.94886458842E+03  0.50400001928E-02 0.  1.
    10030    2    1    2    0    0  0.00000000000E+00  0.00000000000E+00 -0.44818988473E+03  0.14495392921E+04  0.13785100604E+04 0.  0.
        3    1    3    3  502    0 -0.10441187726E+03  0.42766277634E+03  0.33358595714E+03  0.55233766066E+03  0.10100000352E+00 0. -1.
       -3    1    3    3    0  502  0.10441187726E+03 -0.42766277634E+03 -0.78177584187E+03  0.89720163147E+03  0.10100000352E+00 0.  1.
</event>
<event>
 5   0  0.1560957E-03  0.1416498E+04  0.7818609E-02  0.8941962E-01
       -1   -1    0    0    0  501  0.00000000000E+00  0.00000000000E+00  0.39615806534E+03  0.39615806537E+03  0.50400001928E-02 0. -1.
        1   -1    0    0  501    0  0.00000000000E+00  0.00000000000E+00 -0.12662030083E+04  0.12662030083E+04  0.50400001928E-02 0.  1.
    10030    2    1    2    0    0  0.00000000000E+00  0.00000000000E+00 -0.87004494294E+03  0.16623610737E+04  0.14164978420E+04 0.  0.
        5    1    3    3  502    0  0.67261165186E+03 -0.66957787146E+01 -0.69518279006E+03  0.96734299463E+03  0.46999998093E+01 0.  1.
       -5    1    3    3    0  502 -0.67261165186E+03  0.66957787146E+01 -0.17486215288E+03  0.69501807903E+03  0.46999998093E+01 0. -1.
</event>
<event>
 5   0  0.1560957E-03  0.1390806E+04  0.7818609E-02  0.8960500E-01
       -1   -1    0    0    0  501  0.00000000000E+00  0.00000000000E+00  0.12364181464E+04  0.12364181464E+04  0.50400001928E-02 0.  1.
        1   -1    0    0  501    0  0.00000000000E+00  0.00000000000E+00 -0.39111809936E+03  0.39111809940E+03  0.50400001928E-02 0. -1.
    10030    2    1    2    0    0  0.00000000000E+00  0.00000000000E+00  0.84530004707E+03  0.16275362458E+04  0.13908062633E+04 0.  0.
        5    1    3    3  502    0 -0.45936204620E+03  0.13349262673E+03 -0.16796404105E+03  0.50701852034E+03  0.46999998093E+01 0. -1.
       -5    1    3    3    0  502  0.45936204620E+03 -0.13349262673E+03  0.10132640881E+04  0.11205177255E+04  0.46999998093E+01 0.  1.
</event>
<event>
 5   0  0.1560957E-03  0.1381221E+04  0.7818609E-02  0.8967525E-01
       -1   -1    0    0    0  501  0.00000000000E+00  0.00000000000E+00  0.80479084810E+03  0.80479084811E+03  0.50400001928E-02 0.  1.
        1   -1    0    0  501    0  0.00000000000E+00  0.00000000000E+00 -0.59262971221E+03  0.59262971224E+03  0.50400001928E-02 0. -1.
    10030    2    1    2    0    0  0.00000000000E+00  0.00000000000E+00  0.21216113588E+03  0.13974205604E+04  0.13812211535E+04 0.  0.
        5    1    3    3  502    0 -0.30918328008E+03 -0.46362981021E+03 -0.30659295642E+03  0.63605678404E+03  0.46999998093E+01 0. -1.
       -5    1    3    3    0  502  0.30918328008E+03  0.46362981021E+03  0.51875409231E+03  0.76136377631E+03  0.46999998093E+01 0.  1.
</event>
<event>
 5   0  0.2760807E-03  0.1373402E+04  0.7818609E-02  0.8973300E-01
       -2   -1    0    0    0  501  0.00000000000E+00  0.00000000000E+00  0.68338823586E+03  0.68338823586E+03  0.25500000920E-02 0.  1.
        2   -1    0    0  501    0  0.00000000000E+00  0.00000000000E+00 -0.69002953594E+03  0.69002953595E+03  0.25500000920E-02 0. -1.
    10030    2    1    2    0    0  0.00000000000E+00  0.00000000000E+00 -0.66413000886E+01  0.13734177718E+04  0.13734017144E+04 0.  0.
        4    1    3    3  502    0  0.62753486645E+03  0.59721920084E+02  0.26906046684E+03  0.68539175956E+03  0.12699999809E+01 0.  1.
       -4    1    3    3    0  502 -0.62753486645E+03 -0.59721920084E+02 -0.27570176692E+03  0.68802601225E+03  0.12699999809E+01 0. -1.
</event>
<event>
 5   0  0.1644571E-03  0.1373075E+04  0.7818609E-02  0.8973542E-01
       -1   -1    0    0    0  501  0.00000000000E+00  0.00000000000E+00  0.55055224166E+03  0.55055224169E+03  0.50400001928E-02 0. -1.
        1   -1    0    0  501    0  0.00000000000E+00  0.00000000000E+00 -0.85611042452E+03  0.85611042454E+03  0.50400001928E-02 0.  1.
    10030    2    1    2    0    0  0.00000000000E+00  0.00000000000E+00 -0.30555818286E+03  0.14066626662E+04  0.13730746715E+04 0.  0.
        4    1    3    3  502    0  0.65566454283E+03  0.16260231582E+03 -0.27323727319E+02  0.67607965863E+03  0.12699999809E+01 0. -1.
       -4    1    3    3    0  502 -0.65566454283E+03 -0.16260231582E+03 -0.27823445554E+03  0.73058300759E+03  0.12699999809E+01 0.  1.
</event>
<event>
 5   0  0.2993993E-03  0.1399315E+04  0.7818609E-02  0.8954315E-01
        2   -1    0    0  501    0  0.00000000000E+00  0.00000000000E+00  0.34821202616E+03  0.34821202617E+03  0.25500000920E-02 0. -1.
       -2   -1    0    0    0  501  0.00000000000E+00  0.00000000000E+00 -0.14058119949E+04  0.14058119949E+04  0.25500000920E-02 0.  1.
    10030    2    1    2    0    0  0.00000000000E+00  0.00000000000E+00 -0.10575999687E+04  0.17540240210E+04  0.13993150369E+04 0.  0.
        3    1    3    3  502    0  0.45281117326E+03  0.30801783189E+03  0.17018210394E+02  0.54790744937E+03  0.10100000352E+00 0. -1.
       -3    1    3    3    0  502 -0.45281117326E+03 -0.30801783189E+03 -0.10746181791E+04  0.12061165717E+04  0.10100000352E+00 0.  1.
</event>
<event>
 5   0  0.3006737E-03  0.1434647E+04  0.7818609E-02  0.8929114E-01
       -2   -1    0    0    0  501  0.00000000000E+00  0.00000000000E+00  0.57649702364E+03  0.57649702364E+03  0.25500000920E-02 0.  1.
        2   -1    0    0  501    0  0.00000000000E+00  0.00000000000E+00 -0.89255135791E+03  0.89255135791E+03  0.25500000920E-02 0. -1.
    10030    2    1    2    0    0  0.00000000000E+00  0.00000000000E+00 -0.31605433427E+03  0.14690483816E+04  0.14346472755E+04 0.  0.
        1    1    3    3  502    0 -0.48861131145E+03 -0.27807838321E+03  0.29817187572E+03  0.63637651464E+03  0.50400001928E-02 0.  1.
       -1    1    3    3    0  502  0.48861131145E+03  0.27807838321E+03 -0.61422620999E+03  0.83267186692E+03  0.50400001928E-02 0. -1.
</event>
<event>
 5   0  0.1644571E-03  0.1407160E+04  0.7818609E-02  0.8948652E-01
        1   -1    0    0  501    0  0.00000000000E+00  0.00000000000E+00  0.95712697375E+03  0.95712697377E+03  0.50400001928E-02 0.  1.
       -1   -1    0    0    0  501  0.00000000000E+00  0.00000000000E+00 -0.51719868924E+03  0.51719868927E+03  0.50400001928E-02 0. -1.
    10030    2    1    2    0    0  0.00000000000E+00  0.00000000000E+00  0.43992828451E+03  0.14743256630E+04  0.14071599998E+04 0.  0.
        4    1    3    3  502    0  0.11758120510E+03  0.12054878128E+03 -0.49577201401E+03  0.52359225666E+03  0.12699999809E+01 0. -1.
       -4    1    3    3    0  502 -0.11758120510E+03 -0.12054878128E+03  0.93570029852E+03  0.95073340638E+03  0.12699999809E+01 0.  1.
</event>
<event>
 5   0  0.3006737E-03  0.1315145E+04  0.7818609E-02  0.9017640E-01
        2   -1    0    0  501    0  0.00000000000E+00  0.00000000000E+00  0.42575448579E+03  0.42575448580E+03  0.25500000920E-02 0.  1.
       -2   -1    0    0    0  501  0.00000000000E+00  0.00000000000E+00 -0.10156127406E+04  0.10156127406E+04  0.25500000920E-02 0. -1.
    10030    2    1    2    0    0  0.00000000000E+00  0.00000000000E+00 -0.58985825484E+03  0.14413672264E+04  0.13151451329E+04 0.  0.
        1    1    3    3  502    0  0.57572842135E+03  0.19205360576E+03 -0.17550066630E+02  0.60717032824E+03  0.50400001928E-02 0. -1.
       -1    1    3    3    0  502 -0.57572842135E+03 -0.19205360576E+03 -0.57230818821E+03  0.83419689819E+03  0.50400001928E-02 0.  1.
</event>
<event>
 5   0  0.3006737E-03  0.1426309E+04  0.7818609E-02  0.8934992E-01
       -2   -1    0    0    0  501  0.00000000000E+00  0.00000000000E+00  0.27681954526E+03  0.27681954527E+03  0.25500000920E-02 0. -1.
        2   -1    0    0  501    0  0.00000000000E+00  0.00000000000E+00 -0.18372601004E+04  0.18372601004E+04  0.25500000920E-02 0.  1.
    10030    2    1    2    0    0  0.00000000000E+00  0.00000000000E+00 -0.15604405552E+04  0.21140796457E+04  0.14263092309E+04 0.  0.
        1    1    3    3  502    0  0.29260114742E+03  0.64094130521E+03 -0.94372221944E+03  0.11777235735E+04  0.50400001928E-02 0. -1.
       -1    1    3    3    0  502 -0.29260114742E+03 -0.64094130521E+03 -0.61671833572E+03  0.93635607214E+03  0.50400001928E-02 0.  1.
</event>
<event>
 5   0  0.1700207E-03  0.1388705E+04  0.7818609E-02  0.8962035E-01
        1   -1    0    0  501    0  0.00000000000E+00  0.00000000000E+00  0.12795534859E+04  0.12795534859E+04  0.50400001928E-02 0.  1.
       -1   -1    0    0    0  501  0.00000000000E+00  0.00000000000E+00 -0.37679185985E+03  0.37679185988E+03  0.50400001928E-02 0. -1.
    10030    2    1    2    0    0  0.00000000000E+00  0.00000000000E+00  0.90276162608E+03  0.16563453458E+04  0.13887049187E+04 0.  0.
        2    1    3    3  502    0 -0.22996690036E+03 -0.65463067543E+03  0.48292028745E+03  0.84536270353E+03  0.25500000920E-02 0. -1.
       -2    1    3    3    0  502  0.22996690036E+03  0.65463067543E+03  0.41984133863E+03  0.81098264230E+03  0.25500000920E-02 0.  1.
</event>
<event>
 5   0  0.3006737E-03  0.1449358E+04  0.7818609E-02  0.8918845E-01
       -2   -1    0    0    0  501  0.00000000000E+00  0.00000000000E+00  0.41948407969E+03  0.41948407969E+03  0.25500000920E-02 0. -1.
        2   -1    0    0  501    0  0.00000000000E+00  0.00000000000E+00 -0.12519187094E+04  0.12519187094E+04  0.25500000920E-02 0.  1.
    10030    2    1    2    0    0  0.00000000000E+00  0.00000000000E+00 -0.83243462970E+03  0.16714027891E+04  0.14493584341E+04 0.  0.
        1    1    3    3  502    0  0.57643264256E+03  0.34405160571E+03 -0.10142517709E+03  0.67892058842E+03  0.50400001928E-02 0. -1.
       -1    1    3    3    0  502 -0.57643264256E+03 -0.34405160571E+03 -0.73100945262E+03  0.99248220067E+03  0.50400001928E-02 0.  1.
</event>
<event>
 5   0  0.1644571E-03  0.1380426E+04  0.7818609E-02  0.8968111E-01
       -1   -1    0    0    0  501  0.00000000000E+00  0.00000000000E+00  0.10743388813E+04  0.10743388813E+04  0.50400001928E-02 0.  1.
        1   -1    0    0  501    0  0.00000000000E+00  0.00000000000E+00 -0.44342974783E+03  0.44342974786E+03  0.50400001928E-02 0. -1.
    10030    2    1    2    0    0  0.00000000000E+00  0.00000000000E+00  0.63090913342E+03  0.15177686291E+04  0.13804257593E+04 0.  0.
        4    1    3    3  502    0 -0.33329646266E+03  0.48679358276E+03  0.70933972151E+03  0.92261529234E+03  0.12699999809E+01 0.  1.
       -4    1    3    3    0  502  0.33329646266E+03 -0.48679358276E+03 -0.78430588087E+02  0.59515333679E+03  0.12699999809E+01 0. -1.
</event>
<event>
 5   0  0.1700207E-03  0.1111858E+04  0.7818609E-02  0.9193711E-01
        1   -1    0    0  501    0  0.00000000000E+00  0.00000000000E+00  0.28080262301E+03  0.28080262306E+03  0.50400001928E-02 0.  1.
       -1   -1    0    0    0  501  0.00000000000E+00  0.00000000000E+00 -0.11006194125E+04  0.11006194125E+04  0.50400001928E-02 0. -1.
    10030    2    1    2    0    0  0.00000000000E+00  0.00000000000E+00 -0.81981678951E+03  0.13814220356E+04  0.11118575772E+04 0.  0.
        2    1    3    3  502    0 -0.52031562086E+03 -0.69758883812E+02 -0.63718475996E+03  0.82559013167E+03  0.25500000920E-02 0. -1.
       -2    1    3    3    0  502  0.52031562086E+03  0.69758883812E+02 -0.18263202955E+03  0.55583190392E+03  0.25500000920E-02 0.  1.
</event>
<event>
 5   0  0.1586022E-03  0.1409634E+04  0.7818609E-02  0.8946875E-01
       -1   -1    0    0    0  501  0.00000000000E+00  0.00000000000E+00  0.53906623440E+03  0.53906623442E+03  0.50400001928E-02 0. -1.
        1   -1    0    0  501    0  0.00000000000E+00  0.00000000000E+00 -0.92153186651E+03  0.92153186652E+03  0.50400001928E-02 0.  1.
    10030    2    1    2    0    0  0.00000000000E+00  0.00000000000E+00 -0.38246563211E+03  0.14605981009E+04  0.14096335881E+04 0.  0.
        1    1    3    3  502    0 -0.61455904608E+03  0.33512598851E+03 -0.10594991652E+03  0.70796725498E+03  0.50400001928E-02 0. -1.
       -1    1    3    3    0  502  0.61455904608E+03 -0.33512598851E+03 -0.27651571559E+03  0.75263084596E+03  0.50400001928E-02 0.  1.
</event>
<event>
 5   0  0.3006737E-03  0.1381220E+04  0.7818609E-02  0.8967526E-01
        2   -1    0    0  501    0  0.00000000000E+00  0.00000000000E+00  0.19880298298E+04  0.19880298298E+04  0.25500000920E-02 0. -1.
       -2   -1    0    0    0  501  0.00000000000E+00  0.00000000000E+00 -0.23990686529E+03  0.23990686530E+03  0.25500000920E-02 0.  1.
    10030    2    1    2    0    0  0.00000000000E+00  0.00000000000E+00  0.17481229645E+04  0.22279366951E+04  0.13812197574E+04 0.  0.
        1    1    3    3  502    0 -0.60826650302E+03  0.70545688123E+02  0.35896148680E+03  0.70980150876E+03  0.50400001928E-02 0.  1.
       -1    1    3    3    0  502  0.60826650302E+03 -0.70545688123E+02  0.13891614777E+04  0.15181351863E+04  0.50400001928E-02 0. -1.
</event>
<event>
 5   0  0.1586022E-03  0.1409867E+04  0.7818609E-02  0.8946707E-01
       -1   -1    0    0    0  501  0.00000000000E+00  0.00000000000E+00  0.44789368705E+03  0.44789368708E+03  0.50400001928E-02 0. -1.
        1   -1    0    0  501    0  0.00000000000E+00  0.00000000000E+00 -0.11094846479E+04  0.11094846479E+04  0.50400001928E-02 0.  1.
    10030    2    1    2    0    0  0.00000000000E+00  0.00000000000E+00 -0.66159096082E+03  0.15573783350E+04  0.14098669011E+04 0.  0.
        1    1    3    3  502    0  0.41069091730E+03 -0.40648724930E+03  0.11522292781E+03  0.58921578095E+03  0.50400001928E-02 0. -1.
       -1    1    3    3    0  502 -0.41069091730E+03  0.40648724930E+03 -0.77681388863E+03  0.96816255402E+03  0.50400001928E-02 0.  1.
</event>
<event>
 5   0  0.1644571E-03  0.1405076E+04  0.7818609E-02  0.8950152E-01
        1   -1    0    0  501    0  0.00000000000E+00  0.00000000000E+00  0.13746002151E+04  0.13746002152E+04  0.50400001928E-02 0. -1.
       -1   -1    0    0    0  501  0.00000000000E+00  0.00000000000E+00 -0.35905702361E+03  0.35905702364E+03  0.50400001928E-02 0.  1.
    10030    2    1    2    0    0  0.00000000000E+00  0.00000000000E+00  0.10155431915E+04  0.17336572388E+04  0.14050763139E+04 0.  0.
        4    1    3    3  502    0  0.18802248213E+03  0.12548276701E+03 -0.31295832886E+03  0.38606075572E+03  0.12699999809E+01 0.  1.
       -4    1    3    3    0  502 -0.18802248213E+03 -0.12548276701E+03  0.13285015204E+04  0.13475964831E+04  0.12699999809E+01 0. -1.
</event>
<event>
 5   0  0.2917809E-03  0.1430515E+04  0.7818609E-02  0.8932022E-01
        2   -1    0    0  501    0  0.00000000000E+00  0.00000000000E+00  0.27132508688E+04  0.27132508688E+04  0.25500000920E-02 0. -1.
       -2   -1    0    0    0  501  0.00000000000E+00  0.00000000000E+00 -0.18855352546E+03  0.18855352548E+03  0.25500000920E-02 0.  1.
    10030    2    1    2    0    0  0.00000000000E+00  0.00000000000E+00  0.25246973433E+04  0.29018043943E+04  0.14305146162E+04 0.  0.
        2    1    3    3  502    0  0.27051050938E+03 -0.96476819522E+02 -0.66451881453E+02  0.29478732155E+03  0.25500000920E-02 0.  1.
       -2    1    3    3    0  502 -0.27051050938E+03  0.96476819522E+02  0.25911492248E+04  0.26070170727E+04  0.25500000920E-02 0. -1.
</event>
<event>
 5   0  0.2917809E-03  0.1353120E+04  0.7818609E-02  0.8988470E-01
       -2   -1    0    0    0  501  0.00000000000E+00  0.00000000000E+00  0.24686100652E+03  0.24686100653E+03  0.25500000920E-02 0. -1.
        2   -1    0    0  501    0  0.00000000000E+00  0.00000000000E+00 -0.18542146067E+04  0.18542146067E+04  0.25500000920E-02 0.  1.
    10030    2    1    2    0    0  0.00000000000E+00  0.00000000000E+00 -0.16073536002E+04  0.21010756132E+04  0.13531197791E+04 0.  0.
        2    1    3    3  502    0 -0.54291143602E+01 -0.57786753031E+03 -0.13499605338E+04  0.14684528595E+04  0.25500000920E-02 0.  1.
       -2    1    3    3    0  502  0.54291143602E+01  0.57786753031E+03 -0.25739306641E+03  0.63262275372E+03  0.25500000920E-02 0. -1.
</event>
<event>
 5   0  0.2889469E-03  0.1398730E+04  0.7818609E-02  0.8954738E-01
       -2   -1    0    0    0  501  0.00000000000E+00  0.00000000000E+00  0.67897802030E+03  0.67897802030E+03  0.25500000920E-02 0. -1.
        2   -1    0    0  501    0  0.00000000000E+00  0.00000000000E+00 -0.72036412919E+03  0.72036412920E+03  0.25500000920E-02 0.  1.
    10030    2    1    2    0    0  0.00000000000E+00  0.00000000000E+00 -0.41386108896E+02  0.13993421495E+04  0.13987300102E+04 0.  0.
        5    1    3    3  502    0  0.60250776059E+03  0.26981049316E+03 -0.25161004846E+03  0.70650053805E+03  0.46999998093E+01 0. -1.
       -5    1    3    3    0  502 -0.60250776059E+03 -0.26981049316E+03  0.21022393957E+03  0.69284161144E+03  0.46999998093E+01 0.  1.
</event>
<event>
 5   0  0.3006737E-03  0.1416499E+04  0.7818609E-02  0.8941962E-01
       -2   -1    0    0    0  501  0.00000000000E+00  0.00000000000E+00  0.25593852868E+03  0.25593852869E+03  0.25500000920E-02 0.  1.
        2   -1    0    0  501    0  0.00000000000E+00  0.00000000000E+00 -0.19599130227E+04  0.19599130227E+04  0.25500000920E-02 0. -1.
    10030    2    1    2    0    0  0.00000000000E+00  0.00000000000E+00 -0.17039744940E+04  0.22158515514E+04  0.14164988604E+04 0.  0.
        1    1    3    3  502    0  0.40216086428E+03  0.16338338349E+03 -0.17274309287E+04  0.17811359028E+04  0.50400001928E-02 0. -1.
       -1    1    3    3    0  502 -0.40216086428E+03 -0.16338338349E+03  0.23456434703E+02  0.43471564857E+03  0.50400001928E-02 0.  1.
</event>
<event>
 5   0  0.1631380E-03  0.1356499E+04  0.7818609E-02  0.8985923E-01
        1   -1    0    0  501    0  0.00000000000E+00  0.00000000000E+00  0.42390010477E+03  0.42390010480E+03  0.50400001928E-02 0.  1.
       -1   -1    0    0    0  501  0.00000000000E+00  0.00000000000E+00 -0.10852145619E+04  0.10852145619E+04  0.50400001928E-02 0. -1.
    10030    2    1    2    0    0  0.00000000000E+00  0.00000000000E+00 -0.66131445716E+03  0.15091146667E+04  0.13564992688E+04 0.  0.
        3    1    3    3  502    0  0.67353865105E+02 -0.50144531981E+02  0.41809500976E+03  0.42644397595E+03  0.10100000352E+00 0.  1.
       -3    1    3    3    0  502 -0.67353865105E+02  0.50144531981E+02 -0.10794094669E+04  0.10826706908E+04  0.10100000352E+00 0. -1.
</event>
<event>
 5   0  0.2760807E-03  0.1358665E+04  0.7818609E-02  0.8984294E-01
       -2   -1    0    0    0  501  0.00000000000E+00  0.00000000000E+00  0.53247579505E+03  0.53247579506E+03  0.25500000920E-02 0. -1.
        2   -1    0    0  501    0  0.00000000000E+00  0.00000000000E+00 -0.86669261000E+03  0.86669261000E+03  0.25500000920E-02 0.  1.
    10030    2    1    2    0    0  0.00000000000E+00  0.00000000000E+00 -0.33421681495E+03  0.13991684051E+04  0.13586652812E+04 0.  0.
        4    1    3    3  502    0  0.53882772202E+03  0.32492322940E+03 -0.43083011709E+03  0.76257892818E+03  0.12699999809E+01 0. -1.
       -4    1    3    3    0  502 -0.53882772202E+03 -0.32492322940E+03  0.96613302138E+02  0.63658947688E+03  0.12699999809E+01 0.  1.
</event>
<event>
 5   0  0.2889469E-03  0.1384438E+04  0.7818609E-02  0.8965161E-01
       -2   -1    0    0    0  501  0.00000000000E+00  0.00000000000E+00  0.28579220754E+03  0.28579220755E+03  0.25500000920E-02 0.  1.
        2   -1    0    0  501    0  0.00000000000E+00  0.00000000000E+00 -0.16766281097E+04  0.16766281097E+04  0.25500000920E-02 0. -1.
    10030    2    1    2    0    0  0.00000000000E+00  0.00000000000E+00 -0.13908359022E+04  0.19624203173E+04  0.13844381513E+04 0.  0.
        5    1    3    3  502    0  0.22911093980E+03  0.57531862151E+03 -0.11338353608E+04  0.12919319078E+04  0.46999998093E+01 0. -1.
       -5    1    3    3    0  502 -0.22911093980E+03 -0.57531862151E+03 -0.25700054142E+03  0.67048840951E+03  0.46999998093E+01 0.  1.
</event>
<event>
 5   0  0.3006737E-03  0.1428086E+04  0.7818609E-02  0.8933735E-01
       -2   -1    0    0    0  501  0.00000000000E+00  0.00000000000E+00  0.26201079909E+03  0.26201079911E+03  0.25500000920E-02 0. -1.
        2   -1    0    0  501    0  0.00000000000E+00  0.00000000000E+00 -0.19459413333E+04  0.19459413333E+04  0.25500000920E-02 0.  1.
    10030    2    1    2    0    0  0.00000000000E+00  0.00000000000E+00 -0.16839305342E+04  0.22079521324E+04  0.14280863332E+04 0.  0.
        1    1    3    3  502    0 -0.35211991332E+03  0.19923523147E+03  0.67702378455E+02  0.41020327021E+03  0.50400001928E-02 0. -1.
       -1    1    3    3    0  502  0.35211991332E+03 -0.19923523147E+03 -0.17516329126E+04  0.17977488622E+04  0.50400001928E-02 0.  1.
</event>
<event>
 5   0  0.1586022E-03  0.1399312E+04  0.7818609E-02  0.8954317E-01
       -1   -1    0    0    0  501  0.00000000000E+00  0.00000000000E+00  0.89057959878E+03  0.89057959879E+03  0.50400001928E-02 0.  1.
        1   -1    0    0  501    0  0.00000000000E+00  0.00000000000E+00 -0.54966291014E+03  0.54966291016E+03  0.50400001928E-02 0. -1.
    10030    2    1    2    0    0  0.00000000000E+00  0.00000000000E+00  0.34091668864E+03  0.14402425090E+04  0.13993120796E+04 0.  0.
        1    1    3    3  502    0  0.34385098412E+03 -0.28398488650E+02  0.79693170098E+03  0.86841240749E+03  0.50400001928E-02 0.  1.
       -1    1    3    3    0  502 -0.34385098412E+03  0.28398488650E+02 -0.45601501234E+03  0.57183010146E+03  0.50400001928E-02 0. -1.
</event>
<event>
 5   0  0.1104538E-03  0.1386889E+04  0.7818609E-02  0.8963364E-01
       -4   -1    0    0    0  501  0.00000000000E+00  0.00000000000E+00  0.80509761028E+03  0.80509861196E+03  0.12699999809E+01 0. -1.
        4   -1    0    0  501    0  0.00000000000E+00  0.00000000000E+00 -0.59727380828E+03  0.59727515850E+03  0.12699999809E+01 0.  1.
    10030    2    1    2    0    0  0.00000000000E+00  0.00000000000E+00  0.20782380200E+03  0.14023737705E+04  0.13868891302E+04 0.  0.
        1    1    3    3  502    0 -0.36300423655E+03  0.53502083953E+03 -0.14957809414E+03  0.66362111235E+03  0.50400001928E-02 0.  1.
       -1    1    3    3    0  502  0.36300423655E+03 -0.53502083953E+03  0.35740189614E+03  0.73875265811E+03  0.50400001928E-02 0. -1.
</event>
<event>
 5   0  0.1700207E-03  0.1397530E+04  0.7818609E-02  0.8955608E-01
       -1   -1    0    0    0  501  0.00000000000E+00  0.00000000000E+00  0.73405575274E+03  0.73405575276E+03  0.50400001928E-02 0.  1.
        1   -1    0    0  501    0  0.00000000000E+00  0.00000000000E+00 -0.66517079528E+03  0.66517079530E+03  0.50400001928E-02 0. -1.
    10030    2    1    2    0    0  0.00000000000E+00  0.00000000000E+00  0.68884957461E+02  0.13992265481E+04  0.13975298907E+04 0.  0.
        2    1    3    3  502    0 -0.32361603069E+03 -0.39896386496E+03 -0.43981280506E+03  0.67626533577E+03  0.25500000920E-02 0. -1.
       -2    1    3    3    0  502  0.32361603069E+03  0.39896386496E+03  0.50869776252E+03  0.72296121228E+03  0.25500000920E-02 0.  1.
</event>
<event>
 5   0  0.2917809E-03  0.1410377E+04  0.7818609E-02  0.8946341E-01
       -2   -1    0    0    0  501  0.00000000000E+00  0.00000000000E+00  0.23757935245E+03  0.23757935246E+03  0.25500000920E-02 0.  1.
        2   -1    0    0  501    0  0.00000000000E+00  0.00000000000E+00 -0.20931572415E+04  0.20931572415E+04  0.25500000920E-02 0. -1.
    10030    2    1    2    0    0  0.00000000000E+00  0.00000000000E+00 -0.18555778890E+04  0.23307365940E+04  0.14103771723E+04 0.  0.
        2    1    3    3  502    0 -0.11001172078E+03  0.87150473113E+02  0.21426593378E+03  0.25613995014E+03  0.25500000920E-02 0.  1.
       -2    1    3    3    0  502  0.11001172078E+03 -0.87150473113E+02 -0.20698438228E+04  0.20745966438E+04  0.25500000920E-02 0. -1.
</event>
<event>
 5   0  0.2760807E-03  0.1395376E+04  0.7818609E-02  0.8957172E-01
       -2   -1    0    0    0  501  0.00000000000E+00  0.00000000000E+00  0.64166715379E+03  0.64166715379E+03  0.25500000920E-02 0. -1.
        2   -1    0    0  501    0  0.00000000000E+00  0.00000000000E+00 -0.75859976223E+03  0.75859976224E+03  0.25500000920E-02 0.  1.
    10030    2    1    2    0    0  0.00000000000E+00  0.00000000000E+00 -0.11693260844E+03  0.14002669160E+04  0.13953760071E+04 0.  0.
        4    1    3    3  502    0  0.13065330337E+03  0.25381670663E+02  0.62880825561E+03  0.64274096657E+03  0.12699999809E+01 0. -1.
       -4    1    3    3    0  502 -0.13065330337E+03 -0.25381670663E+02 -0.74574086405E+03  0.75752594946E+03  0.12699999809E+01 0.  1.
</event>
<event>
 5   0  0.2889469E-03  0.1436562E+04  0.7818609E-02  0.8927770E-01
        2   -1    0    0  501    0  0.00000000000E+00  0.00000000000E+00  0.13524259531E+04  0.13524259531E+04  0.25500000920E-02 0. -1.
       -2   -1    0    0    0  501  0.00000000000E+00  0.00000000000E+00 -0.38148329956E+03  0.38148329957E+03  0.25500000920E-02 0.  1.
    10030    2    1    2    0    0  0.00000000000E+00  0.00000000000E+00  0.97094265355E+03  0.17339092527E+04  0.14365624456E+04 0.  0.
        5    1    3    3  502    0  0.19634442800E+03  0.65698723840E+03  0.22738402004E+03  0.72243266012E+03  0.46999998093E+01 0.  1.
       -5    1    3    3    0  502 -0.19634442800E+03 -0.65698723840E+03  0.74355863351E+03  0.10114765926E+04  0.46999998093E+01 0. -1.
</event>
<event>
 5   0  0.1586022E-03  0.1363073E+04  0.7818609E-02  0.8980991E-01
        1   -1    0    0  501    0  0.00000000000E+00  0.00000000000E+00  0.12464314972E+04  0.12464314972E+04  0.50400001928E-02 0. -1.
       -1   -1    0    0    0  501  0.00000000000E+00  0.00000000000E+00 -0.37265747449E+03  0.37265747453E+03  0.50400001928E-02 0.  1.
    10030    2    1    2    0    0  0.00000000000E+00  0.00000000000E+00  0.87377402272E+03  0.16190889718E+04  0.13630730192E+04 0.  0.
        1    1    3    3  502    0  0.85198730183E+02 -0.44740531030E+02 -0.36454693556E+03  0.37703449046E+03  0.50400001928E-02 0.  1.
       -1    1    3    3    0  502 -0.85198730183E+02  0.44740531030E+02  0.12383209583E+04  0.12420544813E+04  0.50400001928E-02 0. -1.
</event>
<event>
 5   0  0.1644571E-03  0.1436646E+04  0.7818609E-02  0.8927711E-01
       -1   -1    0    0    0  501  0.00000000000E+00  0.00000000000E+00  0.46929856372E+03  0.46929856374E+03  0.50400001928E-02 0.  1.
        1   -1    0    0  501    0  0.00000000000E+00  0.00000000000E+00 -0.10994877737E+04  0.10994877738E+04  0.50400001928E-02 0. -1.
    10030    2    1    2    0    0  0.00000000000E+00  0.00000000000E+00 -0.63018921003E+03  0.15687863375E+04  0.14366461402E+04 0.  0.
        4    1    3    3  502    0  0.55658816384E+03  0.27357513344E+03  0.80666819970E+02  0.62541385219E+03  0.12699999809E+01 0.  1.
       -4    1    3    3    0  502 -0.55658816384E+03 -0.27357513344E+03 -0.71085603000E+03  0.94337248532E+03  0.12699999809E+01 0. -1.
</event>
<event>
 5   0  0.2917809E-03  0.1115671E+04  0.7818609E-02  0.9190051E-01
       -2   -1    0    0    0  501  0.00000000000E+00  0.00000000000E+00  0.21726390232E+03  0.21726390233E+03  0.25500000920E-02 0. -1.
        2   -1    0    0  501    0  0.00000000000E+00  0.00000000000E+00 -0.14322700233E+04  0.14322700233E+04  0.25500000920E-02 0.  1.
    10030    2    1    2    0    0  0.00000000000E+00  0.00000000000E+00 -0.12150061210E+04  0.16495339256E+04  0.11156712320E+04 0.  0.
        2    1    3    3  502    0 -0.20138572658E+03  0.33948999928E+03 -0.11902900712E+04  0.12540335418E+04  0.25500000920E-02 0.  1.
       -2    1    3    3    0  502  0.20138572658E+03 -0.33948999928E+03 -0.24716049829E+02  0.39550038383E+03  0.25500000920E-02 0. -1.
</event>
<event>
 5   0  0.3006737E-03  0.1271563E+04  0.7818609E-02  0.9052425E-01
        2   -1    0    0  501    0  0.00000000000E+00  0.00000000000E+00  0.51026796878E+03  0.51026796879E+03  0.25500000920E-02 0.  1.
       -2   -1    0    0    0  501  0.00000000000E+00  0.00000000000E+00 -0.79216804018E+03  0.79216804019E+03  0.25500000920E-02 0. -1.
    10030    2    1    2    0    0  0.00000000000E+00  0.00000000000E+00 -0.28190007140E+03  0.13024360090E+04  0.12715627815E+04 0.  0.
        1    1    3    3  502    0  0.35992163467E+02  0.46576800825E+03  0.30077789959E+03  0.55561013152E+03  0.50400001928E-02 0.  1.
       -1    1    3    3    0  502 -0.35992163467E+02 -0.46576800825E+03 -0.58267797099E+03  0.74682587746E+03  0.50400001928E-02 0. -1.
</event>
<event>
 5   0  0.2760807E-03  0.1422763E+04  0.7818609E-02  0.8937504E-01
        2   -1    0    0  501    0  0.00000000000E+00  0.00000000000E+00  0.11191300995E+04  0.11191300995E+04  0.25500000920E-02 0. -1.
       -2   -1    0    0    0  501  0.00000000000E+00  0.00000000000E+00 -0.45219367226E+03  0.45219367226E+03  0.25500000920E-02 0.  1.
    10030    2    1    2    0    0  0.00000000000E+00  0.00000000000E+00  0.66693642728E+03  0.15713237718E+04  0.14227628748E+04 0.  0.
        4    1    3    3  502    0 -0.26842142467E+03 -0.62348732885E+03  0.98470071070E+02  0.68591871111E+03  0.12699999809E+01 0. -1.
       -4    1    3    3    0  502  0.26842142467E+03  0.62348732885E+03  0.56846635621E+03  0.88540506069E+03  0.12699999809E+01 0.  1.
</event>
<event>
 5   0  0.1700207E-03  0.1374860E+04  0.7818609E-02  0.8972220E-01
       -1   -1    0    0    0  501  0.00000000000E+00  0.00000000000E+00  0.50286096820E+03  0.50286096822E+03  0.50400001928E-02 0. -1.
        1   -1    0    0  501    0  0.00000000000E+00  0.00000000000E+00 -0.93974299479E+03  0.93974299480E+03  0.50400001928E-02 0.  1.
    10030    2    1    2    0    0  0.00000000000E+00  0.00000000000E+00 -0.43688202659E+03  0.14426039630E+04  0.13748600980E+04 0.  0.
        2    1    3    3  502    0 -0.49680069692E+02  0.29631524726E+03 -0.86720188510E+03  0.91777445192E+03  0.25500000920E-02 0.  1.
       -2    1    3    3    0  502  0.49680069692E+02 -0.29631524726E+03  0.43031985851E+03  0.52482951110E+03  0.25500000920E-02 0. -1.
</event>
<event>
 5   0  0.2889469E-03  0.1404053E+04  0.7818609E-02  0.8950890E-01
        2   -1    0    0  501    0  0.00000000000E+00  0.00000000000E+00  0.13184524506E+04  0.13184524506E+04  0.25500000920E-02 0.  1.
       -2   -1    0    0    0  501  0.00000000000E+00  0.00000000000E+00 -0.37380304221E+03  0.37380304222E+03  0.25500000920E-02 0. -1.
    10030    2    1    2    0    0  0.00000000000E+00  0.00000000000E+00  0.94464940838E+03  0.16922554928E+04  0.14040534706E+04 0.  0.
        5    1    3    3  502    0 -0.19422390725E+01 -0.35067850554E+03 -0.26065066051E+03  0.43696686758E+03  0.46999998093E+01 0. -1.
       -5    1    3    3    0  502  0.19422390725E+01  0.35067850554E+03  0.12053000689E+04  0.12552886252E+04  0.46999998093E+01 0.  1.
</event>
<event>
 5   0  0.1644571E-03  0.1421236E+04  0.7818609E-02  0.8938588E-01
        1   -1    0    0  501    0  0.00000000000E+00  0.00000000000E+00  0.98525333707E+03  0.98525333708E+03  0.50400001928E-02 0.  1.
       -1   -1    0    0    0  501  0.00000000000E+00  0.00000000000E+00 -0.51253638837E+03  0.51253638840E+03  0.50400001928E-02 0. -1.
    10030    2    1    2    0    0  0.00000000000E+00  0.00000000000E+00  0.47271694870E+03  0.14977897255E+04  0.14212363449E+04 0.  0.
        4    1    3    3  502    0 -0.34643379299E+03 -0.38415588014E+03 -0.27710633640E+03  0.58684039376E+03  0.12699999809E+01 0. -1.
       -4    1    3    3    0  502  0.34643379299E+03  0.38415588014E+03  0.74982328510E+03  0.91094933172E+03  0.12699999809E+01 0.  1.
</event>
<event>
 5   0  0.1586022E-03  0.1554908E+04  0.7818609E-02  0.8848739E-01
        1   -1    0    0  501    0  0.00000000000E+00  0.00000000000E+00  0.83603878991E+03  0.83603878992E+03  0.50400001928E-02 0. -1.
       -1   -1    0    0    0  501  0.00000000000E+00  0.00000000000E+00 -0.72297490353E+03  0.72297490355E+03  0.50400001928E-02 0.  1.
    10030    2    1    2    0    0  0.00000000000E+00  0.00000000000E+00  0.11306388637E+03  0.15590136935E+04  0.15549084391E+04 0.  0.
        1    1    3    3  502    0 -0.53572832776E+03 -0.49513087370E+03 -0.21301914091E+03  0.75995827364E+03  0.50400001928E-02 0. -1.
       -1    1    3    3    0  502  0.53572832776E+03  0.49513087370E+03  0.32608302729E+03  0.79905541983E+03  0.50400001928E-02 0.  1.
</event>
<event>
 5   0  0.1586022E-03  0.1373444E+04  0.7818609E-02  0.8973269E-01
       -1   -1    0    0    0  501  0.00000000000E+00  0.00000000000E+00  0.54668706914E+03  0.54668706916E+03  0.50400001928E-02 0. -1.
        1   -1    0    0  501    0  0.00000000000E+00  0.00000000000E+00 -0.86262678794E+03  0.86262678796E+03  0.50400001928E-02 0.  1.
    10030    2    1    2    0    0  0.00000000000E+00  0.00000000000E+00 -0.31593971880E+03  0.14093138571E+04  0.13734437163E+04 0.  0.
        1    1    3    3  502    0  0.42206484429E+03  0.27570174164E+03 -0.63644932772E+03  0.81192236692E+03  0.50400001928E-02 0.  1.
       -1    1    3    3    0  502 -0.42206484429E+03 -0.27570174164E+03  0.32050960892E+03  0.59739149020E+03  0.50400001928E-02 0. -1.
</event>
<event>
 5   0  0.1700207E-03  0.1349887E+04  0.7818609E-02  0.8990913E-01
        1   -1    0    0  501    0  0.00000000000E+00  0.00000000000E+00  0.72793049097E+03  0.72793049099E+03  0.50400001928E-02 0.  1.
       -1   -1    0    0    0  501  0.00000000000E+00  0.00000000000E+00 -0.62581390458E+03  0.62581390460E+03  0.50400001928E-02 0. -1.
    10030    2    1    2    0    0  0.00000000000E+00  0.00000000000E+00  0.10211658639E+03  0.13537443956E+04  0.13498874365E+04 0.  0.
        2    1    3    3  502    0 -0.43502215510E+03 -0.37337161894E+03 -0.30618752842E+03  0.64992418314E+03  0.25500000920E-02 0. -1.
       -2    1    3    3    0  502  0.43502215510E+03  0.37337161894E+03  0.40830411482E+03  0.70382021244E+03  0.25500000920E-02 0.  1.
</event>
<event>
 5   0  0.1586022E-03  0.1365389E+04  0.7818609E-02  0.8979260E-01
        1   -1    0    0  501    0  0.00000000000E+00  0.00000000000E+00  0.97949494029E+03  0.97949494030E+03  0.50400001928E-02 0.  1.
       -1   -1    0    0    0  501  0.00000000000E+00  0.00000000000E+00 -0.47582854224E+03  0.47582854226E+03  0.50400001928E-02 0. -1.
    10030    2    1    2    0    0  0.00000000000E+00  0.00000000000E+00  0.50366639805E+03  0.14553234826E+04  0.13653888085E+04 0.  0.
        1    1    3    3  502    0  0.70588030972E+02 -0.56896866162E+03  0.64687140110E+03  0.86437874662E+03  0.50400001928E-02 0.  1.
       -1    1    3    3    0  502 -0.70588030972E+02  0.56896866162E+03 -0.14320500305E+03  0.59094473595E+03  0.50400001928E-02 0. -1.
</event>
<event>
 5   0  0.2993993E-03  0.1421491E+04  0.7818609E-02  0.8938408E-01
        2   -1    0    0  501    0  0.00000000000E+00  0.00000000000E+00  0.52064523779E+03  0.52064523780E+03  0.25500000920E-02 0.  1.
       -2   -1    0    0    0  501  0.00000000000E+00  0.00000000000E+00 -0.97025595008E+03  0.97025595008E+03  0.25500000920E-02 0. -1.
    10030    2    1    2    0    0  0.00000000000E+00  0.00000000000E+00 -0.44961071229E+03  0.14909011879E+04  0.14214909635E+04 0.  0.
        3    1    3    3  502    0 -0.44667763280E+03 -0.55245076047E+03 -0.20289563693E+03  0.73884328519E+03  0.10100000352E+00 0. -1.
       -3    1    3    3    0  502  0.44667763280E+03  0.55245076047E+03 -0.24671507536E+03  0.75205790269E+03  0.10100000352E+00 0.  1.
</event>
<event>
 5   0  0.1631380E-03  0.1436414E+04  0.7818609E-02  0.8927874E-01
        1   -1    0    0  501    0  0.00000000000E+00  0.00000000000E+00  0.23253918137E+04  0.23253918138E+04  0.50400001928E-02 0. -1.
       -1   -1    0    0    0  501  0.00000000000E+00  0.00000000000E+00 -0.22182115400E+03  0.22182115406E+03  0.50400001928E-02 0.  1.
    10030    2    1    2    0    0  0.00000000000E+00  0.00000000000E+00  0.21035706597E+04  0.25472129678E+04  0.14364137227E+04 0.  0.
        3    1    3    3  502    0 -0.53080042814E+02  0.71382446645E+03  0.11560680560E+04  0.13597265240E+04  0.10100000352E+00 0.  1.
       -3    1    3    3    0  502  0.53080042814E+02 -0.71382446645E+03  0.94750260378E+03  0.11874864438E+04  0.10100000352E+00 0. -1.
</event>
<event>
 5   0  0.2760807E-03  0.1393810E+04  0.7818609E-02  0.8958312E-01
       -2   -1    0    0    0  501  0.00000000000E+00  0.00000000000E+00  0.57028104733E+03  0.57028104733E+03  0.25500000920E-02 0.  1.
        2   -1    0    0  501    0  0.00000000000E+00  0.00000000000E+00 -0.85164403257E+03  0.85164403258E+03  0.25500000920E-02 0. -1.
    10030    2    1    2    0    0  0.00000000000E+00  0.00000000000E+00 -0.28136298525E+03  0.14219250799E+04  0.13938098161E+04 0.  0.
        4    1    3    3  502    0 -0.92837447498E+02  0.67028985814E+02 -0.84198034337E+03  0.84973183307E+03  0.12699999809E+01 0. -1.
       -4    1    3    3    0  502  0.92837447498E+02 -0.67028985814E+02  0.56061735813E+03  0.57219324684E+03  0.12699999809E+01 0.  1.
</event>
<event>
 5   0  0.2993993E-03  0.1393748E+04  0.7818609E-02  0.8958357E-01
       -2   -1    0    0    0  501  0.00000000000E+00  0.00000000000E+00  0.50570812643E+03  0.50570812644E+03  0.25500000920E-02 0.  1.
        2   -1    0    0  501    0  0.00000000000E+00  0.00000000000E+00 -0.96030337955E+03  0.96030337955E+03  0.25500000920E-02 0. -1.
    10030    2    1    2    0    0  0.00000000000E+00  0.00000000000E+00 -0.45459525311E+03  0.14660115060E+04  0.13937477862E+04 0.  0.
        3    1    3    3  502    0 -0.65600125490E+03 -0.12173856368E+03 -0.15681790711E+02  0.66738583524E+03  0.10100000352E+00 0.  1.
       -3    1    3    3    0  502  0.65600125490E+03  0.12173856368E+03 -0.43891346240E+03  0.79862567075E+03  0.10100000352E+00 0. -1.
</event>
<event>
 5   0  0.2917809E-03  0.1402130E+04  0.7818609E-02  0.8952279E-01
        2   -1    0    0  501    0  0.00000000000E+00  0.00000000000E+00  0.14134494433E+04  0.14134494433E+04  0.25500000920E-02 0.  1.
       -2   -1    0    0    0  501  0.00000000000E+00  0.00000000000E+00 -0.34772506591E+03  0.34772506592E+03  0.25500000920E-02 0. -1.
    10030    2    1    2    0    0  0.00000000000E+00  0.00000000000E+00  0.10657243774E+04  0.17611745092E+04  0.14021295245E+04 0.  0.
        2    1    3    3  502    0 -0.50299624583E+03 -0.37609079858E+03  0.92414860561E+03  0.11173630374E+04  0.25500000920E-02 0.  1.
       -2    1    3    3    0  502  0.50299624583E+03  0.37609079858E+03  0.14157577179E+03  0.64381147183E+03  0.25500000920E-02 0. -1.
</event>
<event>
 5   0  0.1560957E-03  0.7349348E+03  0.7818609E-02  0.9659286E-01
        1   -1    0    0  501    0  0.00000000000E+00  0.00000000000E+00  0.68993373372E+03  0.68993373373E+03  0.50400001928E-02 0. -1.
       -1   -1    0    0    0  501  0.00000000000E+00  0.00000000000E+00 -0.19571779212E+03  0.19571779218E+03  0.50400001928E-02 0.  1.
    10030    2    1    2    0    0  0.00000000000E+00  0.00000000000E+00  0.49421594160E+03  0.88565152592E+03  0.73493484639E+03 0.  0.
        5    1    3    3  502    0 -0.12568395624E+03 -0.24605978057E+03  0.53899577729E+03  0.60570653819E+03  0.46999998093E+01 0. -1.
       -5    1    3    3    0  502  0.12568395624E+03  0.24605978057E+03 -0.44779835694E+02  0.27994498773E+03  0.46999998093E+01 0.  1.
</event>
<event>
 5   0  0.1586022E-03  0.1409162E+04  0.7818609E-02  0.8947213E-01
       -1   -1    0    0    0  501  0.00000000000E+00  0.00000000000E+00  0.51269431651E+03  0.51269431653E+03  0.50400001928E-02 0. -1.
        1   -1    0    0  501    0  0.00000000000E+00  0.00000000000E+00 -0.96828569746E+03  0.96828569747E+03  0.50400001928E-02 0.  1.
    10030    2    1    2    0    0  0.00000000000E+00  0.00000000000E+00 -0.45559138095E+03  0.14809800140E+04  0.14091622673E+04 0.  0.
        1    1    3    3  502    0  0.25308598378E+03  0.67186834483E+02 -0.91524881377E+03  0.95197005050E+03  0.50400001928E-02 0.  1.
       -1    1    3    3    0  502 -0.25308598378E+03 -0.67186834483E+02  0.45965743282E+03  0.52900996350E+03  0.50400001928E-02 0. -1.
</event>
<event>
 5   0  0.2760807E-03  0.1400642E+04  0.7818609E-02  0.8953354E-01
       -2   -1    0    0    0  501  0.00000000000E+00  0.00000000000E+00  0.54453268924E+03  0.54453268925E+03  0.25500000920E-02 0. -1.
        2   -1    0    0  501    0  0.00000000000E+00  0.00000000000E+00 -0.90067992269E+03  0.90067992270E+03  0.25500000920E-02 0.  1.
    10030    2    1    2    0    0  0.00000000000E+00  0.00000000000E+00 -0.35614723345E+03  0.14452126119E+04  0.14006422248E+04 0.  0.
        4    1    3    3  502    0 -0.18563774622E+03 -0.64921905929E+03 -0.36972951133E+03  0.76983653084E+03  0.12699999809E+01 0. -1.
       -4    1    3    3    0  502  0.18563774622E+03  0.64921905929E+03  0.13582277881E+02  0.67537608111E+03  0.12699999809E+01 0.  1.
</event>
<event>
 5   0  0.2760807E-03  0.1377016E+04  0.7818609E-02  0.8970625E-01
       -2   -1    0    0    0  501  0.00000000000E+00  0.00000000000E+00  0.65387487283E+03  0.65387487284E+03  0.25500000920E-02 0.  1.
        2   -1    0    0  501    0  0.00000000000E+00  0.00000000000E+00 -0.72497568074E+03  0.72497568074E+03  0.25500000920E-02 0. -1.
    10030    2    1    2    0    0  0.00000000000E+00  0.00000000000E+00 -0.71100807906E+02  0.13788505536E+04  0.13770161670E+04 0.  0.
        4    1    3    3  502    0  0.81019375822E+02 -0.55658866708E+02 -0.71791232164E+03  0.72461145669E+03  0.12699999809E+01 0. -1.
       -4    1    3    3    0  502 -0.81019375822E+02  0.55658866708E+02  0.64681151373E+03  0.65423909689E+03  0.12699999809E+01 0.  1.
</event>
<event>
 5   0  0.2889469E-03  0.1401556E+04  0.7818609E-02  0.8952693E-01
        2   -1    0    0  501    0  0.00000000000E+00  0.00000000000E+00  0.89794646010E+03  0.89794646011E+03  0.25500000920E-02 0. -1.
       -2   -1    0    0    0  501  0.00000000000E+00  0.00000000000E+00 -0.54690323181E+03  0.54690323182E+03  0.25500000920E-02 0.  1.
    10030    2    1    2    0    0  0.00000000000E+00  0.00000000000E+00  0.35104322829E+03  0.14448496919E+04  0.14015560225E+04 0.  0.
        5    1    3    3  502    0 -0.32154953535E+03 -0.38057186996E+03  0.68353030108E+03  0.84585153211E+03  0.46999998093E+01 0. -1.
       -5    1    3    3    0  502  0.32154953535E+03  0.38057186996E+03 -0.33248707278E+03  0.59899815981E+03  0.46999998093E+01 0.  1.
</event>
<event>
 5   0  0.2993993E-03  0.1388121E+04  0.7818609E-02  0.8962462E-01
        2   -1    0    0  501    0  0.00000000000E+00  0.00000000000E+00  0.40466500921E+03  0.40466500921E+03  0.25500000920E-02 0. -1.
       -2   -1    0    0    0  501  0.00000000000E+00  0.00000000000E+00 -0.11904168630E+04  0.11904168630E+04  0.25500000920E-02 0.  1.
    10030    2    1    2    0    0  0.00000000000E+00  0.00000000000E+00 -0.78575185381E+03  0.15950818722E+04  0.13881211054E+04 0.  0.
        3    1    3    3  502    0 -0.23439017066E+03  0.46278015554E+03  0.13697464317E+03  0.53653172090E+03  0.10100000352E+00 0. -1.
       -3    1    3    3    0  502  0.23439017066E+03 -0.46278015554E+03 -0.92272649698E+03  0.10585501513E+04  0.10100000352E+00 0.  1.
</event>
<event>
 5   0  0.2760807E-03  0.1396502E+04  0.7818609E-02  0.8956354E-01
       -2   -1    0    0    0  501  0.00000000000E+00  0.00000000000E+00  0.18966912324E+03  0.18966912325E+03  0.25500000920E-02 0.  1.
        2   -1    0    0  501    0  0.00000000000E+00  0.00000000000E+00 -0.25705526913E+04  0.25705526913E+04  0.25500000920E-02 0. -1.
    10030    2    1    2    0    0  0.00000000000E+00  0.00000000000E+00 -0.23808835680E+04  0.27602218145E+04  0.13965020232E+04 0.  0.
        4    1    3    3  502    0  0.40053136734E+03  0.56874115059E+03 -0.13100336575E+04  0.14832672279E+04  0.12699999809E+01 0. -1.
       -4    1    3    3    0  502 -0.40053136734E+03 -0.56874115059E+03 -0.10708499105E+04  0.12769545867E+04  0.12699999809E+01 0.  1.
</event>
<event>
 5   0  0.1560957E-03  0.1418673E+04  0.7818609E-02  0.8940412E-01
       -1   -1    0    0    0  501  0.00000000000E+00  0.00000000000E+00  0.51420043428E+03  0.51420043430E+03  0.50400001928E-02 0. -1.
        1   -1    0    0  501    0  0.00000000000E+00  0.00000000000E+00 -0.97852593594E+03  0.97852593595E+03  0.50400001928E-02 0.  1.
    10030    2    1    2    0    0  0.00000000000E+00  0.00000000000E+00 -0.46432550166E+03  0.14927263703E+04  0.14186732693E+04 0.  0.
        5    1    3    3  502    0 -0.63453711179E+03  0.31398352169E+03 -0.27818815939E+03  0.76067978819E+03  0.46999998093E+01 0.  1.
       -5    1    3    3    0  502  0.63453711179E+03 -0.31398352169E+03 -0.18613734227E+03  0.73204658207E+03  0.46999998093E+01 0. -1.
</event>
<event>
 5   0  0.1700207E-03  0.1282304E+04  0.7818609E-02  0.9043717E-01
        1   -1    0    0  501    0  0.00000000000E+00  0.00000000000E+00  0.65396679964E+03  0.65396679966E+03  0.50400001928E-02 0. -1.
       -1   -1    0    0    0  501  0.00000000000E+00  0.00000000000E+00 -0.62858867970E+03  0.62858867972E+03  0.50400001928E-02 0.  1.
    10030    2    1    2    0    0  0.00000000000E+00  0.00000000000E+00  0.25378119939E+02  0.12825554794E+04  0.12823043744E+04 0.  0.
        2    1    3    3  502    0 -0.61546741749E+03  0.17844521437E+03 -0.81306508653E+01  0.64086577691E+03  0.25500000920E-02 0.  1.
       -2    1    3    3    0  502  0.61546741749E+03 -0.17844521437E+03  0.33508770804E+02  0.64168970247E+03  0.25500000920E-02 0. -1.
</event>
<event>
 5   0  0.2760807E-03  0.1337706E+04  0.7818609E-02  0.9000187E-01
        2   -1    0    0  501    0  0.00000000000E+00  0.00000000000E+00  0.74768977219E+03  0.74768977220E+03  0.25500000920E-02 0.  1.
       -2   -1    0    0    0  501  0.00000000000E+00  0.00000000000E+00 -0.59832840162E+03  0.59832840163E+03  0.25500000920E-02 0. -1.
    10030    2    1    2    0    0  0.00000000000E+00  0.00000000000E+00  0.14936137057E+03  0.13460181738E+04  0.13377055376E+04 0.  0.
        4    1    3    3  502    0 -0.31132536091E+02 -0.70431939707E+01  0.74692175437E+03  0.74760454884E+03  0.12699999809E+01 0.  1.
       -4    1    3    3    0  502  0.31132536091E+02  0.70431939707E+01 -0.59756038380E+03  0.59841362499E+03  0.12699999809E+01 0. -1.
</event>
<event>
 5   0  0.2993993E-03  0.1391371E+04  0.7818609E-02  0.8960088E-01
        2   -1    0    0  501    0  0.00000000000E+00  0.00000000000E+00  0.24638196162E+04  0.24638196162E+04  0.25500000920E-02 0. -1.
       -2   -1    0    0    0  501  0.00000000000E+00  0.00000000000E+00 -0.19643415610E+03  0.19643415612E+03  0.25500000920E-02 0.  1.
    10030    2    1    2    0    0  0.00000000000E+00  0.00000000000E+00  0.22673854601E+04  0.26602537723E+04  0.13913710175E+04 0.  0.
        3    1    3    3  502    0  0.94601312442E+02 -0.67264246265E+03  0.84638193048E+03  0.10852463653E+04  0.10100000352E+00 0.  1.
       -3    1    3    3    0  502 -0.94601312442E+02  0.67264246265E+03  0.14210035296E+04  0.15750074071E+04  0.10100000352E+00 0. -1.
</event>
<event>
 5   0  0.1104538E-03  0.1403239E+04  0.7818609E-02  0.8951478E-01
        3   -1    0    0  501    0  0.00000000000E+00  0.00000000000E+00  0.66476304613E+03  0.66476305380E+03  0.10100000352E+00 0.  1.
       -3   -1    0    0    0  501  0.00000000000E+00  0.00000000000E+00 -0.74051886924E+03  0.74051887612E+03  0.10100000352E+00 0. -1.
    10030    2    1    2    0    0  0.00000000000E+00  0.00000000000E+00 -0.75755823110E+02  0.14052819299E+04  0.14032385249E+04 0.  0.
        2    1    3    3  502    0  0.74239911511E+02  0.28007112836E+03 -0.67780622400E+03  0.73713816798E+03  0.25500000920E-02 0. -1.
       -2    1    3    3    0  502 -0.74239911511E+02 -0.28007112836E+03  0.60205040089E+03  0.66814376194E+03  0.25500000920E-02 0.  1.
</event>
<event>
 5   0  0.2917809E-03  0.1403452E+04  0.7818609E-02  0.8951324E-01
       -2   -1    0    0    0  501  0.00000000000E+00  0.00000000000E+00  0.11265858006E+04  0.11265858006E+04  0.25500000920E-02 0.  1.
        2   -1    0    0  501    0  0.00000000000E+00  0.00000000000E+00 -0.43708972051E+03  0.43708972052E+03  0.25500000920E-02 0. -1.
    10030    2    1    2    0    0  0.00000000000E+00  0.00000000000E+00  0.68949608010E+03  0.15636755211E+04  0.14034515634E+04 0.  0.
        2    1    3    3  502    0  0.65706265082E+03 -0.19580157364E+02  0.61835275438E+03  0.90248259735E+03  0.25500000920E-02 0.  1.
       -2    1    3    3    0  502 -0.65706265082E+03  0.19580157364E+02  0.71143325720E+02  0.66119292379E+03  0.25500000920E-02 0. -1.
</event>
<event>
 5   0  0.2760807E-03  0.1406280E+04  0.7818609E-02  0.8949285E-01
        2   -1    0    0  501    0  0.00000000000E+00  0.00000000000E+00  0.15165337202E+04  0.15165337202E+04  0.25500000920E-02 0.  1.
       -2   -1    0    0    0  501  0.00000000000E+00  0.00000000000E+00 -0.32601066472E+03  0.32601066473E+03  0.25500000920E-02 0. -1.
    10030    2    1    2    0    0  0.00000000000E+00  0.00000000000E+00  0.11905230555E+04  0.18425443849E+04  0.14062804360E+04 0.  0.
        4    1    3    3  502    0 -0.13892956371E+03  0.46997954345E+03 -0.65360263201E+02  0.49442468773E+03  0.12699999809E+01 0. -1.
       -4    1    3    3    0  502  0.13892956371E+03 -0.46997954345E+03  0.12558833187E+04  0.13481196972E+04  0.12699999809E+01 0.  1.
</event>
<event>
 5   0  0.1586022E-03  0.1356154E+04  0.7818609E-02  0.8986183E-01
       -1   -1    0    0    0  501  0.00000000000E+00  0.00000000000E+00  0.41185389425E+03  0.41185389428E+03  0.50400001928E-02 0. -1.
        1   -1    0    0  501    0  0.00000000000E+00  0.00000000000E+00 -0.11163871680E+04  0.11163871681E+04  0.50400001928E-02 0.  1.
    10030    2    1    2    0    0  0.00000000000E+00  0.00000000000E+00 -0.70453327379E+03  0.15282410623E+04  0.13561539775E+04 0.  0.
        1    1    3    3  502    0 -0.41035217343E+03 -0.38928971080E+03 -0.77369016933E+03  0.95840067994E+03  0.50400001928E-02 0.  1.
       -1    1    3    3    0  502  0.41035217343E+03  0.38928971080E+03  0.69156895537E+02  0.56984038239E+03  0.50400001928E-02 0. -1.
</event>
<event>
 5   0  0.2917809E-03  0.1254147E+04  0.7818609E-02  0.9066739E-01
       -2   -1    0    0    0  501  0.00000000000E+00  0.00000000000E+00  0.37522143317E+03  0.37522143318E+03  0.25500000920E-02 0. -1.
        2   -1    0    0  501    0  0.00000000000E+00  0.00000000000E+00 -0.10479706085E+04  0.10479706085E+04  0.25500000920E-02 0.  1.
    10030    2    1    2    0    0  0.00000000000E+00  0.00000000000E+00 -0.67274917535E+03  0.14231920417E+04  0.12541467756E+04 0.  0.
        2    1    3    3  502    0  0.80048502268E+02 -0.14042173248E+03 -0.10239247359E+04  0.10366040181E+04  0.25500000920E-02 0.  1.
       -2    1    3    3    0  502 -0.80048502268E+02  0.14042173248E+03  0.35117556051E+03  0.38658802358E+03  0.25500000920E-02 0. -1.
</event>
<event>
 5   0  0.1560957E-03  0.1363597E+04  0.7818609E-02  0.8980599E-01
       -1   -1    0    0    0  501  0.00000000000E+00  0.00000000000E+00  0.38689049223E+03  0.38689049226E+03  0.50400001928E-02 0. -1.
        1   -1    0    0  501    0  0.00000000000E+00  0.00000000000E+00 -0.12015004723E+04  0.12015004723E+04  0.50400001928E-02 0.  1.
    10030    2    1    2    0    0  0.00000000000E+00  0.00000000000E+00 -0.81460998010E+03  0.15883909646E+04  0.13635968747E+04 0.  0.
        5    1    3    3  502    0 -0.47040227041E+03  0.43808003668E+03 -0.67199761374E+03  0.92994370659E+03  0.46999998093E+01 0.  1.
       -5    1    3    3    0  502  0.47040227041E+03 -0.43808003668E+03 -0.14261236636E+03  0.65844725801E+03  0.46999998093E+01 0. -1.
</event>
<event>
 5   0  0.1104538E-03  0.1417647E+04  0.7818609E-02  0.8941143E-01
        3   -1    0    0  501    0  0.00000000000E+00  0.00000000000E+00  0.43068774847E+03  0.43068776031E+03  0.10100000352E+00 0. -1.
       -3   -1    0    0    0  501  0.00000000000E+00  0.00000000000E+00 -0.11665772193E+04  0.11665772237E+04  0.10100000352E+00 0.  1.
    10030    2    1    2    0    0  0.00000000000E+00  0.00000000000E+00 -0.73588947083E+03  0.15972649840E+04  0.14176466823E+04 0.  0.
        5    1    3    3  502    0  0.27213788421E+03  0.56977008357E+03 -0.50987310653E+01  0.63146263801E+03  0.46999998093E+01 0. -1.
       -5    1    3    3    0  502 -0.27213788421E+03 -0.56977008357E+03 -0.73079073977E+03  0.96580234597E+03  0.46999998093E+01 0.  1.
</event>
<event>
 5   0  0.1631380E-03  0.1386538E+04  0.7818609E-02  0.8963621E-01
        1   -1    0    0  501    0  0.00000000000E+00  0.00000000000E+00  0.92175672190E+03  0.92175672191E+03  0.50400001928E-02 0.  1.
       -1   -1    0    0    0  501  0.00000000000E+00  0.00000000000E+00 -0.52141937352E+03  0.52141937355E+03  0.50400001928E-02 0. -1.
    10030    2    1    2    0    0  0.00000000000E+00  0.00000000000E+00  0.40033734838E+03  0.14431760955E+04  0.13865378646E+04 0.  0.
        3    1    3    3  502    0  0.83786771589E+02 -0.68578465014E+03  0.14036747630E+03  0.70499918302E+03  0.10100000352E+00 0. -1.
       -3    1    3    3    0  502 -0.83786771589E+02  0.68578465014E+03  0.25996987208E+03  0.73817691243E+03  0.10100000352E+00 0.  1.
</event>
<event>
 5   0  0.2889469E-03  0.8596443E+03  0.7818609E-02  0.9477483E-01
       -2   -1    0    0    0  501  0.00000000000E+00  0.00000000000E+00  0.16780373863E+03  0.16780373865E+03  0.25500000920E-02 0. -1.
        2   -1    0    0  501    0  0.00000000000E+00  0.00000000000E+00 -0.11009712420E+04  0.11009712420E+04  0.25500000920E-02 0.  1.
    10030    2    1    2    0    0  0.00000000000E+00  0.00000000000E+00 -0.93316750334E+03  0.12687749806E+04  0.85964432305E+03 0.  0.
        5    1    3    3  502    0 -0.71667393955E+02 -0.38475210153E+03 -0.72876231806E+03  0.82721641739E+03  0.46999998093E+01 0.  1.
       -5    1    3    3    0  502  0.71667393955E+02  0.38475210153E+03 -0.20440518528E+03  0.44155856322E+03  0.46999998093E+01 0. -1.
</event>
<event>
 5   0  0.1560957E-03  0.1342413E+04  0.7818609E-02  0.8996591E-01
       -1   -1    0    0    0  501  0.00000000000E+00  0.00000000000E+00  0.64622168783E+03  0.64622168785E+03  0.50400001928E-02 0.  1.
        1   -1    0    0  501    0  0.00000000000E+00  0.00000000000E+00 -0.69715708886E+03  0.69715708888E+03  0.50400001928E-02 0. -1.
    10030    2    1    2    0    0  0.00000000000E+00  0.00000000000E+00 -0.50935401030E+02  0.13433787767E+04  0.13424127989E+04 0.  0.
        5    1    3    3  502    0  0.24348885345E+03  0.45494044625E+02  0.59879157956E+03  0.64802004259E+03  0.46999998093E+01 0.  1.
       -5    1    3    3    0  502 -0.24348885345E+03 -0.45494044625E+02 -0.64972698059E+03  0.69535873415E+03  0.46999998093E+01 0. -1.
</event>
<event>
 5   0  0.2993993E-03  0.1412229E+04  0.7818609E-02  0.8945014E-01
        2   -1    0    0  501    0  0.00000000000E+00  0.00000000000E+00  0.53803481120E+03  0.53803481121E+03  0.25500000920E-02 0. -1.
       -2   -1    0    0    0  501  0.00000000000E+00  0.00000000000E+00 -0.92670130242E+03  0.92670130243E+03  0.25500000920E-02 0.  1.
    10030    2    1    2    0    0  0.00000000000E+00  0.00000000000E+00 -0.38866649122E+03  0.14647361136E+04  0.14122288204E+04 0.  0.
        3    1    3    3  502    0 -0.56425937697E+03 -0.20492785983E+03  0.19126008788E+03  0.63005119130E+03  0.10100000352E+00 0. -1.
       -3    1    3    3    0  502  0.56425937697E+03  0.20492785983E+03 -0.57992657910E+03  0.83468492234E+03  0.10100000352E+00 0.  1.
</event>
<event>
 5   0  0.1586022E-03  0.1381450E+04  0.7818609E-02  0.8967357E-01
        1   -1    0    0  501    0  0.00000000000E+00  0.00000000000E+00  0.37683417434E+03  0.37683417438E+03  0.50400001928E-02 0.  1.
       -1   -1    0    0    0  501  0.00000000000E+00  0.00000000000E+00 -0.12660759882E+04  0.12660759882E+04  0.50400001928E-02 0. -1.
    10030    2    1    2    0    0  0.00000000000E+00  0.00000000000E+00 -0.88924181387E+03  0.16429101626E+04  0.13814495282E+04 0.  0.
        1    1    3    3  502    0 -0.34244027045E+03  0.12619763723E+03 -0.11420513345E+04  0.11989463846E+04  0.50400001928E-02 0. -1.
       -1    1    3    3    0  502  0.34244027045E+03 -0.12619763723E+03  0.25280952060E+03  0.44396377803E+03  0.50400001928E-02 0.  1.
</event>
<event>
 5   0  0.1560957E-03  0.1530650E+04  0.7818609E-02  0.8864323E-01
       -1   -1    0    0    0  501  0.00000000000E+00  0.00000000000E+00  0.32896652303E+03  0.32896652307E+03  0.50400001928E-02 0. -1.
        1   -1    0    0  501    0  0.00000000000E+00  0.00000000000E+00 -0.17804925610E+04  0.17804925610E+04  0.50400001928E-02 0.  1.
    10030    2    1    2    0    0  0.00000000000E+00  0.00000000000E+00 -0.14515260380E+04  0.21094590841E+04  0.15306501196E+04 0.  0.
        5    1    3    3  502    0  0.17693909610E+03 -0.74454263786E+03 -0.71609890365E+03  0.10480796311E+04  0.46999998093E+01 0. -1.
       -5    1    3    3    0  502 -0.17693909610E+03  0.74454263786E+03 -0.73542713433E+03  0.10613794530E+04  0.46999998093E+01 0.  1.
</event>
<event>
 5   0  0.2993993E-03  0.1390927E+04  0.7818609E-02  0.8960412E-01
       -2   -1    0    0    0  501  0.00000000000E+00  0.00000000000E+00  0.30904054902E+03  0.30904054904E+03  0.25500000920E-02 0. -1.
        2   -1    0    0  501    0  0.00000000000E+00  0.00000000000E+00 -0.15650679172E+04  0.15650679172E+04  0.25500000920E-02 0.  1.
    10030    2    1    2    0    0  0.00000000000E+00  0.00000000000E+00 -0.12560273682E+04  0.18741084663E+04  0.13909269548E+04 0.  0.
        3    1    3    3  502    0 -0.38229523502E+03 -0.34712786520E+02 -0.14093956758E+04  0.14607363914E+04  0.10100000352E+00 0.  1.
       -3    1    3    3    0  502  0.38229523502E+03  0.34712786520E+02  0.15336830756E+03  0.41337207481E+03  0.10100000352E+00 0. -1.
</event>
<event>
 5   0  0.2889469E-03  0.1442263E+04  0.7818609E-02  0.8923782E-01
       -2   -1    0    0    0  501  0.00000000000E+00  0.00000000000E+00  0.73206091900E+03  0.73206091901E+03  0.25500000920E-02 0. -1.
        2   -1    0    0  501    0  0.00000000000E+00  0.00000000000E+00 -0.71036530286E+03  0.71036530286E+03  0.25500000920E-02 0.  1.
    10030    2    1    2    0    0  0.00000000000E+00  0.00000000000E+00  0.21695616141E+02  0.14424262219E+04  0.14422630501E+04 0.  0.
        5    1    3    3  502    0  0.26449737541E+03 -0.45269529119E+03  0.50599643658E+03  0.72866067006E+03  0.46999998093E+01 0. -1.
       -5    1    3    3    0  502 -0.26449737541E+03  0.45269529119E+03 -0.48430082044E+03  0.71376555181E+03  0.46999998093E+01 0.  1.
</event>
<event>
 5   0  0.2889469E-03  0.1383149E+04  0.7818609E-02  0.8966108E-01
        2   -1    0    0  501    0  0.00000000000E+00  0.00000000000E+00  0.11214522502E+04  0.11214522502E+04  0.25500000920E-02 0.  1.
       -2   -1    0    0    0  501  0.00000000000E+00  0.00000000000E+00 -0.42647821778E+03  0.42647821779E+03  0.25500000920E-02 0. -1.
    10030    2    1    2    0    0  0.00000000000E+00  0.00000000000E+00  0.69497403245E+03  0.15479304680E+04  0.13831485199E+04 0.  0.
        5    1    3    3  502    0 -0.66012054452E+03  0.11791612206E+03  0.53671531214E+03  0.85892302415E+03  0.46999998093E+01 0. -1.
       -5    1    3    3    0  502  0.66012054452E+03 -0.11791612206E+03  0.15825872031E+03  0.68900744386E+03  0.46999998093E+01 0.  1.
</event>
<event>
 5   0  0.1644571E-03  0.1365622E+04  0.7818609E-02  0.8979086E-01
       -1   -1    0    0    0  501  0.00000000000E+00  0.00000000000E+00  0.63335835002E+03  0.63335835004E+03  0.50400001928E-02 0.  1.
        1   -1    0    0  501    0  0.00000000000E+00  0.00000000000E+00 -0.73612508084E+03  0.73612508085E+03  0.50400001928E-02 0. -1.
    10030    2    1    2    0    0  0.00000000000E+00  0.00000000000E+00 -0.10276673082E+03  0.13694834309E+04  0.13656221536E+04 0.  0.
        4    1    3    3  502    0  0.16785996571E+03  0.22458084224E+03 -0.67573173477E+03  0.73159313355E+03  0.12699999809E+01 0. -1.
       -4    1    3    3    0  502 -0.16785996571E+03 -0.22458084224E+03  0.57296500395E+03  0.63789029734E+03  0.12699999809E+01 0.  1.
</event>
<event>
 5   0  0.1560957E-03  0.1327656E+04  0.7818609E-02  0.9007917E-01
        1   -1    0    0  501    0  0.00000000000E+00  0.00000000000E+00  0.62812482650E+03  0.62812482652E+03  0.50400001928E-02 0. -1.
       -1   -1    0    0    0  501  0.00000000000E+00  0.00000000000E+00 -0.70156066591E+03  0.70156066593E+03  0.50400001928E-02 0.  1.
    10030    2    1    2    0    0  0.00000000000E+00  0.00000000000E+00 -0.73435839412E+02  0.13296854925E+04  0.13276560874E+04 0.  0.
        5    1    3    3  502    0  0.20897096121E+03  0.40407436647E+02 -0.66644285768E+03  0.69962118044E+03  0.46999998093E+01 0.  1.
       -5    1    3    3    0  502 -0.20897096121E+03 -0.40407436647E+02  0.59300701827E+03  0.63006431202E+03  0.46999998093E+01 0. -1.
</event>
<event>
 5   0  0.1644571E-03  0.1395508E+04  0.7818609E-02  0.8957077E-01
        1   -1    0    0  501    0  0.00000000000E+00  0.00000000000E+00  0.34668977284E+03  0.34668977288E+03  0.50400001928E-02 0.  1.
       -1   -1    0    0    0  501  0.00000000000E+00  0.00000000000E+00 -0.14043112676E+04  0.14043112676E+04  0.50400001928E-02 0. -1.
    10030    2    1    2    0    0  0.00000000000E+00  0.00000000000E+00 -0.10576214947E+04  0.17510010405E+04  0.13955075842E+04 0.  0.
        4    1    3    3  502    0  0.68309982411E+02 -0.27683265190E+03  0.27024983946E+03  0.39286022894E+03  0.12699999809E+01 0.  1.
       -4    1    3    3    0  502 -0.68309982411E+02  0.27683265190E+03 -0.13278713342E+04  0.13581408115E+04  0.12699999809E+01 0. -1.
</event>
<event>
 5   0  0.1631380E-03  0.1414725E+04  0.7818609E-02  0.8943228E-01
       -1   -1    0    0    0  501  0.00000000000E+00  0.00000000000E+00  0.34179288055E+04  0.34179288055E+04  0.50400001928E-02 0. -1.
        1   -1    0    0  501    0  0.00000000000E+00  0.00000000000E+00 -0.14639324258E+03  0.14639324267E+03  0.50400001928E-02 0.  1.
    10030    2    1    2    0    0  0.00000000000E+00  0.00000000000E+00  0.32715355629E+04  0.35643220482E+04  0.14147249640E+04 0.  0.
        3    1    3    3  502    0 -0.55529422575E+01  0.60919275522E+03  0.73011562859E+03  0.95090246056E+03  0.10100000352E+00 0.  1.
       -3    1    3    3    0  502  0.55529422575E+01 -0.60919275522E+03  0.25414199343E+04  0.26134195876E+04  0.10100000352E+00 0. -1.
</event>
<event>
 5   0  0.1644571E-03  0.1344252E+04  0.7818609E-02  0.8995191E-01
       -1   -1    0    0    0  501  0.00000000000E+00  0.00000000000E+00  0.10721561964E+04  0.10721561964E+04  0.50400001928E-02 0.  1.
        1   -1    0    0  501    0  0.00000000000E+00  0.00000000000E+00 -0.42135025978E+03  0.42135025981E+03  0.50400001928E-02 0. -1.
    10030    2    1    2    0    0  0.00000000000E+00  0.00000000000E+00  0.65080593658E+03  0.14935064562E+04  0.13442518989E+04 0.  0.
        4    1    3    3  502    0  0.44095328960E+03 -0.64629960895E+02 -0.23358493573E+03  0.50317031962E+03  0.12699999809E+01 0. -1.
       -4    1    3    3    0  502 -0.44095328960E+03  0.64629960895E+02  0.88439087231E+03  0.99033613656E+03  0.12699999809E+01 0.  1.
</event>
<event>
 5   0  0.2993993E-03  0.1246131E+04  0.7818609E-02  0.9073409E-01
        2   -1    0    0  501    0  0.00000000000E+00  0.00000000000E+00  0.83930260152E+03  0.83930260153E+03  0.25500000920E-02 0.  1.
       -2   -1    0    0    0  501  0.00000000000E+00  0.00000000000E+00 -0.46253979966E+03  0.46253979967E+03  0.25500000920E-02 0. -1.
    10030    2    1    2    0    0  0.00000000000E+00  0.00000000000E+00  0.37676280186E+03  0.13018424012E+04  0.12461313850E+04 0.  0.
        3    1    3    3  502    0 -0.24056492334E+03  0.21923212740E+03  0.74343132429E+03  0.81155674612E+03  0.10100000352E+00 0.  1.
       -3    1    3    3    0  502  0.24056492334E+03 -0.21923212740E+03 -0.36666852243E+03  0.49028565508E+03  0.10100000352E+00 0. -1.
</event>
<event>
 5   0  0.2889469E-03  0.1439190E+04  0.7818609E-02  0.8925929E-01
       -2   -1    0    0    0  501  0.00000000000E+00  0.00000000000E+00  0.20389988203E+03  0.20389988204E+03  0.25500000920E-02 0.  1.
        2   -1    0    0  501    0  0.00000000000E+00  0.00000000000E+00 -0.25395654218E+04  0.25395654218E+04  0.25500000920E-02 0. -1.
    10030    2    1    2    0    0  0.00000000000E+00  0.00000000000E+00 -0.23356655398E+04  0.27434653039E+04  0.14391901750E+04 0.  0.
        5    1    3    3  502    0  0.16257141183E+03  0.55074101791E+03 -0.34119013228E+03  0.66796551492E+03  0.46999998093E+01 0.  1.
       -5    1    3    3    0  502 -0.16257141183E+03 -0.55074101791E+03 -0.19944754075E+04  0.20754997890E+04  0.46999998093E+01 0. -1.
</event>
<event>
 5   0  0.2889469E-03  0.1403743E+04  0.7818609E-02  0.8951114E-01
       -2   -1    0    0    0  501  0.00000000000E+00  0.00000000000E+00  0.21958853509E+03  0.21958853511E+03  0.25500000920E-02 0.  1.
        2   -1    0    0  501    0  0.00000000000E+00  0.00000000000E+00 -0.22433937630E+04  0.22433937630E+04  0.25500000920E-02 0. -1.
    10030    2    1    2    0    0  0.00000000000E+00  0.00000000000E+00 -0.20238052279E+04  0.24629822981E+04  0.14037429253E+04 0.  0.
        5    1    3    3  502    0 -0.12468749173E+02 -0.69648706145E+02  0.21328713150E+03  0.22476632852E+03  0.46999998093E+01 0.  1.
       -5    1    3    3    0  502  0.12468749173E+02  0.69648706145E+02 -0.22370923594E+04  0.22382159696E+04  0.46999998093E+01 0. -1.
</event>
<event>
 5   0  0.1586022E-03  0.1370353E+04  0.7818609E-02  0.8975562E-01
        1   -1    0    0  501    0  0.00000000000E+00  0.00000000000E+00  0.14997527409E+04  0.14997527409E+04  0.50400001928E-02 0. -1.
       -1   -1    0    0    0  501  0.00000000000E+00  0.00000000000E+00 -0.31302956559E+03  0.31302956563E+03  0.50400001928E-02 0.  1.
    10030    2    1    2    0    0  0.00000000000E+00  0.00000000000E+00  0.11867231753E+04  0.18127823065E+04  0.13703531647E+04 0.  0.
        1    1    3    3  502    0 -0.16091154375E+03  0.94264873708E+02 -0.27881063460E+03  0.33543071016E+03  0.50400001928E-02 0.  1.
       -1    1    3    3    0  502  0.16091154375E+03 -0.94264873708E+02  0.14655338099E+04  0.14773515963E+04  0.50400001928E-02 0. -1.
</event>
<event>
 5   0  0.3006737E-03  0.1367711E+04  0.7818609E-02  0.8977529E-01
       -2   -1    0    0    0  501  0.00000000000E+00  0.00000000000E+00  0.22633923436E+03  0.22633923438E+03  0.25500000920E-02 0. -1.
        2   -1    0    0  501    0  0.00000000000E+00  0.00000000000E+00 -0.20661819016E+04  0.20661819016E+04  0.25500000920E-02 0.  1.
    10030    2    1    2    0    0  0.00000000000E+00  0.00000000000E+00 -0.18398426672E+04  0.22925211360E+04  0.13677105391E+04 0.  0.
        1    1    3    3  502    0  0.76100688222E+02  0.22715074306E+03 -0.19935488687E+04  0.20078909001E+04  0.50400001928E-02 0.  1.
       -1    1    3    3    0  502 -0.76100688222E+02 -0.22715074306E+03  0.15370620142E+03  0.28463023592E+03  0.50400001928E-02 0. -1.
</event>
<event>
 5   0  0.3006737E-03  0.1343916E+04  0.7818609E-02  0.8995447E-01
       -2   -1    0    0    0  501  0.00000000000E+00  0.00000000000E+00  0.61394603706E+03  0.61394603707E+03  0.25500000920E-02 0.  1.
        2   -1    0    0  501    0  0.00000000000E+00  0.00000000000E+00 -0.73545104742E+03  0.73545104742E+03  0.25500000920E-02 0. -1.
    10030    2    1    2    0    0  0.00000000000E+00  0.00000000000E+00 -0.12150501035E+03  0.13493970845E+04  0.13439155569E+04 0.  0.
        1    1    3    3  502    0 -0.92058308812E+02  0.46295144102E+03 -0.54095887308E+03  0.71793820859E+03  0.50400001928E-02 0. -1.
       -1    1    3    3    0  502  0.92058308812E+02 -0.46295144102E+03  0.41945386273E+03  0.63145887590E+03  0.50400001928E-02 0.  1.
</event>
<event>
 5   0  0.1631380E-03  0.1405233E+04  0.7818609E-02  0.8950040E-01
        1   -1    0    0  501    0  0.00000000000E+00  0.00000000000E+00  0.19252829819E+04  0.19252829819E+04  0.50400001928E-02 0. -1.
       -1   -1    0    0    0  501  0.00000000000E+00  0.00000000000E+00 -0.25641410325E+03  0.25641410329E+03  0.50400001928E-02 0.  1.
    10030    2    1    2    0    0  0.00000000000E+00  0.00000000000E+00  0.16688688787E+04  0.21816970852E+04  0.14052326631E+04 0.  0.
        3    1    3    3  502    0  0.45755176102E+03 -0.23187031936E+03  0.15799056715E+04  0.16610898230E+04  0.10100000352E+00 0. -1.
       -3    1    3    3    0  502 -0.45755176102E+03  0.23187031936E+03  0.88963207130E+02  0.52060726218E+03  0.10100000352E+00 0.  1.
</event>
<event>
 5   0  0.2760807E-03  0.1394921E+04  0.7818609E-02  0.8957503E-01
       -2   -1    0    0    0  501  0.00000000000E+00  0.00000000000E+00  0.10234446286E+04  0.10234446286E+04  0.25500000920E-02 0.  1.
        2   -1    0    0  501    0  0.00000000000E+00  0.00000000000E+00 -0.47530792644E+03  0.47530792644E+03  0.25500000920E-02 0. -1.
    10030    2    1    2    0    0  0.00000000000E+00  0.00000000000E+00  0.54813670212E+03  0.14987525550E+04  0.13949212798E+04 0.  0.
        4    1    3    3  502    0 -0.47672375399E+03  0.13638191864E+03  0.80107216392E+03  0.94211665417E+03  0.12699999809E+01 0.  1.
       -4    1    3    3    0  502  0.47672375399E+03 -0.13638191864E+03 -0.25293546180E+03  0.55663590083E+03  0.12699999809E+01 0. -1.
</event>
<event>
 5   0  0.1700207E-03  0.1390312E+04  0.7818609E-02  0.8960862E-01
       -1   -1    0    0    0  501  0.00000000000E+00  0.00000000000E+00  0.40182627912E+03  0.40182627915E+03  0.50400001928E-02 0.  1.
        1   -1    0    0  501    0  0.00000000000E+00  0.00000000000E+00 -0.12026130349E+04  0.12026130349E+04  0.50400001928E-02 0. -1.
    10030    2    1    2    0    0  0.00000000000E+00  0.00000000000E+00 -0.80078675578E+03  0.16044393141E+04  0.13903115062E+04 0.  0.
        2    1    3    3  502    0 -0.32557366471E+02  0.68582309113E+03 -0.52590125862E+03  0.86486150815E+03  0.25500000920E-02 0. -1.
       -2    1    3    3    0  502  0.32557366471E+02 -0.68582309113E+03 -0.27488549716E+03  0.73957780591E+03  0.25500000920E-02 0.  1.
</event>
<event>
 5   0  0.2917809E-03  0.1390605E+04  0.7818609E-02  0.8960647E-01
        2   -1    0    0  501    0  0.00000000000E+00  0.00000000000E+00  0.30823644389E+03  0.30823644390E+03  0.25500000920E-02 0. -1.
       -2   -1    0    0    0  501  0.00000000000E+00  0.00000000000E+00 -0.15684253307E+04  0.15684253307E+04  0.25500000920E-02 0.  1.
    10030    2    1    2    0    0  0.00000000000E+00  0.00000000000E+00 -0.12601888868E+04  0.18766617746E+04  0.13906054026E+04 0.  0.
        2    1    3    3  502    0 -0.22670905323E+03  0.23127558499E+03 -0.14604225106E+04  0.14959008324E+04  0.25500000920E-02 0.  1.
       -2    1    3    3    0  502  0.22670905323E+03 -0.23127558499E+03  0.20023362374E+03  0.38076094221E+03  0.25500000920E-02 0. -1.
</event>
<event>
 5   0  0.1586022E-03  0.1409797E+04  0.7818609E-02  0.8946758E-01
       -1   -1    0    0    0  501  0.00000000000E+00  0.00000000000E+00  0.62180648149E+03  0.62180648151E+03  0.50400001928E-02 0. -1.
        1   -1    0    0  501    0  0.00000000000E+00  0.00000000000E+00 -0.79909376971E+03  0.79909376973E+03  0.50400001928E-02 0.  1.
    10030    2    1    2    0    0  0.00000000000E+00  0.00000000000E+00 -0.17728728822E+03  0.14209002512E+04  0.14097967022E+04 0.  0.
        1    1    3    3  502    0  0.61080347176E+03 -0.74243089608E+02  0.25799649854E+03  0.66719945350E+03  0.50400001928E-02 0. -1.
       -1    1    3    3    0  502 -0.61080347176E+03  0.74243089608E+02 -0.43528378676E+03  0.75370079774E+03  0.50400001928E-02 0.  1.
</event>
<event>
 5   0  0.2917809E-03  0.1412299E+04  0.7818609E-02  0.8944964E-01
       -2   -1    0    0    0  501  0.00000000000E+00  0.00000000000E+00  0.29419389824E+03  0.29419389825E+03  0.25500000920E-02 0. -1.
        2   -1    0    0  501    0  0.00000000000E+00  0.00000000000E+00 -0.16949614996E+04  0.16949614996E+04  0.25500000920E-02 0.  1.
    10030    2    1    2    0    0  0.00000000000E+00  0.00000000000E+00 -0.14007676013E+04  0.19891553978E+04  0.14122993039E+04 0.  0.
        2    1    3    3  502    0 -0.11138508269E+03  0.69568668516E+03 -0.76735165028E+03  0.10417366057E+04  0.25500000920E-02 0.  1.
       -2    1    3    3    0  502  0.11138508269E+03 -0.69568668516E+03 -0.63341595105E+03  0.94741879209E+03  0.25500000920E-02 0. -1.
</event>
<event>
 5   0  0.2889469E-03  0.1408288E+04  0.7818609E-02  0.8947841E-01
       -2   -1    0    0    0  501  0.00000000000E+00  0.00000000000E+00  0.34176384776E+03  0.34176384777E+03  0.25500000920E-02 0. -1.
        2   -1    0    0  501    0  0.00000000000E+00  0.00000000000E+00 -0.14507646499E+04  0.14507646499E+04  0.25500000920E-02 0.  1.
    10030    2    1    2    0    0  0.00000000000E+00  0.00000000000E+00 -0.11090008021E+04  0.17925284977E+04  0.14082881934E+04 0.  0.
        5    1    3    3  502    0  0.53135505587E+03 -0.21109974994E+03 -0.10775990452E+04  0.12198947053E+04  0.46999998093E+01 0.  1.
       -5    1    3    3    0  502 -0.53135505587E+03  0.21109974994E+03 -0.31401756941E+02  0.57263379236E+03  0.46999998093E+01 0. -1.
</event>
<event>
 5   0  0.2889469E-03  0.1475445E+04  0.7818609E-02  0.8900948E-01
       -2   -1    0    0    0  501  0.00000000000E+00  0.00000000000E+00  0.53678483652E+03  0.53678483652E+03  0.25500000920E-02 0.  1.
        2   -1    0    0  501    0  0.00000000000E+00  0.00000000000E+00 -0.10138777662E+04  0.10138777662E+04  0.25500000920E-02 0. -1.
    10030    2    1    2    0    0  0.00000000000E+00  0.00000000000E+00 -0.47709292967E+03  0.15506626027E+04  0.14754446258E+04 0.  0.
        5    1    3    3  502    0 -0.40144587273E+03  0.25254982081E+02 -0.88846983228E+03  0.97529346133E+03  0.46999998093E+01 0.  1.
       -5    1    3    3    0  502  0.40144587273E+03 -0.25254982081E+02  0.41137690261E+03  0.57536914138E+03  0.46999998093E+01 0. -1.
</event>
<event>
 5   0  0.2889469E-03  0.1337757E+04  0.7818609E-02  0.9000148E-01
        2   -1    0    0  501    0  0.00000000000E+00  0.00000000000E+00  0.35871474318E+03  0.35871474319E+03  0.25500000920E-02 0.  1.
       -2   -1    0    0    0  501  0.00000000000E+00  0.00000000000E+00 -0.12472263751E+04  0.12472263751E+04  0.25500000920E-02 0. -1.
    10030    2    1    2    0    0  0.00000000000E+00  0.00000000000E+00 -0.88851163197E+03  0.16059411183E+04  0.13377570614E+04 0.  0.
        5    1    3    3  502    0  0.72068074701E+02 -0.44546970025E+03 -0.10369288654E+04  0.11308760424E+04  0.46999998093E+01 0. -1.
       -5    1    3    3    0  502 -0.72068074701E+02  0.44546970025E+03  0.14841723346E+03  0.47506507598E+03  0.46999998093E+01 0.  1.
</event>
<event>
 5   0  0.1586022E-03  0.1405552E+04  0.7818609E-02  0.8949809E-01
       -1   -1    0    0    0  501  0.00000000000E+00  0.00000000000E+00  0.11890590207E+04  0.11890590207E+04  0.50400001928E-02 0.  1.
        1   -1    0    0  501    0  0.00000000000E+00  0.00000000000E+00 -0.41536572507E+03  0.41536572510E+03  0.50400001928E-02 0. -1.
    10030    2    1    2    0    0  0.00000000000E+00  0.00000000000E+00  0.77369329561E+03  0.16044247458E+04  0.14055523645E+04 0.  0.
        1    1    3    3  502    0  0.58815142306E+03  0.37694618240E+03  0.29928724300E+03  0.75998906224E+03  0.50400001928E-02 0. -1.
       -1    1    3    3    0  502 -0.58815142306E+03 -0.37694618240E+03  0.47440605261E+03  0.84443568355E+03  0.50400001928E-02 0.  1.
</event>
<event>
 5   0  0.1631380E-03  0.1382644E+04  0.7818609E-02  0.8966478E-01
       -1   -1    0    0    0  501  0.00000000000E+00  0.00000000000E+00  0.60600546009E+03  0.60600546011E+03  0.50400001928E-02 0. -1.
        1   -1    0    0  501    0  0.00000000000E+00  0.00000000000E+00 -0.78864977847E+03  0.78864977848E+03  0.50400001928E-02 0.  1.
    10030    2    1    2    0    0  0.00000000000E+00  0.00000000000E+00 -0.18264431838E+03  0.13946552386E+04  0.13826439482E+04 0.  0.
        3    1    3    3  502    0 -0.44403949424E+03  0.34334981637E+03 -0.49839448411E+03  0.75063788929E+03  0.10100000352E+00 0. -1.
       -3    1    3    3    0  502  0.44403949424E+03 -0.34334981637E+03  0.31575016573E+03  0.64401734930E+03  0.10100000352E+00 0.  1.
</event>
<event>
 5   0  0.1631380E-03  0.1390781E+04  0.7818609E-02  0.8960519E-01
       -1   -1    0    0    0  501  0.00000000000E+00  0.00000000000E+00  0.74447127582E+03  0.74447127583E+03  0.50400001928E-02 0. -1.
        1   -1    0    0  501    0  0.00000000000E+00  0.00000000000E+00 -0.64954533806E+03  0.64954533808E+03  0.50400001928E-02 0.  1.
    10030    2    1    2    0    0  0.00000000000E+00  0.00000000000E+00  0.94925937753E+02  0.13940166139E+04  0.13907808549E+04 0.  0.
        3    1    3    3  502    0 -0.50870230329E+03  0.44831488941E+03  0.20210595583E+03  0.70753876291E+03  0.10100000352E+00 0. -1.
       -3    1    3    3    0  502  0.50870230329E+03 -0.44831488941E+03 -0.10718001807E+03  0.68647785100E+03  0.10100000352E+00 0.  1.
</event>
<event>
 5   0  0.3006737E-03  0.1405758E+04  0.7818609E-02  0.8949661E-01
        2   -1    0    0  501    0  0.00000000000E+00  0.00000000000E+00  0.65505022115E+03  0.65505022115E+03  0.25500000920E-02 0.  1.
       -2   -1    0    0    0  501  0.00000000000E+00  0.00000000000E+00 -0.75420046305E+03  0.75420046306E+03  0.25500000920E-02 0. -1.
    10030    2    1    2    0    0  0.00000000000E+00  0.00000000000E+00 -0.99150241906E+02  0.14092506842E+04  0.14057584147E+04 0.  0.
        1    1    3    3  502    0  0.59749687416E+03  0.98167416188E+02 -0.40739294989E+03  0.72980022738E+03  0.50400001928E-02 0. -1.
       -1    1    3    3    0  502 -0.59749687416E+03 -0.98167416188E+02  0.30824270798E+03  0.67945045683E+03  0.50400001928E-02 0.  1.
</event>
<event>
 5   0  0.1560957E-03  0.1405506E+04  0.7818609E-02  0.8949843E-01
       -1   -1    0    0    0  501  0.00000000000E+00  0.00000000000E+00  0.11407290313E+04  0.11407290313E+04  0.50400001928E-02 0.  1.
        1   -1    0    0  501    0  0.00000000000E+00  0.00000000000E+00 -0.43293521645E+03  0.43293521647E+03  0.50400001928E-02 0. -1.
    10030    2    1    2    0    0  0.00000000000E+00  0.00000000000E+00  0.70779381486E+03  0.15736642478E+04  0.14055059873E+04 0.  0.
        5    1    3    3  502    0 -0.46266459909E+02  0.36215204108E+03  0.10261907182E+04  0.10892126359E+04  0.46999998093E+01 0.  1.
       -5    1    3    3    0  502  0.46266459909E+02 -0.36215204108E+03 -0.31839690334E+03  0.48445161185E+03  0.46999998093E+01 0. -1.
</event>
<event>
 5   0  0.3006737E-03  0.1412448E+04  0.7818609E-02  0.8944857E-01
        2   -1    0    0  501    0  0.00000000000E+00  0.00000000000E+00  0.42900240219E+03  0.42900240220E+03  0.25500000920E-02 0.  1.
       -2   -1    0    0    0  501  0.00000000000E+00  0.00000000000E+00 -0.11625856910E+04  0.11625856910E+04  0.25500000920E-02 0. -1.
    10030    2    1    2    0    0  0.00000000000E+00  0.00000000000E+00 -0.73358328885E+03  0.15915880932E+04  0.14124475979E+04 0.  0.
        1    1    3    3  502    0  0.55125927350E+03  0.41049002217E+03 -0.18383108660E+03  0.71146518772E+03  0.50400001928E-02 0.  1.
       -1    1    3    3    0  502 -0.55125927350E+03 -0.41049002217E+03 -0.54975220225E+03  0.88012290552E+03  0.50400001928E-02 0. -1.
</event>
<event>
 5   0  0.2993993E-03  0.1431743E+04  0.7818609E-02  0.8931157E-01
        2   -1    0    0  501    0  0.00000000000E+00  0.00000000000E+00  0.67803972489E+03  0.67803972489E+03  0.25500000920E-02 0.  1.
       -2   -1    0    0    0  501  0.00000000000E+00  0.00000000000E+00 -0.75581402339E+03  0.75581402339E+03  0.25500000920E-02 0. -1.
    10030    2    1    2    0    0  0.00000000000E+00  0.00000000000E+00 -0.77774298501E+02  0.14338537483E+04  0.14317428994E+04 0.  0.
        3    1    3    3  502    0  0.38331278814E+03  0.23905962123E+03  0.51726367506E+03  0.68676045008E+03  0.10100000352E+00 0.  1.
       -3    1    3    3    0  502 -0.38331278814E+03 -0.23905962123E+03 -0.59503797356E+03  0.74709329821E+03  0.10100000352E+00 0. -1.
</event>
<event>
 5   0  0.2917809E-03  0.1396339E+04  0.7818609E-02  0.8956473E-01
       -2   -1    0    0    0  501  0.00000000000E+00  0.00000000000E+00  0.59728917813E+03  0.59728917814E+03  0.25500000920E-02 0.  1.
        2   -1    0    0  501    0  0.00000000000E+00  0.00000000000E+00 -0.81608781750E+03  0.81608781750E+03  0.25500000920E-02 0. -1.
    10030    2    1    2    0    0  0.00000000000E+00  0.00000000000E+00 -0.21879863937E+03  0.14133769956E+04  0.13963386721E+04 0.  0.
        2    1    3    3  502    0 -0.20047038818E+03  0.49928944677E+03 -0.55975772363E+03  0.77640648978E+03  0.25500000920E-02 0. -1.
       -2    1    3    3    0  502  0.20047038818E+03 -0.49928944677E+03  0.34095908426E+03  0.63697050587E+03  0.25500000920E-02 0.  1.
</event>
<event>
 5   0  0.1700207E-03  0.1367869E+04  0.7818609E-02  0.8977411E-01
        1   -1    0    0  501    0  0.00000000000E+00  0.00000000000E+00  0.45605816104E+03  0.45605816107E+03  0.50400001928E-02 0.  1.
       -1   -1    0    0    0  501  0.00000000000E+00  0.00000000000E+00 -0.10256729036E+04  0.10256729037E+04  0.50400001928E-02 0. -1.
    10030    2    1    2    0    0  0.00000000000E+00  0.00000000000E+00 -0.56961474261E+03  0.14817310647E+04  0.13678691433E+04 0.  0.
        2    1    3    3  502    0 -0.32419370276E+03  0.10162267133E+03  0.35818295108E+03  0.49368385703E+03  0.25500000920E-02 0.  1.
       -2    1    3    3    0  502  0.32419370276E+03 -0.10162267133E+03 -0.92779769368E+03  0.98804720770E+03  0.25500000920E-02 0. -1.
</event>
<event>
 5   0  0.2889469E-03  0.8463217E+03  0.7818609E-02  0.9495287E-01
       -2   -1    0    0    0  501  0.00000000000E+00  0.00000000000E+00  0.17883428897E+03  0.17883428899E+03  0.25500000920E-02 0. -1.
        2   -1    0    0  501    0  0.00000000000E+00  0.00000000000E+00 -0.10012906630E+04  0.10012906630E+04  0.25500000920E-02 0.  1.
    10030    2    1    2    0    0  0.00000000000E+00  0.00000000000E+00 -0.82245637405E+03  0.11801249520E+04  0.84632169720E+03 0.  0.
        5    1    3    3  502    0  0.37399995929E+03  0.15128409802E+03 -0.58914702419E+03  0.71405822869E+03  0.46999998093E+01 0.  1.
       -5    1    3    3    0  502 -0.37399995929E+03 -0.15128409802E+03 -0.23330934987E+03  0.46606672332E+03  0.46999998093E+01 0. -1.
</event>
<event>
 5   0  0.1104538E-03  0.1461037E+04  0.7818609E-02  0.8910784E-01
        3   -1    0    0  501    0  0.00000000000E+00  0.00000000000E+00  0.41364120067E+03  0.41364121300E+03  0.10100000352E+00 0. -1.
       -3   -1    0    0    0  501  0.00000000000E+00  0.00000000000E+00 -0.12901454058E+04  0.12901454098E+04  0.10100000352E+00 0.  1.
    10030    2    1    2    0    0  0.00000000000E+00  0.00000000000E+00 -0.87650420515E+03  0.17037866228E+04  0.14610370407E+04 0.  0.
        4    1    3    3  502    0 -0.13860448097E+03 -0.71423158999E+03 -0.36162512649E+03  0.81247296035E+03  0.12699999809E+01 0. -1.
       -4    1    3    3    0  502  0.13860448097E+03  0.71423158999E+03 -0.51487907866E+03  0.89131366243E+03  0.12699999809E+01 0.  1.
</event>
<event>
 5   0  0.2889469E-03  0.1456550E+04  0.7818609E-02  0.8913872E-01
        2   -1    0    0  501    0  0.00000000000E+00  0.00000000000E+00  0.80481044464E+03  0.80481044465E+03  0.25500000920E-02 0. -1.
       -2   -1    0    0    0  501  0.00000000000E+00  0.00000000000E+00 -0.65901832244E+03  0.65901832244E+03  0.25500000920E-02 0.  1.
    10030    2    1    2    0    0  0.00000000000E+00  0.00000000000E+00  0.14579212221E+03  0.14638287671E+04  0.14565504854E+04 0.  0.
        5    1    3    3  502    0 -0.15041012254E+03  0.54860884957E+03 -0.38409347546E+03  0.68639985626E+03  0.46999998093E+01 0.  1.
       -5    1    3    3    0  502  0.15041012254E+03 -0.54860884957E+03  0.52988559766E+03  0.77742891083E+03  0.46999998093E+01 0. -1.
</event>
<event>
 5   0  0.3006737E-03  0.1365264E+04  0.7818609E-02  0.8979353E-01
        2   -1    0    0  501    0  0.00000000000E+00  0.00000000000E+00  0.96280005124E+03  0.96280005124E+03  0.25500000920E-02 0. -1.
       -2   -1    0    0    0  501  0.00000000000E+00  0.00000000000E+00 -0.48399098473E+03  0.48399098473E+03  0.25500000920E-02 0.  1.
    10030    2    1    2    0    0  0.00000000000E+00  0.00000000000E+00  0.47880906652E+03  0.14467910360E+04  0.13652641428E+04 0.  0.
        1    1    3    3  502    0  0.94322341578E+02 -0.11408169600E+02 -0.47695009785E+03  0.48632113497E+03  0.50400001928E-02 0.  1.
       -1    1    3    3    0  502 -0.94322341578E+02  0.11408169600E+02  0.95575916436E+03  0.96046990101E+03  0.50400001928E-02 0. -1.
</event>
<event>
 5   0  0.2760807E-03  0.1406236E+04  0.7818609E-02  0.8949317E-01
        2   -1    0    0  501    0  0.00000000000E+00  0.00000000000E+00  0.10511798768E+04  0.10511798768E+04  0.25500000920E-02 0. -1.
       -2   -1    0    0    0  501  0.00000000000E+00  0.00000000000E+00 -0.47030457082E+03  0.47030457083E+03  0.25500000920E-02 0.  1.
    10030    2    1    2    0    0  0.00000000000E+00  0.00000000000E+00  0.58087530602E+03  0.15214844477E+04  0.14062356856E+04 0.  0.
        4    1    3    3  502    0  0.62074129061E+03 -0.17133932033E+03  0.59587922262E+03  0.87735430324E+03  0.12699999809E+01 0. -1.
       -4    1    3    3    0  502 -0.62074129061E+03  0.17133932033E+03 -0.15003916598E+02  0.64413014444E+03  0.12699999809E+01 0.  1.
</event>
<event>
 5   0  0.1700207E-03  0.1399199E+04  0.7818609E-02  0.8954398E-01
        1   -1    0    0  501    0  0.00000000000E+00  0.00000000000E+00  0.22332119119E+04  0.22332119119E+04  0.50400001928E-02 0. -1.
       -1   -1    0    0    0  501  0.00000000000E+00  0.00000000000E+00 -0.21916396802E+03  0.21916396808E+03  0.50400001928E-02 0.  1.
    10030    2    1    2    0    0  0.00000000000E+00  0.00000000000E+00  0.20140479439E+04  0.24523758800E+04  0.13991991768E+04 0.  0.
        2    1    3    3  502    0 -0.58557054714E+02  0.10820448003E+03 -0.20005359055E+03  0.23485863249E+03  0.25500000920E-02 0.  1.
       -2    1    3    3    0  502  0.58557054714E+02 -0.10820448003E+03  0.22141015344E+04  0.22175172475E+04  0.25500000920E-02 0. -1.
</event>
<event>
 5   0  0.1700207E-03  0.1431968E+04  0.7818609E-02  0.8930998E-01
        1   -1    0    0  501    0  0.00000000000E+00  0.00000000000E+00  0.16674481583E+04  0.16674481583E+04  0.50400001928E-02 0. -1.
       -1   -1    0    0    0  501  0.00000000000E+00  0.00000000000E+00 -0.30743559697E+03  0.30743559701E+03  0.50400001928E-02 0.  1.
    10030    2    1    2    0    0  0.00000000000E+00  0.00000000000E+00  0.13600125613E+04  0.19748837553E+04  0.14319677650E+04 0.  0.
        2    1    3    3  502    0  0.68052652130E+03  0.74757115929E+02  0.39095243533E+03  0.78838364980E+03  0.25500000920E-02 0. -1.
       -2    1    3    3    0  502 -0.68052652130E+03 -0.74757115929E+02  0.96906012596E+03  0.11865001055E+04  0.25500000920E-02 0.  1.
</event>
<event>
 5   0  0.2889469E-03  0.1420056E+04  0.7818609E-02  0.8939428E-01
        2   -1    0    0  501    0  0.00000000000E+00  0.00000000000E+00  0.17721991517E+04  0.17721991517E+04  0.25500000920E-02 0. -1.
       -2   -1    0    0    0  501  0.00000000000E+00  0.00000000000E+00 -0.28447124931E+03  0.28447124933E+03  0.25500000920E-02 0.  1.
    10030    2    1    2    0    0  0.00000000000E+00  0.00000000000E+00  0.14877279024E+04  0.20566704010E+04  0.14200559239E+04 0.  0.
        5    1    3    3  502    0 -0.50794438735E+03  0.23671118006E+03  0.11243411290E+03  0.57157956852E+03  0.46999998093E+01 0.  1.
       -5    1    3    3    0  502  0.50794438735E+03 -0.23671118006E+03  0.13752937895E+04  0.14850908325E+04  0.46999998093E+01 0. -1.
</event>
<event>
 5   0  0.2993993E-03  0.1404606E+04  0.7818609E-02  0.8950491E-01
       -2   -1    0    0    0  501  0.00000000000E+00  0.00000000000E+00  0.58362785994E+03  0.58362785995E+03  0.25500000920E-02 0. -1.
        2   -1    0    0  501    0  0.00000000000E+00  0.00000000000E+00 -0.84510986329E+03  0.84510986330E+03  0.25500000920E-02 0.  1.
    10030    2    1    2    0    0  0.00000000000E+00  0.00000000000E+00 -0.26148200336E+03  0.14287377232E+04  0.14046062237E+04 0.  0.
        3    1    3    3  502    0 -0.46207064133E+03 -0.50244102050E+03  0.37242843104E+02  0.68362511380E+03  0.10100000352E+00 0. -1.
       -3    1    3    3    0  502  0.46207064133E+03  0.50244102050E+03 -0.29872484646E+03  0.74511260944E+03  0.10100000352E+00 0.  1.
</event>
<event>
 5   0  0.1700207E-03  0.1504020E+04  0.7818609E-02  0.8881784E-01
       -1   -1    0    0    0  501  0.00000000000E+00  0.00000000000E+00  0.61338287544E+03  0.61338287546E+03  0.50400001928E-02 0.  1.
        1   -1    0    0  501    0  0.00000000000E+00  0.00000000000E+00 -0.92196682944E+03  0.92196682945E+03  0.50400001928E-02 0. -1.
    10030    2    1    2    0    0  0.00000000000E+00  0.00000000000E+00 -0.30858395400E+03  0.15353497049E+04  0.15040195011E+04 0.  0.
        2    1    3    3  502    0 -0.46213327739E+02  0.61598672843E+03  0.28352830951E+03  0.67967905924E+03  0.25500000920E-02 0.  1.
       -2    1    3    3    0  502  0.46213327739E+02 -0.61598672843E+03 -0.59211226351E+03  0.85567064568E+03  0.25500000920E-02 0. -1.
</event>
<event>
 5   0  0.2760807E-03  0.1386709E+04  0.7818609E-02  0.8963496E-01
       -2   -1    0    0    0  501  0.00000000000E+00  0.00000000000E+00  0.18648032756E+04  0.18648032756E+04  0.25500000920E-02 0.  1.
        2   -1    0    0  501    0  0.00000000000E+00  0.00000000000E+00 -0.25779700731E+03  0.25779700732E+03  0.25500000920E-02 0. -1.
    10030    2    1    2    0    0  0.00000000000E+00  0.00000000000E+00  0.16070062683E+04  0.21226002829E+04  0.13867093476E+04 0.  0.
        4    1    3    3  502    0  0.32630651226E+03  0.58543250629E+01 -0.13287534410E+03  0.35237435071E+03  0.12699999809E+01 0. -1.
       -4    1    3    3    0  502 -0.32630651226E+03 -0.58543250629E+01  0.17398816124E+04  0.17702259322E+04  0.12699999809E+01 0.  1.
</event>
<event>
 5   0  0.1644571E-03  0.1999871E+04  0.7818609E-02  0.8606681E-01
        1   -1    0    0  501    0  0.00000000000E+00  0.00000000000E+00  0.16558087559E+04  0.16558087559E+04  0.50400001928E-02 0. -1.
       -1   -1    0    0    0  501  0.00000000000E+00  0.00000000000E+00 -0.60385666833E+03  0.60385666835E+03  0.50400001928E-02 0.  1.
    10030    2    1    2    0    0  0.00000000000E+00  0.00000000000E+00  0.10519520875E+04  0.22596654242E+04  0.19998711546E+04 0.  0.
        4    1    3    3  502    0 -0.55261388792E+03  0.71580212259E+03  0.10081621525E+04  0.13543069543E+04  0.12699999809E+01 0. -1.
       -4    1    3    3    0  502  0.55261388792E+03 -0.71580212259E+03  0.43789935084E+02  0.90535846996E+03  0.12699999809E+01 0.  1.
</event>
<event>
 5   0  0.1631380E-03  0.1181633E+04  0.7818609E-02  0.9129087E-01
       -1   -1    0    0    0  501  0.00000000000E+00  0.00000000000E+00  0.44743443131E+03  0.44743443134E+03  0.50400001928E-02 0.  1.
        1   -1    0    0  501    0  0.00000000000E+00  0.00000000000E+00 -0.78014555321E+03  0.78014555323E+03  0.50400001928E-02 0. -1.
    10030    2    1    2    0    0  0.00000000000E+00  0.00000000000E+00 -0.33271112190E+03  0.12275799846E+04  0.11816327382E+04 0.  0.
        3    1    3    3  502    0 -0.49820271276E+03  0.22387321403E+03 -0.40036718706E+03  0.67721418593E+03  0.10100000352E+00 0. -1.
       -3    1    3    3    0  502  0.49820271276E+03 -0.22387321403E+03  0.67656065157E+02  0.55036579864E+03  0.10100000352E+00 0.  1.
</event>
<event>
 5   0  0.3006737E-03  0.1377515E+04  0.7818609E-02  0.8970257E-01
        2   -1    0    0  501    0  0.00000000000E+00  0.00000000000E+00  0.39010504542E+03  0.39010504543E+03  0.25500000920E-02 0. -1.
       -2   -1    0    0    0  501  0.00000000000E+00  0.00000000000E+00 -0.12160485102E+04  0.12160485102E+04  0.25500000920E-02 0.  1.
    10030    2    1    2    0    0  0.00000000000E+00  0.00000000000E+00 -0.82594346476E+03  0.16061535556E+04  0.13775146595E+04 0.  0.
        1    1    3    3  502    0  0.45037456377E+03 -0.15606449012E+03 -0.99267956722E+03  0.11011839519E+04  0.50400001928E-02 0.  1.
       -1    1    3    3    0  502 -0.45037456377E+03  0.15606449012E+03  0.16673610247E+03  0.50496960369E+03  0.50400001928E-02 0. -1.
</event>
<event>
 5   0  0.1700207E-03  0.1412831E+04  0.7818609E-02  0.8944583E-01
       -1   -1    0    0    0  501  0.00000000000E+00  0.00000000000E+00  0.13254840034E+04  0.13254840034E+04  0.50400001928E-02 0. -1.
        1   -1    0    0  501    0  0.00000000000E+00  0.00000000000E+00 -0.37648330799E+03  0.37648330803E+03  0.50400001928E-02 0.  1.
    10030    2    1    2    0    0  0.00000000000E+00  0.00000000000E+00  0.94900069541E+03  0.17019673114E+04  0.14128306372E+04 0.  0.
        2    1    3    3  502    0 -0.13676363261E+03 -0.47011520025E+03 -0.13893775965E+03  0.50893643392E+03  0.25500000920E-02 0.  1.
       -2    1    3    3    0  502  0.13676363261E+03  0.47011520025E+03  0.10879384551E+04  0.11930308775E+04  0.25500000920E-02 0. -1.
</event>
<event>
 5   0  0.3006737E-03  0.1392498E+04  0.7818609E-02  0.8959267E-01
       -2   -1    0    0    0  501  0.00000000000E+00  0.00000000000E+00  0.46445589582E+03  0.46445589583E+03  0.25500000920E-02 0.  1.
        2   -1    0    0  501    0  0.00000000000E+00  0.00000000000E+00 -0.10437211285E+04  0.10437211285E+04  0.25500000920E-02 0. -1.
    10030    2    1    2    0    0  0.00000000000E+00  0.00000000000E+00 -0.57926523270E+03  0.15081770244E+04  0.13924976578E+04 0.  0.
        1    1    3    3  502    0  0.31708857337E+02  0.55296752422E+03  0.16729583734E+03  0.57859003767E+03  0.50400001928E-02 0.  1.
       -1    1    3    3    0  502 -0.31708857337E+02 -0.55296752422E+03 -0.74656107004E+03  0.92958698668E+03  0.50400001928E-02 0. -1.
</event>
<event>
 5   0  0.2993993E-03  0.1385247E+04  0.7818609E-02  0.8964568E-01
       -2   -1    0    0    0  501  0.00000000000E+00  0.00000000000E+00  0.67148393967E+03  0.67148393967E+03  0.25500000920E-02 0. -1.
        2   -1    0    0  501    0  0.00000000000E+00  0.00000000000E+00 -0.71442805797E+03  0.71442805797E+03  0.25500000920E-02 0.  1.
    10030    2    1    2    0    0  0.00000000000E+00  0.00000000000E+00 -0.42944118298E+02  0.13859119976E+04  0.13852465008E+04 0.  0.
        3    1    3    3  502    0 -0.86145024039E+02 -0.14521148222E+03 -0.69352359655E+03  0.71378030857E+03  0.10100000352E+00 0.  1.
       -3    1    3    3    0  502  0.86145024039E+02  0.14521148222E+03  0.65057947825E+03  0.67213168907E+03  0.10100000352E+00 0. -1.
</event>
<event>
 5   0  0.1586022E-03  0.1434697E+04  0.7818609E-02  0.8929079E-01
        1   -1    0    0  501    0  0.00000000000E+00  0.00000000000E+00  0.56293399971E+03  0.56293399973E+03  0.50400001928E-02 0.  1.
       -1   -1    0    0    0  501  0.00000000000E+00  0.00000000000E+00 -0.91411977280E+03  0.91411977281E+03  0.50400001928E-02 0. -1.
    10030    2    1    2    0    0  0.00000000000E+00  0.00000000000E+00 -0.35118577309E+03  0.14770537725E+04  0.14346973199E+04 0.  0.
        1    1    3    3  502    0  0.28736986898E+03  0.65465549303E+02 -0.84890553524E+03  0.89861437087E+03  0.50400001928E-02 0. -1.
       -1    1    3    3    0  502 -0.28736986898E+03 -0.65465549303E+02  0.49771976215E+03  0.57843940167E+03  0.50400001928E-02 0.  1.
</event>
<event>
 5   0  0.1586022E-03  0.1379655E+04  0.7818609E-02  0.8968679E-01
        1   -1    0    0  501    0  0.00000000000E+00  0.00000000000E+00  0.12494821718E+04  0.12494821718E+04  0.50400001928E-02 0. -1.
       -1   -1    0    0    0  501  0.00000000000E+00  0.00000000000E+00 -0.38084712562E+03  0.38084712565E+03  0.50400001928E-02 0.  1.
    10030    2    1    2    0    0  0.00000000000E+00  0.00000000000E+00  0.86863504621E+03  0.16303292975E+04  0.13796545853E+04 0.  0.
        1    1    3    3  502    0 -0.10795681024E+02 -0.69802443757E+02 -0.37656277892E+03  0.38312981400E+03  0.50400001928E-02 0.  1.
       -1    1    3    3    0  502  0.10795681024E+02  0.69802443757E+02  0.12451978251E+04  0.12471994835E+04  0.50400001928E-02 0. -1.
</event>
<event>
 5   0  0.3006737E-03  0.1394831E+04  0.7818609E-02  0.8957568E-01
       -2   -1    0    0    0  501  0.00000000000E+00  0.00000000000E+00  0.33011897669E+03  0.33011897670E+03  0.25500000920E-02 0. -1.
        2   -1    0    0  501    0  0.00000000000E+00  0.00000000000E+00 -0.14733737238E+04  0.14733737238E+04  0.25500000920E-02 0.  1.
    10030    2    1    2    0    0  0.00000000000E+00  0.00000000000E+00 -0.11432547471E+04  0.18034927005E+04  0.13948313532E+04 0.  0.
        1    1    3    3  502    0 -0.34939416253E+03 -0.40948602680E+03  0.17248297676E+01  0.53829180007E+03  0.50400001928E-02 0. -1.
       -1    1    3    3    0  502  0.34939416253E+03  0.40948602680E+03 -0.11449795768E+04  0.12652009004E+04  0.50400001928E-02 0.  1.
</event>
<event>
 5   0  0.1700207E-03  0.1431195E+04  0.7818609E-02  0.8931543E-01
       -1   -1    0    0    0  501  0.00000000000E+00  0.00000000000E+00  0.14542854919E+04  0.14542854920E+04  0.50400001928E-02 0. -1.
        1   -1    0    0  501    0  0.00000000000E+00  0.00000000000E+00 -0.35211755962E+03  0.35211755965E+03  0.50400001928E-02 0.  1.
    10030    2    1    2    0    0  0.00000000000E+00  0.00000000000E+00  0.11021679323E+04  0.18064030516E+04  0.14311945479E+04 0.  0.
        2    1    3    3  502    0  0.42530988865E+03  0.23869955223E+02 -0.17465647173E+03  0.46039456911E+03  0.25500000920E-02 0.  1.
       -2    1    3    3    0  502 -0.42530988865E+03 -0.23869955223E+02  0.12768244041E+04  0.13460084825E+04  0.25500000920E-02 0. -1.
</event>
<event>
 5   0  0.1586022E-03  0.1317673E+04  0.7818609E-02  0.9015667E-01
        1   -1    0    0  501    0  0.00000000000E+00  0.00000000000E+00  0.14669519680E+04  0.14669519680E+04  0.50400001928E-02 0.  1.
       -1   -1    0    0    0  501  0.00000000000E+00  0.00000000000E+00 -0.29589606987E+03  0.29589606992E+03  0.50400001928E-02 0. -1.
    10030    2    1    2    0    0  0.00000000000E+00  0.00000000000E+00  0.11710558981E+04  0.17628480379E+04  0.13176726787E+04 0.  0.
        1    1    3    3  502    0 -0.14032702086E+03 -0.38690488788E+03  0.12738100385E+04  0.13386482284E+04  0.50400001928E-02 0.  1.
       -1    1    3    3    0  502  0.14032702086E+03  0.38690488788E+03 -0.10275414038E+03  0.42419980957E+03  0.50400001928E-02 0. -1.
</event>
<event>
 5   0  0.2993993E-03  0.1351645E+04  0.7818609E-02  0.8989584E-01
       -2   -1    0    0    0  501  0.00000000000E+00  0.00000000000E+00  0.46007973154E+03  0.46007973154E+03  0.25500000920E-02 0. -1.
        2   -1    0    0  501    0  0.00000000000E+00  0.00000000000E+00 -0.99273198360E+03  0.99273198361E+03  0.25500000920E-02 0.  1.
    10030    2    1    2    0    0  0.00000000000E+00  0.00000000000E+00 -0.53265225207E+03  0.14528117152E+04  0.13516447233E+04 0.  0.
        3    1    3    3  502    0  0.33101859325E+02  0.12950907318E+02  0.45907430678E+03  0.46044835588E+03  0.10100000352E+00 0. -1.
       -3    1    3    3    0  502 -0.33101859325E+02 -0.12950907318E+02 -0.99172655885E+03  0.99236335927E+03  0.10100000352E+00 0.  1.
</event>
<event>
 5   0  0.1644571E-03  0.1391743E+04  0.7818609E-02  0.8959817E-01
        1   -1    0    0  501    0  0.00000000000E+00  0.00000000000E+00  0.12497448237E+04  0.12497448237E+04  0.50400001928E-02 0. -1.
       -1   -1    0    0    0  501  0.00000000000E+00  0.00000000000E+00 -0.38746880469E+03  0.38746880472E+03  0.50400001928E-02 0.  1.
    10030    2    1    2    0    0  0.00000000000E+00  0.00000000000E+00  0.86227601904E+03  0.16372136285E+04  0.13917429835E+04 0.  0.
        4    1    3    3  502    0  0.48351539266E+03  0.20856231504E+03 -0.10401648739E+03  0.53675545339E+03  0.12699999809E+01 0.  1.
       -4    1    3    3    0  502 -0.48351539266E+03 -0.20856231504E+03  0.96629250642E+03  0.11004581751E+04  0.12699999809E+01 0. -1.
</event>
<event>
 5   0  0.1586022E-03  0.1409755E+04  0.7818609E-02  0.8946787E-01
       -1   -1    0    0    0  501  0.00000000000E+00  0.00000000000E+00  0.55926051089E+03  0.55926051092E+03  0.50400001928E-02 0. -1.
        1   -1    0    0  501    0  0.00000000000E+00  0.00000000000E+00 -0.88840945878E+03  0.88840945879E+03  0.50400001928E-02 0.  1.
    10030    2    1    2    0    0  0.00000000000E+00  0.00000000000E+00 -0.32914894789E+03  0.14476699697E+04  0.14097550537E+04 0.  0.
        1    1    3    3  502    0  0.46124397402E+03 -0.11568911977E+03  0.36972895646E+03  0.60235328278E+03  0.50400001928E-02 0. -1.
       -1    1    3    3    0  502 -0.46124397402E+03  0.11568911977E+03 -0.69887790434E+03  0.84531668693E+03  0.50400001928E-02 0.  1.
</event>
<event>
 5   0  0.1644571E-03  0.1439027E+04  0.7818609E-02  0.8926044E-01
        1   -1    0    0  501    0  0.00000000000E+00  0.00000000000E+00  0.68537382425E+03  0.68537382427E+03  0.50400001928E-02 0.  1.
       -1   -1    0    0    0  501  0.00000000000E+00  0.00000000000E+00 -0.75535336338E+03  0.75535336339E+03  0.50400001928E-02 0. -1.
    10030    2    1    2    0    0  0.00000000000E+00  0.00000000000E+00 -0.69979539128E+02  0.14407271877E+04  0.14390266479E+04 0.  0.
        4    1    3    3  502    0 -0.40784548332E+02 -0.67497865067E+03 -0.28112221337E+03  0.73231883083E+03  0.12699999809E+01 0.  1.
       -4    1    3    3    0  502  0.40784548332E+02  0.67497865067E+03  0.21114267424E+03  0.70840835683E+03  0.12699999809E+01 0. -1.
</event>
<event>
 5   0  0.2917809E-03  0.1391063E+04  0.7818609E-02  0.8960313E-01
       -2   -1    0    0    0  501  0.00000000000E+00  0.00000000000E+00  0.60961473704E+03  0.60961473705E+03  0.25500000920E-02 0. -1.
        2   -1    0    0  501    0  0.00000000000E+00  0.00000000000E+00 -0.79355661050E+03  0.79355661051E+03  0.25500000920E-02 0.  1.
    10030    2    1    2    0    0  0.00000000000E+00  0.00000000000E+00 -0.18394187346E+03  0.14031713476E+04  0.13910626218E+04 0.  0.
        2    1    3    3  502    0  0.99924790977E+02  0.44059840529E+03  0.44145349463E+03  0.63165901128E+03  0.25500000920E-02 0. -1.
       -2    1    3    3    0  502 -0.99924790977E+02 -0.44059840529E+03 -0.62539536809E+03  0.77151233628E+03  0.25500000920E-02 0.  1.
</event>
<event>
 5   0  0.2760807E-03  0.1351279E+04  0.7818609E-02  0.8989860E-01
        2   -1    0    0  501    0  0.00000000000E+00  0.00000000000E+00  0.41981350863E+03  0.41981350864E+03  0.25500000920E-02 0. -1.
       -2   -1    0    0    0  501  0.00000000000E+00  0.00000000000E+00 -0.10873609634E+04  0.10873609634E+04  0.25500000920E-02 0.  1.
    10030    2    1    2    0    0  0.00000000000E+00  0.00000000000E+00 -0.66754745472E+03  0.15071744720E+04  0.13512791291E+04 0.  0.
        4    1    3    3  502    0 -0.18553445584E+03 -0.48353685544E+03  0.15016814545E+03  0.53924299687E+03  0.12699999809E+01 0. -1.
       -4    1    3    3    0  502  0.18553445584E+03  0.48353685544E+03 -0.81771560018E+03  0.96793147513E+03  0.12699999809E+01 0.  1.
</event>
<event>
 5   0  0.2993993E-03  0.1368875E+04  0.7818609E-02  0.8976661E-01
       -2   -1    0    0    0  501  0.00000000000E+00  0.00000000000E+00  0.44319157297E+03  0.44319157298E+03  0.25500000920E-02 0. -1.
        2   -1    0    0  501    0  0.00000000000E+00  0.00000000000E+00 -0.10570031966E+04  0.10570031966E+04  0.25500000920E-02 0.  1.
    10030    2    1    2    0    0  0.00000000000E+00  0.00000000000E+00 -0.61381162359E+03  0.15001947695E+04  0.13688753184E+04 0.  0.
        3    1    3    3  502    0  0.51910374736E+03 -0.41592719155E+03 -0.48358822667E+03  0.82238781141E+03  0.10100000352E+00 0.  1.
       -3    1    3    3    0  502 -0.51910374736E+03  0.41592719155E+03 -0.13022339692E+03  0.67780695813E+03  0.10100000352E+00 0. -1.
</event>
<event>
 5   0  0.1631380E-03  0.1406773E+04  0.7818609E-02  0.8948931E-01
       -1   -1    0    0    0  501  0.00000000000E+00  0.00000000000E+00  0.74711954354E+03  0.74711954356E+03  0.50400001928E-02 0. -1.
        1   -1    0    0  501    0  0.00000000000E+00  0.00000000000E+00 -0.66221330831E+03  0.66221330833E+03  0.50400001928E-02 0.  1.
    10030    2    1    2    0    0  0.00000000000E+00  0.00000000000E+00  0.84906235235E+02  0.14093328519E+04  0.14067729094E+04 0.  0.
        3    1    3    3  502    0  0.47655102455E+03  0.41385117302E+03  0.35346743798E+03  0.72340369941E+03  0.10100000352E+00 0. -1.
       -3    1    3    3    0  502 -0.47655102455E+03 -0.41385117302E+03 -0.26856120275E+03  0.68592915248E+03  0.10100000352E+00 0.  1.
</event>
<event>
 5   0  0.2889469E-03  0.1427684E+04  0.7818609E-02  0.8934020E-01
        2   -1    0    0  501    0  0.00000000000E+00  0.00000000000E+00  0.97857094865E+03  0.97857094865E+03  0.25500000920E-02 0.  1.
       -2   -1    0    0    0  501  0.00000000000E+00  0.00000000000E+00 -0.52072905181E+03  0.52072905182E+03  0.25500000920E-02 0. -1.
    10030    2    1    2    0    0  0.00000000000E+00  0.00000000000E+00  0.45784189684E+03  0.14993000005E+04  0.14276838897E+04 0.  0.
        5    1    3    3  502    0 -0.29547213680E+03 -0.50025817874E+03  0.66443611810E+03  0.88264345807E+03  0.46999998093E+01 0.  1.
       -5    1    3    3    0  502  0.29547213680E+03  0.50025817874E+03 -0.20659422127E+03  0.61665654240E+03  0.46999998093E+01 0. -1.
</event>
<event>
 5   0  0.2917809E-03  0.1320620E+04  0.7818609E-02  0.9013371E-01
        2   -1    0    0  501    0  0.00000000000E+00  0.00000000000E+00  0.12726107934E+04  0.12726107934E+04  0.25500000920E-02 0.  1.
       -2   -1    0    0    0  501  0.00000000000E+00  0.00000000000E+00 -0.34261033785E+03  0.34261033786E+03  0.25500000920E-02 0. -1.
    10030    2    1    2    0    0  0.00000000000E+00  0.00000000000E+00  0.93000045553E+03  0.16152211312E+04  0.13206204813E+04 0.  0.
        2    1    3    3  502    0 -0.28678252622E+03 -0.33606054046E+03  0.10652169470E+04  0.11531990498E+04  0.25500000920E-02 0.  1.
       -2    1    3    3    0  502  0.28678252622E+03  0.33606054046E+03 -0.13521649146E+03  0.46202208147E+03  0.25500000920E-02 0. -1.
</event>
<event>
 5   0  0.1631380E-03  0.1390664E+04  0.7818609E-02  0.8960604E-01
       -1   -1    0    0    0  501  0.00000000000E+00  0.00000000000E+00  0.69930993814E+03  0.69930993816E+03  0.50400001928E-02 0.  1.
        1   -1    0    0  501    0  0.00000000000E+00  0.00000000000E+00 -0.69137684617E+03  0.69137684619E+03  0.50400001928E-02 0. -1.
    10030    2    1    2    0    0  0.00000000000E+00  0.00000000000E+00  0.79330919689E+01  0.13906867843E+04  0.13906641572E+04 0.  0.
        3    1    3    3  502    0 -0.24596988117E+03  0.18037528337E+02  0.65410030804E+03  0.69905204245E+03  0.10100000352E+00 0.  1.
       -3    1    3    3    0  502  0.24596988117E+03 -0.18037528337E+02 -0.64616721607E+03  0.69163474190E+03  0.10100000352E+00 0. -1.
</event>
<event>
 5   0  0.2889469E-03  0.1412753E+04  0.7818609E-02  0.8944639E-01
        2   -1    0    0  501    0  0.00000000000E+00  0.00000000000E+00  0.23352968667E+04  0.23352968667E+04  0.25500000920E-02 0. -1.
       -2   -1    0    0    0  501  0.00000000000E+00  0.00000000000E+00 -0.21366340016E+03  0.21366340018E+03  0.25500000920E-02 0.  1.
    10030    2    1    2    0    0  0.00000000000E+00  0.00000000000E+00  0.21216334665E+04  0.25489602669E+04  0.14127525883E+04 0.  0.
        5    1    3    3  502    0 -0.74700935907E+02 -0.62502584761E+03  0.48258922352E+03  0.79319101650E+03  0.46999998093E+01 0. -1.
       -5    1    3    3    0  502  0.74700935907E+02  0.62502584761E+03  0.16390442430E+04  0.17557692504E+04  0.46999998093E+01 0.  1.
</event>
<event>
 5   0  0.1560957E-03  0.1408538E+04  0.7818609E-02  0.8947661E-01
        1   -1    0    0  501    0  0.00000000000E+00  0.00000000000E+00  0.55473705730E+03  0.55473705732E+03  0.50400001928E-02 0. -1.
       -1   -1    0    0    0  501  0.00000000000E+00  0.00000000000E+00 -0.89410794604E+03  0.89410794605E+03  0.50400001928E-02 0.  1.
    10030    2    1    2    0    0  0.00000000000E+00  0.00000000000E+00 -0.33937088874E+03  0.14488450034E+04  0.14085379809E+04 0.  0.
        5    1    3    3  502    0 -0.26648515098E+03 -0.40223446194E+03  0.35799148749E+03  0.60082184812E+03  0.46999998093E+01 0. -1.
       -5    1    3    3    0  502  0.26648515098E+03  0.40223446194E+03 -0.69736237623E+03  0.84802315525E+03  0.46999998093E+01 0.  1.
</event>
<event>
 5   0  0.2889469E-03  0.1387451E+04  0.7818609E-02  0.8962952E-01
        2   -1    0    0  501    0  0.00000000000E+00  0.00000000000E+00  0.18622509737E+04  0.18622509737E+04  0.25500000920E-02 0.  1.
       -2   -1    0    0    0  501  0.00000000000E+00  0.00000000000E+00 -0.25842670464E+03  0.25842670465E+03  0.25500000920E-02 0. -1.
    10030    2    1    2    0    0  0.00000000000E+00  0.00000000000E+00  0.16038242690E+04  0.21206776783E+04  0.13874514512E+04 0.  0.
        5    1    3    3  502    0  0.88774838031E+02  0.63986736081E+03  0.11883523560E+04  0.13525955136E+04  0.46999998093E+01 0. -1.
       -5    1    3    3    0  502 -0.88774838031E+02 -0.63986736081E+03  0.41547191300E+03  0.76808216474E+03  0.46999998093E+01 0.  1.
</event>
<event>
 5   0  0.3006737E-03  0.1424415E+04  0.7818609E-02  0.8936333E-01
        2   -1    0    0  501    0  0.00000000000E+00  0.00000000000E+00  0.17720828600E+04  0.17720828600E+04  0.25500000920E-02 0. -1.
       -2   -1    0    0    0  501  0.00000000000E+00  0.00000000000E+00 -0.28623903175E+03  0.28623903177E+03  0.25500000920E-02 0.  1.
    10030    2    1    2    0    0  0.00000000000E+00  0.00000000000E+00  0.14858438282E+04  0.20583218917E+04  0.14244146616E+04 0.  0.
        1    1    3    3  502    0  0.97635359332E+02 -0.31139339640E+03  0.16576849828E+04  0.16895022974E+04  0.50400001928E-02 0. -1.
       -1    1    3    3    0  502 -0.97635359332E+02  0.31139339640E+03 -0.17184115460E+03  0.36881959432E+03  0.50400001928E-02 0.  1.
</event>
<event>
 5   0  0.2760807E-03  0.1382320E+04  0.7818609E-02  0.8966716E-01
       -2   -1    0    0    0  501  0.00000000000E+00  0.00000000000E+00  0.30110180449E+03  0.30110180450E+03  0.25500000920E-02 0. -1.
        2   -1    0    0  501    0  0.00000000000E+00  0.00000000000E+00 -0.15865144089E+04  0.15865144089E+04  0.25500000920E-02 0.  1.
    10030    2    1    2    0    0  0.00000000000E+00  0.00000000000E+00 -0.12854126044E+04  0.18876162134E+04  0.13823202977E+04 0.  0.
        4    1    3    3  502    0  0.49717266337E+03 -0.41412634855E+03 -0.31096267555E+03  0.71790019379E+03  0.12699999809E+01 0. -1.
       -4    1    3    3    0  502 -0.49717266337E+03  0.41412634855E+03 -0.97444992889E+03  0.11697160196E+04  0.12699999809E+01 0.  1.
</event>
<event>
 5   0  0.1631380E-03  0.1375840E+04  0.7818609E-02  0.8971495E-01
       -1   -1    0    0    0  501  0.00000000000E+00  0.00000000000E+00  0.57367025437E+03  0.57367025439E+03  0.50400001928E-02 0.  1.
        1   -1    0    0  501    0  0.00000000000E+00  0.00000000000E+00 -0.82492337695E+03  0.82492337697E+03  0.50400001928E-02 0. -1.
    10030    2    1    2    0    0  0.00000000000E+00  0.00000000000E+00 -0.25125312258E+03  0.13985936314E+04  0.13758401121E+04 0.  0.
        3    1    3    3  502    0  0.29461871116E+03  0.51411905146E+03  0.22960276649E+03  0.63548093962E+03  0.10100000352E+00 0.  1.
       -3    1    3    3    0  502 -0.29461871116E+03 -0.51411905146E+03 -0.48085588908E+03  0.76311269174E+03  0.10100000352E+00 0. -1.
</event>
<event>
 5   0  0.1644571E-03  0.1448701E+04  0.7818609E-02  0.8919302E-01
       -1   -1    0    0    0  501  0.00000000000E+00  0.00000000000E+00  0.38046396018E+03  0.38046396021E+03  0.50400001928E-02 0.  1.
        1   -1    0    0  501    0  0.00000000000E+00  0.00000000000E+00 -0.13790626618E+04  0.13790626618E+04  0.50400001928E-02 0. -1.
    10030    2    1    2    0    0  0.00000000000E+00  0.00000000000E+00 -0.99859870163E+03  0.17595266220E+04  0.14487009929E+04 0.  0.
        4    1    3    3  502    0  0.74612789482E+02 -0.12796137021E+03  0.36187120239E+03  0.39101606187E+03  0.12699999809E+01 0.  1.
       -4    1    3    3    0  502 -0.74612789482E+02  0.12796137021E+03 -0.13604699040E+04  0.13685105602E+04  0.12699999809E+01 0. -1.
</event>
<event>
 5   0  0.3006737E-03  0.1394591E+04  0.7818609E-02  0.8957743E-01
        2   -1    0    0  501    0  0.00000000000E+00  0.00000000000E+00  0.16086557735E+04  0.16086557735E+04  0.25500000920E-02 0. -1.
       -2   -1    0    0    0  501  0.00000000000E+00  0.00000000000E+00 -0.30225300586E+03  0.30225300587E+03  0.25500000920E-02 0.  1.
    10030    2    1    2    0    0  0.00000000000E+00  0.00000000000E+00  0.13064027676E+04  0.19109087794E+04  0.13945910410E+04 0.  0.
        1    1    3    3  502    0 -0.28246448793E+02 -0.74803495272E+02  0.16023532493E+04  0.16043470199E+04  0.50400001928E-02 0. -1.
       -1    1    3    3    0  502  0.28246448793E+02  0.74803495272E+02 -0.29595048163E+03  0.30656175948E+03  0.50400001928E-02 0.  1.
</event>
<event>
 5   0  0.1586022E-03  0.1529556E+04  0.7818609E-02  0.8865033E-01
        1   -1    0    0  501    0  0.00000000000E+00  0.00000000000E+00  0.14006082735E+04  0.14006082735E+04  0.50400001928E-02 0.  1.
       -1   -1    0    0    0  501  0.00000000000E+00  0.00000000000E+00 -0.41759394551E+03  0.41759394554E+03  0.50400001928E-02 0. -1.
    10030    2    1    2    0    0  0.00000000000E+00  0.00000000000E+00  0.98301432795E+03  0.18182022190E+04  0.15295561906E+04 0.  0.
        1    1    3    3  502    0 -0.31999311663E+03 -0.23489573061E+02  0.13167322358E+04  0.13552605415E+04  0.50400001928E-02 0.  1.
       -1    1    3    3    0  502  0.31999311663E+03  0.23489573061E+02 -0.33371790781E+03  0.46294167748E+03  0.50400001928E-02 0. -1.
</event>
<event>
 5   0  0.2760807E-03  0.1370576E+04  0.7818609E-02  0.8975397E-01
       -2   -1    0    0    0  501  0.00000000000E+00  0.00000000000E+00  0.30736921778E+03  0.30736921779E+03  0.25500000920E-02 0. -1.
        2   -1    0    0  501    0  0.00000000000E+00  0.00000000000E+00 -0.15278674716E+04  0.15278674716E+04  0.25500000920E-02 0.  1.
    10030    2    1    2    0    0  0.00000000000E+00  0.00000000000E+00 -0.12204982538E+04  0.18352366894E+04  0.13705756887E+04 0.  0.
        4    1    3    3  502    0  0.43220174238E+03 -0.50483170325E+02  0.98639613836E+02  0.44618189444E+03  0.12699999809E+01 0. -1.
       -4    1    3    3    0  502 -0.43220174238E+03  0.50483170325E+02 -0.13191378676E+04  0.13890547949E+04  0.12699999809E+01 0.  1.
</event>
<event>
 5   0  0.2889469E-03  0.1486688E+04  0.7818609E-02  0.8893354E-01
        2   -1    0    0  501    0  0.00000000000E+00  0.00000000000E+00  0.13049982776E+04  0.13049982776E+04  0.25500000920E-02 0.  1.
       -2   -1    0    0    0  501  0.00000000000E+00  0.00000000000E+00 -0.42341857403E+03  0.42341857404E+03  0.25500000920E-02 0. -1.
    10030    2    1    2    0    0  0.00000000000E+00  0.00000000000E+00  0.88157970359E+03  0.17284168517E+04  0.14866882791E+04 0.  0.
        5    1    3    3  502    0 -0.15108191850E+03 -0.25157789020E+03  0.12347847895E+04  0.12691858601E+04  0.46999998093E+01 0.  1.
       -5    1    3    3    0  502  0.15108191850E+03  0.25157789020E+03 -0.35320508593E+03  0.45923099161E+03  0.46999998093E+01 0. -1.
</event>
<event>
 5   0  0.2889469E-03  0.1396125E+04  0.7818609E-02  0.8956628E-01
        2   -1    0    0  501    0  0.00000000000E+00  0.00000000000E+00  0.81755872014E+03  0.81755872014E+03  0.25500000920E-02 0. -1.
       -2   -1    0    0    0  501  0.00000000000E+00  0.00000000000E+00 -0.59603218566E+03  0.59603218567E+03  0.25500000920E-02 0.  1.
    10030    2    1    2    0    0  0.00000000000E+00  0.00000000000E+00  0.22152653448E+03  0.14135909058E+04  0.13961250816E+04 0.  0.
        5    1    3    3  502    0 -0.15245019620E+03 -0.13101498676E+03  0.78760436977E+03  0.81286451661E+03  0.46999998093E+01 0. -1.
       -5    1    3    3    0  502  0.15245019620E+03  0.13101498676E+03 -0.56607783529E+03  0.60072638921E+03  0.46999998093E+01 0.  1.
</event>
<event>
 5   0  0.1644571E-03  0.1402544E+04  0.7818609E-02  0.8951979E-01
        1   -1    0    0  501    0  0.00000000000E+00  0.00000000000E+00  0.10049060401E+04  0.10049060401E+04  0.50400001928E-02 0. -1.
       -1   -1    0    0    0  501  0.00000000000E+00  0.00000000000E+00 -0.48938156820E+03  0.48938156822E+03  0.50400001928E-02 0.  1.
    10030    2    1    2    0    0  0.00000000000E+00  0.00000000000E+00  0.51552447191E+03  0.14942876083E+04  0.14025441081E+04 0.  0.
        4    1    3    3  502    0 -0.35558841925E+02  0.68141836196E+03  0.85358045483E+02  0.68766490683E+03  0.12699999809E+01 0. -1.
       -4    1    3    3    0  502  0.35558841925E+02 -0.68141836196E+03  0.43016642642E+03  0.80662270151E+03  0.12699999809E+01 0.  1.
</event>
<event>
 5   0  0.1644571E-03  0.1447516E+04  0.7818609E-02  0.8920125E-01
       -1   -1    0    0    0  501  0.00000000000E+00  0.00000000000E+00  0.50815251220E+03  0.50815251223E+03  0.50400001928E-02 0. -1.
        1   -1    0    0  501    0  0.00000000000E+00  0.00000000000E+00 -0.10308431042E+04  0.10308431042E+04  0.50400001928E-02 0.  1.
    10030    2    1    2    0    0  0.00000000000E+00  0.00000000000E+00 -0.52269059198E+03  0.15389956164E+04  0.14475158211E+04 0.  0.
        4    1    3    3  502    0  0.20056242622E+03  0.37818396522E+03  0.35912467289E+03  0.55876698358E+03  0.12699999809E+01 0. -1.
       -4    1    3    3    0  502 -0.20056242622E+03 -0.37818396522E+03 -0.88181526488E+03  0.98022863284E+03  0.12699999809E+01 0.  1.
</event>
<event>
 5   0  0.1586022E-03  0.1380662E+04  0.7818609E-02  0.8967936E-01
       -1   -1    0    0    0  501  0.00000000000E+00  0.00000000000E+00  0.60864721087E+03  0.60864721090E+03  0.50400001928E-02 0.  1.
        1   -1    0    0  501    0  0.00000000000E+00  0.00000000000E+00 -0.78297757318E+03  0.78297757319E+03  0.50400001928E-02 0. -1.
    10030    2    1    2    0    0  0.00000000000E+00  0.00000000000E+00 -0.17433036230E+03  0.13916247841E+04  0.13806623282E+04 0.  0.
        1    1    3    3  502    0 -0.60180694421E+03  0.12973048029E+03 -0.40198394166E+03  0.73525008330E+03  0.50400001928E-02 0. -1.
       -1    1    3    3    0  502  0.60180694421E+03 -0.12973048029E+03  0.22765357936E+03  0.65637470079E+03  0.50400001928E-02 0.  1.
</event>
<event>
 5   0  0.2889469E-03  0.1396366E+04  0.7818609E-02  0.8956453E-01
       -2   -1    0    0    0  501  0.00000000000E+00  0.00000000000E+00  0.48323786790E+03  0.48323786790E+03  0.25500000920E-02 0.  1.
        2   -1    0    0  501    0  0.00000000000E+00  0.00000000000E+00 -0.10087359530E+04  0.10087359530E+04  0.25500000920E-02 0. -1.
    10030    2    1    2    0    0  0.00000000000E+00  0.00000000000E+00 -0.52549808508E+03  0.14919738209E+04  0.13963658707E+04 0.  0.
        5    1    3    3  502    0 -0.37145376121E+02 -0.38981091319E+03  0.35484551630E+03  0.52845979738E+03  0.46999998093E+01 0.  1.
       -5    1    3    3    0  502  0.37145376121E+02  0.38981091319E+03 -0.88034360138E+03  0.96351402351E+03  0.46999998093E+01 0. -1.
</event>
<event>
 5   0  0.2760807E-03  0.1405659E+04  0.7818609E-02  0.8949732E-01
       -2   -1    0    0    0  501  0.00000000000E+00  0.00000000000E+00  0.59265194251E+03  0.59265194252E+03  0.25500000920E-02 0.  1.
        2   -1    0    0  501    0  0.00000000000E+00  0.00000000000E+00 -0.83348995969E+03  0.83348995970E+03  0.25500000920E-02 0. -1.
    10030    2    1    2    0    0  0.00000000000E+00  0.00000000000E+00 -0.24083801718E+03  0.14261419022E+04  0.14056591958E+04 0.  0.
        4    1    3    3  502    0 -0.35063426708E+02  0.49529325869E+03  0.38424544306E+03  0.62784634219E+03  0.12699999809E+01 0.  1.
       -4    1    3    3    0  502  0.35063426708E+02 -0.49529325869E+03 -0.62508346023E+03  0.79829556002E+03  0.12699999809E+01 0. -1.
</event>
<event>
 5   0  0.3006737E-03  0.1386253E+04  0.7818609E-02  0.8963830E-01
       -2   -1    0    0    0  501  0.00000000000E+00  0.00000000000E+00  0.95904525780E+03  0.95904525781E+03  0.25500000920E-02 0. -1.
        2   -1    0    0  501    0  0.00000000000E+00  0.00000000000E+00 -0.50094017820E+03  0.50094017820E+03  0.25500000920E-02 0.  1.
    10030    2    1    2    0    0  0.00000000000E+00  0.00000000000E+00  0.45810507961E+03  0.14599854360E+04  0.13862529385E+04 0.  0.
        1    1    3    3  502    0 -0.31162662000E+03  0.11807361037E+03 -0.41103282401E+03  0.52915074430E+03  0.50400001928E-02 0.  1.
       -1    1    3    3    0  502  0.31162662000E+03 -0.11807361037E+03  0.86913790362E+03  0.93083469171E+03  0.50400001928E-02 0. -1.
</event>
<event>
 5   0  0.3006737E-03  0.1385661E+04  0.7818609E-02  0.8964264E-01
        2   -1    0    0  501    0  0.00000000000E+00  0.00000000000E+00  0.44917392059E+03  0.44917392059E+03  0.25500000920E-02 0.  1.
       -2   -1    0    0    0  501  0.00000000000E+00  0.00000000000E+00 -0.10686595480E+04  0.10686595480E+04  0.25500000920E-02 0. -1.
    10030    2    1    2    0    0  0.00000000000E+00  0.00000000000E+00 -0.61948562738E+03  0.15178334686E+04  0.13856608516E+04 0.  0.
        1    1    3    3  502    0  0.59544828545E+03 -0.20609898392E+03 -0.62527966741E+03  0.88769933780E+03  0.50400001928E-02 0. -1.
       -1    1    3    3    0  502 -0.59544828545E+03  0.20609898392E+03  0.57940400376E+01  0.63013413076E+03  0.50400001928E-02 0.  1.
</event>
<event>
 5   0  0.1700207E-03  0.9789668E+03  0.7818609E-02  0.9331919E-01
       -1   -1    0    0    0  501  0.00000000000E+00  0.00000000000E+00  0.28706197683E+03  0.28706197688E+03  0.50400001928E-02 0. -1.
        1   -1    0    0  501    0  0.00000000000E+00  0.00000000000E+00 -0.83464203998E+03  0.83464203999E+03  0.50400001928E-02 0.  1.
    10030    2    1    2    0    0  0.00000000000E+00  0.00000000000E+00 -0.54758006315E+03  0.11217040169E+04  0.97896678999E+03 0.  0.
        2    1    3    3  502    0 -0.67504564591E+02  0.56760647562E+02 -0.82546263506E+03  0.83016094779E+03  0.25500000920E-02 0.  1.
       -2    1    3    3    0  502  0.67504564591E+02 -0.56760647562E+02  0.27788257191E+03  0.29154306908E+03  0.25500000920E-02 0. -1.
</event>
<event>
 5   0  0.1560957E-03  0.1404369E+04  0.7818609E-02  0.8950662E-01
       -1   -1    0    0    0  501  0.00000000000E+00  0.00000000000E+00  0.39112092763E+03  0.39112092766E+03  0.50400001928E-02 0. -1.
        1   -1    0    0  501    0  0.00000000000E+00  0.00000000000E+00 -0.12606411552E+04  0.12606411552E+04  0.50400001928E-02 0.  1.
    10030    2    1    2    0    0  0.00000000000E+00  0.00000000000E+00 -0.86952022755E+03  0.16517620829E+04  0.14043690940E+04 0.  0.
        5    1    3    3  502    0  0.26071929829E+02 -0.23689556622E+03 -0.12115970451E+04  0.12348233657E+04  0.46999998093E+01 0.  1.
       -5    1    3    3    0  502 -0.26071929829E+02  0.23689556622E+03  0.34207681750E+03  0.41693871719E+03  0.46999998093E+01 0. -1.
</event>
<event>
 5   0  0.2889469E-03  0.1291483E+04  0.7818609E-02  0.9036347E-01
        2   -1    0    0  501    0  0.00000000000E+00  0.00000000000E+00  0.83769493973E+03  0.83769493973E+03  0.25500000920E-02 0.  1.
       -2   -1    0    0    0  501  0.00000000000E+00  0.00000000000E+00 -0.49777289333E+03  0.49777289334E+03  0.25500000920E-02 0. -1.
    10030    2    1    2    0    0  0.00000000000E+00  0.00000000000E+00  0.33992204640E+03  0.13354678331E+04  0.12914826114E+04 0.  0.
        5    1    3    3  502    0  0.12941268746E+03  0.28054838019E+02  0.82348647322E+03  0.83407840110E+03  0.46999998093E+01 0.  1.
       -5    1    3    3    0  502 -0.12941268746E+03 -0.28054838019E+02 -0.48356442682E+03  0.50138943197E+03  0.46999998093E+01 0. -1.
</event>
<event>
 5   0  0.1644571E-03  0.1388064E+04  0.7818609E-02  0.8962504E-01
        1   -1    0    0  501    0  0.00000000000E+00  0.00000000000E+00  0.50584979432E+03  0.50584979435E+03  0.50400001928E-02 0.  1.
       -1   -1    0    0    0  501  0.00000000000E+00  0.00000000000E+00 -0.95222039410E+03  0.95222039411E+03  0.50400001928E-02 0. -1.
    10030    2    1    2    0    0  0.00000000000E+00  0.00000000000E+00 -0.44637059978E+03  0.14580701885E+04  0.13880641059E+04 0.  0.
        4    1    3    3  502    0  0.35466888753E+03 -0.15160520101E+03 -0.82926380744E+03  0.91457871831E+03  0.12699999809E+01 0. -1.
       -4    1    3    3    0  502 -0.35466888753E+03  0.15160520101E+03  0.38289320766E+03  0.54349147015E+03  0.12699999809E+01 0.  1.
</event>
<event>
 5   0  0.2917809E-03  0.1395579E+04  0.7818609E-02  0.8957025E-01
       -2   -1    0    0    0  501  0.00000000000E+00  0.00000000000E+00  0.30238558910E+03  0.30238558911E+03  0.25500000920E-02 0. -1.
        2   -1    0    0  501    0  0.00000000000E+00  0.00000000000E+00 -0.16102302262E+04  0.16102302262E+04  0.25500000920E-02 0.  1.
    10030    2    1    2    0    0  0.00000000000E+00  0.00000000000E+00 -0.13078446371E+04  0.19126158153E+04  0.13955793285E+04 0.  0.
        2    1    3    3  502    0 -0.63263555168E+02 -0.40542260079E+03 -0.14274140002E+04  0.14852206875E+04  0.25500000920E-02 0.  1.
       -2    1    3    3    0  502  0.63263555168E+02  0.40542260079E+03  0.11956936313E+03  0.42739512777E+03  0.25500000920E-02 0. -1.
</event>
<event>
 5   0  0.1586022E-03  0.1381710E+04  0.7818609E-02  0.8967165E-01
        1   -1    0    0  501    0  0.00000000000E+00  0.00000000000E+00  0.83427404528E+03  0.83427404529E+03  0.50400001928E-02 0. -1.
       -1   -1    0    0    0  501  0.00000000000E+00  0.00000000000E+00 -0.57209086346E+03  0.57209086348E+03  0.50400001928E-02 0.  1.
    10030    2    1    2    0    0  0.00000000000E+00  0.00000000000E+00  0.26218318182E+03  0.14063649088E+04  0.13817098957E+04 0.  0.
        1    1    3    3  502    0  0.35655145655E+03  0.29230212106E+03 -0.39258989451E+03  0.60555453631E+03  0.50400001928E-02 0.  1.
       -1    1    3    3    0  502 -0.35655145655E+03 -0.29230212106E+03  0.65477307633E+03  0.80081037247E+03  0.50400001928E-02 0. -1.
</event>
<event>
 5   0  0.2993993E-03  0.1403289E+04  0.7818609E-02  0.8951441E-01
        2   -1    0    0  501    0  0.00000000000E+00  0.00000000000E+00  0.20022343931E+04  0.20022343931E+04  0.25500000920E-02 0. -1.
       -2   -1    0    0    0  501  0.00000000000E+00  0.00000000000E+00 -0.24587773857E+03  0.24587773858E+03  0.25500000920E-02 0.  1.
    10030    2    1    2    0    0  0.00000000000E+00  0.00000000000E+00  0.17563566546E+04  0.22481121317E+04  0.14032888009E+04 0.  0.
        3    1    3    3  502    0  0.56128071059E+03  0.31426436711E+03  0.13270522160E+04  0.14747425954E+04  0.10100000352E+00 0.  1.
       -3    1    3    3    0  502 -0.56128071059E+03 -0.31426436711E+03  0.42930443855E+03  0.77336953630E+03  0.10100000352E+00 0. -1.
</event>
<event>
 5   0  0.2889469E-03  0.1270872E+04  0.7818609E-02  0.9052988E-01
        2   -1    0    0  501    0  0.00000000000E+00  0.00000000000E+00  0.60626480644E+03  0.60626480644E+03  0.25500000920E-02 0. -1.
       -2   -1    0    0    0  501  0.00000000000E+00  0.00000000000E+00 -0.66601073261E+03  0.66601073261E+03  0.25500000920E-02 0.  1.
    10030    2    1    2    0    0  0.00000000000E+00  0.00000000000E+00 -0.59745926172E+02  0.12722755391E+04  0.12708719336E+04 0.  0.
        5    1    3    3  502    0  0.45592206817E+03 -0.27475942758E+03 -0.37724192735E+03  0.65245017974E+03  0.46999998093E+01 0.  1.
       -5    1    3    3    0  502 -0.45592206817E+03  0.27475942758E+03  0.31749600118E+03  0.61982535932E+03  0.46999998093E+01 0. -1.
</event>
<event>
 5   0  0.1586022E-03  0.1396120E+04  0.7818609E-02  0.8956632E-01
       -1   -1    0    0    0  501  0.00000000000E+00  0.00000000000E+00  0.17193693277E+04  0.17193693278E+04  0.50400001928E-02 0. -1.
        1   -1    0    0  501    0  0.00000000000E+00  0.00000000000E+00 -0.28341067357E+03  0.28341067362E+03  0.50400001928E-02 0.  1.
    10030    2    1    2    0    0  0.00000000000E+00  0.00000000000E+00  0.14359586542E+04  0.20027800014E+04  0.13961197934E+04 0.  0.
        1    1    3    3  502    0 -0.34873236894E+03 -0.49959503137E+03  0.22923039977E+03  0.65096546508E+03  0.50400001928E-02 0.  1.
       -1    1    3    3    0  502  0.34873236894E+03  0.49959503137E+03  0.12067282544E+04  0.13518145363E+04  0.50400001928E-02 0. -1.
</event>
<event>
 5   0  0.1644571E-03  0.1384218E+04  0.7818609E-02  0.8965322E-01
       -1   -1    0    0    0  501  0.00000000000E+00  0.00000000000E+00  0.29217890480E+03  0.29217890485E+03  0.50400001928E-02 0.  1.
        1   -1    0    0  501    0  0.00000000000E+00  0.00000000000E+00 -0.16394565893E+04  0.16394565893E+04  0.50400001928E-02 0. -1.
    10030    2    1    2    0    0  0.00000000000E+00  0.00000000000E+00 -0.13472776845E+04  0.19316354941E+04  0.13842176574E+04 0.  0.
        4    1    3    3  502    0  0.17957649743E+03 -0.70938104130E+02  0.25383304864E+03  0.31892438372E+03  0.12699999809E+01 0.  1.
       -4    1    3    3    0  502 -0.17957649743E+03  0.70938104130E+02 -0.16011107331E+04  0.16127111104E+04  0.12699999809E+01 0. -1.
</event>
<event>
 5   0  0.1560957E-03  0.1417566E+04  0.7818609E-02  0.8941201E-01
       -1   -1    0    0    0  501  0.00000000000E+00  0.00000000000E+00  0.42452374090E+03  0.42452374093E+03  0.50400001928E-02 0. -1.
        1   -1    0    0  501    0  0.00000000000E+00  0.00000000000E+00 -0.11833808607E+04  0.11833808607E+04  0.50400001928E-02 0.  1.
    10030    2    1    2    0    0  0.00000000000E+00  0.00000000000E+00 -0.75885711979E+03  0.16079046016E+04  0.14175658996E+04 0.  0.
        5    1    3    3  502    0 -0.65041730820E+03  0.19641056373E+03 -0.60834746810E+03  0.91199151109E+03  0.46999998093E+01 0.  1.
       -5    1    3    3    0  502  0.65041730820E+03 -0.19641056373E+03 -0.15050965169E+03  0.69591309055E+03  0.46999998093E+01 0. -1.
</event>
<event>
 5   0  0.1560957E-03  0.1411590E+04  0.7818609E-02  0.8945472E-01
       -1   -1    0    0    0  501  0.00000000000E+00  0.00000000000E+00  0.84701416950E+03  0.84701416951E+03  0.50400001928E-02 0. -1.
        1   -1    0    0  501    0  0.00000000000E+00  0.00000000000E+00 -0.58812056024E+03  0.58812056026E+03  0.50400001928E-02 0.  1.
    10030    2    1    2    0    0  0.00000000000E+00  0.00000000000E+00  0.25889360926E+03  0.14351347298E+04  0.14115898100E+04 0.  0.
        5    1    3    3  502    0 -0.57986693396E+03 -0.96674187027E+02 -0.26762200941E+03  0.64593745011E+03  0.46999998093E+01 0.  1.
       -5    1    3    3    0  502  0.57986693396E+03  0.96674187027E+02  0.52651561867E+03  0.78919727966E+03  0.46999998093E+01 0. -1.
</event>
<event>
 5   0  0.2889469E-03  0.1406254E+04  0.7818609E-02  0.8949304E-01
        2   -1    0    0  501    0  0.00000000000E+00  0.00000000000E+00  0.92183272033E+03  0.92183272033E+03  0.25500000920E-02 0. -1.
       -2   -1    0    0    0  501  0.00000000000E+00  0.00000000000E+00 -0.53630919077E+03  0.53630919078E+03  0.25500000920E-02 0.  1.
    10030    2    1    2    0    0  0.00000000000E+00  0.00000000000E+00  0.38552352956E+03  0.14581419111E+04  0.14062536902E+04 0.  0.
        5    1    3    3  502    0  0.34634659571E+03  0.40556181272E+02 -0.44031065273E+03  0.56169059909E+03  0.46999998093E+01 0.  1.
       -5    1    3    3    0  502 -0.34634659571E+03 -0.40556181272E+02  0.82583418229E+03  0.89645131202E+03  0.46999998093E+01 0. -1.
</event>
<event>
 5   0  0.2889469E-03  0.1074679E+04  0.7818609E-02  0.9230229E-01
       -2   -1    0    0    0  501  0.00000000000E+00  0.00000000000E+00  0.80997452269E+03  0.80997452269E+03  0.25500000920E-02 0.  1.
        2   -1    0    0  501    0  0.00000000000E+00  0.00000000000E+00 -0.35647278469E+03  0.35647278470E+03  0.25500000920E-02 0. -1.
    10030    2    1    2    0    0  0.00000000000E+00  0.00000000000E+00  0.45350173800E+03  0.11664473074E+04  0.10746792519E+04 0.  0.
        5    1    3    3  502    0  0.51273678165E+03 -0.15174693607E+03  0.28403694171E+03  0.60549584153E+03  0.46999998093E+01 0.  1.
       -5    1    3    3    0  502 -0.51273678165E+03  0.15174693607E+03  0.16946479629E+03  0.56095146585E+03  0.46999998093E+01 0. -1.
</event>
<event>
 5   0  0.2993993E-03  0.1478943E+04  0.7818609E-02  0.8898577E-01
        2   -1    0    0  501    0  0.00000000000E+00  0.00000000000E+00  0.15094099373E+04  0.15094099373E+04  0.25500000920E-02 0.  1.
       -2   -1    0    0    0  501  0.00000000000E+00  0.00000000000E+00 -0.36227281014E+03  0.36227281015E+03  0.25500000920E-02 0. -1.
    10030    2    1    2    0    0  0.00000000000E+00  0.00000000000E+00  0.11471371272E+04  0.18716827475E+04  0.14789431087E+04 0.  0.
        3    1    3    3  502    0  0.53565273878E+03 -0.50856333254E+03  0.61844936619E+03  0.96334840453E+03  0.10100000352E+00 0. -1.
       -3    1    3    3    0  502 -0.53565273878E+03  0.50856333254E+03  0.52868776098E+03  0.90833434295E+03  0.10100000352E+00 0.  1.
</event>
<event>
 5   0  0.2889469E-03  0.1365985E+04  0.7818609E-02  0.8978815E-01
        2   -1    0    0  501    0  0.00000000000E+00  0.00000000000E+00  0.11990120965E+04  0.11990120965E+04  0.25500000920E-02 0.  1.
       -2   -1    0    0    0  501  0.00000000000E+00  0.00000000000E+00 -0.38905264531E+03  0.38905264532E+03  0.25500000920E-02 0. -1.
    10030    2    1    2    0    0  0.00000000000E+00  0.00000000000E+00  0.80995945117E+03  0.15880647418E+04  0.13659851067E+04 0.  0.
        5    1    3    3  502    0 -0.24677735275E+03  0.73733533096E+02  0.11403700898E+04  0.11691029585E+04  0.46999998093E+01 0.  1.
       -5    1    3    3    0  502  0.24677735275E+03 -0.73733533096E+02 -0.33041063868E+03  0.41896178332E+03  0.46999998093E+01 0. -1.
</event>
<event>
 5   0  0.1700207E-03  0.1404306E+04  0.7818609E-02  0.8950707E-01
        1   -1    0    0  501    0  0.00000000000E+00  0.00000000000E+00  0.14048918811E+04  0.14048918811E+04  0.50400001928E-02 0.  1.
       -1   -1    0    0    0  501  0.00000000000E+00  0.00000000000E+00 -0.35093024007E+03  0.35093024010E+03  0.50400001928E-02 0. -1.
    10030    2    1    2    0    0  0.00000000000E+00  0.00000000000E+00  0.10539616410E+04  0.17558221212E+04  0.14043062987E+04 0.  0.
        2    1    3    3  502    0  0.40164123651E+03  0.57487692445E+03  0.48331134869E+03  0.85169772860E+03  0.25500000920E-02 0.  1.
       -2    1    3    3    0  502 -0.40164123651E+03 -0.57487692445E+03  0.57065029232E+03  0.90412439258E+03  0.25500000920E-02 0. -1.
</event>
<event>
 5   0  0.2993993E-03  0.1412078E+04  0.7818609E-02  0.8945122E-01
       -2   -1    0    0    0  501  0.00000000000E+00  0.00000000000E+00  0.28946493065E+03  0.28946493066E+03  0.25500000920E-02 0. -1.
        2   -1    0    0  501    0  0.00000000000E+00  0.00000000000E+00 -0.17221124446E+04  0.17221124446E+04  0.25500000920E-02 0.  1.
    10030    2    1    2    0    0  0.00000000000E+00  0.00000000000E+00 -0.14326475139E+04  0.20115773752E+04  0.14120781272E+04 0.  0.
        3    1    3    3  502    0 -0.65020207470E+03 -0.25992596129E+03 -0.84506176680E+03  0.10974760331E+04  0.10100000352E+00 0.  1.
       -3    1    3    3    0  502  0.65020207470E+03  0.25992596129E+03 -0.58758574713E+03  0.91410134215E+03  0.10100000352E+00 0. -1.
</event>
<event>
 5   0  0.2760807E-03  0.1398751E+04  0.7818609E-02  0.8954723E-01
        2   -1    0    0  501    0  0.00000000000E+00  0.00000000000E+00  0.78032425699E+03  0.78032425699E+03  0.25500000920E-02 0.  1.
       -2   -1    0    0    0  501  0.00000000000E+00  0.00000000000E+00 -0.62682409601E+03  0.62682409601E+03  0.25500000920E-02 0. -1.
    10030    2    1    2    0    0  0.00000000000E+00  0.00000000000E+00  0.15350016098E+03  0.14071483530E+04  0.13987509385E+04 0.  0.
        4    1    3    3  502    0 -0.55353157022E+03  0.39121237593E+02  0.50497773877E+03  0.75028781145E+03  0.12699999809E+01 0.  1.
       -4    1    3    3    0  502  0.55353157022E+03 -0.39121237593E+02 -0.35147757779E+03  0.65686054155E+03  0.12699999809E+01 0. -1.
</event>
<event>
 5   0  0.2993993E-03  0.1428994E+04  0.7818609E-02  0.8933095E-01
        2   -1    0    0  501    0  0.00000000000E+00  0.00000000000E+00  0.10663181262E+04  0.10663181262E+04  0.25500000920E-02 0.  1.
       -2   -1    0    0    0  501  0.00000000000E+00  0.00000000000E+00 -0.47875573207E+03  0.47875573207E+03  0.25500000920E-02 0. -1.
    10030    2    1    2    0    0  0.00000000000E+00  0.00000000000E+00  0.58756239412E+03  0.15450738583E+04  0.14289939330E+04 0.  0.
        3    1    3    3  502    0 -0.26159407054E+03  0.86972762396E+02  0.10065010240E+04  0.10435708125E+04  0.10100000352E+00 0.  1.
       -3    1    3    3    0  502  0.26159407054E+03 -0.86972762396E+02 -0.41893862987E+03  0.50150304579E+03  0.10100000352E+00 0. -1.
</event>
<event>
 5   0  0.1700207E-03  0.1380843E+04  0.7818609E-02  0.8967804E-01
        1   -1    0    0  501    0  0.00000000000E+00  0.00000000000E+00  0.10229852336E+04  0.10229852336E+04  0.50400001928E-02 0. -1.
       -1   -1    0    0    0  501  0.00000000000E+00  0.00000000000E+00 -0.46597105931E+03  0.46597105933E+03  0.50400001928E-02 0.  1.
    10030    2    1    2    0    0  0.00000000000E+00  0.00000000000E+00  0.55701417432E+03  0.14889562930E+04  0.13808425153E+04 0.  0.
        2    1    3    3  502    0  0.56143119539E+03 -0.38287371755E+03  0.41006021069E+03  0.79369178347E+03  0.25500000920E-02 0. -1.
       -2    1    3    3    0  502 -0.56143119539E+03  0.38287371755E+03  0.14695396363E+03  0.69526450951E+03  0.25500000920E-02 0.  1.
</event>
<event>
 5   0  0.2917809E-03  0.1399294E+04  0.7818609E-02  0.8954330E-01
        2   -1    0    0  501    0  0.00000000000E+00  0.00000000000E+00  0.10584190411E+04  0.10584190411E+04  0.25500000920E-02 0. -1.
       -2   -1    0    0    0  501  0.00000000000E+00  0.00000000000E+00 -0.46248767824E+03  0.46248767825E+03  0.25500000920E-02 0.  1.
    10030    2    1    2    0    0  0.00000000000E+00  0.00000000000E+00  0.59593136287E+03  0.15209067194E+04  0.13992937718E+04 0.  0.
        2    1    3    3  502    0  0.22476052693E+03 -0.60230417220E+03  0.59803589836E+03  0.87802878430E+03  0.25500000920E-02 0. -1.
       -2    1    3    3    0  502 -0.22476052693E+03  0.60230417220E+03 -0.21045354954E+01  0.64287793506E+03  0.25500000920E-02 0.  1.
</event>
<event>
 5   0  0.1644571E-03  0.1450000E+04  0.7818609E-02  0.8918401E-01
        1   -1    0    0  501    0  0.00000000000E+00  0.00000000000E+00  0.91450128150E+03  0.91450128151E+03  0.50400001928E-02 0. -1.
       -1   -1    0    0    0  501  0.00000000000E+00  0.00000000000E+00 -0.57476656233E+03  0.57476656235E+03  0.50400001928E-02 0.  1.
    10030    2    1    2    0    0  0.00000000000E+00  0.00000000000E+00  0.33973471917E+03  0.14892678439E+04  0.14499996660E+04 0.  0.
        4    1    3    3  502    0  0.14293429851E+03  0.17008754889E+03 -0.53894030220E+03  0.58293931950E+03  0.12699999809E+01 0.  1.
       -4    1    3    3    0  502 -0.14293429851E+03 -0.17008754889E+03  0.87867502137E+03  0.90632852436E+03  0.12699999809E+01 0. -1.
</event>
<event>
 5   0  0.1644571E-03  0.1409038E+04  0.7818609E-02  0.8947302E-01
       -1   -1    0    0    0  501  0.00000000000E+00  0.00000000000E+00  0.73944978374E+03  0.73944978376E+03  0.50400001928E-02 0.  1.
        1   -1    0    0  501    0  0.00000000000E+00  0.00000000000E+00 -0.67123837492E+03  0.67123837494E+03  0.50400001928E-02 0. -1.
    10030    2    1    2    0    0  0.00000000000E+00  0.00000000000E+00  0.68211408819E+02  0.14106881587E+04  0.14090380707E+04 0.  0.
        4    1    3    3  502    0 -0.60015854173E+03  0.29640629844E+03 -0.18592083442E+03  0.69470507306E+03  0.12699999809E+01 0. -1.
       -4    1    3    3    0  502  0.60015854173E+03 -0.29640629844E+03  0.25413224324E+03  0.71598308564E+03  0.12699999809E+01 0.  1.
</event>
<event>
 5   0  0.2760807E-03  0.1513921E+04  0.7818609E-02  0.8875248E-01
        2   -1    0    0  501    0  0.00000000000E+00  0.00000000000E+00  0.11654700214E+04  0.11654700214E+04  0.25500000920E-02 0.  1.
       -2   -1    0    0    0  501  0.00000000000E+00  0.00000000000E+00 -0.49163778111E+03  0.49163778112E+03  0.25500000920E-02 0. -1.
    10030    2    1    2    0    0  0.00000000000E+00  0.00000000000E+00  0.67383224029E+03  0.16571078025E+04  0.15139208636E+04 0.  0.
        4    1    3    3  502    0 -0.39535336149E+03  0.63598826620E+03  0.21600524570E+03  0.77938773037E+03  0.12699999809E+01 0. -1.
       -4    1    3    3    0  502  0.39535336149E+03 -0.63598826620E+03  0.45782699460E+03  0.87772007216E+03  0.12699999809E+01 0.  1.
</event>
<event>
 5   0  0.1631380E-03  0.1388320E+04  0.7818609E-02  0.8962317E-01
        1   -1    0    0  501    0  0.00000000000E+00  0.00000000000E+00  0.15919488194E+04  0.15919488194E+04  0.50400001928E-02 0.  1.
       -1   -1    0    0    0  501  0.00000000000E+00  0.00000000000E+00 -0.30268438857E+03  0.30268438861E+03  0.50400001928E-02 0. -1.
    10030    2    1    2    0    0  0.00000000000E+00  0.00000000000E+00  0.12892644309E+04  0.18946332081E+04  0.13883199272E+04 0.  0.
        3    1    3    3  502    0  0.33571358247E+03 -0.60497638504E+03  0.56794159208E+03  0.89512998952E+03  0.10100000352E+00 0. -1.
       -3    1    3    3    0  502 -0.33571358247E+03  0.60497638504E+03  0.72132283878E+03  0.99950321853E+03  0.10100000352E+00 0.  1.
</event>
<event>
 5   0  0.1104538E-03  0.1410763E+04  0.7818609E-02  0.8946065E-01
        4   -1    0    0  501    0  0.00000000000E+00  0.00000000000E+00  0.13638186415E+04  0.13638192329E+04  0.12699999809E+01 0. -1.
       -4   -1    0    0    0  501  0.00000000000E+00  0.00000000000E+00 -0.36482881141E+03  0.36483102189E+03  0.12699999809E+01 0.  1.
    10030    2    1    2    0    0  0.00000000000E+00  0.00000000000E+00  0.99898983012E+03  0.17286502547E+04  0.14107625677E+04 0.  0.
        3    1    3    3  502    0  0.34756600043E+03  0.58066871906E+03  0.25570509532E+03  0.72343858890E+03  0.10100000352E+00 0.  1.
       -3    1    3    3    0  502 -0.34756600043E+03 -0.58066871906E+03  0.74328473481E+03  0.10052116658E+04  0.10100000352E+00 0. -1.
</event>
<event>
 5   0  0.3006737E-03  0.7210959E+03  0.7818609E-02  0.9681820E-01
        2   -1    0    0  501    0  0.00000000000E+00  0.00000000000E+00  0.77738612073E+03  0.77738612073E+03  0.25500000920E-02 0.  1.
       -2   -1    0    0    0  501  0.00000000000E+00  0.00000000000E+00 -0.16722038915E+03  0.16722038917E+03  0.25500000920E-02 0. -1.
    10030    2    1    2    0    0  0.00000000000E+00  0.00000000000E+00  0.61016573157E+03  0.94460650990E+03  0.72109585949E+03 0.  0.
        1    1    3    3  502    0 -0.15000813934E+03  0.27672326041E+03  0.74751103555E+02  0.32352114650E+03  0.50400001928E-02 0. -1.
       -1    1    3    3    0  502  0.15000813934E+03 -0.27672326041E+03  0.53541462802E+03  0.62108536341E+03  0.50400001928E-02 0.  1.
</event>
<event>
 5   0  0.2993993E-03  0.1290026E+04  0.7818609E-02  0.9037512E-01
       -2   -1    0    0    0  501  0.00000000000E+00  0.00000000000E+00  0.21334230629E+03  0.21334230631E+03  0.25500000920E-02 0. -1.
        2   -1    0    0  501    0  0.00000000000E+00  0.00000000000E+00 -0.19501137351E+04  0.19501137351E+04  0.25500000920E-02 0.  1.
    10030    2    1    2    0    0  0.00000000000E+00  0.00000000000E+00 -0.17367714288E+04  0.21634560414E+04  0.12900259870E+04 0.  0.
        3    1    3    3  502    0 -0.23696857993E+03 -0.59220818222E+03 -0.70772760676E+03  0.95275548518E+03  0.10100000352E+00 0.  1.
       -3    1    3    3    0  502  0.23696857993E+03  0.59220818222E+03 -0.10290438221E+04  0.12107005563E+04  0.10100000352E+00 0. -1.
</event>
<event>
 5   0  0.2760807E-03  0.1493081E+04  0.7818609E-02  0.8889067E-01
        2   -1    0    0  501    0  0.00000000000E+00  0.00000000000E+00  0.61477416386E+03  0.61477416387E+03  0.25500000920E-02 0. -1.
       -2   -1    0    0    0  501  0.00000000000E+00  0.00000000000E+00 -0.90654901889E+03  0.90654901889E+03  0.25500000920E-02 0.  1.
    10030    2    1    2    0    0  0.00000000000E+00  0.00000000000E+00 -0.29177485502E+03  0.15213231828E+04  0.14930812638E+04 0.  0.
        4    1    3    3  502    0  0.74983814325E+02  0.69454771878E+03 -0.41412001329E+03  0.81210596869E+03  0.12699999809E+01 0.  1.
       -4    1    3    3    0  502 -0.74983814325E+02 -0.69454771878E+03  0.12234515826E+03  0.70921721407E+03  0.12699999809E+01 0. -1.
</event>
<event>
 5   0  0.1586022E-03  0.1398840E+04  0.7818609E-02  0.8954659E-01
       -1   -1    0    0    0  501  0.00000000000E+00  0.00000000000E+00  0.44394122618E+03  0.44394122621E+03  0.50400001928E-02 0.  1.
        1   -1    0    0  501    0  0.00000000000E+00  0.00000000000E+00 -0.11019214403E+04  0.11019214403E+04  0.50400001928E-02 0. -1.
    10030    2    1    2    0    0  0.00000000000E+00  0.00000000000E+00 -0.65798021414E+03  0.15458626665E+04  0.13988400272E+04 0.  0.
        1    1    3    3  502    0 -0.68692428045E+03  0.13160891935E+03 -0.32724956137E+03  0.77219048827E+03  0.50400001928E-02 0.  1.
       -1    1    3    3    0  502  0.68692428045E+03 -0.13160891935E+03 -0.33073065277E+03  0.77367217827E+03  0.50400001928E-02 0. -1.
</event>
<event>
 5   0  0.2760807E-03  0.1417083E+04  0.7818609E-02  0.8941545E-01
       -2   -1    0    0    0  501  0.00000000000E+00  0.00000000000E+00  0.39967528254E+03  0.39967528255E+03  0.25500000920E-02 0.  1.
        2   -1    0    0  501    0  0.00000000000E+00  0.00000000000E+00 -0.12560973709E+04  0.12560973709E+04  0.25500000920E-02 0. -1.
    10030    2    1    2    0    0  0.00000000000E+00  0.00000000000E+00 -0.85642208840E+03  0.16557726535E+04  0.14170830204E+04 0.  0.
        4    1    3    3  502    0  0.38797239069E+02 -0.69493753283E+03 -0.58316036160E+03  0.90803139843E+03  0.12699999809E+01 0. -1.
       -4    1    3    3    0  502 -0.38797239069E+02  0.69493753283E+03 -0.27326172680E+03  0.74774125507E+03  0.12699999809E+01 0.  1.
</event>
<event>
 5   0  0.1631380E-03  0.1406373E+04  0.7818609E-02  0.8949218E-01
       -1   -1    0    0    0  501  0.00000000000E+00  0.00000000000E+00  0.63147153076E+03  0.63147153078E+03  0.50400001928E-02 0.  1.
        1   -1    0    0  501    0  0.00000000000E+00  0.00000000000E+00 -0.78304648384E+03  0.78304648386E+03  0.50400001928E-02 0. -1.
    10030    2    1    2    0    0  0.00000000000E+00  0.00000000000E+00 -0.15157495308E+03  0.14145180146E+04  0.14063734381E+04 0.  0.
        3    1    3    3  502    0  0.64553780147E+03 -0.26466161568E+03 -0.16408384348E+03  0.71672054654E+03  0.10100000352E+00 0. -1.
       -3    1    3    3    0  502 -0.64553780147E+03  0.26466161568E+03  0.12508890397E+02  0.69779746810E+03  0.10100000352E+00 0.  1.
</event>
<event>
 5   0  0.2993993E-03  0.1431217E+04  0.7818609E-02  0.8931527E-01
        2   -1    0    0  501    0  0.00000000000E+00  0.00000000000E+00  0.20037114232E+04  0.20037114232E+04  0.25500000920E-02 0. -1.
       -2   -1    0    0    0  501  0.00000000000E+00  0.00000000000E+00 -0.25557351144E+03  0.25557351146E+03  0.25500000920E-02 0.  1.
    10030    2    1    2    0    0  0.00000000000E+00  0.00000000000E+00  0.17481379117E+04  0.22592849346E+04  0.14312170546E+04 0.  0.
        3    1    3    3  502    0  0.35530135731E+03 -0.53640726756E+03  0.37958459949E+03  0.74703165232E+03  0.10100000352E+00 0. -1.
       -3    1    3    3    0  502 -0.35530135731E+03  0.53640726756E+03  0.13685533123E+04  0.15122532823E+04  0.10100000352E+00 0.  1.
</event>
<event>
 5   0  0.2993993E-03  0.1427193E+04  0.7818609E-02  0.8934366E-01
       -2   -1    0    0    0  501  0.00000000000E+00  0.00000000000E+00  0.93553317326E+03  0.93553317326E+03  0.25500000920E-02 0. -1.
        2   -1    0    0  501    0  0.00000000000E+00  0.00000000000E+00 -0.54431025107E+03  0.54431025108E+03  0.25500000920E-02 0.  1.
    10030    2    1    2    0    0  0.00000000000E+00  0.00000000000E+00  0.39122292219E+03  0.14798434243E+04  0.14271934647E+04 0.  0.
        3    1    3    3  502    0 -0.33891597828E+03 -0.57972126539E+03 -0.54705817484E+02  0.67374588871E+03  0.10100000352E+00 0. -1.
       -3    1    3    3    0  502  0.33891597828E+03  0.57972126539E+03  0.44592873967E+03  0.80609753563E+03  0.10100000352E+00 0.  1.
</event>
<event>
 5   0  0.1644571E-03  0.1388502E+04  0.7818609E-02  0.8962184E-01
       -1   -1    0    0    0  501  0.00000000000E+00  0.00000000000E+00  0.48983004107E+03  0.48983004110E+03  0.50400001928E-02 0.  1.
        1   -1    0    0  501    0  0.00000000000E+00  0.00000000000E+00 -0.98398267889E+03  0.98398267891E+03  0.50400001928E-02 0. -1.
    10030    2    1    2    0    0  0.00000000000E+00  0.00000000000E+00 -0.49415263782E+03  0.14738127200E+04  0.13885017480E+04 0.  0.
        4    1    3    3  502    0  0.67947448336E+03  0.14017280170E+03 -0.27411027095E+03  0.74597053656E+03  0.12699999809E+01 0. -1.
       -4    1    3    3    0  502 -0.67947448336E+03 -0.14017280170E+03 -0.22004236687E+03  0.72784218344E+03  0.12699999809E+01 0.  1.
</event>
<event>
 5   0  0.1586022E-03  0.1388628E+04  0.7818609E-02  0.8962091E-01
       -1   -1    0    0    0  501  0.00000000000E+00  0.00000000000E+00  0.48550512898E+03  0.48550512900E+03  0.50400001928E-02 0. -1.
        1   -1    0    0  501    0  0.00000000000E+00  0.00000000000E+00 -0.99292898017E+03  0.99292898018E+03  0.50400001928E-02 0.  1.
    10030    2    1    2    0    0  0.00000000000E+00  0.00000000000E+00 -0.50742385119E+03  0.14784341092E+04  0.13886282621E+04 0.  0.
        1    1    3    3  502    0 -0.52395857659E+03  0.45267819121E+03 -0.30822874111E+03  0.75792815731E+03  0.50400001928E-02 0.  1.
       -1    1    3    3    0  502  0.52395857659E+03 -0.45267819121E+03 -0.19919511008E+03  0.72050595187E+03  0.50400001928E-02 0. -1.
</event>
<event>
 5   0  0.3006737E-03  0.1417976E+04  0.7818609E-02  0.8940908E-01
        2   -1    0    0  501    0  0.00000000000E+00  0.00000000000E+00  0.13868010473E+04  0.13868010473E+04  0.25500000920E-02 0.  1.
       -2   -1    0    0    0  501  0.00000000000E+00  0.00000000000E+00 -0.36246315983E+03  0.36246315984E+03  0.25500000920E-02 0. -1.
    10030    2    1    2    0    0  0.00000000000E+00  0.00000000000E+00  0.10243378874E+04  0.17492642071E+04  0.14179764309E+04 0.  0.
        1    1    3    3  502    0  0.38691616554E+03  0.50356778222E+03  0.90106644173E+03  0.11023635348E+04  0.50400001928E-02 0.  1.
       -1    1    3    3    0  502 -0.38691616554E+03 -0.50356778222E+03  0.12327144569E+03  0.64690067228E+03  0.50400001928E-02 0. -1.
</event>
<event>
 5   0  0.1644571E-03  0.1326838E+04  0.7818609E-02  0.9008549E-01
        1   -1    0    0  501    0  0.00000000000E+00  0.00000000000E+00  0.42186960391E+03  0.42186960394E+03  0.50400001928E-02 0.  1.
       -1   -1    0    0    0  501  0.00000000000E+00  0.00000000000E+00 -0.10432716981E+04  0.10432716981E+04  0.50400001928E-02 0. -1.
    10030    2    1    2    0    0  0.00000000000E+00  0.00000000000E+00 -0.62140209416E+03  0.14651413020E+04  0.13268377716E+04 0.  0.
        4    1    3    3  502    0  0.32206047259E+03 -0.49012511263E+03 -0.65315191515E+03  0.87781240092E+03  0.12699999809E+01 0. -1.
       -4    1    3    3    0  502 -0.32206047259E+03  0.49012511263E+03  0.31749820993E+02  0.58732890110E+03  0.12699999809E+01 0.  1.
</event>
<event>
 5   0  0.2889469E-03  0.1382707E+04  0.7818609E-02  0.8966432E-01
       -2   -1    0    0    0  501  0.00000000000E+00  0.00000000000E+00  0.48937787806E+03  0.48937787807E+03  0.25500000920E-02 0. -1.
        2   -1    0    0  501    0  0.00000000000E+00  0.00000000000E+00 -0.97668849980E+03  0.97668849981E+03  0.25500000920E-02 0.  1.
    10030    2    1    2    0    0  0.00000000000E+00  0.00000000000E+00 -0.48731062175E+03  0.14660663779E+04  0.13827071209E+04 0.  0.
        5    1    3    3  502    0  0.17142228449E+03  0.66924021897E+03 -0.21601484171E+03  0.72384568255E+03  0.46999998093E+01 0. -1.
       -5    1    3    3    0  502 -0.17142228449E+03 -0.66924021897E+03 -0.27129578003E+03  0.74222069532E+03  0.46999998093E+01 0.  1.
</event>
<event>
 5   0  0.1700207E-03  0.1412557E+04  0.7818609E-02  0.8944779E-01
       -1   -1    0    0    0  501  0.00000000000E+00  0.00000000000E+00  0.73539575362E+03  0.73539575363E+03  0.50400001928E-02 0. -1.
        1   -1    0    0  501    0  0.00000000000E+00  0.00000000000E+00 -0.67831372158E+03  0.67831372160E+03  0.50400001928E-02 0.  1.
    10030    2    1    2    0    0  0.00000000000E+00  0.00000000000E+00  0.57082032038E+02  0.14137094752E+04  0.14125565907E+04 0.  0.
        2    1    3    3  502    0 -0.16061449590E+03 -0.20673223555E+03  0.68504422872E+03  0.73336268573E+03  0.25500000920E-02 0. -1.
       -2    1    3    3    0  502  0.16061449590E+03  0.20673223555E+03 -0.62796219669E+03  0.68034678950E+03  0.25500000920E-02 0.  1.
</event>
<event>
 5   0  0.1560957E-03  0.9089290E+03  0.7818609E-02  0.9414488E-01
       -1   -1    0    0    0  501  0.00000000000E+00  0.00000000000E+00  0.16936027374E+03  0.16936027381E+03  0.50400001928E-02 0.  1.
        1   -1    0    0  501    0  0.00000000000E+00  0.00000000000E+00 -0.12195184825E+04  0.12195184825E+04  0.50400001928E-02 0. -1.
    10030    2    1    2    0    0  0.00000000000E+00  0.00000000000E+00 -0.10501582087E+04  0.13888787563E+04  0.90892900509E+03 0.  0.
        5    1    3    3  502    0  0.19817448657E+03 -0.37443699007E+03 -0.27381215521E+03  0.50445155664E+03  0.46999998093E+01 0. -1.
       -5    1    3    3    0  502 -0.19817448657E+03  0.37443699007E+03 -0.77634605351E+03  0.88442719963E+03  0.46999998093E+01 0.  1.
</event>
<event>
 5   0  0.1586022E-03  0.1450069E+04  0.7818609E-02  0.8918352E-01
        1   -1    0    0  501    0  0.00000000000E+00  0.00000000000E+00  0.99880934998E+03  0.99880934999E+03  0.50400001928E-02 0. -1.
       -1   -1    0    0    0  501  0.00000000000E+00  0.00000000000E+00 -0.52630192970E+03  0.52630192972E+03  0.50400001928E-02 0.  1.
    10030    2    1    2    0    0  0.00000000000E+00  0.00000000000E+00  0.47250742028E+03  0.15251112797E+04  0.14500693615E+04 0.  0.
        1    1    3    3  502    0 -0.23768559698E+03  0.65611251564E+03  0.29357471322E+02  0.69845539395E+03  0.50400001928E-02 0. -1.
       -1    1    3    3    0  502  0.23768559698E+03 -0.65611251564E+03  0.44314994896E+03  0.82665588577E+03  0.50400001928E-02 0.  1.
</event>
<event>
 5   0  0.2889469E-03  0.1417428E+04  0.7818609E-02  0.8941299E-01
        2   -1    0    0  501    0  0.00000000000E+00  0.00000000000E+00  0.13296103983E+04  0.13296103983E+04  0.25500000920E-02 0. -1.
       -2   -1    0    0    0  501  0.00000000000E+00  0.00000000000E+00 -0.37776142793E+03  0.37776142794E+03  0.25500000920E-02 0.  1.
    10030    2    1    2    0    0  0.00000000000E+00  0.00000000000E+00  0.95184897038E+03  0.17073718263E+04  0.14174279843E+04 0.  0.
        5    1    3    3  502    0  0.40440235022E+03  0.47145506773E+03  0.64886007392E+02  0.62453456727E+03  0.46999998093E+01 0.  1.
       -5    1    3    3    0  502 -0.40440235022E+03 -0.47145506773E+03  0.88696296299E+03  0.10828372590E+04  0.46999998093E+01 0. -1.
</event>
<event>
 5   0  0.1700207E-03  0.1412334E+04  0.7818609E-02  0.8944939E-01
        1   -1    0    0  501    0  0.00000000000E+00  0.00000000000E+00  0.76018484562E+03  0.76018484564E+03  0.50400001928E-02 0. -1.
       -1   -1    0    0    0  501  0.00000000000E+00  0.00000000000E+00 -0.65598734251E+03  0.65598734253E+03  0.50400001928E-02 0.  1.
    10030    2    1    2    0    0  0.00000000000E+00  0.00000000000E+00  0.10419750311E+03  0.14161721882E+04  0.14123337236E+04 0.  0.
        2    1    3    3  502    0 -0.67382298239E+03 -0.17033331764E+03 -0.73224072718E+02  0.69886523416E+03  0.25500000920E-02 0.  1.
       -2    1    3    3    0  502  0.67382298239E+03  0.17033331764E+03  0.17742157583E+03  0.71730695401E+03  0.25500000920E-02 0. -1.
</event>
<event>
 5   0  0.1631380E-03  0.1354274E+04  0.7818609E-02  0.8987599E-01
        1   -1    0    0  501    0  0.00000000000E+00  0.00000000000E+00  0.99840117396E+03  0.99840117397E+03  0.50400001928E-02 0.  1.
       -1   -1    0    0    0  501  0.00000000000E+00  0.00000000000E+00 -0.45924908504E+03  0.45924908507E+03  0.50400001928E-02 0. -1.
    10030    2    1    2    0    0  0.00000000000E+00  0.00000000000E+00  0.53915208892E+03  0.14576502590E+04  0.13542744562E+04 0.  0.
        3    1    3    3  502    0 -0.48969615891E+03  0.38366354958E+03 -0.18259560442E+02  0.62236120466E+03  0.10100000352E+00 0. -1.
       -3    1    3    3    0  502  0.48969615891E+03 -0.38366354958E+03  0.55741164936E+03  0.83528905438E+03  0.10100000352E+00 0.  1.
</event>
<event>
 5   0  0.2993993E-03  0.1390135E+04  0.7818609E-02  0.8960990E-01
       -2   -1    0    0    0  501  0.00000000000E+00  0.00000000000E+00  0.48248429314E+03  0.48248429315E+03  0.25500000920E-02 0. -1.
        2   -1    0    0  501    0  0.00000000000E+00  0.00000000000E+00 -0.10013156217E+04  0.10013156217E+04  0.25500000920E-02 0.  1.
    10030    2    1    2    0    0  0.00000000000E+00  0.00000000000E+00 -0.51883132856E+03  0.14837999149E+04  0.13901353315E+04 0.  0.
        3    1    3    3  502    0 -0.47611032107E+03 -0.12446726735E+03  0.26452009531E+03  0.55869851396E+03  0.10100000352E+00 0. -1.
       -3    1    3    3    0  502  0.47611032107E+03  0.12446726735E+03 -0.78335142386E+03  0.92510140090E+03  0.10100000352E+00 0.  1.
</event>
<event>
 5   0  0.2889469E-03  0.1392946E+04  0.7818609E-02  0.8958941E-01
        2   -1    0    0  501    0  0.00000000000E+00  0.00000000000E+00  0.20663060222E+04  0.20663060222E+04  0.25500000920E-02 0.  1.
       -2   -1    0    0    0  501  0.00000000000E+00  0.00000000000E+00 -0.23475440663E+03  0.23475440664E+03  0.25500000920E-02 0. -1.
    10030    2    1    2    0    0  0.00000000000E+00  0.00000000000E+00  0.18315516156E+04  0.23010604289E+04  0.13929457192E+04 0.  0.
        5    1    3    3  502    0  0.43075285242E+03 -0.51365219824E+03  0.60380099473E+03  0.90221080234E+03  0.46999998093E+01 0. -1.
       -5    1    3    3    0  502 -0.43075285242E+03  0.51365219824E+03  0.12277506209E+04  0.13988496265E+04  0.46999998093E+01 0.  1.
</event>
<event>
 5   0  0.3006737E-03  0.1409671E+04  0.7818609E-02  0.8946848E-01
       -2   -1    0    0    0  501  0.00000000000E+00  0.00000000000E+00  0.41814298446E+03  0.41814298447E+03  0.25500000920E-02 0. -1.
        2   -1    0    0  501    0  0.00000000000E+00  0.00000000000E+00 -0.11880944170E+04  0.11880944170E+04  0.25500000920E-02 0.  1.
    10030    2    1    2    0    0  0.00000000000E+00  0.00000000000E+00 -0.76995143253E+03  0.16062374015E+04  0.14096713735E+04 0.  0.
        1    1    3    3  502    0 -0.16252356619E+03  0.60286037996E+03 -0.75759000335E+03  0.98173171513E+03  0.50400001928E-02 0.  1.
       -1    1    3    3    0  502  0.16252356619E+03 -0.60286037996E+03 -0.12361429178E+02  0.62450568633E+03  0.50400001928E-02 0. -1.
</event>
<event>
 5   0  0.1644571E-03  0.1379116E+04  0.7818609E-02  0.8969076E-01
        1   -1    0    0  501    0  0.00000000000E+00  0.00000000000E+00  0.10203170500E+04  0.10203170500E+04  0.50400001928E-02 0.  1.
       -1   -1    0    0    0  501  0.00000000000E+00  0.00000000000E+00 -0.46602174775E+03  0.46602174777E+03  0.50400001928E-02 0. -1.
    10030    2    1    2    0    0  0.00000000000E+00  0.00000000000E+00  0.55429530227E+03  0.14863387978E+04  0.13791155643E+04 0.  0.
        4    1    3    3  502    0 -0.39570022437E+02  0.55539465952E+03  0.71553978779E+03  0.90665749614E+03  0.12699999809E+01 0. -1.
       -4    1    3    3    0  502  0.39570022437E+02 -0.55539465952E+03 -0.16124448551E+03  0.57968130167E+03  0.12699999809E+01 0.  1.
</event>
<event>
 5   0  0.1631380E-03  0.1402688E+04  0.7818609E-02  0.8951875E-01
       -1   -1    0    0    0  501  0.00000000000E+00  0.00000000000E+00  0.96009111811E+03  0.96009111813E+03  0.50400001928E-02 0.  1.
        1   -1    0    0  501    0  0.00000000000E+00  0.00000000000E+00 -0.51232982630E+03  0.51232982632E+03  0.50400001928E-02 0. -1.
    10030    2    1    2    0    0  0.00000000000E+00  0.00000000000E+00  0.44776129182E+03  0.14724209444E+04  0.14026878709E+04 0.  0.
        3    1    3    3  502    0 -0.79949373006E+02  0.68999525512E+03  0.12211819952E+03  0.70526464479E+03  0.10100000352E+00 0.  1.
       -3    1    3    3    0  502  0.79949373006E+02 -0.68999525512E+03  0.32564309230E+03  0.76715629966E+03  0.10100000352E+00 0. -1.
</event>
<event>
 5   0  0.1586022E-03  0.1399353E+04  0.7818609E-02  0.8954287E-01
        1   -1    0    0  501    0  0.00000000000E+00  0.00000000000E+00  0.12299973423E+04  0.12299973423E+04  0.50400001928E-02 0. -1.
       -1   -1    0    0    0  501  0.00000000000E+00  0.00000000000E+00 -0.39800699858E+03  0.39800699861E+03  0.50400001928E-02 0.  1.
    10030    2    1    2    0    0  0.00000000000E+00  0.00000000000E+00  0.83199034370E+03  0.16280043409E+04  0.13993534943E+04 0.  0.
        1    1    3    3  502    0  0.96700283056E+02 -0.13073957797E+03  0.12077072664E+04  0.12186060165E+04  0.50400001928E-02 0. -1.
       -1    1    3    3    0  502 -0.96700283056E+02  0.13073957797E+03 -0.37571692273E+03  0.40939832442E+03  0.50400001928E-02 0.  1.
</event>
<event>
 5   0  0.2917809E-03  0.1401387E+04  0.7818609E-02  0.8952815E-01
       -2   -1    0    0    0  501  0.00000000000E+00  0.00000000000E+00  0.43201243893E+03  0.43201243894E+03  0.25500000920E-02 0.  1.
        2   -1    0    0  501    0  0.00000000000E+00  0.00000000000E+00 -0.11364747136E+04  0.11364747136E+04  0.25500000920E-02 0. -1.
    10030    2    1    2    0    0  0.00000000000E+00  0.00000000000E+00 -0.70446227463E+03  0.15684871525E+04  0.14013867600E+04 0.  0.
        2    1    3    3  502    0  0.10795328408E+03 -0.70183378627E+02 -0.11231194269E+04  0.11304763886E+04  0.25500000920E-02 0. -1.
       -2    1    3    3    0  502 -0.10795328408E+03  0.70183378627E+02  0.41865715223E+03  0.43801076390E+03  0.25500000920E-02 0.  1.
</event>
<event>
 5   0  0.1586022E-03  0.9299621E+03  0.7818609E-02  0.9388883E-01
       -1   -1    0    0    0  501  0.00000000000E+00  0.00000000000E+00  0.15320288965E+03  0.15320288973E+03  0.50400001928E-02 0. -1.
        1   -1    0    0  501    0  0.00000000000E+00  0.00000000000E+00 -0.14112488356E+04  0.14112488356E+04  0.50400001928E-02 0.  1.
    10030    2    1    2    0    0  0.00000000000E+00  0.00000000000E+00 -0.12580459459E+04  0.15644517253E+04  0.92996214910E+03 0.  0.
        1    1    3    3  502    0  0.35104600307E+03 -0.24452812138E+03 -0.32258982154E+03  0.53580919309E+03  0.50400001928E-02 0. -1.
       -1    1    3    3    0  502 -0.35104600307E+03  0.24452812138E+03 -0.93545612436E+03  0.10286425322E+04  0.50400001928E-02 0.  1.
</event>
<event>
 5   0  0.1104538E-03  0.1424281E+04  0.7818609E-02  0.8936428E-01
        4   -1    0    0  501    0  0.00000000000E+00  0.00000000000E+00  0.82836132457E+03  0.82836229812E+03  0.12699999809E+01 0.  1.
       -4   -1    0    0    0  501  0.00000000000E+00  0.00000000000E+00 -0.61222402902E+03  0.61222534626E+03  0.12699999809E+01 0. -1.
    10030    2    1    2    0    0  0.00000000000E+00  0.00000000000E+00  0.21613729556E+03  0.14405876444E+04  0.14242813734E+04 0.  0.
        1    1    3    3  502    0  0.16176816326E+02  0.46665529896E+03  0.65191920630E+03  0.80188996066E+03  0.50400001928E-02 0.  1.
       -1    1    3    3    0  502 -0.16176816326E+02 -0.46665529896E+03 -0.43578191074E+03  0.63869768372E+03  0.50400001928E-02 0. -1.
</event>
<event>
 5   0  0.1644571E-03  0.1382673E+04  0.7818609E-02  0.8966457E-01
        1   -1    0    0  501    0  0.00000000000E+00  0.00000000000E+00  0.69862635865E+03  0.69862635867E+03  0.50400001928E-02 0. -1.
       -1   -1    0    0    0  501  0.00000000000E+00  0.00000000000E+00 -0.68412231324E+03  0.68412231326E+03  0.50400001928E-02 0.  1.
    10030    2    1    2    0    0  0.00000000000E+00  0.00000000000E+00  0.14504045404E+02  0.13827486719E+04  0.13826726013E+04 0.  0.
        4    1    3    3  502    0 -0.65925193060E+03 -0.10966010265E+03  0.18419626926E+03  0.69323035466E+03  0.12699999809E+01 0. -1.
       -4    1    3    3    0  502  0.65925193060E+03  0.10966010265E+03 -0.16969222386E+03  0.68951831727E+03  0.12699999809E+01 0.  1.
</event>
<event>
 5   0  0.3006737E-03  0.1337339E+04  0.7818609E-02  0.9000468E-01
       -2   -1    0    0    0  501  0.00000000000E+00  0.00000000000E+00  0.85784575829E+03  0.85784575829E+03  0.25500000920E-02 0.  1.
        2   -1    0    0  501    0  0.00000000000E+00  0.00000000000E+00 -0.52121162639E+03  0.52121162640E+03  0.25500000920E-02 0. -1.
    10030    2    1    2    0    0  0.00000000000E+00  0.00000000000E+00  0.33663413190E+03  0.13790573847E+04  0.13373394227E+04 0.  0.
        1    1    3    3  502    0  0.47636921343E+03 -0.35736044567E+03 -0.14528325562E+03  0.61297743843E+03  0.50400001928E-02 0. -1.
       -1    1    3    3    0  502 -0.47636921343E+03  0.35736044567E+03  0.48191738752E+03  0.76607994626E+03  0.50400001928E-02 0.  1.
</event>
<event>
 5   0  0.2993993E-03  0.1392978E+04  0.7818609E-02  0.8958917E-01
       -2   -1    0    0    0  501  0.00000000000E+00  0.00000000000E+00  0.35663691856E+03  0.35663691857E+03  0.25500000920E-02 0.  1.
        2   -1    0    0  501    0  0.00000000000E+00  0.00000000000E+00 -0.13601977154E+04  0.13601977154E+04  0.25500000920E-02 0. -1.
    10030    2    1    2    0    0  0.00000000000E+00  0.00000000000E+00 -0.10035607968E+04  0.17168346339E+04  0.13929777053E+04 0.  0.
        3    1    3    3  502    0  0.43261700510E+03 -0.44720374907E+03 -0.88750930578E+03  0.10838918047E+04  0.10100000352E+00 0.  1.
       -3    1    3    3    0  502 -0.43261700510E+03  0.44720374907E+03 -0.11605149102E+03  0.63294282922E+03  0.10100000352E+00 0. -1.
</event>
<event>
 5   0  0.1700207E-03  0.1458331E+04  0.7818609E-02  0.8912645E-01
        1   -1    0    0  501    0  0.00000000000E+00  0.00000000000E+00  0.77224770747E+03  0.77224770749E+03  0.50400001928E-02 0.  1.
       -1   -1    0    0    0  501  0.00000000000E+00  0.00000000000E+00 -0.68848717634E+03  0.68848717636E+03  0.50400001928E-02 0. -1.
    10030    2    1    2    0    0  0.00000000000E+00  0.00000000000E+00  0.83760531134E+02  0.14607348838E+04  0.14583314350E+04 0.  0.
        2    1    3    3  502    0  0.71078871049E+03 -0.12587797056E+03  0.14508788466E+03  0.73628550761E+03  0.25500000920E-02 0.  1.
       -2    1    3    3    0  502 -0.71078871049E+03  0.12587797056E+03 -0.61327353524E+02  0.72444937624E+03  0.25500000920E-02 0. -1.
</event>
<event>
 5   0  0.1104538E-03  0.1395227E+04  0.7818609E-02  0.8957281E-01
       -3   -1    0    0    0  501  0.00000000000E+00  0.00000000000E+00  0.63327041539E+03  0.63327042344E+03  0.10100000352E+00 0. -1.
        3   -1    0    0  501    0  0.00000000000E+00  0.00000000000E+00 -0.76849429207E+03  0.76849429870E+03  0.10100000352E+00 0.  1.
    10030    2    1    2    0    0  0.00000000000E+00  0.00000000000E+00 -0.13522387668E+03  0.14017647221E+04  0.13952271641E+04 0.  0.
        3    1    3    3  502    0 -0.31844704987E+03  0.90155801784E+02 -0.68459700667E+03  0.76040098890E+03  0.10100000352E+00 0.  1.
       -3    1    3    3    0  502  0.31844704987E+03 -0.90155801784E+02  0.54937312999E+03  0.64136373325E+03  0.10100000352E+00 0. -1.
</event>
<event>
 5   0  0.1560957E-03  0.1421239E+04  0.7818609E-02  0.8938587E-01
       -1   -1    0    0    0  501  0.00000000000E+00  0.00000000000E+00  0.26111756736E+03  0.26111756741E+03  0.50400001928E-02 0. -1.
        1   -1    0    0  501    0  0.00000000000E+00  0.00000000000E+00 -0.19339183389E+04  0.19339183389E+04  0.50400001928E-02 0.  1.
    10030    2    1    2    0    0  0.00000000000E+00  0.00000000000E+00 -0.16728007715E+04  0.21950359063E+04  0.14212389696E+04 0.  0.
        5    1    3    3  502    0 -0.44136189274E+03  0.14807544196E+03 -0.72274925650E+01  0.46561892522E+03  0.46999998093E+01 0. -1.
       -5    1    3    3    0  502  0.44136189274E+03 -0.14807544196E+03 -0.16655732790E+04  0.17294169811E+04  0.46999998093E+01 0.  1.
</event>
<event>
 5   0  0.2889469E-03  0.1392989E+04  0.7818609E-02  0.8958909E-01
       -2   -1    0    0    0  501  0.00000000000E+00  0.00000000000E+00  0.11376865660E+04  0.11376865660E+04  0.25500000920E-02 0. -1.
        2   -1    0    0  501    0  0.00000000000E+00  0.00000000000E+00 -0.42639559002E+03  0.42639559003E+03  0.25500000920E-02 0.  1.
    10030    2    1    2    0    0  0.00000000000E+00  0.00000000000E+00  0.71129097603E+03  0.15640821561E+04  0.13929889226E+04 0.  0.
        5    1    3    3  502    0  0.51368558370E+03 -0.40695744153E+03  0.62039219830E+03  0.90243881113E+03  0.46999998093E+01 0. -1.
       -5    1    3    3    0  502 -0.51368558370E+03  0.40695744153E+03  0.90898777724E+02  0.66164334494E+03  0.46999998093E+01 0.  1.
</event>
<event>
 5   0  0.3006737E-03  0.7863039E+03  0.7818609E-02  0.9580056E-01
       -2   -1    0    0    0  501  0.00000000000E+00  0.00000000000E+00  0.76251308800E+03  0.76251308800E+03  0.25500000920E-02 0.  1.
        2   -1    0    0  501    0  0.00000000000E+00  0.00000000000E+00 -0.20270922446E+03  0.20270922447E+03  0.25500000920E-02 0. -1.
    10030    2    1    2    0    0  0.00000000000E+00  0.00000000000E+00  0.55980386354E+03  0.96522231248E+03  0.78630385149E+03 0.  0.
        1    1    3    3  502    0 -0.15285649395E+03  0.17813924011E+03  0.66705476453E+03  0.70714974052E+03  0.50400001928E-02 0.  1.
       -1    1    3    3    0  502  0.15285649395E+03 -0.17813924011E+03 -0.10725090098E+03  0.25807257196E+03  0.50400001928E-02 0. -1.
</event>
<event>
 5   0  0.1560957E-03  0.1557171E+04  0.7818609E-02  0.8847300E-01
       -1   -1    0    0    0  501  0.00000000000E+00  0.00000000000E+00  0.32561262415E+03  0.32561262419E+03  0.50400001928E-02 0.  1.
        1   -1    0    0  501    0  0.00000000000E+00  0.00000000000E+00 -0.18617070145E+04  0.18617070145E+04  0.50400001928E-02 0. -1.
    10030    2    1    2    0    0  0.00000000000E+00  0.00000000000E+00 -0.15360943903E+04  0.21873196387E+04  0.15571709045E+04 0.  0.
        5    1    3    3  502    0  0.31585686489E+03 -0.61357566392E+03 -0.12743787256E+04  0.14492425197E+04  0.46999998093E+01 0. -1.
       -5    1    3    3    0  502 -0.31585686489E+03  0.61357566392E+03 -0.26171566466E+03  0.73807711899E+03  0.46999998093E+01 0.  1.
</event>
<event>
 5   0  0.1644571E-03  0.1349216E+04  0.7818609E-02  0.8991422E-01
        1   -1    0    0  501    0  0.00000000000E+00  0.00000000000E+00  0.20901390220E+04  0.20901390220E+04  0.50400001928E-02 0.  1.
       -1   -1    0    0    0  501  0.00000000000E+00  0.00000000000E+00 -0.21773468770E+03  0.21773468776E+03  0.50400001928E-02 0. -1.
    10030    2    1    2    0    0  0.00000000000E+00  0.00000000000E+00  0.18724043343E+04  0.23078737098E+04  0.13492157237E+04 0.  0.
        4    1    3    3  502    0  0.47566081081E+02 -0.13995416998E+03 -0.18969091682E+03  0.24048691979E+03  0.12699999809E+01 0. -1.
       -4    1    3    3    0  502 -0.47566081081E+02  0.13995416998E+03  0.20620952512E+04  0.20673867900E+04  0.12699999809E+01 0.  1.
</event>
<event>
 5   0  0.2760807E-03  0.1402286E+04  0.7818609E-02  0.8952165E-01
        2   -1    0    0  501    0  0.00000000000E+00  0.00000000000E+00  0.55220426609E+03  0.55220426609E+03  0.25500000920E-02 0.  1.
       -2   -1    0    0    0  501  0.00000000000E+00  0.00000000000E+00 -0.89025320260E+03  0.89025320260E+03  0.25500000920E-02 0. -1.
    10030    2    1    2    0    0  0.00000000000E+00  0.00000000000E+00 -0.33804893651E+03  0.14424574687E+04  0.14022861568E+04 0.  0.
        4    1    3    3  502    0  0.61094508284E+03 -0.27908041561E+02  0.18367885417E+03  0.63857050307E+03  0.12699999809E+01 0.  1.
       -4    1    3    3    0  502 -0.61094508284E+03  0.27908041561E+02 -0.52172779067E+03  0.80388696562E+03  0.12699999809E+01 0. -1.
</event>
<event>
 5   0  0.3006737E-03  0.1319679E+04  0.7818609E-02  0.9014103E-01
       -2   -1    0    0    0  501  0.00000000000E+00  0.00000000000E+00  0.27519098470E+03  0.27519098471E+03  0.25500000920E-02 0.  1.
        2   -1    0    0  501    0  0.00000000000E+00  0.00000000000E+00 -0.15821309013E+04  0.15821309013E+04  0.25500000920E-02 0. -1.
    10030    2    1    2    0    0  0.00000000000E+00  0.00000000000E+00 -0.13069399166E+04  0.18573218860E+04  0.13196789923E+04 0.  0.
        1    1    3    3  502    0 -0.63625770471E+03 -0.12371910473E+03 -0.47962346805E+03  0.80633054934E+03  0.50400001928E-02 0. -1.
       -1    1    3    3    0  502  0.63625770471E+03  0.12371910473E+03 -0.82731644852E+03  0.10509913366E+04  0.50400001928E-02 0.  1.
</event>
<event>
 5   0  0.2889469E-03  0.1390804E+04  0.7818609E-02  0.8960502E-01
       -2   -1    0    0    0  501  0.00000000000E+00  0.00000000000E+00  0.81227722159E+03  0.81227722159E+03  0.25500000920E-02 0. -1.
        2   -1    0    0  501    0  0.00000000000E+00  0.00000000000E+00 -0.59534336159E+03  0.59534336159E+03  0.25500000920E-02 0.  1.
    10030    2    1    2    0    0  0.00000000000E+00  0.00000000000E+00  0.21693386000E+03  0.14076205832E+04  0.13908038706E+04 0.  0.
        5    1    3    3  502    0 -0.58301631241E+03  0.33743460679E+03  0.28315644170E+03  0.73073236884E+03  0.46999998093E+01 0.  1.
       -5    1    3    3    0  502  0.58301631241E+03 -0.33743460679E+03 -0.66222581703E+02  0.67688821435E+03  0.46999998093E+01 0. -1.
</event>
<event>
 5   0  0.2889469E-03  0.1405136E+04  0.7818609E-02  0.8950109E-01
        2   -1    0    0  501    0  0.00000000000E+00  0.00000000000E+00  0.94955338326E+03  0.94955338326E+03  0.25500000920E-02 0. -1.
       -2   -1    0    0    0  501  0.00000000000E+00  0.00000000000E+00 -0.51982508567E+03  0.51982508568E+03  0.25500000920E-02 0.  1.
    10030    2    1    2    0    0  0.00000000000E+00  0.00000000000E+00  0.42972829758E+03  0.14693784689E+04  0.14051358209E+04 0.  0.
        5    1    3    3  502    0 -0.24583795240E+02  0.14058007839E+03 -0.50449115653E+03  0.52430958263E+03  0.46999998093E+01 0.  1.
       -5    1    3    3    0  502  0.24583795240E+02 -0.14058007839E+03  0.93421945411E+03  0.94506888631E+03  0.46999998093E+01 0. -1.
</event>
<event>
 5   0  0.2889469E-03  0.1403241E+04  0.7818609E-02  0.8951476E-01
       -2   -1    0    0    0  501  0.00000000000E+00  0.00000000000E+00  0.10075255413E+04  0.10075255413E+04  0.25500000920E-02 0. -1.
        2   -1    0    0  501    0  0.00000000000E+00  0.00000000000E+00 -0.48859421164E+03  0.48859421165E+03  0.25500000920E-02 0.  1.
    10030    2    1    2    0    0  0.00000000000E+00  0.00000000000E+00  0.51893132967E+03  0.14961197530E+04  0.14032407457E+04 0.  0.
        5    1    3    3  502    0 -0.64625293655E+03  0.22693513478E+02  0.54967908831E+03  0.84872082788E+03  0.46999998093E+01 0. -1.
       -5    1    3    3    0  502  0.64625293655E+03 -0.22693513478E+02 -0.30747758634E+02  0.64739892509E+03  0.46999998093E+01 0.  1.
</event>
<event>
 5   0  0.1560957E-03  0.1392734E+04  0.7818609E-02  0.8959095E-01
       -1   -1    0    0    0  501  0.00000000000E+00  0.00000000000E+00  0.24881534130E+03  0.24881534135E+03  0.50400001928E-02 0.  1.
        1   -1    0    0  501    0  0.00000000000E+00  0.00000000000E+00 -0.19489421824E+04  0.19489421824E+04  0.50400001928E-02 0. -1.
    10030    2    1    2    0    0  0.00000000000E+00  0.00000000000E+00 -0.17001268411E+04  0.21977575237E+04  0.13927335917E+04 0.  0.
        5    1    3    3  502    0 -0.30521369476E+03  0.46704095624E+03 -0.15075911380E+04  0.16075247381E+04  0.46999998093E+01 0. -1.
       -5    1    3    3    0  502  0.30521369476E+03 -0.46704095624E+03 -0.19253570310E+03  0.59023278564E+03  0.46999998093E+01 0.  1.
</event>
<event>
 5   0  0.3006737E-03  0.1404716E+04  0.7818609E-02  0.8950412E-01
        2   -1    0    0  501    0  0.00000000000E+00  0.00000000000E+00  0.47700791176E+03  0.47700791177E+03  0.25500000920E-02 0.  1.
       -2   -1    0    0    0  501  0.00000000000E+00  0.00000000000E+00 -0.10341690562E+04  0.10341690562E+04  0.25500000920E-02 0. -1.
    10030    2    1    2    0    0  0.00000000000E+00  0.00000000000E+00 -0.55716114446E+03  0.15111769680E+04  0.14047160879E+04 0.  0.
        1    1    3    3  502    0 -0.50247150640E+02 -0.12220186159E+03 -0.10206785297E+04  0.10291951866E+04  0.50400001928E-02 0. -1.
       -1    1    3    3    0  502  0.50247150640E+02  0.12220186159E+03  0.46351738525E+03  0.48198178138E+03  0.50400001928E-02 0.  1.
</event>
<event>
 5   0  0.1700207E-03  0.1371571E+04  0.7818609E-02  0.8974658E-01
       -1   -1    0    0    0  501  0.00000000000E+00  0.00000000000E+00  0.85066525872E+03  0.85066525874E+03  0.50400001928E-02 0. -1.
        1   -1    0    0  501    0  0.00000000000E+00  0.00000000000E+00 -0.55286378022E+03  0.55286378025E+03  0.50400001928E-02 0.  1.
    10030    2    1    2    0    0  0.00000000000E+00  0.00000000000E+00  0.29780147850E+03  0.14035290390E+04  0.13715713772E+04 0.  0.
        2    1    3    3  502    0 -0.15637288451E+03 -0.46003706975E+03  0.64413506278E+03  0.80684358067E+03  0.25500000920E-02 0. -1.
       -2    1    3    3    0  502  0.15637288451E+03  0.46003706975E+03 -0.34633358428E+03  0.59668545832E+03  0.25500000920E-02 0.  1.
</event>
<event>
 5   0  0.1700207E-03  0.1428463E+04  0.7818609E-02  0.8933469E-01
        1   -1    0    0  501    0  0.00000000000E+00  0.00000000000E+00  0.16523641724E+04  0.16523641724E+04  0.50400001928E-02 0. -1.
       -1   -1    0    0    0  501  0.00000000000E+00  0.00000000000E+00 -0.30872533848E+03  0.30872533852E+03  0.50400001928E-02 0.  1.
    10030    2    1    2    0    0  0.00000000000E+00  0.00000000000E+00  0.13436388339E+04  0.19610895110E+04  0.14284630740E+04 0.  0.
        2    1    3    3  502    0  0.38877170055E+03 -0.31140453868E+03  0.13745481622E+04  0.14620187660E+04  0.25500000920E-02 0. -1.
       -2    1    3    3    0  502 -0.38877170055E+03  0.31140453868E+03 -0.30909328307E+02  0.49907074493E+03  0.25500000920E-02 0.  1.
</event>
<event>
 5   0  0.1631380E-03  0.1405325E+04  0.7818609E-02  0.8949973E-01
        1   -1    0    0  501    0  0.00000000000E+00  0.00000000000E+00  0.10111005993E+04  0.10111005993E+04  0.50400001928E-02 0.  1.
       -1   -1    0    0    0  501  0.00000000000E+00  0.00000000000E+00 -0.48831433514E+03  0.48831433517E+03  0.50400001928E-02 0. -1.
    10030    2    1    2    0    0  0.00000000000E+00  0.00000000000E+00  0.52278626411E+03  0.14994149344E+04  0.14053254668E+04 0.  0.
        3    1    3    3  502    0  0.36622050354E+03  0.35399016371E+03  0.77785570849E+03  0.92977739629E+03  0.10100000352E+00 0.  1.
       -3    1    3    3    0  502 -0.36622050354E+03 -0.35399016371E+03 -0.25506944437E+03  0.56963753815E+03  0.10100000352E+00 0. -1.
</event>
<event>
 5   0  0.3006737E-03  0.1390356E+04  0.7818609E-02  0.8960829E-01
        2   -1    0    0  501    0  0.00000000000E+00  0.00000000000E+00  0.16068407979E+04  0.16068407979E+04  0.25500000920E-02 0.  1.
       -2   -1    0    0    0  501  0.00000000000E+00  0.00000000000E+00 -0.30075918923E+03  0.30075918924E+03  0.25500000920E-02 0. -1.
    10030    2    1    2    0    0  0.00000000000E+00  0.00000000000E+00  0.13060816087E+04  0.19075999871E+04  0.13903555453E+04 0.  0.
        1    1    3    3  502    0 -0.61660549978E+03 -0.86558703494E+02  0.10772098844E+04  0.12442169773E+04  0.50400001928E-02 0.  1.
       -1    1    3    3    0  502  0.61660549978E+03  0.86558703494E+02  0.22887172421E+03  0.66338300979E+03  0.50400001928E-02 0. -1.
</event>
<event>
 5   0  0.1644571E-03  0.1400047E+04  0.7818609E-02  0.8953785E-01
       -1   -1    0    0    0  501  0.00000000000E+00  0.00000000000E+00  0.22144996094E+03  0.22144996099E+03  0.50400001928E-02 0. -1.
        1   -1    0    0  501    0  0.00000000000E+00  0.00000000000E+00 -0.22128379374E+04  0.22128379374E+04  0.50400001928E-02 0.  1.
    10030    2    1    2    0    0  0.00000000000E+00  0.00000000000E+00 -0.19913879764E+04  0.24342878984E+04  0.14000469633E+04 0.  0.
        4    1    3    3  502    0 -0.10238423548E+03  0.62854549329E+03 -0.49032978986E+03  0.80372687185E+03  0.12699999809E+01 0.  1.
       -4    1    3    3    0  502  0.10238423548E+03 -0.62854549329E+03 -0.15010581866E+04  0.16305610265E+04  0.12699999809E+01 0. -1.
</event>
<event>
 5   0  0.1644571E-03  0.8346023E+03  0.7818609E-02  0.9511239E-01
       -1   -1    0    0    0  501  0.00000000000E+00  0.00000000000E+00  0.18510498739E+03  0.18510498746E+03  0.50400001928E-02 0.  1.
        1   -1    0    0  501    0  0.00000000000E+00  0.00000000000E+00 -0.94076483501E+03  0.94076483502E+03  0.50400001928E-02 0. -1.
    10030    2    1    2    0    0  0.00000000000E+00  0.00000000000E+00 -0.75565984762E+03  0.11258698225E+04  0.83460233158E+03 0.  0.
        4    1    3    3  502    0 -0.38918791563E+03 -0.85570360113E+02 -0.54495840451E+03  0.67510798822E+03  0.12699999809E+01 0. -1.
       -4    1    3    3    0  502  0.38918791563E+03  0.85570360113E+02 -0.21070144311E+03  0.45076183427E+03  0.12699999809E+01 0.  1.
</event>
<event>
 5   0  0.1560957E-03  0.1382598E+04  0.7818609E-02  0.8966512E-01
        1   -1    0    0  501    0  0.00000000000E+00  0.00000000000E+00  0.24270787983E+04  0.24270787983E+04  0.50400001928E-02 0.  1.
       -1   -1    0    0    0  501  0.00000000000E+00  0.00000000000E+00 -0.19690092050E+03  0.19690092056E+03  0.50400001928E-02 0. -1.
    10030    2    1    2    0    0  0.00000000000E+00  0.00000000000E+00  0.22301778778E+04  0.26239797189E+04  0.13825976271E+04 0.  0.
        5    1    3    3  502    0 -0.55729907113E+03 -0.39662880820E+03  0.13046405616E+04  0.14730939383E+04  0.46999998093E+01 0. -1.
       -5    1    3    3    0  502  0.55729907113E+03  0.39662880820E+03  0.92553731620E+03  0.11508857805E+04  0.46999998093E+01 0.  1.
</event>
<event>
 5   0  0.2917809E-03  0.1440078E+04  0.7818609E-02  0.8925308E-01
       -2   -1    0    0    0  501  0.00000000000E+00  0.00000000000E+00  0.74438011990E+03  0.74438011990E+03  0.25500000920E-02 0.  1.
        2   -1    0    0  501    0  0.00000000000E+00  0.00000000000E+00 -0.69649368603E+03  0.69649368604E+03  0.25500000920E-02 0. -1.
    10030    2    1    2    0    0  0.00000000000E+00  0.00000000000E+00  0.47886433865E+02  0.14408738059E+04  0.14400778500E+04 0.  0.
        2    1    3    3  502    0 -0.27475295579E+03 -0.32839091899E+03  0.60316410199E+03  0.73968690425E+03  0.25500000920E-02 0.  1.
       -2    1    3    3    0  502  0.27475295579E+03  0.32839091899E+03 -0.55527766812E+03  0.70118690169E+03  0.25500000920E-02 0. -1.
</event>
<event>
 5   0  0.2760807E-03  0.1404862E+04  0.7818609E-02  0.8950307E-01
       -2   -1    0    0    0  501  0.00000000000E+00  0.00000000000E+00  0.12714338360E+04  0.12714338360E+04  0.25500000920E-02 0.  1.
        2   -1    0    0  501    0  0.00000000000E+00  0.00000000000E+00 -0.38807311729E+03  0.38807311730E+03  0.25500000920E-02 0. -1.
    10030    2    1    2    0    0  0.00000000000E+00  0.00000000000E+00  0.88336071868E+03  0.16595069533E+04  0.14048619750E+04 0.  0.
        4    1    3    3  502    0  0.20716150580E+03  0.34146835678E+02  0.12334996696E+04  0.12512413611E+04  0.12699999809E+01 0.  1.
       -4    1    3    3    0  502 -0.20716150580E+03 -0.34146835678E+02 -0.35013895095E+03  0.40826559216E+03  0.12699999809E+01 0. -1.
</event>
<event>
 5   0  0.2889469E-03  0.1456386E+04  0.7818609E-02  0.8913985E-01
       -2   -1    0    0    0  501  0.00000000000E+00  0.00000000000E+00  0.56979555299E+03  0.56979555299E+03  0.25500000920E-02 0. -1.
        2   -1    0    0  501    0  0.00000000000E+00  0.00000000000E+00 -0.93062359940E+03  0.93062359940E+03  0.25500000920E-02 0.  1.
    10030    2    1    2    0    0  0.00000000000E+00  0.00000000000E+00 -0.36082804641E+03  0.15004191524E+04  0.14563861966E+04 0.  0.
        5    1    3    3  502    0 -0.70954894693E+03  0.32826312227E+02 -0.34559187224E+03  0.78993234332E+03  0.46999998093E+01 0.  1.
       -5    1    3    3    0  502  0.70954894693E+03 -0.32826312227E+02 -0.15236174172E+02  0.71048680907E+03  0.46999998093E+01 0. -1.
</event>
<event>
 5   0  0.2993993E-03  0.1410743E+04  0.7818609E-02  0.8946079E-01
       -2   -1    0    0    0  501  0.00000000000E+00  0.00000000000E+00  0.37506436170E+03  0.37506436171E+03  0.25500000920E-02 0. -1.
        2   -1    0    0  501    0  0.00000000000E+00  0.00000000000E+00 -0.13265699695E+04  0.13265699695E+04  0.25500000920E-02 0.  1.
    10030    2    1    2    0    0  0.00000000000E+00  0.00000000000E+00 -0.95150560778E+03  0.17016343312E+04  0.14107432351E+04 0.  0.
        3    1    3    3  502    0 -0.86895996085E+02 -0.36934878910E+03  0.24148290504E+03  0.44975931983E+03  0.10100000352E+00 0. -1.
       -3    1    3    3    0  502  0.86895996085E+02  0.36934878910E+03 -0.11929885128E+04  0.12518750114E+04  0.10100000352E+00 0.  1.
</event>
<event>
 5   0  0.2889469E-03  0.1448832E+04  0.7818609E-02  0.8919210E-01
       -2   -1    0    0    0  501  0.00000000000E+00  0.00000000000E+00  0.49601153832E+03  0.49601153833E+03  0.25500000920E-02 0. -1.
        2   -1    0    0  501    0  0.00000000000E+00  0.00000000000E+00 -0.10579969718E+04  0.10579969718E+04  0.25500000920E-02 0.  1.
    10030    2    1    2    0    0  0.00000000000E+00  0.00000000000E+00 -0.56198543352E+03  0.15540085102E+04  0.14488322271E+04 0.  0.
        5    1    3    3  502    0  0.88900289374E+02  0.26554713468E+03  0.43559153971E+03  0.51786158541E+03  0.46999998093E+01 0. -1.
       -5    1    3    3    0  502 -0.88900289374E+02 -0.26554713468E+03 -0.99757697323E+03  0.10361469248E+04  0.46999998093E+01 0.  1.
</event>
<event>
 5   0  0.2917809E-03  0.1390364E+04  0.7818609E-02  0.8960823E-01
       -2   -1    0    0    0  501  0.00000000000E+00  0.00000000000E+00  0.64403983107E+03  0.64403983108E+03  0.25500000920E-02 0. -1.
        2   -1    0    0  501    0  0.00000000000E+00  0.00000000000E+00 -0.75038500545E+03  0.75038500546E+03  0.25500000920E-02 0.  1.
    10030    2    1    2    0    0  0.00000000000E+00  0.00000000000E+00 -0.10634517438E+03  0.13944248365E+04  0.13903637397E+04 0.  0.
        2    1    3    3  502    0  0.40563775123E+03 -0.52209379002E+03 -0.26863473234E+03  0.71364454053E+03  0.25500000920E-02 0.  1.
       -2    1    3    3    0  502 -0.40563775123E+03  0.52209379002E+03  0.16228955796E+03  0.68078029600E+03  0.25500000920E-02 0. -1.
</event>
<event>
 5   0  0.1586022E-03  0.1319826E+04  0.7818609E-02  0.9013989E-01
       -1   -1    0    0    0  501  0.00000000000E+00  0.00000000000E+00  0.46382481582E+03  0.46382481585E+03  0.50400001928E-02 0. -1.
        1   -1    0    0  501    0  0.00000000000E+00  0.00000000000E+00 -0.93889996372E+03  0.93889996374E+03  0.50400001928E-02 0.  1.
    10030    2    1    2    0    0  0.00000000000E+00  0.00000000000E+00 -0.47507514791E+03  0.14027247796E+04  0.13198259018E+04 0.  0.
        1    1    3    3  502    0 -0.49562973639E+03  0.11514387682E+03 -0.68414332254E+03  0.85261892646E+03  0.50400001928E-02 0.  1.
       -1    1    3    3    0  502  0.49562973639E+03 -0.11514387682E+03  0.20906817463E+03  0.55010585312E+03  0.50400001928E-02 0. -1.
</event>
<event>
 5   0  0.1644571E-03  0.1412935E+04  0.7818609E-02  0.8944508E-01
       -1   -1    0    0    0  501  0.00000000000E+00  0.00000000000E+00  0.58269630671E+03  0.58269630673E+03  0.50400001928E-02 0.  1.
        1   -1    0    0  501    0  0.00000000000E+00  0.00000000000E+00 -0.85652926992E+03  0.85652926994E+03  0.50400001928E-02 0. -1.
    10030    2    1    2    0    0  0.00000000000E+00  0.00000000000E+00 -0.27383296321E+03  0.14392255767E+04  0.14129351609E+04 0.  0.
        4    1    3    3  502    0 -0.52471989521E+03  0.23347449743E+03 -0.55597578847E+03  0.79934473142E+03  0.12699999809E+01 0. -1.
       -4    1    3    3    0  502  0.52471989521E+03 -0.23347449743E+03  0.28214282526E+03  0.63988084525E+03  0.12699999809E+01 0.  1.
</event>
<event>
 5   0  0.2760807E-03  0.1374881E+04  0.7818609E-02  0.8972204E-01
       -2   -1    0    0    0  501  0.00000000000E+00  0.00000000000E+00  0.37535862752E+03  0.37535862753E+03  0.25500000920E-02 0. -1.
        2   -1    0    0  501    0  0.00000000000E+00  0.00000000000E+00 -0.12589953103E+04  0.12589953103E+04  0.25500000920E-02 0.  1.
    10030    2    1    2    0    0  0.00000000000E+00  0.00000000000E+00 -0.88363668281E+03  0.16343539379E+04  0.13748814520E+04 0.  0.
        4    1    3    3  502    0 -0.40776836888E+03 -0.17879403956E+03  0.18079458900E+03  0.48055243996E+03  0.12699999809E+01 0. -1.
       -4    1    3    3    0  502  0.40776836888E+03  0.17879403956E+03 -0.10644312718E+04  0.11538014979E+04  0.12699999809E+01 0.  1.
</event>
<event>
 5   0  0.2760807E-03  0.1415336E+04  0.7818609E-02  0.8942792E-01
       -2   -1    0    0    0  501  0.00000000000E+00  0.00000000000E+00  0.41097217142E+03  0.41097217143E+03  0.25500000920E-02 0. -1.
        2   -1    0    0  501    0  0.00000000000E+00  0.00000000000E+00 -0.12185594869E+04  0.12185594869E+04  0.25500000920E-02 0.  1.
    10030    2    1    2    0    0  0.00000000000E+00  0.00000000000E+00 -0.80758731544E+03  0.16295316583E+04  0.14153360567E+04 0.  0.
        4    1    3    3  502    0  0.40315066893E+02 -0.29814838320E+03  0.33366992668E+03  0.44928275717E+03  0.12699999809E+01 0. -1.
       -4    1    3    3    0  502 -0.40315066893E+02  0.29814838320E+03 -0.11412572421E+04  0.11802489011E+04  0.12699999809E+01 0.  1.
</event>
<event>
 5   0  0.1700207E-03  0.9643187E+03  0.7818609E-02  0.9348569E-01
        1   -1    0    0  501    0  0.00000000000E+00  0.00000000000E+00  0.46805158589E+03  0.46805158591E+03  0.50400001928E-02 0. -1.
       -1   -1    0    0    0  501  0.00000000000E+00  0.00000000000E+00 -0.49669235893E+03  0.49669235895E+03  0.50400001928E-02 0.  1.
    10030    2    1    2    0    0  0.00000000000E+00  0.00000000000E+00 -0.28640773042E+02  0.96474394487E+03  0.96431871561E+03 0.  0.
        2    1    3    3  502    0  0.30484493341E+03  0.24066610097E+03  0.27151006266E+03  0.47388639959E+03  0.25500000920E-02 0. -1.
       -2    1    3    3    0  502 -0.30484493341E+03 -0.24066610097E+03 -0.30015083570E+03  0.49085754528E+03  0.25500000920E-02 0.  1.
</event>
<event>
 5   0  0.1700207E-03  0.1358331E+04  0.7818609E-02  0.8984545E-01
       -1   -1    0    0    0  501  0.00000000000E+00  0.00000000000E+00  0.28131018656E+03  0.28131018661E+03  0.50400001928E-02 0. -1.
        1   -1    0    0  501    0  0.00000000000E+00  0.00000000000E+00 -0.16397057413E+04  0.16397057413E+04  0.50400001928E-02 0.  1.
    10030    2    1    2    0    0  0.00000000000E+00  0.00000000000E+00 -0.13583955548E+04  0.19210159279E+04  0.13583312233E+04 0.  0.
        2    1    3    3  502    0 -0.58708453635E+03 -0.33815882876E+03 -0.61216960206E+03  0.91311076436E+03  0.25500000920E-02 0.  1.
       -2    1    3    3    0  502  0.58708453635E+03  0.33815882876E+03 -0.74622595269E+03  0.10079051636E+04  0.25500000920E-02 0. -1.
</event>
<event>
 5   0  0.2917809E-03  0.1333118E+04  0.7818609E-02  0.9003707E-01
       -2   -1    0    0    0  501  0.00000000000E+00  0.00000000000E+00  0.83997347186E+03  0.83997347186E+03  0.25500000920E-02 0. -1.
        2   -1    0    0  501    0  0.00000000000E+00  0.00000000000E+00 -0.52894625884E+03  0.52894625885E+03  0.25500000920E-02 0.  1.
    10030    2    1    2    0    0  0.00000000000E+00  0.00000000000E+00  0.31102721302E+03  0.13689197307E+04  0.13331178875E+04 0.  0.
        2    1    3    3  502    0  0.33133965459E+03 -0.57711235036E+03  0.19469853150E+03  0.69336292792E+03  0.25500000920E-02 0. -1.
       -2    1    3    3    0  502 -0.33133965459E+03  0.57711235036E+03  0.11632868151E+03  0.67555680279E+03  0.25500000920E-02 0.  1.
</event>
<event>
 5   0  0.2993993E-03  0.1196781E+04  0.7818609E-02  0.9115679E-01
        2   -1    0    0  501    0  0.00000000000E+00  0.00000000000E+00  0.55399838447E+03  0.55399838448E+03  0.25500000920E-02 0. -1.
       -2   -1    0    0    0  501  0.00000000000E+00  0.00000000000E+00 -0.64633931060E+03  0.64633931061E+03  0.25500000920E-02 0.  1.
    10030    2    1    2    0    0  0.00000000000E+00  0.00000000000E+00 -0.92340926133E+02  0.12003376951E+04  0.11967805712E+04 0.  0.
        3    1    3    3  502    0  0.33524176661E+02 -0.59573916496E+03 -0.91492165451E+02  0.60365540636E+03  0.10100000352E+00 0.  1.
       -3    1    3    3    0  502 -0.33524176661E+02  0.59573916496E+03 -0.84876068221E+00  0.59668228873E+03  0.10100000352E+00 0. -1.
</event>
<event>
 5   0  0.2917809E-03  0.1290147E+04  0.7818609E-02  0.9037415E-01
       -2   -1    0    0    0  501  0.00000000000E+00  0.00000000000E+00  0.28855742883E+03  0.28855742884E+03  0.25500000920E-02 0.  1.
        2   -1    0    0  501    0  0.00000000000E+00  0.00000000000E+00 -0.14420703431E+04  0.14420703431E+04  0.25500000920E-02 0. -1.
    10030    2    1    2    0    0  0.00000000000E+00  0.00000000000E+00 -0.11535129143E+04  0.17306277720E+04  0.12901474496E+04 0.  0.
        2    1    3    3  502    0 -0.21532920692E+03 -0.52469786145E+03 -0.16451166384E+03  0.59054093907E+03  0.25500000920E-02 0.  1.
       -2    1    3    3    0  502  0.21532920692E+03  0.52469786145E+03 -0.98900125047E+03  0.11400868329E+04  0.25500000920E-02 0. -1.
</event>
<event>
 5   0  0.3006737E-03  0.1297632E+04  0.7818609E-02  0.9031445E-01
        2   -1    0    0  501    0  0.00000000000E+00  0.00000000000E+00  0.24806623069E+04  0.24806623069E+04  0.25500000920E-02 0.  1.
       -2   -1    0    0    0  501  0.00000000000E+00  0.00000000000E+00 -0.16969760137E+03  0.16969760139E+03  0.25500000920E-02 0. -1.
    10030    2    1    2    0    0  0.00000000000E+00  0.00000000000E+00  0.23109647055E+04  0.26503599082E+04  0.12976323721E+04 0.  0.
        1    1    3    3  502    0 -0.55806639891E+02  0.48103212182E+03  0.20374274492E+04  0.20941864516E+04  0.50400001928E-02 0.  1.
       -1    1    3    3    0  502  0.55806639891E+02 -0.48103212182E+03  0.27353725631E+03  0.55617345666E+03  0.50400001928E-02 0. -1.
</event>
<event>
 5   0  0.1560957E-03  0.1402232E+04  0.7818609E-02  0.8952204E-01
        1   -1    0    0  501    0  0.00000000000E+00  0.00000000000E+00  0.11290378903E+04  0.11290378903E+04  0.50400001928E-02 0. -1.
       -1   -1    0    0    0  501  0.00000000000E+00  0.00000000000E+00 -0.43538293400E+03  0.43538293403E+03  0.50400001928E-02 0.  1.
    10030    2    1    2    0    0  0.00000000000E+00  0.00000000000E+00  0.69365495626E+03  0.15644208243E+04  0.14022322622E+04 0.  0.
        5    1    3    3  502    0  0.31102623392E+03 -0.17569148904E+03 -0.32622153530E+03  0.48378445366E+03  0.46999998093E+01 0.  1.
       -5    1    3    3    0  502 -0.31102623392E+03  0.17569148904E+03  0.10198764916E+04  0.10806363706E+04  0.46999998093E+01 0. -1.
</event>
<event>
 5   0  0.2889469E-03  0.1403364E+04  0.7818609E-02  0.8951387E-01
       -2   -1    0    0    0  501  0.00000000000E+00  0.00000000000E+00  0.43686734705E+03  0.43686734706E+03  0.25500000920E-02 0.  1.
        2   -1    0    0  501    0  0.00000000000E+00  0.00000000000E+00 -0.11270192270E+04  0.11270192270E+04  0.25500000920E-02 0. -1.
    10030    2    1    2    0    0  0.00000000000E+00  0.00000000000E+00 -0.69015187995E+03  0.15638865741E+04  0.14033643857E+04 0.  0.
        5    1    3    3  502    0 -0.44996794440E+03 -0.14651286680E+02  0.25467586782E+03  0.51726946444E+03  0.46999998093E+01 0.  1.
       -5    1    3    3    0  502  0.44996794440E+03  0.14651286680E+02 -0.94482774777E+03  0.10466171096E+04  0.46999998093E+01 0. -1.
</event>
<event>
 5   0  0.2760807E-03  0.1422711E+04  0.7818609E-02  0.8937541E-01
        2   -1    0    0  501    0  0.00000000000E+00  0.00000000000E+00  0.72266817006E+03  0.72266817006E+03  0.25500000920E-02 0.  1.
       -2   -1    0    0    0  501  0.00000000000E+00  0.00000000000E+00 -0.70021990325E+03  0.70021990325E+03  0.25500000920E-02 0. -1.
    10030    2    1    2    0    0  0.00000000000E+00  0.00000000000E+00  0.22448266810E+02  0.14228880733E+04  0.14227109842E+04 0.  0.
        4    1    3    3  502    0 -0.31484367793E+03  0.30822894340E+03 -0.54731955299E+03  0.70263214349E+03  0.12699999809E+01 0. -1.
       -4    1    3    3    0  502  0.31484367793E+03 -0.30822894340E+03  0.56976781980E+03  0.72025592983E+03  0.12699999809E+01 0.  1.
</event>
<event>
 5   0  0.2917809E-03  0.1405594E+04  0.7818609E-02  0.8949779E-01
        2   -1    0    0  501    0  0.00000000000E+00  0.00000000000E+00  0.11601522513E+04  0.11601522513E+04  0.25500000920E-02 0. -1.
       -2   -1    0    0    0  501  0.00000000000E+00  0.00000000000E+00 -0.42574032353E+03  0.42574032354E+03  0.25500000920E-02 0.  1.
    10030    2    1    2    0    0  0.00000000000E+00  0.00000000000E+00  0.73441192776E+03  0.15858925748E+04  0.14055939596E+04 0.  0.
        2    1    3    3  502    0 -0.12361887587E+03  0.67625218688E+03  0.20244365289E+03  0.71664641165E+03  0.25500000920E-02 0.  1.
       -2    1    3    3    0  502  0.12361887587E+03 -0.67625218688E+03  0.53196827487E+03  0.86924616318E+03  0.25500000920E-02 0. -1.
</event>
<event>
 5   0  0.1631380E-03  0.1421986E+04  0.7818609E-02  0.8938056E-01
        1   -1    0    0  501    0  0.00000000000E+00  0.00000000000E+00  0.12814804811E+04  0.12814804811E+04  0.50400001928E-02 0. -1.
       -1   -1    0    0    0  501  0.00000000000E+00  0.00000000000E+00 -0.39447417334E+03  0.39447417338E+03  0.50400001928E-02 0.  1.
    10030    2    1    2    0    0  0.00000000000E+00  0.00000000000E+00  0.88700630779E+03  0.16759546545E+04  0.14219858698E+04 0.  0.
        3    1    3    3  502    0  0.18712661530E+02 -0.89080380817E+02 -0.38757844099E+03  0.39812376979E+03  0.10100000352E+00 0.  1.
       -3    1    3    3    0  502 -0.18712661530E+02  0.89080380817E+02  0.12745847488E+04  0.12778308847E+04  0.10100000352E+00 0. -1.
</event>
<event>
 5   0  0.1560957E-03  0.1383207E+04  0.7818609E-02  0.8966064E-01
       -1   -1    0    0    0  501  0.00000000000E+00  0.00000000000E+00  0.44952935341E+03  0.44952935344E+03  0.50400001928E-02 0. -1.
        1   -1    0    0  501    0  0.00000000000E+00  0.00000000000E+00 -0.10640364164E+04  0.10640364165E+04  0.50400001928E-02 0.  1.
    10030    2    1    2    0    0  0.00000000000E+00  0.00000000000E+00 -0.61450706303E+03  0.15135657699E+04  0.13832072908E+04 0.  0.
        5    1    3    3  502    0 -0.39768466695E+03  0.55557725045E+03 -0.42446708281E+03  0.80437153725E+03  0.46999998093E+01 0. -1.
       -5    1    3    3    0  502  0.39768466695E+03 -0.55557725045E+03 -0.19003998022E+03  0.70919423265E+03  0.46999998093E+01 0.  1.
</event>
<event>
 5   0  0.3006737E-03  0.1007523E+04  0.7818609E-02  0.9300332E-01
        2   -1    0    0  501    0  0.00000000000E+00  0.00000000000E+00  0.12355448514E+04  0.12355448514E+04  0.25500000920E-02 0.  1.
       -2   -1    0    0    0  501  0.00000000000E+00  0.00000000000E+00 -0.20539585786E+03  0.20539585787E+03  0.25500000920E-02 0. -1.
    10030    2    1    2    0    0  0.00000000000E+00  0.00000000000E+00  0.10301489936E+04  0.14409407093E+04  0.10075232894E+04 0.  0.
        1    1    3    3  502    0 -0.10652267667E+03 -0.17048093872E+03  0.11756957937E+04  0.11927579094E+04  0.50400001928E-02 0.  1.
       -1    1    3    3    0  502  0.10652267667E+03  0.17048093872E+03 -0.14554680013E+03  0.24818279990E+03  0.50400001928E-02 0. -1.
</event>
<event>
 5   0  0.2889469E-03  0.1278914E+04  0.7818609E-02  0.9046456E-01
       -2   -1    0    0    0  501  0.00000000000E+00  0.00000000000E+00  0.19437263460E+03  0.19437263462E+03  0.25500000920E-02 0. -1.
        2   -1    0    0  501    0  0.00000000000E+00  0.00000000000E+00 -0.21037169456E+04  0.21037169456E+04  0.25500000920E-02 0.  1.
    10030    2    1    2    0    0  0.00000000000E+00  0.00000000000E+00 -0.19093443110E+04  0.22980895802E+04  0.12789136096E+04 0.  0.
        5    1    3    3  502    0 -0.45174646642E+03  0.39768119301E+03 -0.56653298533E+03  0.82656331557E+03  0.46999998093E+01 0. -1.
       -5    1    3    3    0  502  0.45174646642E+03 -0.39768119301E+03 -0.13428113256E+04  0.14715262646E+04  0.46999998093E+01 0.  1.
</event>
<event>
 5   0  0.2889469E-03  0.1379182E+04  0.7818609E-02  0.8969027E-01
       -2   -1    0    0    0  501  0.00000000000E+00  0.00000000000E+00  0.74646208739E+03  0.74646208739E+03  0.25500000920E-02 0. -1.
        2   -1    0    0  501    0  0.00000000000E+00  0.00000000000E+00 -0.63705244425E+03  0.63705244426E+03  0.25500000920E-02 0.  1.
    10030    2    1    2    0    0  0.00000000000E+00  0.00000000000E+00  0.10940964314E+03  0.13835145317E+04  0.13791816375E+04 0.  0.
        5    1    3    3  502    0 -0.13928132442E+03 -0.49062535891E+03 -0.41086625550E+03  0.65493946288E+03  0.46999998093E+01 0. -1.
       -5    1    3    3    0  502  0.13928132442E+03  0.49062535891E+03  0.52027589863E+03  0.72857506877E+03  0.46999998093E+01 0.  1.
</event>
<event>
 5   0  0.1644571E-03  0.1389332E+04  0.7818609E-02  0.8961577E-01
       -1   -1    0    0    0  501  0.00000000000E+00  0.00000000000E+00  0.44884993799E+03  0.44884993802E+03  0.50400001928E-02 0. -1.
        1   -1    0    0  501    0  0.00000000000E+00  0.00000000000E+00 -0.10751050659E+04  0.10751050659E+04  0.50400001928E-02 0.  1.
    10030    2    1    2    0    0  0.00000000000E+00  0.00000000000E+00 -0.62625512794E+03  0.15239550040E+04  0.13893319865E+04 0.  0.
        4    1    3    3  502    0  0.41653696457E+03 -0.52268403205E+03 -0.10541792411E+03  0.67662115829E+03  0.12699999809E+01 0.  1.
       -4    1    3    3    0  502 -0.41653696457E+03  0.52268403205E+03 -0.52083720383E+03  0.84733384567E+03  0.12699999809E+01 0. -1.
</event>
<event>
 5   0  0.1644571E-03  0.1373564E+04  0.7818609E-02  0.8973180E-01
       -1   -1    0    0    0  501  0.00000000000E+00  0.00000000000E+00  0.77534111127E+03  0.77534111129E+03  0.50400001928E-02 0.  1.
        1   -1    0    0  501    0  0.00000000000E+00  0.00000000000E+00 -0.60833787036E+03  0.60833787038E+03  0.50400001928E-02 0. -1.
    10030    2    1    2    0    0  0.00000000000E+00  0.00000000000E+00  0.16700324092E+03  0.13836789817E+04  0.13735637742E+04 0.  0.
        4    1    3    3  502    0 -0.10506214955E+03  0.33847042692E+03 -0.50910554687E+03  0.62031472328E+03  0.12699999809E+01 0. -1.
       -4    1    3    3    0  502  0.10506214955E+03 -0.33847042692E+03  0.67610878778E+03  0.76336425839E+03  0.12699999809E+01 0.  1.
</event>
<event>
 5   0  0.1700207E-03  0.1474497E+04  0.7818609E-02  0.8901592E-01
        1   -1    0    0  501    0  0.00000000000E+00  0.00000000000E+00  0.20429703866E+04  0.20429703866E+04  0.50400001928E-02 0.  1.
       -1   -1    0    0    0  501  0.00000000000E+00  0.00000000000E+00 -0.26605136816E+03  0.26605136820E+03  0.50400001928E-02 0. -1.
    10030    2    1    2    0    0  0.00000000000E+00  0.00000000000E+00  0.17769190185E+04  0.23090217548E+04  0.14744966145E+04 0.  0.
        2    1    3    3  502    0 -0.11872116255E+03  0.16319507506E+02  0.20276163027E+04  0.20311545760E+04  0.25500000920E-02 0.  1.
       -2    1    3    3    0  502  0.11872116255E+03 -0.16319507506E+02 -0.25069728420E+03  0.27786717883E+03  0.25500000920E-02 0. -1.
</event>
<event>
 5   0  0.3006737E-03  0.1423618E+04  0.7818609E-02  0.8936898E-01
       -2   -1    0    0    0  501  0.00000000000E+00  0.00000000000E+00  0.15842007416E+04  0.15842007416E+04  0.25500000920E-02 0. -1.
        2   -1    0    0  501    0  0.00000000000E+00  0.00000000000E+00 -0.31982797140E+03  0.31982797141E+03  0.25500000920E-02 0.  1.
    10030    2    1    2    0    0  0.00000000000E+00  0.00000000000E+00  0.12643727702E+04  0.19040287130E+04  0.14236175181E+04 0.  0.
        1    1    3    3  502    0 -0.31825961294E+03  0.57464600231E+03  0.26550694716E+03  0.70852039365E+03  0.50400001928E-02 0.  1.
       -1    1    3    3    0  502  0.31825961294E+03 -0.57464600231E+03  0.99886582306E+03  0.11955083194E+04  0.50400001928E-02 0. -1.
</event>
<event>
 5   0  0.2889469E-03  0.1394621E+04  0.7818609E-02  0.8957721E-01
       -2   -1    0    0    0  501  0.00000000000E+00  0.00000000000E+00  0.39138367784E+03  0.39138367785E+03  0.25500000920E-02 0.  1.
        2   -1    0    0  501    0  0.00000000000E+00  0.00000000000E+00 -0.12423667600E+04  0.12423667600E+04  0.25500000920E-02 0. -1.
    10030    2    1    2    0    0  0.00000000000E+00  0.00000000000E+00 -0.85098308220E+03  0.16337504379E+04  0.13946211984E+04 0.  0.
        5    1    3    3  502    0  0.66187588302E+03 -0.13570338613E+03 -0.22352028333E+03  0.71167302927E+03  0.46999998093E+01 0.  1.
       -5    1    3    3    0  502 -0.66187588302E+03  0.13570338613E+03 -0.62746279888E+03  0.92207740863E+03  0.46999998093E+01 0. -1.
</event>
<event>
 5   0  0.2993993E-03  0.1338815E+04  0.7818609E-02  0.8999339E-01
        2   -1    0    0  501    0  0.00000000000E+00  0.00000000000E+00  0.14291246042E+04  0.14291246042E+04  0.25500000920E-02 0.  1.
       -2   -1    0    0    0  501  0.00000000000E+00  0.00000000000E+00 -0.31355298388E+03  0.31355298389E+03  0.25500000920E-02 0. -1.
    10030    2    1    2    0    0  0.00000000000E+00  0.00000000000E+00  0.11155716203E+04  0.17426775881E+04  0.13388148251E+04 0.  0.
        3    1    3    3  502    0 -0.57728015737E+03 -0.11801798585E+03  0.97130656125E+03  0.11360532871E+04  0.10100000352E+00 0.  1.
       -3    1    3    3    0  502  0.57728015737E+03  0.11801798585E+03  0.14426505909E+03  0.60662430099E+03  0.10100000352E+00 0. -1.
</event>
<event>
 5   0  0.1644571E-03  0.1423615E+04  0.7818609E-02  0.8936900E-01
        1   -1    0    0  501    0  0.00000000000E+00  0.00000000000E+00  0.56216723639E+03  0.56216723641E+03  0.50400001928E-02 0. -1.
       -1   -1    0    0    0  501  0.00000000000E+00  0.00000000000E+00 -0.90127970166E+03  0.90127970168E+03  0.50400001928E-02 0.  1.
    10030    2    1    2    0    0  0.00000000000E+00  0.00000000000E+00 -0.33911246528E+03  0.14634469381E+04  0.14236150029E+04 0.  0.
        4    1    3    3  502    0  0.67672563911E+03 -0.21363433846E+03 -0.22652415015E+03  0.74492417380E+03  0.12699999809E+01 0.  1.
       -4    1    3    3    0  502 -0.67672563911E+03  0.21363433846E+03 -0.11258831512E+03  0.71852276429E+03  0.12699999809E+01 0. -1.
</event>
<event>
 5   0  0.3006737E-03  0.1422711E+04  0.7818609E-02  0.8937541E-01
       -2   -1    0    0    0  501  0.00000000000E+00  0.00000000000E+00  0.12308588243E+04  0.12308588243E+04  0.25500000920E-02 0.  1.
        2   -1    0    0  501    0  0.00000000000E+00  0.00000000000E+00 -0.41111684139E+03  0.41111684140E+03  0.25500000920E-02 0. -1.
    10030    2    1    2    0    0  0.00000000000E+00  0.00000000000E+00  0.81974198292E+03  0.16419756657E+04  0.14227112034E+04 0.  0.
        1    1    3    3  502    0  0.54870667761E+03 -0.40784263218E+03  0.63665478790E+03  0.93420765875E+03  0.50400001928E-02 0.  1.
       -1    1    3    3    0  502 -0.54870667761E+03  0.40784263218E+03  0.18308719502E+03  0.70776800697E+03  0.50400001928E-02 0. -1.
</event>
<event>
 5   0  0.1644571E-03  0.1390659E+04  0.7818609E-02  0.8960608E-01
       -1   -1    0    0    0  501  0.00000000000E+00  0.00000000000E+00  0.31054586214E+03  0.31054586218E+03  0.50400001928E-02 0.  1.
        1   -1    0    0  501    0  0.00000000000E+00  0.00000000000E+00 -0.15568815608E+04  0.15568815608E+04  0.50400001928E-02 0. -1.
    10030    2    1    2    0    0  0.00000000000E+00  0.00000000000E+00 -0.12463356986E+04  0.18674274230E+04  0.13906590187E+04 0.  0.
        4    1    3    3  502    0  0.18477214591E+03  0.14931985292E+03  0.25435728654E+03  0.34804655794E+03  0.12699999809E+01 0.  1.
       -4    1    3    3    0  502 -0.18477214591E+03 -0.14931985292E+03 -0.15006929852E+04  0.15193808650E+04  0.12699999809E+01 0. -1.
</event>
<event>
 5   0  0.2993993E-03  0.1425395E+04  0.7818609E-02  0.8935638E-01
        2   -1    0    0  501    0  0.00000000000E+00  0.00000000000E+00  0.96775634683E+03  0.96775634684E+03  0.25500000920E-02 0. -1.
       -2   -1    0    0    0  501  0.00000000000E+00  0.00000000000E+00 -0.52486146645E+03  0.52486146646E+03  0.25500000920E-02 0.  1.
    10030    2    1    2    0    0  0.00000000000E+00  0.00000000000E+00  0.44289488038E+03  0.14926178133E+04  0.14253954053E+04 0.  0.
        3    1    3    3  502    0  0.13709364937E+03  0.47117815892E+03  0.76267292578E+03  0.90690326279E+03  0.10100000352E+00 0. -1.
       -3    1    3    3    0  502 -0.13709364937E+03 -0.47117815892E+03 -0.31977804541E+03  0.58571455050E+03  0.10100000352E+00 0.  1.
</event>
<event>
 5   0  0.2760807E-03  0.1396359E+04  0.7818609E-02  0.8956458E-01
       -2   -1    0    0    0  501  0.00000000000E+00  0.00000000000E+00  0.92161634699E+03  0.92161634699E+03  0.25500000920E-02 0.  1.
        2   -1    0    0  501    0  0.00000000000E+00  0.00000000000E+00 -0.52891277448E+03  0.52891277449E+03  0.25500000920E-02 0. -1.
    10030    2    1    2    0    0  0.00000000000E+00  0.00000000000E+00  0.39270357250E+03  0.14505291215E+04  0.13963590643E+04 0.  0.
        4    1    3    3  502    0 -0.19302548492E+02  0.58043303047E+03 -0.20620989833E+03  0.61627852981E+03  0.12699999809E+01 0. -1.
       -4    1    3    3    0  502  0.19302548492E+02 -0.58043303047E+03  0.59891347084E+03  0.83425059166E+03  0.12699999809E+01 0.  1.
</event>
<event>
 5   0  0.1586022E-03  0.1391014E+04  0.7818609E-02  0.8960349E-01
       -1   -1    0    0    0  501  0.00000000000E+00  0.00000000000E+00  0.85339708927E+03  0.85339708929E+03  0.50400001928E-02 0.  1.
        1   -1    0    0  501    0  0.00000000000E+00  0.00000000000E+00 -0.56682838820E+03  0.56682838822E+03  0.50400001928E-02 0. -1.
    10030    2    1    2    0    0  0.00000000000E+00  0.00000000000E+00  0.28656870107E+03  0.14202254775E+04  0.13910135824E+04 0.  0.
        1    1    3    3  502    0  0.52802543433E+03  0.44030127608E+03  0.35940229490E+02  0.68845317425E+03  0.50400001928E-02 0. -1.
       -1    1    3    3    0  502 -0.52802543433E+03 -0.44030127608E+03  0.25062847158E+03  0.73177230325E+03  0.50400001928E-02 0.  1.
</event>
<event>
 5   0  0.3006737E-03  0.1370455E+04  0.7818609E-02  0.8975487E-01
        2   -1    0    0  501    0  0.00000000000E+00  0.00000000000E+00  0.90383844086E+03  0.90383844086E+03  0.25500000920E-02 0.  1.
       -2   -1    0    0    0  501  0.00000000000E+00  0.00000000000E+00 -0.51949200985E+03  0.51949200985E+03  0.25500000920E-02 0. -1.
    10030    2    1    2    0    0  0.00000000000E+00  0.00000000000E+00  0.38434643101E+03  0.14233304507E+04  0.13704551773E+04 0.  0.
        1    1    3    3  502    0  0.61991522139E+03 -0.21684911428E+03 -0.10864779182E+02  0.65683823239E+03  0.50400001928E-02 0. -1.
       -1    1    3    3    0  502 -0.61991522139E+03  0.21684911428E+03  0.39521121019E+03  0.76649221833E+03  0.50400001928E-02 0.  1.
</event>
<event>
 5   0  0.1560957E-03  0.1390690E+04  0.7818609E-02  0.8960585E-01
        1   -1    0    0  501    0  0.00000000000E+00  0.00000000000E+00  0.95144403171E+03  0.95144403172E+03  0.50400001928E-02 0.  1.
       -1   -1    0    0    0  501  0.00000000000E+00  0.00000000000E+00 -0.50817964959E+03  0.50817964962E+03  0.50400001928E-02 0. -1.
    10030    2    1    2    0    0  0.00000000000E+00  0.00000000000E+00  0.44326438211E+03  0.14596236813E+04  0.13906897493E+04 0.  0.
        5    1    3    3  502    0  0.68886134022E+03 -0.59537910090E+02  0.14445005792E+03  0.70637286048E+03  0.46999998093E+01 0.  1.
       -5    1    3    3    0  502 -0.68886134022E+03  0.59537910090E+02  0.29881432420E+03  0.75325082086E+03  0.46999998093E+01 0. -1.
</event>
<event>
 5   0  0.1560957E-03  0.1334315E+04  0.7818609E-02  0.9002787E-01
       -1   -1    0    0    0  501  0.00000000000E+00  0.00000000000E+00  0.38074401032E+03  0.38074401035E+03  0.50400001928E-02 0.  1.
        1   -1    0    0  501    0  0.00000000000E+00  0.00000000000E+00 -0.11690240295E+04  0.11690240295E+04  0.50400001928E-02 0. -1.
    10030    2    1    2    0    0  0.00000000000E+00  0.00000000000E+00 -0.78828001916E+03  0.15497680398E+04  0.13343146513E+04 0.  0.
        5    1    3    3  502    0 -0.23440951810E+03  0.50266492868E+03  0.36477618343E+02  0.55585300156E+03  0.46999998093E+01 0.  1.
       -5    1    3    3    0  502  0.23440951810E+03 -0.50266492868E+03 -0.82475763751E+03  0.99391503828E+03  0.46999998093E+01 0. -1.
</event>
<event>
 5   0  0.1644571E-03  0.1395916E+04  0.7818609E-02  0.8956780E-01
        1   -1    0    0  501    0  0.00000000000E+00  0.00000000000E+00  0.68928433949E+03  0.68928433950E+03  0.50400001928E-02 0.  1.
       -1   -1    0    0    0  501  0.00000000000E+00  0.00000000000E+00 -0.70674034112E+03  0.70674034113E+03  0.50400001928E-02 0. -1.
    10030    2    1    2    0    0  0.00000000000E+00  0.00000000000E+00 -0.17456001630E+02  0.13960246806E+04  0.13959155408E+04 0.  0.
        4    1    3    3  502    0  0.61663736260E+03 -0.35393895175E+02  0.31633444332E+03  0.69394773413E+03  0.12699999809E+01 0.  1.
       -4    1    3    3    0  502 -0.61663736260E+03  0.35393895175E+02 -0.33379044495E+03  0.70207694651E+03  0.12699999809E+01 0. -1.
</event>
<event>
 5   0  0.1631380E-03  0.1162874E+04  0.7818609E-02  0.9145989E-01
        1   -1    0    0  501    0  0.00000000000E+00  0.00000000000E+00  0.48515225241E+03  0.48515225244E+03  0.50400001928E-02 0.  1.
       -1   -1    0    0    0  501  0.00000000000E+00  0.00000000000E+00 -0.69683029958E+03  0.69683029960E+03  0.50400001928E-02 0. -1.
    10030    2    1    2    0    0  0.00000000000E+00  0.00000000000E+00 -0.21167804717E+03  0.11819825520E+04  0.11628736637E+04 0.  0.
        3    1    3    3  502    0  0.52714285106E+03  0.22971016718E+02 -0.35410986160E+03  0.63545342656E+03  0.10100000352E+00 0.  1.
       -3    1    3    3    0  502 -0.52714285106E+03 -0.22971016718E+02  0.14243181443E+03  0.54652912548E+03  0.10100000352E+00 0. -1.
</event>
<event>
 5   0  0.1631380E-03  0.1409642E+04  0.7818609E-02  0.8946868E-01
       -1   -1    0    0    0  501  0.00000000000E+00  0.00000000000E+00  0.31813107564E+03  0.31813107568E+03  0.50400001928E-02 0. -1.
        1   -1    0    0  501    0  0.00000000000E+00  0.00000000000E+00 -0.15615353284E+04  0.15615353285E+04  0.50400001928E-02 0.  1.
    10030    2    1    2    0    0  0.00000000000E+00  0.00000000000E+00 -0.12434042528E+04  0.18796664041E+04  0.14096423855E+04 0.  0.
        3    1    3    3  502    0 -0.63374137065E+03  0.90942257421E+02 -0.10147246589E+04  0.11998186374E+04  0.10100000352E+00 0.  1.
       -3    1    3    3    0  502  0.63374137065E+03 -0.90942257421E+02 -0.22867959387E+03  0.67984776672E+03  0.10100000352E+00 0. -1.
</event>
<event>
 5   0  0.1644571E-03  0.1414457E+04  0.7818609E-02  0.8943420E-01
       -1   -1    0    0    0  501  0.00000000000E+00  0.00000000000E+00  0.43463749010E+03  0.43463749013E+03  0.50400001928E-02 0.  1.
        1   -1    0    0  501    0  0.00000000000E+00  0.00000000000E+00 -0.11507800476E+04  0.11507800476E+04  0.50400001928E-02 0. -1.
    10030    2    1    2    0    0  0.00000000000E+00  0.00000000000E+00 -0.71614255749E+03  0.15854175377E+04  0.14144570005E+04 0.  0.
        4    1    3    3  502    0  0.35505703504E+03  0.60373097262E+03 -0.46797310557E+03  0.84235207952E+03  0.12699999809E+01 0. -1.
       -4    1    3    3    0  502 -0.35505703504E+03 -0.60373097262E+03 -0.24816945192E+03  0.74306545822E+03  0.12699999809E+01 0.  1.
</event>
<event>
 5   0  0.1631380E-03  0.1151277E+04  0.7818609E-02  0.9156606E-01
        1   -1    0    0  501    0  0.00000000000E+00  0.00000000000E+00  0.63970926074E+03  0.63970926076E+03  0.50400001928E-02 0. -1.
       -1   -1    0    0    0  501  0.00000000000E+00  0.00000000000E+00 -0.51798491257E+03  0.51798491260E+03  0.50400001928E-02 0.  1.
    10030    2    1    2    0    0  0.00000000000E+00  0.00000000000E+00  0.12172434817E+03  0.11576941734E+04  0.11512771092E+04 0.  0.
        3    1    3    3  502    0  0.27670645800E+03  0.49810869387E+03  0.14305515481E+03  0.58748916784E+03  0.10100000352E+00 0. -1.
       -3    1    3    3    0  502 -0.27670645800E+03 -0.49810869387E+03 -0.21330806638E+02  0.57020500552E+03  0.10100000352E+00 0.  1.
</event>
<event>
 5   0  0.1586022E-03  0.1402861E+04  0.7818609E-02  0.8951750E-01
        1   -1    0    0  501    0  0.00000000000E+00  0.00000000000E+00  0.67069689769E+03  0.67069689771E+03  0.50400001928E-02 0.  1.
       -1   -1    0    0    0  501  0.00000000000E+00  0.00000000000E+00 -0.73357290194E+03  0.73357290196E+03  0.50400001928E-02 0. -1.
    10030    2    1    2    0    0  0.00000000000E+00  0.00000000000E+00 -0.62876004254E+02  0.14042697997E+04  0.14028614608E+04 0.  0.
        1    1    3    3  502    0  0.10999722974E+03  0.41003441415E+03 -0.59036891196E+03  0.72716096126E+03  0.50400001928E-02 0. -1.
       -1    1    3    3    0  502 -0.10999722974E+03 -0.41003441415E+03  0.52749290771E+03  0.67710883841E+03  0.50400001928E-02 0.  1.
</event>
<event>
 5   0  0.1560957E-03  0.1319943E+04  0.7818609E-02  0.9013898E-01
       -1   -1    0    0    0  501  0.00000000000E+00  0.00000000000E+00  0.49456773142E+03  0.49456773144E+03  0.50400001928E-02 0. -1.
        1   -1    0    0  501    0  0.00000000000E+00  0.00000000000E+00 -0.88069360427E+03  0.88069360428E+03  0.50400001928E-02 0.  1.
    10030    2    1    2    0    0  0.00000000000E+00  0.00000000000E+00 -0.38612587285E+03  0.13752613357E+04  0.13199433896E+04 0.  0.
        5    1    3    3  502    0 -0.58373689890E+03 -0.18431374790E+03  0.63890205616E+02  0.61548710237E+03  0.46999998093E+01 0.  1.
       -5    1    3    3    0  502  0.58373689890E+03  0.18431374790E+03 -0.45001607847E+03  0.75977423336E+03  0.46999998093E+01 0. -1.
</event>
<event>
 5   0  0.2993993E-03  0.1338783E+04  0.7818609E-02  0.8999363E-01
       -2   -1    0    0    0  501  0.00000000000E+00  0.00000000000E+00  0.53853423389E+03  0.53853423390E+03  0.25500000920E-02 0. -1.
        2   -1    0    0  501    0  0.00000000000E+00  0.00000000000E+00 -0.83204521249E+03  0.83204521250E+03  0.25500000920E-02 0.  1.
    10030    2    1    2    0    0  0.00000000000E+00  0.00000000000E+00 -0.29351097860E+03  0.13705794464E+04  0.13387827771E+04 0.  0.
        3    1    3    3  502    0  0.46907335779E+01 -0.95952859869E+02  0.53144024243E+03  0.54005341937E+03  0.10100000352E+00 0. -1.
       -3    1    3    3    0  502 -0.46907335779E+01  0.95952859869E+02 -0.82495122103E+03  0.83052602703E+03  0.10100000352E+00 0.  1.
</event>
<event>
 5   0  0.2917809E-03  0.1364802E+04  0.7818609E-02  0.8979698E-01
        2   -1    0    0  501    0  0.00000000000E+00  0.00000000000E+00  0.21588055475E+04  0.21588055475E+04  0.25500000920E-02 0.  1.
       -2   -1    0    0    0  501  0.00000000000E+00  0.00000000000E+00 -0.21570779441E+03  0.21570779442E+03  0.25500000920E-02 0. -1.
    10030    2    1    2    0    0  0.00000000000E+00  0.00000000000E+00  0.19430977531E+04  0.23745133419E+04  0.13648020856E+04 0.  0.
        2    1    3    3  502    0 -0.27830056721E+03  0.57262829093E+03  0.13988402723E+04  0.15369152458E+04  0.25500000920E-02 0.  1.
       -2    1    3    3    0  502  0.27830056721E+03 -0.57262829093E+03  0.54425748082E+03  0.83759809617E+03  0.25500000920E-02 0. -1.
</event>
<event>
 5   0  0.1560957E-03  0.1364918E+04  0.7818609E-02  0.8979611E-01
        1   -1    0    0  501    0  0.00000000000E+00  0.00000000000E+00  0.49384892015E+03  0.49384892017E+03  0.50400001928E-02 0. -1.
       -1   -1    0    0    0  501  0.00000000000E+00  0.00000000000E+00 -0.94310296734E+03  0.94310296735E+03  0.50400001928E-02 0.  1.
    10030    2    1    2    0    0  0.00000000000E+00  0.00000000000E+00 -0.44925404719E+03  0.14369518875E+04  0.13649181397E+04 0.  0.
        5    1    3    3  502    0 -0.47780990715E+03 -0.82359687215E+02  0.28097131152E+03  0.56040377706E+03  0.46999998093E+01 0. -1.
       -5    1    3    3    0  502  0.47780990715E+03  0.82359687215E+02 -0.73022535871E+03  0.87654811046E+03  0.46999998093E+01 0.  1.
</event>
<event>
 5   0  0.2993993E-03  0.1354107E+04  0.7818609E-02  0.8987725E-01
        2   -1    0    0  501    0  0.00000000000E+00  0.00000000000E+00  0.55672961075E+03  0.55672961075E+03  0.25500000920E-02 0. -1.
       -2   -1    0    0    0  501  0.00000000000E+00  0.00000000000E+00 -0.82338285133E+03  0.82338285134E+03  0.25500000920E-02 0.  1.
    10030    2    1    2    0    0  0.00000000000E+00  0.00000000000E+00 -0.26665324059E+03  0.13801124621E+04  0.13541072547E+04 0.  0.
        3    1    3    3  502    0  0.29226522209E+02 -0.51490304608E+03  0.31375732717E+03  0.60367458702E+03  0.10100000352E+00 0. -1.
       -3    1    3    3    0  502 -0.29226522209E+02  0.51490304608E+03 -0.58041056776E+03  0.77643787506E+03  0.10100000352E+00 0.  1.
</event>
<event>
 5   0  0.3006737E-03  0.1369706E+04  0.7818609E-02  0.8976044E-01
        2   -1    0    0  501    0  0.00000000000E+00  0.00000000000E+00  0.92978604301E+03  0.92978604301E+03  0.25500000920E-02 0. -1.
       -2   -1    0    0    0  501  0.00000000000E+00  0.00000000000E+00 -0.50444220643E+03  0.50444220644E+03  0.25500000920E-02 0.  1.
    10030    2    1    2    0    0  0.00000000000E+00  0.00000000000E+00  0.42534383657E+03  0.14342282494E+04  0.13697055495E+04 0.  0.
        1    1    3    3  502    0  0.54713638581E+03 -0.39847968416E+03  0.32188793601E+03  0.74950392043E+03  0.50400001928E-02 0.  1.
       -1    1    3    3    0  502 -0.54713638581E+03  0.39847968416E+03  0.10345590057E+03  0.68472432902E+03  0.50400001928E-02 0. -1.
</event>
<event>
 5   0  0.2760807E-03  0.1394358E+04  0.7818609E-02  0.8957913E-01
       -2   -1    0    0    0  501  0.00000000000E+00  0.00000000000E+00  0.53439199364E+03  0.53439199364E+03  0.25500000920E-02 0. -1.
        2   -1    0    0  501    0  0.00000000000E+00  0.00000000000E+00 -0.90955402904E+03  0.90955402905E+03  0.25500000920E-02 0.  1.
    10030    2    1    2    0    0  0.00000000000E+00  0.00000000000E+00 -0.37516203540E+03  0.14439460227E+04  0.13943577603E+04 0.  0.
        4    1    3    3  502    0  0.44677723647E+03 -0.49312971545E+03  0.27831035995E+02  0.66600525130E+03  0.12699999809E+01 0.  1.
       -4    1    3    3    0  502 -0.44677723647E+03  0.49312971545E+03 -0.40299307140E+03  0.77794077139E+03  0.12699999809E+01 0. -1.
</event>
<event>
 5   0  0.2917809E-03  0.1499738E+04  0.7818609E-02  0.8884627E-01
        2   -1    0    0  501    0  0.00000000000E+00  0.00000000000E+00  0.14419860859E+04  0.14419860859E+04  0.25500000920E-02 0. -1.
       -2   -1    0    0    0  501  0.00000000000E+00  0.00000000000E+00 -0.38995046927E+03  0.38995046928E+03  0.25500000920E-02 0.  1.
    10030    2    1    2    0    0  0.00000000000E+00  0.00000000000E+00  0.10520356167E+04  0.18319365552E+04  0.14997375116E+04 0.  0.
        2    1    3    3  502    0 -0.20883225224E+03  0.29810239135E+03  0.13268511106E+04  0.13758669322E+04  0.25500000920E-02 0. -1.
       -2    1    3    3    0  502  0.20883225224E+03 -0.29810239135E+03 -0.27481549397E+03  0.45606962302E+03  0.25500000920E-02 0.  1.
</event>
<event>
 5   0  0.1560957E-03  0.1400003E+04  0.7818609E-02  0.8953816E-01
       -1   -1    0    0    0  501  0.00000000000E+00  0.00000000000E+00  0.15688463768E+04  0.15688463768E+04  0.50400001928E-02 0.  1.
        1   -1    0    0  501    0  0.00000000000E+00  0.00000000000E+00 -0.31233275403E+03  0.31233275407E+03  0.50400001928E-02 0. -1.
    10030    2    1    2    0    0  0.00000000000E+00  0.00000000000E+00  0.12565136228E+04  0.18811791309E+04  0.14000030137E+04 0.  0.
        5    1    3    3  502    0 -0.12629752192E+03  0.58845636301E+03  0.11085189449E+04  0.12613755572E+04  0.46999998093E+01 0.  1.
       -5    1    3    3    0  502  0.12629752192E+03 -0.58845636301E+03  0.14799467788E+03  0.61980357364E+03  0.46999998093E+01 0. -1.
</event>
<event>
 5   0  0.2917809E-03  0.1274780E+04  0.7818609E-02  0.9049808E-01
        2   -1    0    0  501    0  0.00000000000E+00  0.00000000000E+00  0.12711423691E+04  0.12711423691E+04  0.25500000920E-02 0. -1.
       -2   -1    0    0    0  501  0.00000000000E+00  0.00000000000E+00 -0.31960677891E+03  0.31960677892E+03  0.25500000920E-02 0.  1.
    10030    2    1    2    0    0  0.00000000000E+00  0.00000000000E+00  0.95153559021E+03  0.15907491480E+04  0.12747795388E+04 0.  0.
        2    1    3    3  502    0 -0.13179480169E+03  0.62277424243E+03  0.51616638284E+03  0.81953972544E+03  0.25500000920E-02 0.  1.
       -2    1    3    3    0  502  0.13179480169E+03 -0.62277424243E+03  0.43536920737E+03  0.77120942261E+03  0.25500000920E-02 0. -1.
</event>
<event>
 5   0  0.1560957E-03  0.1400442E+04  0.7818609E-02  0.8953499E-01
        1   -1    0    0  501    0  0.00000000000E+00  0.00000000000E+00  0.79676394178E+03  0.79676394179E+03  0.50400001928E-02 0. -1.
       -1   -1    0    0    0  501  0.00000000000E+00  0.00000000000E+00 -0.61537565496E+03  0.61537565498E+03  0.50400001928E-02 0.  1.
    10030    2    1    2    0    0  0.00000000000E+00  0.00000000000E+00  0.18138828682E+03  0.14121395968E+04  0.14004415483E+04 0.  0.
        5    1    3    3  502    0 -0.69180570069E+03  0.10526702938E+03  0.11561429203E+03  0.70927077305E+03  0.46999998093E+01 0.  1.
       -5    1    3    3    0  502  0.69180570069E+03 -0.10526702938E+03  0.65773994792E+02  0.70286882373E+03  0.46999998093E+01 0. -1.
</event>
<event>
 5   0  0.1700207E-03  0.1396961E+04  0.7818609E-02  0.8956021E-01
        1   -1    0    0  501    0  0.00000000000E+00  0.00000000000E+00  0.57097805679E+03  0.57097805682E+03  0.50400001928E-02 0.  1.
       -1   -1    0    0    0  501  0.00000000000E+00  0.00000000000E+00 -0.85445469517E+03  0.85445469518E+03  0.50400001928E-02 0. -1.
    10030    2    1    2    0    0  0.00000000000E+00  0.00000000000E+00 -0.28347663837E+03  0.14254327520E+04  0.13969608176E+04 0.  0.
        2    1    3    3  502    0 -0.59772934532E+03  0.27052581850E+03 -0.38622622974E+03  0.76133782861E+03  0.25500000920E-02 0. -1.
       -2    1    3    3    0  502  0.59772934532E+03 -0.27052581850E+03  0.10274959136E+03  0.66409492339E+03  0.25500000920E-02 0.  1.
</event>
<event>
 5   0  0.1700207E-03  0.1375182E+04  0.7818609E-02  0.8971982E-01
        1   -1    0    0  501    0  0.00000000000E+00  0.00000000000E+00  0.74116446663E+03  0.74116446665E+03  0.50400001928E-02 0. -1.
       -1   -1    0    0    0  501  0.00000000000E+00  0.00000000000E+00 -0.63788979180E+03  0.63788979182E+03  0.50400001928E-02 0.  1.
    10030    2    1    2    0    0  0.00000000000E+00  0.00000000000E+00  0.10327467483E+03  0.13790542585E+04  0.13751818023E+04 0.  0.
        2    1    3    3  502    0 -0.32081125382E+03  0.54773548688E+03 -0.21339313426E+03  0.66967951583E+03  0.25500000920E-02 0.  1.
       -2    1    3    3    0  502  0.32081125382E+03 -0.54773548688E+03  0.31666780909E+03  0.70937474263E+03  0.25500000920E-02 0. -1.
</event>
<event>
 5   0  0.1644571E-03  0.1402853E+04  0.7818609E-02  0.8951756E-01
        1   -1    0    0  501    0  0.00000000000E+00  0.00000000000E+00  0.89639285888E+03  0.89639285890E+03  0.50400001928E-02 0.  1.
       -1   -1    0    0    0  501  0.00000000000E+00  0.00000000000E+00 -0.54886586043E+03  0.54886586045E+03  0.50400001928E-02 0. -1.
    10030    2    1    2    0    0  0.00000000000E+00  0.00000000000E+00  0.34752699845E+03  0.14452587193E+04  0.14028534318E+04 0.  0.
        4    1    3    3  502    0  0.13615111714E+03 -0.44472493036E+03 -0.36716052656E+03  0.59255873595E+03  0.12699999809E+01 0. -1.
       -4    1    3    3    0  502 -0.13615111714E+03  0.44472493036E+03  0.71468752501E+03  0.85269998340E+03  0.12699999809E+01 0.  1.
</event>
<event>
 5   0  0.3006737E-03  0.1362530E+04  0.7818609E-02  0.8981397E-01
       -2   -1    0    0    0  501  0.00000000000E+00  0.00000000000E+00  0.49415630971E+03  0.49415630972E+03  0.25500000920E-02 0.  1.
        2   -1    0    0  501    0  0.00000000000E+00  0.00000000000E+00 -0.93922045013E+03  0.93922045014E+03  0.25500000920E-02 0. -1.
    10030    2    1    2    0    0  0.00000000000E+00  0.00000000000E+00 -0.44506414042E+03  0.14333767599E+04  0.13625295764E+04 0.  0.
        1    1    3    3  502    0  0.47563456007E+03  0.28492177053E+03 -0.63898605125E+03  0.84599753178E+03  0.50400001928E-02 0. -1.
       -1    1    3    3    0  502 -0.47563456007E+03 -0.28492177053E+03  0.19392191083E+03  0.58737922808E+03  0.50400001928E-02 0.  1.
</event>
<event>
 5   0  0.2760807E-03  0.1383038E+04  0.7818609E-02  0.8966189E-01
       -2   -1    0    0    0  501  0.00000000000E+00  0.00000000000E+00  0.54684643634E+03  0.54684643635E+03  0.25500000920E-02 0. -1.
        2   -1    0    0  501    0  0.00000000000E+00  0.00000000000E+00 -0.87446568424E+03  0.87446568425E+03  0.25500000920E-02 0.  1.
    10030    2    1    2    0    0  0.00000000000E+00  0.00000000000E+00 -0.32761924790E+03  0.14213121206E+04  0.13830378782E+04 0.  0.
        4    1    3    3  502    0 -0.97053600089E+01  0.48552188941E+03 -0.66974591171E+03  0.82727679664E+03  0.12699999809E+01 0.  1.
       -4    1    3    3    0  502  0.97053600089E+01 -0.48552188941E+03  0.34212666381E+03  0.59403532395E+03  0.12699999809E+01 0. -1.
</event>
<event>
 5   0  0.1631380E-03  0.1440358E+04  0.7818609E-02  0.8925113E-01
       -1   -1    0    0    0  501  0.00000000000E+00  0.00000000000E+00  0.61742075696E+03  0.61742075698E+03  0.50400001928E-02 0. -1.
        1   -1    0    0  501    0  0.00000000000E+00  0.00000000000E+00 -0.84003912760E+03  0.84003912762E+03  0.50400001928E-02 0.  1.
    10030    2    1    2    0    0  0.00000000000E+00  0.00000000000E+00 -0.22261837064E+03  0.14574598846E+04  0.14403577251E+04 0.  0.
        3    1    3    3  502    0  0.30627116291E+03  0.29647253808E+03 -0.69868377698E+03  0.81844793449E+03  0.10100000352E+00 0.  1.
       -3    1    3    3    0  502 -0.30627116291E+03 -0.29647253808E+03  0.47606540634E+03  0.63901195011E+03  0.10100000352E+00 0. -1.
</event>
<event>
 5   0  0.2993993E-03  0.1408812E+04  0.7818609E-02  0.8947465E-01
       -2   -1    0    0    0  501  0.00000000000E+00  0.00000000000E+00  0.42406060153E+03  0.42406060154E+03  0.25500000920E-02 0. -1.
        2   -1    0    0  501    0  0.00000000000E+00  0.00000000000E+00 -0.11700868956E+04  0.11700868956E+04  0.25500000920E-02 0.  1.
    10030    2    1    2    0    0  0.00000000000E+00  0.00000000000E+00 -0.74602629404E+03  0.15941474971E+04  0.14088119148E+04 0.  0.
        3    1    3    3  502    0 -0.50268365644E+03 -0.48245311670E+03 -0.49025811035E+03  0.85194183677E+03  0.10100000352E+00 0.  1.
       -3    1    3    3    0  502  0.50268365644E+03  0.48245311670E+03 -0.25576818369E+03  0.74220566035E+03  0.10100000352E+00 0. -1.
</event>
<event>
 5   0  0.1631380E-03  0.1389571E+04  0.7818609E-02  0.8961402E-01
       -1   -1    0    0    0  501  0.00000000000E+00  0.00000000000E+00  0.47847772236E+03  0.47847772239E+03  0.50400001928E-02 0.  1.
        1   -1    0    0  501    0  0.00000000000E+00  0.00000000000E+00 -0.10088811089E+04  0.10088811089E+04  0.50400001928E-02 0. -1.
    10030    2    1    2    0    0  0.00000000000E+00  0.00000000000E+00 -0.53040338650E+03  0.14873588313E+04  0.13895713514E+04 0.  0.
        3    1    3    3  502    0  0.18215590492E+03 -0.49275356144E+03  0.22148273801E+03  0.57012407373E+03  0.10100000352E+00 0.  1.
       -3    1    3    3    0  502 -0.18215590492E+03  0.49275356144E+03 -0.75188612450E+03  0.91723475754E+03  0.10100000352E+00 0. -1.
</event>
<event>
 5   0  0.1700207E-03  0.1379077E+04  0.7818609E-02  0.8969105E-01
        1   -1    0    0  501    0  0.00000000000E+00  0.00000000000E+00  0.12391452321E+04  0.12391452321E+04  0.50400001928E-02 0.  1.
       -1   -1    0    0    0  501  0.00000000000E+00  0.00000000000E+00 -0.38370252058E+03  0.38370252061E+03  0.50400001928E-02 0. -1.
    10030    2    1    2    0    0  0.00000000000E+00  0.00000000000E+00  0.85544271152E+03  0.16228477527E+04  0.13790767186E+04 0.  0.
        2    1    3    3  502    0 -0.29723018042E+03 -0.78248318765E+02 -0.29863333298E+03  0.42854456841E+03  0.25500000920E-02 0. -1.
       -2    1    3    3    0  502  0.29723018042E+03  0.78248318765E+02  0.11540760445E+04  0.11943031843E+04  0.25500000920E-02 0.  1.
</event>
<event>
 5   0  0.2917809E-03  0.1344228E+04  0.7818609E-02  0.8995209E-01
        2   -1    0    0  501    0  0.00000000000E+00  0.00000000000E+00  0.10191103135E+04  0.10191103135E+04  0.25500000920E-02 0.  1.
       -2   -1    0    0    0  501  0.00000000000E+00  0.00000000000E+00 -0.44326599216E+03  0.44326599217E+03  0.25500000920E-02 0. -1.
    10030    2    1    2    0    0  0.00000000000E+00  0.00000000000E+00  0.57584432138E+03  0.14623763057E+04  0.13442275764E+04 0.  0.
        2    1    3    3  502    0  0.52216378442E+03  0.40987091605E+02 -0.17028891066E+03  0.55075699954E+03  0.25500000920E-02 0. -1.
       -2    1    3    3    0  502 -0.52216378442E+03 -0.40987091605E+02  0.74613323205E+03  0.91161930618E+03  0.25500000920E-02 0.  1.
</event>
<event>
 5   0  0.1560957E-03  0.1454504E+04  0.7818609E-02  0.8915284E-01
       -1   -1    0    0    0  501  0.00000000000E+00  0.00000000000E+00  0.48151233533E+03  0.48151233536E+03  0.50400001928E-02 0.  1.
        1   -1    0    0  501    0  0.00000000000E+00  0.00000000000E+00 -0.10984045060E+04  0.10984045060E+04  0.50400001928E-02 0. -1.
    10030    2    1    2    0    0  0.00000000000E+00  0.00000000000E+00 -0.61689217069E+03  0.15799168414E+04  0.14545037901E+04 0.  0.
        5    1    3    3  502    0 -0.12595111694E+03  0.41859079830E+03  0.32286525965E+03  0.54345745571E+03  0.46999998093E+01 0.  1.
       -5    1    3    3    0  502  0.12595111694E+03 -0.41859079830E+03 -0.93975743035E+03  0.10364593857E+04  0.46999998093E+01 0. -1.
</event>
<event>
 5   0  0.1586022E-03  0.1230951E+04  0.7818609E-02  0.9086189E-01
        1   -1    0    0  501    0  0.00000000000E+00  0.00000000000E+00  0.74852419660E+03  0.74852419662E+03  0.50400001928E-02 0. -1.
       -1   -1    0    0    0  501  0.00000000000E+00  0.00000000000E+00 -0.50607565305E+03  0.50607565307E+03  0.50400001928E-02 0.  1.
    10030    2    1    2    0    0  0.00000000000E+00  0.00000000000E+00  0.24244854355E+03  0.12545998497E+04  0.12309506434E+04 0.  0.
        1    1    3    3  502    0 -0.51397106520E+03 -0.29966071898E+03 -0.39433661840E+02  0.59625314764E+03  0.50400001928E-02 0. -1.
       -1    1    3    3    0  502  0.51397106520E+03  0.29966071898E+03  0.28188220539E+03  0.65834670205E+03  0.50400001928E-02 0.  1.
</event>
<event>
 5   0  0.2760807E-03  0.1359299E+04  0.7818609E-02  0.8983819E-01
       -2   -1    0    0    0  501  0.00000000000E+00  0.00000000000E+00  0.42071488967E+03  0.42071488968E+03  0.25500000920E-02 0. -1.
        2   -1    0    0  501    0  0.00000000000E+00  0.00000000000E+00 -0.10979481473E+04  0.10979481473E+04  0.25500000920E-02 0.  1.
    10030    2    1    2    0    0  0.00000000000E+00  0.00000000000E+00 -0.67723325765E+03  0.15186630370E+04  0.13592985451E+04 0.  0.
        4    1    3    3  502    0 -0.25118130793E+03  0.59832751770E+03 -0.11285211114E+03  0.65865399093E+03  0.12699999809E+01 0. -1.
       -4    1    3    3    0  502  0.25118130793E+03 -0.59832751770E+03 -0.56438114651E+03  0.86000904607E+03  0.12699999809E+01 0.  1.
</event>
<event>
 5   0  0.1586022E-03  0.1323265E+04  0.7818609E-02  0.9011317E-01
       -1   -1    0    0    0  501  0.00000000000E+00  0.00000000000E+00  0.10435051630E+04  0.10435051630E+04  0.50400001928E-02 0. -1.
        1   -1    0    0  501    0  0.00000000000E+00  0.00000000000E+00 -0.41950660595E+03  0.41950660598E+03  0.50400001928E-02 0.  1.
    10030    2    1    2    0    0  0.00000000000E+00  0.00000000000E+00  0.62399855703E+03  0.14630117690E+04  0.13232646134E+04 0.  0.
        1    1    3    3  502    0 -0.24125266243E+03 -0.10715720153E+03 -0.35876108478E+03  0.44541556882E+03  0.50400001928E-02 0.  1.
       -1    1    3    3    0  502  0.24125266243E+03  0.10715720153E+03  0.98275964182E+03  0.10175962002E+04  0.50400001928E-02 0. -1.
</event>
<event>
 5   0  0.2760807E-03  0.8264549E+03  0.7818609E-02  0.9522495E-01
        2   -1    0    0  501    0  0.00000000000E+00  0.00000000000E+00  0.14353430635E+04  0.14353430635E+04  0.25500000920E-02 0. -1.
       -2   -1    0    0    0  501  0.00000000000E+00  0.00000000000E+00 -0.11896593920E+03  0.11896593923E+03  0.25500000920E-02 0.  1.
    10030    2    1    2    0    0  0.00000000000E+00  0.00000000000E+00  0.13163771243E+04  0.15543090028E+04  0.82645492473E+03 0.  0.
        4    1    3    3  502    0 -0.15016600876E+03 -0.26701919633E+03  0.11797422059E+04  0.12188692984E+04  0.12699999809E+01 0. -1.
       -4    1    3    3    0  502  0.15016600876E+03  0.26701919633E+03  0.13663491842E+03  0.33543970432E+03  0.12699999809E+01 0.  1.
</event>
<event>
 5   0  0.2889469E-03  0.1237841E+04  0.7818609E-02  0.9080364E-01
        2   -1    0    0  501    0  0.00000000000E+00  0.00000000000E+00  0.79438912827E+03  0.79438912828E+03  0.25500000920E-02 0.  1.
       -2   -1    0    0    0  501  0.00000000000E+00  0.00000000000E+00 -0.48221018557E+03  0.48221018558E+03  0.25500000920E-02 0. -1.
    10030    2    1    2    0    0  0.00000000000E+00  0.00000000000E+00  0.31217894270E+03  0.12765993139E+04  0.12378409089E+04 0.  0.
        5    1    3    3  502    0  0.47929137329E+02  0.22842849101E+03 -0.43506304134E+03  0.49373952409E+03  0.46999998093E+01 0. -1.
       -5    1    3    3    0  502 -0.47929137329E+02 -0.22842849101E+03  0.74724198404E+03  0.78285978976E+03  0.46999998093E+01 0.  1.
</event>
<event>
 5   0  0.1644571E-03  0.1410556E+04  0.7818609E-02  0.8946213E-01
       -1   -1    0    0    0  501  0.00000000000E+00  0.00000000000E+00  0.33570057757E+03  0.33570057760E+03  0.50400001928E-02 0.  1.
        1   -1    0    0  501    0  0.00000000000E+00  0.00000000000E+00 -0.14817284039E+04  0.14817284039E+04  0.50400001928E-02 0. -1.
    10030    2    1    2    0    0  0.00000000000E+00  0.00000000000E+00 -0.11460278263E+04  0.18174289815E+04  0.14105560337E+04 0.  0.
        4    1    3    3  502    0 -0.65185240512E+03  0.12698070145E+03 -0.87894873815E+03  0.11016297717E+04  0.12699999809E+01 0.  1.
       -4    1    3    3    0  502  0.65185240512E+03 -0.12698070145E+03 -0.26707908819E+03  0.71579920987E+03  0.12699999809E+01 0. -1.
</event>
<event>
 5   0  0.2889469E-03  0.1386867E+04  0.7818609E-02  0.8963380E-01
       -2   -1    0    0    0  501  0.00000000000E+00  0.00000000000E+00  0.35724762144E+03  0.35724762145E+03  0.25500000920E-02 0. -1.
        2   -1    0    0  501    0  0.00000000000E+00  0.00000000000E+00 -0.13459848479E+04  0.13459848479E+04  0.25500000920E-02 0.  1.
    10030    2    1    2    0    0  0.00000000000E+00  0.00000000000E+00 -0.98873722650E+03  0.17032324694E+04  0.13868668075E+04 0.  0.
        5    1    3    3  502    0 -0.25026716840E+03  0.17895495376E+03 -0.12575504501E+04  0.12946481204E+04  0.46999998093E+01 0.  1.
       -5    1    3    3    0  502  0.25026716840E+03 -0.17895495376E+03  0.26881322362E+03  0.40858434899E+03  0.46999998093E+01 0. -1.
</event>
<event>
 5   0  0.1104538E-03  0.1389684E+04  0.7818609E-02  0.8961320E-01
       -4   -1    0    0    0  501  0.00000000000E+00  0.00000000000E+00  0.36557906602E+03  0.36558127197E+03  0.12699999809E+01 0. -1.
        4   -1    0    0  501    0  0.00000000000E+00  0.00000000000E+00 -0.13206520922E+04  0.13206527029E+04  0.12699999809E+01 0.  1.
    10030    2    1    2    0    0  0.00000000000E+00  0.00000000000E+00 -0.95507302619E+03  0.16862339748E+04  0.13896836088E+04 0.  0.
        5    1    3    3  502    0  0.36542583413E+03 -0.34038426418E+03  0.10865413714E+03  0.51110204369E+03  0.46999998093E+01 0. -1.
       -5    1    3    3    0  502 -0.36542583413E+03  0.34038426418E+03 -0.10637271633E+04  0.11751319311E+04  0.46999998093E+01 0.  1.
</event>
<event>
 5   0  0.2917809E-03  0.6975575E+03  0.7818609E-02  0.9721418E-01
       -2   -1    0    0    0  501  0.00000000000E+00  0.00000000000E+00  0.26011795701E+03  0.26011795703E+03  0.25500000920E-02 0. -1.
        2   -1    0    0  501    0  0.00000000000E+00  0.00000000000E+00 -0.46765947791E+03  0.46765947792E+03  0.25500000920E-02 0.  1.
    10030    2    1    2    0    0  0.00000000000E+00  0.00000000000E+00 -0.20754152089E+03  0.72777743494E+03  0.69755753305E+03 0.  0.
        2    1    3    3  502    0  0.14196242175E+03  0.11869214920E+03 -0.41222295559E+03  0.45185055117E+03  0.25500000920E-02 0.  1.
       -2    1    3    3    0  502 -0.14196242175E+03 -0.11869214920E+03  0.20468143469E+03  0.27592688377E+03  0.25500000920E-02 0. -1.
</event>
<event>
 5   0  0.1560957E-03  0.1408651E+04  0.7818609E-02  0.8947580E-01
       -1   -1    0    0    0  501  0.00000000000E+00  0.00000000000E+00  0.46422387839E+03  0.46422387841E+03  0.50400001928E-02 0. -1.
        1   -1    0    0  501    0  0.00000000000E+00  0.00000000000E+00 -0.10686101517E+04  0.10686101517E+04  0.50400001928E-02 0.  1.
    10030    2    1    2    0    0  0.00000000000E+00  0.00000000000E+00 -0.60438627332E+03  0.15328340301E+04  0.14086509137E+04 0.  0.
        5    1    3    3  502    0 -0.12445590238E+03  0.69256654421E+03 -0.33510102926E+03  0.77939237846E+03  0.46999998093E+01 0. -1.
       -5    1    3    3    0  502  0.12445590238E+03 -0.69256654421E+03 -0.26928524406E+03  0.75344165166E+03  0.46999998093E+01 0.  1.
</event>
</LesHouchesEvents>
