<LesHouchesEvents version="3.0">
<header>
<!--
#*********************************************************************
#                                                                    *
#                        MadGraph5_aMC@NLO                           *
#                                                                    *
#                           Going Beyond                             *
#                                                                    *
#                   http://madgraph.hep.uiuc.edu                     *
#                   http://madgraph.phys.ucl.ac.be                   *
#                   http://amcatnlo.cern.ch                          *
#                                                                    *
#                     The MadGraph5_aMC@NLO team                     *
#                                                                    *
#....................................................................*
#                                                                    *
# This file contains all the information necessary to reproduce      *
# the events generated:                                              *
#                                                                    *
# 1. software version                                                *
# 2. proc_card          : code generation info including model       *
# 3. param_card         : model primary parameters in the LH format  *
# 4. run_card           : running parameters (collider and cuts)     *
# 5. pythia_card        : present only if pythia has been run        *
# 6. pgs_card           : present only if pgs has been run           *
# 7. delphes_cards      : present only if delphes has been run       *
#                                                                    *
#                                                                    *
#*********************************************************************
-->
<MGVersion>
#5.2.2.3
</MGVersion>
<MG5ProcCard>
#************************************************************
#*                     MadGraph5_aMC@NLO                    *
#*                                                          *
#*                *                       *                 *
#*                  *        * *        *                   *
#*                    * * * * 5 * * * *                     *
#*                  *        * *        *                   *
#*                *                       *                 *
#*                                                          *
#*                                                          *
#*         VERSION 2.2.3                 2015-02-10         *
#*                                                          *
#*    The MadGraph5_aMC@NLO Development Team - Find us at   *
#*    https://server06.fynu.ucl.ac.be/projects/madgraph     *
#*                                                          *
#************************************************************
#*                                                          *
#*               Command File for MadGraph5_aMC@NLO         *
#*                                                          *
#*     run as ./bin/mg5_aMC  filename                       *
#*                                                          *
#************************************************************
set group_subprocesses Auto
set ignore_six_quark_processes False
set loop_optimized_output True
set gauge unitary
set complex_mass_scheme False
import model sm
define p = g u c d s u~ c~ d~ s~
define j = g u c d s u~ c~ d~ s~
define l+ = e+ mu+
define l- = e- mu-
define vl = ve vm vt
define vl~ = ve~ vm~ vt~
import model Zprime_UFO
generate p p > zph, zph > j j
add process p p > zph, zph > b b~
output Dijet_signal
</MG5ProcCard>
<MGProcCard>
#*********************************************************************
#                        MadGraph/MadEvent                           *
#                   http://madgraph.hep.uiuc.edu                     *
#                                                                    *
#                          proc_card.dat                             *
#*********************************************************************
#                                                                    *
#            This Files is generated by MADGRAPH 5                   *
#                                                                    *
# WARNING: This Files is generated for MADEVENT (compatibility issue)*
#          This files is NOT a valid MG4 proc_card.dat               *
#          Running this in MG4 will NEVER reproduce the result of MG5*
#                                                                    *
#*********************************************************************
#*********************************************************************
# Process(es) requested : mg2 input                                  *
#*********************************************************************
# Begin PROCESS # This is TAG. Do not modify this line
p p > zph , zph > j j           #Process
# Be carefull the coupling are here in MG5 convention
          
end_coup           # End the couplings input

done               # this tells MG there are no more procs
# End PROCESS  # This is TAG. Do not modify this line
#*********************************************************************
# Model information                                                  *
#*********************************************************************
# Begin MODEL  # This is TAG. Do not modify this line
Zprime_UFO
# End   MODEL  # This is TAG. Do not modify this line
#*********************************************************************
# Start multiparticle definitions                                    *
#*********************************************************************
# Begin MULTIPARTICLES # This is TAG. Do not modify this line

# End  MULTIPARTICLES # This is TAG. Do not modify this line
</MGProcCard>
<MGRunCard>
#*********************************************************************
#                       MadGraph5_aMC@NLO                            *
#                                                                    *
#                     run_card.dat MadEvent                          *
#                                                                    *
#  This file is used to set the parameters of the run.               *
#                                                                    *
#  Some notation/conventions:                                        *
#                                                                    *
#   Lines starting with a '# ' are info or comments                  *
#                                                                    *
#   mind the format:   value    = variable     ! comment             *
#*********************************************************************
#
#*******************                                                 
# Running parameters
#*******************                                                 
#                                                                    
#*********************************************************************
# Tag name for the run (one word)                                    *
#*********************************************************************
  tag_1     = run_tag ! name of the run 
#*********************************************************************
# Run to generate the grid pack                                      *
#*********************************************************************
  .false.     = gridpack  !True = setting up the grid pack
#*********************************************************************
# Number of events and rnd seed                                      *
# Warning: Do not generate more than 1M events in a single run       *
# If you want to run Pythia, avoid more than 50k events in a run.    *
#*********************************************************************
  2000 = nevents ! Number of unweighted events requested 
 1659 = iseed   ! rnd seed (0=assigned automatically=default))
#*********************************************************************
# Collider type and energy                                           *
# lpp: 0=No PDF, 1=proton, -1=antiproton, 2=photon from proton,      *
#                                         3=photon from electron     *
#*********************************************************************
        1     = lpp1    ! beam 1 type 
        1     = lpp2    ! beam 2 type
     4000     = ebeam1  ! beam 1 total energy in GeV
     4000     = ebeam2  ! beam 2 total energy in GeV
#*********************************************************************
# Beam polarization from -100 (left-handed) to 100 (right-handed)    *
#*********************************************************************
        0     = polbeam1 ! beam polarization for beam 1
        0     = polbeam2 ! beam polarization for beam 2
#*********************************************************************
# PDF CHOICE: this automatically fixes also alpha_s and its evol.    *
#*********************************************************************
 'nn23lo1'    = pdlabel     ! PDF set                                     
 230000    = lhaid     ! if pdlabel=lhapdf, this is the lhapdf number
#*********************************************************************
# Renormalization and factorization scales                           *
#*********************************************************************
 F        = fixed_ren_scale  ! if .true. use fixed ren scale
 F        = fixed_fac_scale  ! if .true. use fixed fac scale
 91.1880  = scale            ! fixed ren scale
 91.1880  = dsqrt_q2fact1    ! fixed fact scale for pdf1
 91.1880  = dsqrt_q2fact2    ! fixed fact scale for pdf2
 1        = scalefact        ! scale factor for event-by-event scales
#*********************************************************************
# Matching - Warning! ickkw > 1 is still beta
#*********************************************************************
 0        = ickkw            ! 0 no matching, 1 MLM, 2 CKKW matching
 1        = highestmult      ! for ickkw=2, highest mult group
 1        = ktscheme         ! for ickkw=1, 1 Durham kT, 2 Pythia pTE
 1        = alpsfact         ! scale factor for QCD emission vx
 F        = chcluster        ! cluster only according to channel diag
 T        = pdfwgt           ! for ickkw=1, perform pdf reweighting
 5        = asrwgtflavor     ! highest quark flavor for a_s reweight
 T        = clusinfo         ! include clustering tag in output
 3.0      = lhe_version       ! Change the way clustering information pass to shower.        
#*********************************************************************
#**********************************************************
#
#**********************************************************
# Automatic ptj and mjj cuts if xqcut > 0
# (turn off for VBF and single top processes)
#**********************************************************
   T  = auto_ptj_mjj  ! Automatic setting of ptj and mjj
#**********************************************************
#                                                                    
#**********************************
# BW cutoff (M+/-bwcutoff*Gamma)
#**********************************
  15  = bwcutoff      ! (M+/-bwcutoff*Gamma)
#**********************************************************
# Apply pt/E/eta/dr/mij cuts on decay products or not
# (note that etmiss/ptll/ptheavy/ht/sorted cuts always apply)
#**********************************************************
   T  = cut_decays    ! Cut decay products 
#*************************************************************
# Number of helicities to sum per event (0 = all helicities)
# 0 gives more stable result, but longer run time (needed for
# long decay chains e.g.).
# Use >=2 if most helicities contribute, e.g. pure QCD.
#*************************************************************
   0  = nhel          ! Number of helicities used per event
#*******************                                                 
# Standard Cuts
#*******************                                                 
#                                                                    
#*********************************************************************
# Minimum and maximum pt's (for max, -1 means no cut)                *
#*********************************************************************
 20  = ptj       ! minimum pt for the jets 
  0  = ptb       ! minimum pt for the b 
 10  = pta       ! minimum pt for the photons 
 10  = ptl       ! minimum pt for the charged leptons 
  0  = misset    ! minimum missing Et (sum of neutrino's momenta)
  0  = ptheavy   ! minimum pt for one heavy final state
 1.0 = ptonium   ! minimum pt for the quarkonium states
 -1  = ptjmax    ! maximum pt for the jets
 -1  = ptbmax    ! maximum pt for the b
 -1  = ptamax    ! maximum pt for the photons
 -1  = ptlmax    ! maximum pt for the charged leptons
 -1  = missetmax ! maximum missing Et (sum of neutrino's momenta)
#*********************************************************************
# Minimum and maximum E's (in the center of mass frame)              *
#*********************************************************************
  0  = ej     ! minimum E for the jets 
  0  = eb     ! minimum E for the b 
  0  = ea     ! minimum E for the photons 
  0  = el     ! minimum E for the charged leptons 
 -1   = ejmax ! maximum E for the jets
 -1   = ebmax ! maximum E for the b
 -1   = eamax ! maximum E for the photons
 -1   = elmax ! maximum E for the charged leptons
#*********************************************************************
# Maximum and minimum absolute rapidity (for max, -1 means no cut)   *
#*********************************************************************
   5  = etaj    ! max rap for the jets 
  -1  = etab    ! max rap for the b
 2.5  = etaa    ! max rap for the photons 
 2.5  = etal    ! max rap for the charged leptons 
 0.6  = etaonium ! max rap for the quarkonium states
   0  = etajmin ! min rap for the jets
   0  = etabmin ! min rap for the b
   0  = etaamin ! min rap for the photons
   0  = etalmin ! main rap for the charged leptons
#*********************************************************************
# Minimum and maximum DeltaR distance                                *
#*********************************************************************
 0.4 = drjj    ! min distance between jets 
 0   = drbb    ! min distance between b's 
 0.4 = drll    ! min distance between leptons 
 0.4 = draa    ! min distance between gammas 
 0   = drbj    ! min distance between b and jet 
 0.4 = draj    ! min distance between gamma and jet 
 0.4 = drjl    ! min distance between jet and lepton 
 0   = drab    ! min distance between gamma and b 
 0   = drbl    ! min distance between b and lepton 
 0.4 = dral    ! min distance between gamma and lepton 
 -1  = drjjmax ! max distance between jets
 -1  = drbbmax ! max distance between b's
 -1  = drllmax ! max distance between leptons
 -1  = draamax ! max distance between gammas
 -1  = drbjmax ! max distance between b and jet
 -1  = drajmax ! max distance between gamma and jet
 -1  = drjlmax ! max distance between jet and lepton
 -1  = drabmax ! max distance between gamma and b
 -1  = drblmax ! max distance between b and lepton
 -1  = dralmax ! maxdistance between gamma and lepton
#*********************************************************************
# Minimum and maximum invariant mass for pairs                       *
# WARNING: for four lepton final state mmll cut require to have      *
#          different lepton masses for each flavor!                  *           
#*********************************************************************
 0   = mmjj    ! min invariant mass of a jet pair 
 0   = mmbb    ! min invariant mass of a b pair 
 0   = mmaa    ! min invariant mass of gamma gamma pair
 0   = mmll    ! min invariant mass of l+l- (same flavour) lepton pair
 -1  = mmjjmax ! max invariant mass of a jet pair
 -1  = mmbbmax ! max invariant mass of a b pair
 -1  = mmaamax ! max invariant mass of gamma gamma pair
 -1  = mmllmax ! max invariant mass of l+l- (same flavour) lepton pair
#*********************************************************************
# Minimum and maximum invariant mass for all letpons                 *
#*********************************************************************
 0   = mmnl    ! min invariant mass for all letpons (l+- and vl) 
 -1  = mmnlmax ! max invariant mass for all letpons (l+- and vl) 
#*********************************************************************
# Minimum and maximum pt for 4-momenta sum of leptons                *
#*********************************************************************
 0   = ptllmin  ! Minimum pt for 4-momenta sum of leptons(l and vl)
 -1  = ptllmax  ! Maximum pt for 4-momenta sum of leptons(l and vl)
#*********************************************************************
# Inclusive cuts                                                     *
#*********************************************************************
 0  = xptj ! minimum pt for at least one jet  
 0  = xptb ! minimum pt for at least one b 
 0  = xpta ! minimum pt for at least one photon 
 0  = xptl ! minimum pt for at least one charged lepton 
#*********************************************************************
# Control the pt's of the jets sorted by pt                          *
#*********************************************************************
 0   = ptj1min ! minimum pt for the leading jet in pt
 0   = ptj2min ! minimum pt for the second jet in pt
 0   = ptj3min ! minimum pt for the third jet in pt
 0   = ptj4min ! minimum pt for the fourth jet in pt
 -1  = ptj1max ! maximum pt for the leading jet in pt 
 -1  = ptj2max ! maximum pt for the second jet in pt
 -1  = ptj3max ! maximum pt for the third jet in pt
 -1  = ptj4max ! maximum pt for the fourth jet in pt
 0   = cutuse  ! reject event if fails any (0) / all (1) jet pt cuts
#*********************************************************************
# Control the pt's of leptons sorted by pt                           *
#*********************************************************************
 0   = ptl1min ! minimum pt for the leading lepton in pt
 0   = ptl2min ! minimum pt for the second lepton in pt
 0   = ptl3min ! minimum pt for the third lepton in pt
 0   = ptl4min ! minimum pt for the fourth lepton in pt
 -1  = ptl1max ! maximum pt for the leading lepton in pt 
 -1  = ptl2max ! maximum pt for the second lepton in pt
 -1  = ptl3max ! maximum pt for the third lepton in pt
 -1  = ptl4max ! maximum pt for the fourth lepton in pt
#*********************************************************************
# Control the Ht(k)=Sum of k leading jets                            *
#*********************************************************************
 0   = htjmin ! minimum jet HT=Sum(jet pt)
 -1  = htjmax ! maximum jet HT=Sum(jet pt)
 0   = ihtmin  !inclusive Ht for all partons (including b)
 -1  = ihtmax  !inclusive Ht for all partons (including b)
 0   = ht2min ! minimum Ht for the two leading jets
 0   = ht3min ! minimum Ht for the three leading jets
 0   = ht4min ! minimum Ht for the four leading jets
 -1  = ht2max ! maximum Ht for the two leading jets
 -1  = ht3max ! maximum Ht for the three leading jets
 -1  = ht4max ! maximum Ht for the four leading jets
#***********************************************************************
# Photon-isolation cuts, according to hep-ph/9801442                   *
# When ptgmin=0, all the other parameters are ignored                  *
# When ptgmin>0, pta and draj are not going to be used                 *
#***********************************************************************
   0 = ptgmin ! Min photon transverse momentum
 0.4 = R0gamma ! Radius of isolation code
 1.0 = xn ! n parameter of eq.(3.4) in hep-ph/9801442
 1.0 = epsgamma ! epsilon_gamma parameter of eq.(3.4) in hep-ph/9801442
 .true. = isoEM ! isolate photons from EM energy (photons and leptons)
#*********************************************************************
# WBF cuts                                                           *
#*********************************************************************
 0   = xetamin ! minimum rapidity for two jets in the WBF case  
 0   = deltaeta ! minimum rapidity for two jets in the WBF case 
#*********************************************************************
# KT DURHAM CUT                                                      *
#*********************************************************************
 -1    =  ktdurham        
 0.4  =  dparameter 
#*********************************************************************
# maximal pdg code for quark to be considered as a light jet         *
# (otherwise b cuts are applied)                                     *
#*********************************************************************
 4 = maxjetflavor    ! Maximum jet pdg code
#*********************************************************************
# Jet measure cuts                                                   *
#*********************************************************************
 0   = xqcut   ! minimum kt jet measure between partons
#*********************************************************************
#
#*********************************************************************
# Store info for systematics studies                                 *
# WARNING: If use_syst is T, matched Pythia output is                *
#          meaningful ONLY if plotted taking matchscale              *
#          reweighting into account!                                 *
#*********************************************************************
   F  = use_syst      ! Enable systematics studies
#
#**************************************
# Parameter of the systematics study
#  will be used by SysCalc (if installed)
#**************************************                                  
#
0.5 1 2 = sys_scalefact  # factorization/renormalization scale factor
0.5 1 2 = sys_alpsfact  # \alpha_s emission scale factors
30 50 = sys_matchscale # variation of merging scale
# PDF sets and number of members (0 or none for all members).
CT10nlo.LHgrid = sys_pdf # matching scales
# MSTW2008nlo68cl.LHgrid 1  = sys_pdf
</MGRunCard>
<slha>
######################################################################
## PARAM_CARD AUTOMATICALY GENERATED BY MG5 FOLLOWING UFO MODEL   ####
######################################################################
##                                                                  ##
##  Width set on Auto will be computed following the information    ##
##        present in the decay.py files of the model.               ##
##        See  arXiv:1402.1178 for more details.                    ##
##                                                                  ##
######################################################################

###################################
## INFORMATION FOR CKMBLOCK
###################################
Block ckmblock 
    1 2.277360e-01 # cabi 

###################################
## INFORMATION FOR FRBLOCK
###################################
Block frblock 
    1 8.000000e-01 # gz 

###################################
## INFORMATION FOR MASS
###################################
Block mass 
    1 5.040000e-03 # MD 
    2 2.550000e-03 # MU 
    3 1.010000e-01 # MS 
    4 1.270000e+00 # MC 
    5 4.700000e+00 # MB 
    6 1.720000e+02 # MT 
   11 5.110000e-04 # Me 
   13 1.056600e-01 # MM 
   15 1.777000e+00 # MTA 
   23 9.118760e+01 # MZ 
   25 1.200000e+02 # MH 
  10030 2.600000e+03 # MZph 
  10031 3.000000e+02 # MZpl 
## Dependent parameters, given by model restrictions.
## Those values should be edited following the 
## analytical expression. MG5 ignores those values 
## but they are important for interfacing the output of MG5
## to external program such as Pythia.
  12 0.000000 # ve : 0.0 
  14 0.000000 # vm : 0.0 
  16 0.000000 # vt : 0.0 
  21 0.000000 # g : 0.0 
  22 0.000000 # a : 0.0 
  24 79.824360 # w+ : cmath.sqrt(MZ__exp__2/2. + cmath.sqrt(MZ__exp__4/4. - (aEW*cmath.pi*MZ__exp__2)/(Gf*sqrt__2))) 

###################################
## INFORMATION FOR SMINPUTS
###################################
Block sminputs 
    1 1.279000e+02 # aEWM1 
    2 1.166370e-05 # Gf 
    3 1.184000e-01 # aS 

###################################
## INFORMATION FOR YUKAWA
###################################
Block yukawa 
    1 5.040000e-03 # ymdo 
    2 2.550000e-03 # ymup 
    3 1.010000e-01 # yms 
    4 1.270000e+00 # ymc 
    5 4.700000e+00 # ymb 
    6 1.720000e+02 # ymt 
   11 5.110000e-04 # yme 
   13 1.056600e-01 # ymm 
   15 1.777000e+00 # ymtau 

###################################
## INFORMATION FOR DECAY
###################################
DECAY   6 1.508336e+00 # WT 
DECAY  23 2.495200e+00 # WZ 
DECAY  24 2.085000e+00 # WW 
DECAY  25 5.753088e-03 # WH 
## Dependent parameters, given by model restrictions.
## Those values should be edited following the 
## analytical expression. MG5 ignores those values 
## but they are important for interfacing the output of MG5
## to external program such as Pythia.
DECAY  1 0.000000 # d : 0.0 
DECAY  2 0.000000 # u : 0.0 
DECAY  3 0.000000 # s : 0.0 
DECAY  4 0.000000 # c : 0.0 
DECAY  5 0.000000 # b : 0.0 
DECAY  11 0.000000 # e- : 0.0 
DECAY  12 0.000000 # ve : 0.0 
DECAY  13 0.000000 # mu- : 0.0 
DECAY  14 0.000000 # vm : 0.0 
DECAY  15 0.000000 # ta- : 0.0 
DECAY  16 0.000000 # vt : 0.0 
DECAY  21 0.000000 # g : 0.0 
DECAY  22 0.000000 # a : 0.0 
DECAY  10030 0.308725 # zph : (gz__exp__2*MZph*(5 + cmath.sqrt(1 - (4*MT__exp__2)/MZph__exp__2)))/(144.*cmath.pi) 
DECAY  10031 0.132629 # zpl : (5*gz__exp__2*MZpl)/(144.*cmath.pi) 
#===========================================================
# QUANTUM NUMBERS OF NEW STATE(S) (NON SM PDG CODE)
#===========================================================

Block QNUMBERS 10030  # zph 
        1 0  # 3 times electric charge
        2 3  # number of spin states (2S+1)
        3 1  # colour rep (1: singlet, 3: triplet, 8: octet)
        4 0  # Particle/Antiparticle distinction (0=own anti)
Block QNUMBERS 10031  # zpl 
        1 0  # 3 times electric charge
        2 3  # number of spin states (2S+1)
        3 1  # colour rep (1: singlet, 3: triplet, 8: octet)
        4 0  # Particle/Antiparticle distinction (0=own anti)
</slha>
## END BANNER##
<MGGenerationInfo>
#  Number of Events        :         3912
#  Integrated weight (pb)  :  0.29642E-02
#  Max wgt                 :  0.11369E-05
#  Average wgt             :  0.75772E-06
</MGGenerationInfo>
</header>
<init>
     2212     2212  0.40000000000E+04  0.40000000000E+04 0 0  247000  247000 2   1
  0.29668535739E-02  0.58118982011E-05  0.11368810000E-05   0
</init>
<event>
 5   0  0.1085061E-05  0.2664757E+04  0.7818609E-02  0.8346532E-01
        2   -1    0    0  501    0  0.00000000000E+00  0.00000000000E+00  0.22807604962E+04  0.22807604962E+04  0.25500000920E-02 0. -1.
       -2   -1    0    0    0  501  0.00000000000E+00  0.00000000000E+00 -0.77835095810E+03  0.77835095810E+03  0.25500000920E-02 0.  1.
    10030    2    1    2    0    0  0.00000000000E+00  0.00000000000E+00  0.15024095381E+04  0.30591114543E+04  0.26647567374E+04 0.  0.
        1    1    3    3  502    0  0.25897033410E+03 -0.12315132401E+04  0.24878200012E+03  0.12828027822E+04  0.50400001928E-02 0.  1.
       -1    1    3    3    0  502 -0.25897033410E+03  0.12315132401E+04  0.12536275379E+04  0.17763086720E+04  0.50400001928E-02 0. -1.
</event>
<event>
 5   0  0.1085061E-05  0.2610175E+04  0.7818609E-02  0.8364753E-01
       -2   -1    0    0    0  501  0.00000000000E+00  0.00000000000E+00  0.12572049760E+04  0.12572049760E+04  0.25500000920E-02 0.  1.
        2   -1    0    0  501    0  0.00000000000E+00  0.00000000000E+00 -0.13547941893E+04  0.13547941893E+04  0.25500000920E-02 0. -1.
    10030    2    1    2    0    0  0.00000000000E+00  0.00000000000E+00 -0.97589213357E+02  0.26119991653E+04  0.26101754702E+04 0.  0.
        1    1    3    3  502    0 -0.10827172136E+04  0.72808285069E+03 -0.78358338102E+02  0.13071041394E+04  0.50400001928E-02 0. -1.
       -1    1    3    3    0  502  0.10827172136E+04 -0.72808285069E+03 -0.19230875255E+02  0.13048950259E+04  0.50400001928E-02 0.  1.
</event>
<event>
 5   0  0.1136881E-05  0.2650603E+04  0.7818609E-02  0.8351213E-01
        2   -1    0    0  501    0  0.00000000000E+00  0.00000000000E+00  0.18055565176E+04  0.18055565176E+04  0.25500000920E-02 0.  1.
       -2   -1    0    0    0  501  0.00000000000E+00  0.00000000000E+00 -0.97278821218E+03  0.97278821218E+03  0.25500000920E-02 0. -1.
    10030    2    1    2    0    0  0.00000000000E+00  0.00000000000E+00  0.83276830540E+03  0.27783447298E+04  0.26506030233E+04 0.  0.
        3    1    3    3  502    0  0.10528556825E+04  0.80222883280E+03  0.34726774976E+03  0.13684557313E+04  0.10100000352E+00 0. -1.
       -3    1    3    3    0  502 -0.10528556825E+04 -0.80222883280E+03  0.48550055564E+03  0.14098889985E+04  0.10100000352E+00 0.  1.
</event>
<event>
 5   0  0.1085061E-05  0.2601373E+04  0.7818609E-02  0.8367735E-01
       -2   -1    0    0    0  501  0.00000000000E+00  0.00000000000E+00  0.11478588022E+04  0.11478588022E+04  0.25500000920E-02 0.  1.
        2   -1    0    0  501    0  0.00000000000E+00  0.00000000000E+00 -0.14738617373E+04  0.14738617373E+04  0.25500000920E-02 0. -1.
    10030    2    1    2    0    0  0.00000000000E+00  0.00000000000E+00 -0.32600293512E+03  0.26217205395E+04  0.26013728440E+04 0.  0.
        1    1    3    3  502    0  0.90843822211E+03 -0.66473658091E+03  0.49374778154E+03  0.12291955081E+04  0.50400001928E-02 0.  1.
       -1    1    3    3    0  502 -0.90843822211E+03  0.66473658091E+03 -0.81975071667E+03  0.13925250313E+04  0.50400001928E-02 0. -1.
</event>
<event>
 5   0  0.1136881E-05  0.2564534E+04  0.7818609E-02  0.8380349E-01
       -2   -1    0    0    0  501  0.00000000000E+00  0.00000000000E+00  0.88342948730E+03  0.88342948730E+03  0.25500000920E-02 0.  1.
        2   -1    0    0  501    0  0.00000000000E+00  0.00000000000E+00 -0.18611654690E+04  0.18611654690E+04  0.25500000920E-02 0. -1.
    10030    2    1    2    0    0  0.00000000000E+00  0.00000000000E+00 -0.97773598174E+03  0.27445949563E+04  0.25645338415E+04 0.  0.
        3    1    3    3  502    0 -0.31447302436E+03 -0.44539132926E+01 -0.18192475761E+04  0.18462326163E+04  0.10100000352E+00 0. -1.
       -3    1    3    3    0  502  0.31447302436E+03  0.44539132926E+01  0.84151159432E+03  0.89836234002E+03  0.10100000352E+00 0.  1.
</event>
<event>
 5   0  0.4218590E-06  0.2624184E+04  0.7818609E-02  0.8360033E-01
       -1   -1    0    0    0  501  0.00000000000E+00  0.00000000000E+00  0.87409624051E+03  0.87409624052E+03  0.50400001928E-02 0.  1.
        1   -1    0    0  501    0  0.00000000000E+00  0.00000000000E+00 -0.19695603237E+04  0.19695603237E+04  0.50400001928E-02 0. -1.
    10030    2    1    2    0    0  0.00000000000E+00  0.00000000000E+00 -0.10954640832E+04  0.28436565642E+04  0.26241838917E+04 0.  0.
        1    1    3    3  502    0  0.30245138678E+03  0.42274710275E+03 -0.18532277216E+04  0.19247454227E+04  0.50400001928E-02 0. -1.
       -1    1    3    3    0  502 -0.30245138678E+03 -0.42274710275E+03  0.75776363840E+03  0.91891114149E+03  0.50400001928E-02 0.  1.
</event>
<event>
 5   0  0.4361864E-06  0.2569095E+04  0.7818609E-02  0.8378775E-01
        1   -1    0    0  501    0  0.00000000000E+00  0.00000000000E+00  0.13945566761E+04  0.13945566761E+04  0.50400001928E-02 0.  1.
       -1   -1    0    0    0  501  0.00000000000E+00  0.00000000000E+00 -0.11832165151E+04  0.11832165151E+04  0.50400001928E-02 0. -1.
    10030    2    1    2    0    0  0.00000000000E+00  0.00000000000E+00  0.21134016101E+03  0.25777731912E+04  0.25690951640E+04 0.  0.
        3    1    3    3  502    0  0.18617994198E+03 -0.57522823580E+03 -0.10315213849E+04  0.11956533243E+04  0.10100000352E+00 0. -1.
       -3    1    3    3    0  502 -0.18617994198E+03  0.57522823580E+03  0.12428615459E+04  0.13821198670E+04  0.10100000352E+00 0.  1.
</event>
<event>
 5   0  0.1085061E-05  0.2592102E+04  0.7818609E-02  0.8370889E-01
        2   -1    0    0  501    0  0.00000000000E+00  0.00000000000E+00  0.12567536505E+04  0.12567536505E+04  0.25500000920E-02 0. -1.
       -2   -1    0    0    0  501  0.00000000000E+00  0.00000000000E+00 -0.13365774885E+04  0.13365774885E+04  0.25500000920E-02 0.  1.
    10030    2    1    2    0    0  0.00000000000E+00  0.00000000000E+00 -0.79823838004E+02  0.25933311390E+04  0.25921023420E+04 0.  0.
        1    1    3    3  502    0  0.20064072938E+03 -0.13866971539E+03 -0.13134107193E+04  0.13358644055E+04  0.50400001928E-02 0.  1.
       -1    1    3    3    0  502 -0.20064072938E+03  0.13866971539E+03  0.12335868813E+04  0.12574667335E+04  0.50400001928E-02 0. -1.
</event>
<event>
 5   0  0.4415080E-06  0.2594658E+04  0.7818609E-02  0.8370018E-01
        1   -1    0    0  501    0  0.00000000000E+00  0.00000000000E+00  0.12617609032E+04  0.12617609033E+04  0.50400001928E-02 0.  1.
       -1   -1    0    0    0  501  0.00000000000E+00  0.00000000000E+00 -0.13338995998E+04  0.13338995998E+04  0.50400001928E-02 0. -1.
    10030    2    1    2    0    0  0.00000000000E+00  0.00000000000E+00 -0.72138696573E+02  0.25956605031E+04  0.25946578687E+04 0.  0.
        2    1    3    3  502    0  0.12613102177E+04 -0.40819587917E+02 -0.33700557120E+03  0.13061938826E+04  0.25500000920E-02 0. -1.
       -2    1    3    3    0  502 -0.12613102177E+04  0.40819587917E+02  0.26486687463E+03  0.12894666205E+04  0.25500000920E-02 0.  1.
</event>
<event>
 5   0  0.1085061E-05  0.2600530E+04  0.7818609E-02  0.8368021E-01
        2   -1    0    0  501    0  0.00000000000E+00  0.00000000000E+00  0.10853416788E+04  0.10853416788E+04  0.25500000920E-02 0. -1.
       -2   -1    0    0    0  501  0.00000000000E+00  0.00000000000E+00 -0.15577485602E+04  0.15577485602E+04  0.25500000920E-02 0.  1.
    10030    2    1    2    0    0  0.00000000000E+00  0.00000000000E+00 -0.47240688145E+03  0.26430902390E+04  0.26005302824E+04 0.  0.
        1    1    3    3  502    0 -0.59577731071E+02 -0.58892974865E+03 -0.14128644345E+04  0.15318530168E+04  0.50400001928E-02 0.  1.
       -1    1    3    3    0  502  0.59577731071E+02  0.58892974865E+03  0.94045755302E+03  0.11112372222E+04  0.50400001928E-02 0. -1.
</event>
<event>
 5   0  0.4415080E-06  0.2608838E+04  0.7818609E-02  0.8365205E-01
        1   -1    0    0  501    0  0.00000000000E+00  0.00000000000E+00  0.23320367365E+04  0.23320367365E+04  0.50400001928E-02 0. -1.
       -1   -1    0    0    0  501  0.00000000000E+00  0.00000000000E+00 -0.72962344531E+03  0.72962344533E+03  0.50400001928E-02 0.  1.
    10030    2    1    2    0    0  0.00000000000E+00  0.00000000000E+00  0.16024132911E+04  0.30616601818E+04  0.26088378089E+04 0.  0.
        2    1    3    3  502    0 -0.10393200325E+04  0.66227533435E+03  0.29956251476E+03  0.12682793260E+04  0.25500000920E-02 0.  1.
       -2    1    3    3    0  502  0.10393200325E+04 -0.66227533435E+03  0.13028507764E+04  0.17933808558E+04  0.25500000920E-02 0. -1.
</event>
<event>
 5   0  0.1085255E-05  0.2594657E+04  0.7818609E-02  0.8370018E-01
       -2   -1    0    0    0  501  0.00000000000E+00  0.00000000000E+00  0.75928935937E+03  0.75928935938E+03  0.25500000920E-02 0.  1.
        2   -1    0    0  501    0  0.00000000000E+00  0.00000000000E+00 -0.22166272443E+04  0.22166272443E+04  0.25500000920E-02 0. -1.
    10030    2    1    2    0    0  0.00000000000E+00  0.00000000000E+00 -0.14573378849E+04  0.29759166037E+04  0.25946571876E+04 0.  0.
        5    1    3    3  502    0  0.10827567113E+04 -0.36637116799E+03 -0.14323795715E+04  0.18325728514E+04  0.46999998093E+01 0. -1.
       -5    1    3    3    0  502 -0.10827567113E+04  0.36637116799E+03 -0.24958313370E+02  0.11433437523E+04  0.46999998093E+01 0.  1.
</event>
<event>
 5   0  0.4597705E-06  0.2581226E+04  0.7818609E-02  0.8374606E-01
       -1   -1    0    0    0  501  0.00000000000E+00  0.00000000000E+00  0.12618679847E+04  0.12618679847E+04  0.50400001928E-02 0. -1.
        1   -1    0    0  501    0  0.00000000000E+00  0.00000000000E+00 -0.13200126755E+04  0.13200126755E+04  0.50400001928E-02 0.  1.
    10030    2    1    2    0    0  0.00000000000E+00  0.00000000000E+00 -0.58144690802E+02  0.25818806603E+04  0.25812258597E+04 0.  0.
        5    1    3    3  502    0 -0.16997650410E+03 -0.30499071022E+03  0.12137195234E+04  0.12629523019E+04  0.46999998093E+01 0. -1.
       -5    1    3    3    0  502  0.16997650410E+03  0.30499071022E+03 -0.12718642142E+04  0.13189283584E+04  0.46999998093E+01 0.  1.
</event>
<event>
 5   0  0.4218590E-06  0.2407515E+04  0.7818609E-02  0.8436695E-01
       -1   -1    0    0    0  501  0.00000000000E+00  0.00000000000E+00  0.79692834052E+03  0.79692834053E+03  0.50400001928E-02 0. -1.
        1   -1    0    0  501    0  0.00000000000E+00  0.00000000000E+00 -0.18182716108E+04  0.18182716108E+04  0.50400001928E-02 0.  1.
    10030    2    1    2    0    0  0.00000000000E+00  0.00000000000E+00 -0.10213432703E+04  0.26151999514E+04  0.24075150487E+04 0.  0.
        1    1    3    3  502    0 -0.94392040803E+03 -0.63750558913E+03 -0.87678961644E+02  0.11424039186E+04  0.50400001928E-02 0. -1.
       -1    1    3    3    0  502  0.94392040803E+03  0.63750558913E+03 -0.93366430866E+03  0.14727960328E+04  0.50400001928E-02 0.  1.
</event>
<event>
 5   0  0.4361864E-06  0.2591645E+04  0.7818609E-02  0.8371045E-01
       -1   -1    0    0    0  501  0.00000000000E+00  0.00000000000E+00  0.10570216264E+04  0.10570216264E+04  0.50400001928E-02 0. -1.
        1   -1    0    0  501    0  0.00000000000E+00  0.00000000000E+00 -0.15885732853E+04  0.15885732853E+04  0.50400001928E-02 0.  1.
    10030    2    1    2    0    0  0.00000000000E+00  0.00000000000E+00 -0.53155165894E+03  0.26455949117E+04  0.25916452826E+04 0.  0.
        3    1    3    3  502    0  0.63708655020E+03  0.69569638961E+03 -0.11726860952E+04  0.15050134309E+04  0.10100000352E+00 0. -1.
       -3    1    3    3    0  502 -0.63708655020E+03 -0.69569638961E+03  0.64113443627E+03  0.11405814809E+04  0.10100000352E+00 0.  1.
</event>
<event>
 5   0  0.4361864E-06  0.2562556E+04  0.7818609E-02  0.8381032E-01
        1   -1    0    0  501    0  0.00000000000E+00  0.00000000000E+00  0.15484642020E+04  0.15484642020E+04  0.50400001928E-02 0.  1.
       -1   -1    0    0    0  501  0.00000000000E+00  0.00000000000E+00 -0.10601949561E+04  0.10601949562E+04  0.50400001928E-02 0. -1.
    10030    2    1    2    0    0  0.00000000000E+00  0.00000000000E+00  0.48826924588E+03  0.26086591582E+04  0.25625564866E+04 0.  0.
        3    1    3    3  502    0 -0.23636018515E+03 -0.21625323684E+02  0.15258899135E+04  0.15442389161E+04  0.10100000352E+00 0.  1.
       -3    1    3    3    0  502  0.23636018515E+03  0.21625323684E+02 -0.10376206676E+04  0.10644202421E+04  0.10100000352E+00 0. -1.
</event>
<event>
 5   0  0.1085061E-05  0.2594278E+04  0.7818609E-02  0.8370148E-01
       -2   -1    0    0    0  501  0.00000000000E+00  0.00000000000E+00  0.14496997319E+04  0.14496997319E+04  0.25500000920E-02 0. -1.
        2   -1    0    0  501    0  0.00000000000E+00  0.00000000000E+00 -0.11606327998E+04  0.11606327998E+04  0.25500000920E-02 0.  1.
    10030    2    1    2    0    0  0.00000000000E+00  0.00000000000E+00  0.28906693210E+03  0.26103325317E+04  0.25942775940E+04 0.  0.
        1    1    3    3  502    0 -0.36494940227E+03  0.16886495520E+03 -0.10963323262E+04  0.11677534024E+04  0.50400001928E-02 0.  1.
       -1    1    3    3    0  502  0.36494940227E+03 -0.16886495520E+03  0.13853992583E+04  0.14425791293E+04  0.50400001928E-02 0. -1.
</event>
<event>
 5   0  0.4464297E-06  0.2582741E+04  0.7818609E-02  0.8374087E-01
       -1   -1    0    0    0  501  0.00000000000E+00  0.00000000000E+00  0.10143279985E+04  0.10143279985E+04  0.50400001928E-02 0. -1.
        1   -1    0    0  501    0  0.00000000000E+00  0.00000000000E+00 -0.16440810235E+04  0.16440810235E+04  0.50400001928E-02 0.  1.
    10030    2    1    2    0    0  0.00000000000E+00  0.00000000000E+00 -0.62975302505E+03  0.26584090220E+04  0.25827407256E+04 0.  0.
        4    1    3    3  502    0 -0.10846001729E+03  0.59852268953E+03 -0.14873919646E+04  0.16069628043E+04  0.12699999809E+01 0.  1.
       -4    1    3    3    0  502  0.10846001729E+03 -0.59852268953E+03  0.85763893955E+03  0.10514462177E+04  0.12699999809E+01 0. -1.
</event>
<event>
 5   0  0.4218590E-06  0.2544798E+04  0.7818609E-02  0.8387198E-01
        1   -1    0    0  501    0  0.00000000000E+00  0.00000000000E+00  0.25088845386E+04  0.25088845386E+04  0.50400001928E-02 0.  1.
       -1   -1    0    0    0  501  0.00000000000E+00  0.00000000000E+00 -0.64530619640E+03  0.64530619642E+03  0.50400001928E-02 0. -1.
    10030    2    1    2    0    0  0.00000000000E+00  0.00000000000E+00  0.18635783422E+04  0.31541907350E+04  0.25447976256E+04 0.  0.
        1    1    3    3  502    0  0.90405220335E+03 -0.88046292206E+03  0.73011999532E+03  0.14579439465E+04  0.50400001928E-02 0. -1.
       -1    1    3    3    0  502 -0.90405220335E+03  0.88046292206E+03  0.11334583469E+04  0.16962467885E+04  0.50400001928E-02 0.  1.
</event>
<event>
 5   0  0.1086507E-05  0.2656035E+04  0.7818609E-02  0.8349413E-01
       -2   -1    0    0    0  501  0.00000000000E+00  0.00000000000E+00  0.78456765460E+03  0.78456765460E+03  0.25500000920E-02 0. -1.
        2   -1    0    0  501    0  0.00000000000E+00  0.00000000000E+00 -0.22479005328E+04  0.22479005328E+04  0.25500000920E-02 0.  1.
    10030    2    1    2    0    0  0.00000000000E+00  0.00000000000E+00 -0.14633328782E+04  0.30324681874E+04  0.26560346751E+04 0.  0.
        2    1    3    3  502    0  0.65531236624E+03 -0.10550267923E+04 -0.19479432249E+03  0.12571637355E+04  0.25500000920E-02 0.  1.
       -2    1    3    3    0  502 -0.65531236624E+03  0.10550267923E+04 -0.12685385557E+04  0.17753044519E+04  0.25500000920E-02 0. -1.
</event>
<event>
 5   0  0.4361864E-06  0.2591785E+04  0.7818609E-02  0.8370997E-01
        1   -1    0    0  501    0  0.00000000000E+00  0.00000000000E+00  0.11161389177E+04  0.11161389177E+04  0.50400001928E-02 0.  1.
       -1   -1    0    0    0  501  0.00000000000E+00  0.00000000000E+00 -0.15045956157E+04  0.15045956157E+04  0.50400001928E-02 0. -1.
    10030    2    1    2    0    0  0.00000000000E+00  0.00000000000E+00 -0.38845669804E+03  0.26207345334E+04  0.25917852705E+04 0.  0.
        3    1    3    3  502    0  0.11600542720E+03 -0.12548223857E+04 -0.49976431189E+03  0.13556551392E+04  0.10100000352E+00 0. -1.
       -3    1    3    3    0  502 -0.11600542720E+03  0.12548223857E+04  0.11130761385E+03  0.12650793943E+04  0.10100000352E+00 0.  1.
</event>
<event>
 5   0  0.1136881E-05  0.2588858E+04  0.7818609E-02  0.8371996E-01
        2   -1    0    0  501    0  0.00000000000E+00  0.00000000000E+00  0.11050781658E+04  0.11050781658E+04  0.25500000920E-02 0.  1.
       -2   -1    0    0    0  501  0.00000000000E+00  0.00000000000E+00 -0.15162245648E+04  0.15162245648E+04  0.25500000920E-02 0. -1.
    10030    2    1    2    0    0  0.00000000000E+00  0.00000000000E+00 -0.41114639897E+03  0.26213027305E+04  0.25888581737E+04 0.  0.
        3    1    3    3  502    0  0.34462270058E+03 -0.28350149679E+03 -0.14358766033E+04  0.15036221383E+04  0.10100000352E+00 0. -1.
       -3    1    3    3    0  502 -0.34462270058E+03  0.28350149679E+03  0.10247302044E+04  0.11176805923E+04  0.10100000352E+00 0.  1.
</event>
<event>
 5   0  0.4218590E-06  0.2609385E+04  0.7818609E-02  0.8365020E-01
       -1   -1    0    0    0  501  0.00000000000E+00  0.00000000000E+00  0.12909969259E+04  0.12909969259E+04  0.50400001928E-02 0. -1.
        1   -1    0    0  501    0  0.00000000000E+00  0.00000000000E+00 -0.13185336079E+04  0.13185336079E+04  0.50400001928E-02 0.  1.
    10030    2    1    2    0    0  0.00000000000E+00  0.00000000000E+00 -0.27536681917E+02  0.26095305338E+04  0.26093852414E+04 0.  0.
        1    1    3    3  502    0 -0.15353185261E+03 -0.98416102237E+02 -0.13057245860E+04  0.13183984426E+04  0.50400001928E-02 0.  1.
       -1    1    3    3    0  502  0.15353185261E+03  0.98416102237E+02  0.12781879040E+04  0.12911320912E+04  0.50400001928E-02 0. -1.
</event>
<event>
 5   0  0.1086507E-05  0.2597051E+04  0.7818609E-02  0.8369204E-01
       -2   -1    0    0    0  501  0.00000000000E+00  0.00000000000E+00  0.13741916110E+04  0.13741916110E+04  0.25500000920E-02 0.  1.
        2   -1    0    0  501    0  0.00000000000E+00  0.00000000000E+00 -0.12270258240E+04  0.12270258240E+04  0.25500000920E-02 0. -1.
    10030    2    1    2    0    0  0.00000000000E+00  0.00000000000E+00  0.14716578696E+03  0.26012174350E+04  0.25970510921E+04 0.  0.
        2    1    3    3  502    0 -0.12245930338E+04  0.41804856836E+03 -0.35107968118E+02  0.12944594522E+04  0.25500000920E-02 0. -1.
       -2    1    3    3    0  502  0.12245930338E+04 -0.41804856836E+03  0.18227375507E+03  0.13067579828E+04  0.25500000920E-02 0.  1.
</event>
<event>
 5   0  0.4415080E-06  0.2590928E+04  0.7818609E-02  0.8371289E-01
       -1   -1    0    0    0  501  0.00000000000E+00  0.00000000000E+00  0.12031314740E+04  0.12031314740E+04  0.50400001928E-02 0.  1.
        1   -1    0    0  501    0  0.00000000000E+00  0.00000000000E+00 -0.13948825164E+04  0.13948825164E+04  0.50400001928E-02 0. -1.
    10030    2    1    2    0    0  0.00000000000E+00  0.00000000000E+00 -0.19175104238E+03  0.25980139904E+04  0.25909280638E+04 0.  0.
        2    1    3    3  502    0  0.59764547331E+03  0.11440275434E+04 -0.20684854265E+03  0.13071975564E+04  0.25500000920E-02 0. -1.
       -2    1    3    3    0  502 -0.59764547331E+03 -0.11440275434E+04  0.15097500268E+02  0.12908164340E+04  0.25500000920E-02 0.  1.
</event>
<event>
 5   0  0.1136881E-05  0.2601633E+04  0.7818609E-02  0.8367647E-01
        2   -1    0    0  501    0  0.00000000000E+00  0.00000000000E+00  0.10357584521E+04  0.10357584521E+04  0.25500000920E-02 0. -1.
       -2   -1    0    0    0  501  0.00000000000E+00  0.00000000000E+00 -0.16337042414E+04  0.16337042414E+04  0.25500000920E-02 0.  1.
    10030    2    1    2    0    0  0.00000000000E+00  0.00000000000E+00 -0.59794578923E+03  0.26694626935E+04  0.26016325462E+04 0.  0.
        3    1    3    3  502    0  0.88715152002E+03 -0.60810785755E+03 -0.10496833354E+04  0.15028865894E+04  0.10100000352E+00 0. -1.
       -3    1    3    3    0  502 -0.88715152002E+03  0.60810785755E+03  0.45173754613E+03  0.11665761041E+04  0.10100000352E+00 0.  1.
</event>
<event>
 5   0  0.1085255E-05  0.2504053E+04  0.7818609E-02  0.8401543E-01
        2   -1    0    0  501    0  0.00000000000E+00  0.00000000000E+00  0.11088434444E+04  0.11088434444E+04  0.25500000920E-02 0.  1.
       -2   -1    0    0    0  501  0.00000000000E+00  0.00000000000E+00 -0.14136990524E+04  0.14136990524E+04  0.25500000920E-02 0. -1.
    10030    2    1    2    0    0  0.00000000000E+00  0.00000000000E+00 -0.30485560801E+03  0.25225424967E+04  0.25040534551E+04 0.  0.
        5    1    3    3  502    0 -0.78554520241E+00  0.69667825284E+03  0.89553574920E+03  0.11346222161E+04  0.46999998093E+01 0.  1.
       -5    1    3    3    0  502  0.78554520241E+00 -0.69667825284E+03 -0.12003913572E+04  0.13879202807E+04  0.46999998093E+01 0. -1.
</event>
<event>
 5   0  0.4415080E-06  0.2608121E+04  0.7818609E-02  0.8365448E-01
        1   -1    0    0  501    0  0.00000000000E+00  0.00000000000E+00  0.11207589089E+04  0.11207589089E+04  0.50400001928E-02 0.  1.
       -1   -1    0    0    0  501  0.00000000000E+00  0.00000000000E+00 -0.15173417303E+04  0.15173417303E+04  0.50400001928E-02 0. -1.
    10030    2    1    2    0    0  0.00000000000E+00  0.00000000000E+00 -0.39658282145E+03  0.26381006392E+04  0.26081213638E+04 0.  0.
        2    1    3    3  502    0  0.25476657435E+03  0.82604335916E+03  0.78931308163E+03  0.11705848023E+04  0.25500000920E-02 0.  1.
       -2    1    3    3    0  502 -0.25476657435E+03 -0.82604335916E+03 -0.11858959031E+04  0.14675158369E+04  0.25500000920E-02 0. -1.
</event>
<event>
 5   0  0.1136881E-05  0.2593486E+04  0.7818609E-02  0.8370417E-01
        2   -1    0    0  501    0  0.00000000000E+00  0.00000000000E+00  0.18482011324E+04  0.18482011324E+04  0.25500000920E-02 0.  1.
       -2   -1    0    0    0  501  0.00000000000E+00  0.00000000000E+00 -0.90982640366E+03  0.90982640367E+03  0.25500000920E-02 0. -1.
    10030    2    1    2    0    0  0.00000000000E+00  0.00000000000E+00  0.93837472876E+03  0.27580275361E+04  0.25934858315E+04 0.  0.
        3    1    3    3  502    0  0.24098637244E+03  0.27364529226E+03 -0.85418597981E+03  0.92875716739E+03  0.10100000352E+00 0. -1.
       -3    1    3    3    0  502 -0.24098637244E+03 -0.27364529226E+03  0.17925607086E+04  0.18292703687E+04  0.10100000352E+00 0.  1.
</event>
<event>
 5   0  0.1085061E-05  0.2645972E+04  0.7818609E-02  0.8352751E-01
       -2   -1    0    0    0  501  0.00000000000E+00  0.00000000000E+00  0.10250751491E+04  0.10250751491E+04  0.25500000920E-02 0. -1.
        2   -1    0    0  501    0  0.00000000000E+00  0.00000000000E+00 -0.17074763808E+04  0.17074763808E+04  0.25500000920E-02 0.  1.
    10030    2    1    2    0    0  0.00000000000E+00  0.00000000000E+00 -0.68240123166E+03  0.27325515299E+04  0.26459717350E+04 0.  0.
        1    1    3    3  502    0 -0.28963343831E+03  0.14312976156E+03  0.98371204578E+03  0.10354047741E+04  0.50400001928E-02 0. -1.
       -1    1    3    3    0  502  0.28963343831E+03 -0.14312976156E+03 -0.16661132774E+04  0.16971467557E+04  0.50400001928E-02 0.  1.
</event>
<event>
 5   0  0.4597705E-06  0.2596176E+04  0.7818609E-02  0.8369501E-01
        1   -1    0    0  501    0  0.00000000000E+00  0.00000000000E+00  0.13847738368E+04  0.13847738368E+04  0.50400001928E-02 0.  1.
       -1   -1    0    0    0  501  0.00000000000E+00  0.00000000000E+00 -0.12168282002E+04  0.12168282002E+04  0.50400001928E-02 0. -1.
    10030    2    1    2    0    0  0.00000000000E+00  0.00000000000E+00  0.16794563665E+03  0.26016020370E+04  0.25961755376E+04 0.  0.
        5    1    3    3  502    0  0.59747490343E+03  0.49025345980E+03 -0.96112848710E+03  0.12333348182E+04  0.46999998093E+01 0. -1.
       -5    1    3    3    0  502 -0.59747490343E+03 -0.49025345980E+03  0.11290741237E+04  0.13682672188E+04  0.46999998093E+01 0.  1.
</event>
<event>
 5   0  0.1136881E-05  0.2591614E+04  0.7818609E-02  0.8371055E-01
        2   -1    0    0  501    0  0.00000000000E+00  0.00000000000E+00  0.24392079734E+04  0.24392079734E+04  0.25500000920E-02 0. -1.
       -2   -1    0    0    0  501  0.00000000000E+00  0.00000000000E+00 -0.68838576471E+03  0.68838576472E+03  0.25500000920E-02 0.  1.
    10030    2    1    2    0    0  0.00000000000E+00  0.00000000000E+00  0.17508222086E+04  0.31275937381E+04  0.25916142043E+04 0.  0.
        3    1    3    3  502    0  0.22125425927E+02  0.56624204669E+03  0.22817477709E+04  0.23510619920E+04  0.10100000352E+00 0. -1.
       -3    1    3    3    0  502 -0.22125425927E+02 -0.56624204669E+03 -0.53092556223E+03  0.77653174612E+03  0.10100000352E+00 0.  1.
</event>
<event>
 5   0  0.4464297E-06  0.2603261E+04  0.7818609E-02  0.8367094E-01
       -1   -1    0    0    0  501  0.00000000000E+00  0.00000000000E+00  0.76895326744E+03  0.76895326746E+03  0.50400001928E-02 0. -1.
        1   -1    0    0  501    0  0.00000000000E+00  0.00000000000E+00 -0.22033097685E+04  0.22033097685E+04  0.50400001928E-02 0.  1.
    10030    2    1    2    0    0  0.00000000000E+00  0.00000000000E+00 -0.14343565011E+04  0.29722630360E+04  0.26032612206E+04 0.  0.
        4    1    3    3  502    0 -0.35856211260E+03 -0.65166576891E+02 -0.21438706789E+04  0.21746256166E+04  0.12699999809E+01 0.  1.
       -4    1    3    3    0  502  0.35856211260E+03  0.65166576891E+02  0.70951417787E+03  0.79763741940E+03  0.12699999809E+01 0. -1.
</event>
<event>
 5   0  0.4218590E-06  0.2597991E+04  0.7818609E-02  0.8368884E-01
        1   -1    0    0  501    0  0.00000000000E+00  0.00000000000E+00  0.14466713864E+04  0.14466713864E+04  0.50400001928E-02 0. -1.
       -1   -1    0    0    0  501  0.00000000000E+00  0.00000000000E+00 -0.11663945771E+04  0.11663945771E+04  0.50400001928E-02 0.  1.
    10030    2    1    2    0    0  0.00000000000E+00  0.00000000000E+00  0.28027680934E+03  0.26130659635E+04  0.25979912702E+04 0.  0.
        1    1    3    3  502    0  0.11504038472E+04  0.24852415782E+03  0.69305206850E+03  0.13658383647E+04  0.50400001928E-02 0.  1.
       -1    1    3    3    0  502 -0.11504038472E+04 -0.24852415782E+03 -0.41277525916E+03  0.12472275989E+04  0.50400001928E-02 0. -1.
</event>
<event>
 5   0  0.4361864E-06  0.2606608E+04  0.7818609E-02  0.8365960E-01
        1   -1    0    0  501    0  0.00000000000E+00  0.00000000000E+00  0.23391930329E+04  0.23391930329E+04  0.50400001928E-02 0. -1.
       -1   -1    0    0    0  501  0.00000000000E+00  0.00000000000E+00 -0.72614832497E+03  0.72614832499E+03  0.50400001928E-02 0.  1.
    10030    2    1    2    0    0  0.00000000000E+00  0.00000000000E+00  0.16130447079E+04  0.30653413579E+04  0.26066078360E+04 0.  0.
        3    1    3    3  502    0 -0.24377571569E+03  0.18402504215E+03 -0.68346473778E+03  0.74860929308E+03  0.10100000352E+00 0.  1.
       -3    1    3    3    0  502  0.24377571569E+03 -0.18402504215E+03  0.22965094457E+04  0.23167320648E+04  0.10100000352E+00 0. -1.
</event>
<event>
 5   0  0.1116310E-05  0.2609469E+04  0.7818609E-02  0.8364992E-01
        2   -1    0    0  501    0  0.00000000000E+00  0.00000000000E+00  0.18899346099E+04  0.18899346099E+04  0.25500000920E-02 0. -1.
       -2   -1    0    0    0  501  0.00000000000E+00  0.00000000000E+00 -0.90073564408E+03  0.90073564409E+03  0.25500000920E-02 0.  1.
    10030    2    1    2    0    0  0.00000000000E+00  0.00000000000E+00  0.98919896580E+03  0.27906702540E+04  0.26094685038E+04 0.  0.
        4    1    3    3  502    0  0.22218645596E+02 -0.12152556372E+04  0.10018681031E+04  0.15751448318E+04  0.12699999809E+01 0.  1.
       -4    1    3    3    0  502 -0.22218645596E+02  0.12152556372E+04 -0.12669137341E+02  0.12155254222E+04  0.12699999809E+01 0. -1.
</event>
<event>
 5   0  0.1116310E-05  0.2600775E+04  0.7818609E-02  0.8367938E-01
        2   -1    0    0  501    0  0.00000000000E+00  0.00000000000E+00  0.22207611939E+04  0.22207611939E+04  0.25500000920E-02 0.  1.
       -2   -1    0    0    0  501  0.00000000000E+00  0.00000000000E+00 -0.76145401162E+03  0.76145401163E+03  0.25500000920E-02 0. -1.
    10030    2    1    2    0    0  0.00000000000E+00  0.00000000000E+00  0.14593071822E+04  0.29822152055E+04  0.26007748999E+04 0.  0.
        4    1    3    3  502    0 -0.63747439155E+02 -0.11275999748E+04 -0.94427767953E+01  0.11294406660E+04  0.12699999809E+01 0. -1.
       -4    1    3    3    0  502  0.63747439155E+02  0.11275999748E+04  0.14687499590E+04  0.18527745395E+04  0.12699999809E+01 0.  1.
</event>
<event>
 5   0  0.4415080E-06  0.2603412E+04  0.7818609E-02  0.8367043E-01
       -1   -1    0    0    0  501  0.00000000000E+00  0.00000000000E+00  0.92930464451E+03  0.92930464452E+03  0.50400001928E-02 0. -1.
        1   -1    0    0  501    0  0.00000000000E+00  0.00000000000E+00 -0.18233407898E+04  0.18233407898E+04  0.50400001928E-02 0.  1.
    10030    2    1    2    0    0  0.00000000000E+00  0.00000000000E+00 -0.89403614533E+03  0.27526454344E+04  0.26034124257E+04 0.  0.
        2    1    3    3  502    0  0.48471415983E+03  0.39193155891E+03  0.76123827577E+03  0.98389119119E+03  0.25500000920E-02 0. -1.
       -2    1    3    3    0  502 -0.48471415983E+03 -0.39193155891E+03 -0.16552744211E+04  0.17687542432E+04  0.25500000920E-02 0.  1.
</event>
<event>
 5   0  0.4597705E-06  0.2615327E+04  0.7818609E-02  0.8363014E-01
        1   -1    0    0  501    0  0.00000000000E+00  0.00000000000E+00  0.92120858332E+03  0.92120858334E+03  0.50400001928E-02 0.  1.
       -1   -1    0    0    0  501  0.00000000000E+00  0.00000000000E+00 -0.18562391792E+04  0.18562391792E+04  0.50400001928E-02 0. -1.
    10030    2    1    2    0    0  0.00000000000E+00  0.00000000000E+00 -0.93503059585E+03  0.27774477625E+04  0.26153267211E+04 0.  0.
        5    1    3    3  502    0 -0.19386258769E+03 -0.11607111087E+04  0.13803106194E+03  0.11848660873E+04  0.46999998093E+01 0.  1.
       -5    1    3    3    0  502  0.19386258769E+03  0.11607111087E+04 -0.10730616578E+04  0.15925816752E+04  0.46999998093E+01 0. -1.
</event>
<event>
 5   0  0.4597705E-06  0.2578915E+04  0.7818609E-02  0.8375399E-01
        1   -1    0    0  501    0  0.00000000000E+00  0.00000000000E+00  0.15420044398E+04  0.15420044398E+04  0.50400001928E-02 0.  1.
       -1   -1    0    0    0  501  0.00000000000E+00  0.00000000000E+00 -0.10782722841E+04  0.10782722841E+04  0.50400001928E-02 0. -1.
    10030    2    1    2    0    0  0.00000000000E+00  0.00000000000E+00  0.46373215570E+03  0.26202767240E+04  0.25789150040E+04 0.  0.
        5    1    3    3  502    0  0.98153813810E+03  0.58177674334E+03  0.84216379831E+03  0.14181478233E+04  0.46999998093E+01 0.  1.
       -5    1    3    3    0  502 -0.98153813810E+03 -0.58177674334E+03 -0.37843164261E+03  0.12021289006E+04  0.46999998093E+01 0. -1.
</event>
<event>
 5   0  0.1086507E-05  0.2588099E+04  0.7818609E-02  0.8372255E-01
        2   -1    0    0  501    0  0.00000000000E+00  0.00000000000E+00  0.17483064347E+04  0.17483064347E+04  0.25500000920E-02 0. -1.
       -2   -1    0    0    0  501  0.00000000000E+00  0.00000000000E+00 -0.95782099966E+03  0.95782099966E+03  0.25500000920E-02 0.  1.
    10030    2    1    2    0    0  0.00000000000E+00  0.00000000000E+00  0.79048543504E+03  0.27061274344E+04  0.25880993930E+04 0.  0.
        2    1    3    3  502    0 -0.15739156594E+03  0.53263063804E+02  0.17371058885E+04  0.17450346491E+04  0.25500000920E-02 0. -1.
       -2    1    3    3    0  502  0.15739156594E+03 -0.53263063804E+02 -0.94662045341E+03  0.96109278523E+03  0.25500000920E-02 0.  1.
</event>
<event>
 5   0  0.1136881E-05  0.2579482E+04  0.7818609E-02  0.8375204E-01
       -2   -1    0    0    0  501  0.00000000000E+00  0.00000000000E+00  0.78686371834E+03  0.78686371835E+03  0.25500000920E-02 0.  1.
        2   -1    0    0  501    0  0.00000000000E+00  0.00000000000E+00 -0.21140024128E+04  0.21140024128E+04  0.25500000920E-02 0. -1.
    10030    2    1    2    0    0  0.00000000000E+00  0.00000000000E+00 -0.13271386945E+04  0.29008661312E+04  0.25794819628E+04 0.  0.
        3    1    3    3  502    0  0.12642427921E+04 -0.23377155434E+03 -0.77865649949E+03  0.15030851378E+04  0.10100000352E+00 0. -1.
       -3    1    3    3    0  502 -0.12642427921E+04  0.23377155434E+03 -0.54848219498E+03  0.13977809934E+04  0.10100000352E+00 0.  1.
</event>
<event>
 5   0  0.1085061E-05  0.2591907E+04  0.7818609E-02  0.8370955E-01
       -2   -1    0    0    0  501  0.00000000000E+00  0.00000000000E+00  0.15164832873E+04  0.15164832873E+04  0.25500000920E-02 0. -1.
        2   -1    0    0  501    0  0.00000000000E+00  0.00000000000E+00 -0.11074933979E+04  0.11074933979E+04  0.25500000920E-02 0.  1.
    10030    2    1    2    0    0  0.00000000000E+00  0.00000000000E+00  0.40898988941E+03  0.26239766851E+04  0.25919068105E+04 0.  0.
        1    1    3    3  502    0  0.45909828304E+03 -0.11910984057E+04  0.43088787669E+03  0.13472754016E+04  0.50400001928E-02 0. -1.
       -1    1    3    3    0  502 -0.45909828304E+03  0.11910984057E+04 -0.21897987287E+02  0.12767012835E+04  0.50400001928E-02 0.  1.
</event>
<event>
 5   0  0.1086507E-05  0.2609081E+04  0.7818609E-02  0.8365123E-01
       -2   -1    0    0    0  501  0.00000000000E+00  0.00000000000E+00  0.87806287912E+03  0.87806287912E+03  0.25500000920E-02 0. -1.
        2   -1    0    0  501    0  0.00000000000E+00  0.00000000000E+00 -0.19381588401E+04  0.19381588401E+04  0.25500000920E-02 0.  1.
    10030    2    1    2    0    0  0.00000000000E+00  0.00000000000E+00 -0.10600959610E+04  0.28162217192E+04  0.26090805517E+04 0.  0.
        2    1    3    3  502    0  0.54763209283E+03  0.71850402657E+03 -0.15458682836E+04  0.17904909091E+04  0.25500000920E-02 0.  1.
       -2    1    3    3    0  502 -0.54763209283E+03 -0.71850402657E+03  0.48577232266E+03  0.10257308101E+04  0.25500000920E-02 0. -1.
</event>
<event>
 5   0  0.1136881E-05  0.2612916E+04  0.7818609E-02  0.8363827E-01
        2   -1    0    0  501    0  0.00000000000E+00  0.00000000000E+00  0.12399410272E+04  0.12399410272E+04  0.25500000920E-02 0. -1.
       -2   -1    0    0    0  501  0.00000000000E+00  0.00000000000E+00 -0.13765437601E+04  0.13765437601E+04  0.25500000920E-02 0.  1.
    10030    2    1    2    0    0  0.00000000000E+00  0.00000000000E+00 -0.13660273294E+03  0.26164847873E+04  0.26129164425E+04 0.  0.
        3    1    3    3  502    0  0.12937144734E+04 -0.10102058986E+03  0.83334544315E+02  0.13003257110E+04  0.10100000352E+00 0.  1.
       -3    1    3    3    0  502 -0.12937144734E+04  0.10102058986E+03 -0.21993727725E+03  0.13161590764E+04  0.10100000352E+00 0. -1.
</event>
<event>
 5   0  0.4361864E-06  0.2557785E+04  0.7818609E-02  0.8382684E-01
       -1   -1    0    0    0  501  0.00000000000E+00  0.00000000000E+00  0.10533352760E+04  0.10533352760E+04  0.50400001928E-02 0. -1.
        1   -1    0    0  501    0  0.00000000000E+00  0.00000000000E+00 -0.15527499975E+04  0.15527499976E+04  0.50400001928E-02 0.  1.
    10030    2    1    2    0    0  0.00000000000E+00  0.00000000000E+00 -0.49941472152E+03  0.26060852736E+04  0.25577852508E+04 0.  0.
        3    1    3    3  502    0 -0.27220101227E+03  0.20211854419E+03  0.10067132181E+04  0.10622696506E+04  0.10100000352E+00 0. -1.
       -3    1    3    3    0  502  0.27220101227E+03 -0.20211854419E+03 -0.15061279396E+04  0.15438156230E+04  0.10100000352E+00 0.  1.
</event>
<event>
 5   0  0.1085255E-05  0.2598556E+04  0.7818609E-02  0.8368692E-01
        2   -1    0    0  501    0  0.00000000000E+00  0.00000000000E+00  0.99147278567E+03  0.99147278567E+03  0.25500000920E-02 0.  1.
       -2   -1    0    0    0  501  0.00000000000E+00  0.00000000000E+00 -0.17026426842E+04  0.17026426843E+04  0.25500000920E-02 0. -1.
    10030    2    1    2    0    0  0.00000000000E+00  0.00000000000E+00 -0.71116989858E+03  0.26941154699E+04  0.25985564340E+04 0.  0.
        5    1    3    3  502    0 -0.22389502922E+03 -0.12782908109E+04 -0.42070733988E+03  0.13642481948E+04  0.46999998093E+01 0.  1.
       -5    1    3    3    0  502  0.22389502922E+03  0.12782908109E+04 -0.29046255870E+03  0.13298672751E+04  0.46999998093E+01 0. -1.
</event>
<event>
 5   0  0.4597705E-06  0.2564862E+04  0.7818609E-02  0.8380236E-01
       -1   -1    0    0    0  501  0.00000000000E+00  0.00000000000E+00  0.13893798601E+04  0.13893798601E+04  0.50400001928E-02 0.  1.
        1   -1    0    0  501    0  0.00000000000E+00  0.00000000000E+00 -0.11837148768E+04  0.11837148768E+04  0.50400001928E-02 0. -1.
    10030    2    1    2    0    0  0.00000000000E+00  0.00000000000E+00  0.20566498334E+03  0.25730947369E+04  0.25648622653E+04 0.  0.
        5    1    3    3  502    0 -0.81407179780E+03  0.52545999774E+03 -0.73997497958E+03  0.12191825793E+04  0.46999998093E+01 0. -1.
       -5    1    3    3    0  502  0.81407179780E+03 -0.52545999774E+03  0.94563996291E+03  0.13539121577E+04  0.46999998093E+01 0.  1.
</event>
<event>
 5   0  0.4361864E-06  0.2611932E+04  0.7818609E-02  0.8364159E-01
        1   -1    0    0  501    0  0.00000000000E+00  0.00000000000E+00  0.12743839560E+04  0.12743839560E+04  0.50400001928E-02 0. -1.
       -1   -1    0    0    0  501  0.00000000000E+00  0.00000000000E+00 -0.13383305840E+04  0.13383305841E+04  0.50400001928E-02 0.  1.
    10030    2    1    2    0    0  0.00000000000E+00  0.00000000000E+00 -0.63946628070E+02  0.26127145400E+04  0.26119318706E+04 0.  0.
        3    1    3    3  502    0  0.24872299464E+03  0.97736273937E+03  0.79800175257E+03  0.12860434906E+04  0.10100000352E+00 0. -1.
       -3    1    3    3    0  502 -0.24872299464E+03 -0.97736273937E+03 -0.86194838064E+03  0.13266710495E+04  0.10100000352E+00 0.  1.
</event>
<event>
 5   0  0.1136881E-05  0.2658185E+04  0.7818609E-02  0.8348701E-01
       -2   -1    0    0    0  501  0.00000000000E+00  0.00000000000E+00  0.81695985553E+03  0.81695985553E+03  0.25500000920E-02 0.  1.
        2   -1    0    0  501    0  0.00000000000E+00  0.00000000000E+00 -0.21622687575E+04  0.21622687575E+04  0.25500000920E-02 0. -1.
    10030    2    1    2    0    0  0.00000000000E+00  0.00000000000E+00 -0.13453089020E+04  0.29792286131E+04  0.26581849234E+04 0.  0.
        3    1    3    3  502    0 -0.27386533816E+03 -0.12102608644E+04 -0.12063521512E+04  0.17306123501E+04  0.10100000352E+00 0. -1.
       -3    1    3    3    0  502  0.27386533816E+03  0.12102608644E+04 -0.13895675078E+03  0.12486162630E+04  0.10100000352E+00 0.  1.
</event>
<event>
 5   0  0.4218590E-06  0.2612777E+04  0.7818609E-02  0.8363874E-01
        1   -1    0    0  501    0  0.00000000000E+00  0.00000000000E+00  0.22279441974E+04  0.22279441974E+04  0.50400001928E-02 0. -1.
       -1   -1    0    0    0  501  0.00000000000E+00  0.00000000000E+00 -0.76602046392E+03  0.76602046393E+03  0.50400001928E-02 0.  1.
    10030    2    1    2    0    0  0.00000000000E+00  0.00000000000E+00  0.14619237335E+04  0.29939646613E+04  0.26127769501E+04 0.  0.
        1    1    3    3  502    0 -0.62322470094E+02  0.41098778512E+03  0.21501389840E+04  0.21899526708E+04  0.50400001928E-02 0. -1.
       -1    1    3    3    0  502  0.62322470094E+02 -0.41098778512E+03 -0.68821525054E+03  0.80401199052E+03  0.50400001928E-02 0.  1.
</event>
<event>
 5   0  0.4361864E-06  0.2596910E+04  0.7818609E-02  0.8369252E-01
       -1   -1    0    0    0  501  0.00000000000E+00  0.00000000000E+00  0.90532495632E+03  0.90532495634E+03  0.50400001928E-02 0. -1.
        1   -1    0    0  501    0  0.00000000000E+00  0.00000000000E+00 -0.18622980676E+04  0.18622980676E+04  0.50400001928E-02 0.  1.
    10030    2    1    2    0    0  0.00000000000E+00  0.00000000000E+00 -0.95697311130E+03  0.27676230240E+04  0.25969096378E+04 0.  0.
        3    1    3    3  502    0 -0.56094026093E+03 -0.19484863091E+03 -0.17091083796E+04  0.18093289995E+04  0.10100000352E+00 0.  1.
       -3    1    3    3    0  502  0.56094026093E+03  0.19484863091E+03  0.75213526826E+03  0.95829402443E+03  0.10100000352E+00 0. -1.
</event>
<event>
 5   0  0.4464297E-06  0.2599356E+04  0.7818609E-02  0.8368420E-01
        1   -1    0    0  501    0  0.00000000000E+00  0.00000000000E+00  0.13478033783E+04  0.13478033783E+04  0.50400001928E-02 0.  1.
       -1   -1    0    0    0  501  0.00000000000E+00  0.00000000000E+00 -0.12532706366E+04  0.12532706366E+04  0.50400001928E-02 0. -1.
    10030    2    1    2    0    0  0.00000000000E+00  0.00000000000E+00  0.94532741627E+02  0.26010740149E+04  0.25993556109E+04 0.  0.
        4    1    3    3  502    0  0.65933751797E+03 -0.85299392881E+03  0.77358102767E+03  0.13269339940E+04  0.12699999809E+01 0.  1.
       -4    1    3    3    0  502 -0.65933751797E+03  0.85299392881E+03 -0.67904828605E+03  0.12741400209E+04  0.12699999809E+01 0. -1.
</event>
<event>
 5   0  0.4597705E-06  0.2576213E+04  0.7818609E-02  0.8376326E-01
        1   -1    0    0  501    0  0.00000000000E+00  0.00000000000E+00  0.97966221977E+03  0.97966221978E+03  0.50400001928E-02 0.  1.
       -1   -1    0    0    0  501  0.00000000000E+00  0.00000000000E+00 -0.16936636735E+04  0.16936636735E+04  0.50400001928E-02 0. -1.
    10030    2    1    2    0    0  0.00000000000E+00  0.00000000000E+00 -0.71400145376E+03  0.26733258933E+04  0.25762129679E+04 0.  0.
        5    1    3    3  502    0  0.11955726496E+04 -0.45219678670E+03 -0.52212268159E+03  0.13807643097E+04  0.46999998093E+01 0. -1.
       -5    1    3    3    0  502 -0.11955726496E+04  0.45219678670E+03 -0.19187877217E+03  0.12925615836E+04  0.46999998093E+01 0.  1.
</event>
<event>
 5   0  0.1116310E-05  0.2581306E+04  0.7818609E-02  0.8374579E-01
       -2   -1    0    0    0  501  0.00000000000E+00  0.00000000000E+00  0.95555852981E+03  0.95555852981E+03  0.25500000920E-02 0.  1.
        2   -1    0    0  501    0  0.00000000000E+00  0.00000000000E+00 -0.17432577347E+04  0.17432577347E+04  0.25500000920E-02 0. -1.
    10030    2    1    2    0    0  0.00000000000E+00  0.00000000000E+00 -0.78769920486E+03  0.26988162645E+04  0.25813057146E+04 0.  0.
        4    1    3    3  502    0 -0.38223955382E+03 -0.11172417271E+04  0.15087429007E+03  0.11904204373E+04  0.12699999809E+01 0.  1.
       -4    1    3    3    0  502  0.38223955382E+03  0.11172417271E+04 -0.93857349493E+03  0.15083958272E+04  0.12699999809E+01 0. -1.
</event>
<event>
 5   0  0.1085061E-05  0.2555077E+04  0.7818609E-02  0.8383623E-01
       -2   -1    0    0    0  501  0.00000000000E+00  0.00000000000E+00  0.15079225807E+04  0.15079225807E+04  0.25500000920E-02 0.  1.
        2   -1    0    0  501    0  0.00000000000E+00  0.00000000000E+00 -0.10823526738E+04  0.10823526738E+04  0.25500000920E-02 0. -1.
    10030    2    1    2    0    0  0.00000000000E+00  0.00000000000E+00  0.42556990686E+03  0.25902752545E+04  0.25550765445E+04 0.  0.
        1    1    3    3  502    0 -0.10370816895E+04 -0.63427350097E+03 -0.18538869178E+03  0.12297195908E+04  0.50400001928E-02 0. -1.
       -1    1    3    3    0  502  0.10370816895E+04  0.63427350097E+03  0.61095859864E+03  0.13605556637E+04  0.50400001928E-02 0.  1.
</event>
<event>
 5   0  0.4464297E-06  0.2648326E+04  0.7818609E-02  0.8351969E-01
        1   -1    0    0  501    0  0.00000000000E+00  0.00000000000E+00  0.13291019308E+04  0.13291019308E+04  0.50400001928E-02 0.  1.
       -1   -1    0    0    0  501  0.00000000000E+00  0.00000000000E+00 -0.13192427182E+04  0.13192427182E+04  0.50400001928E-02 0. -1.
    10030    2    1    2    0    0  0.00000000000E+00  0.00000000000E+00  0.98592125671E+01  0.26483446490E+04  0.26483262970E+04 0.  0.
        4    1    3    3  502    0  0.52073323307E+03 -0.32222005887E+03 -0.11691388195E+04  0.13198015224E+04  0.12699999809E+01 0. -1.
       -4    1    3    3    0  502 -0.52073323307E+03  0.32222005887E+03  0.11789980321E+04  0.13285431265E+04  0.12699999809E+01 0.  1.
</event>
<event>
 5   0  0.1086507E-05  0.2586604E+04  0.7818609E-02  0.8372766E-01
        2   -1    0    0  501    0  0.00000000000E+00  0.00000000000E+00  0.15467427259E+04  0.15467427259E+04  0.25500000920E-02 0. -1.
       -2   -1    0    0    0  501  0.00000000000E+00  0.00000000000E+00 -0.10813889345E+04  0.10813889345E+04  0.25500000920E-02 0.  1.
    10030    2    1    2    0    0  0.00000000000E+00  0.00000000000E+00  0.46535379142E+03  0.26281316604E+04  0.25866043132E+04 0.  0.
        2    1    3    3  502    0  0.12883559320E+03 -0.67725770868E+03  0.13444812713E+04  0.15109290198E+04  0.25500000920E-02 0. -1.
       -2    1    3    3    0  502 -0.12883559320E+03  0.67725770868E+03 -0.87912747991E+03  0.11172026405E+04  0.25500000920E-02 0.  1.
</event>
<event>
 5   0  0.4597705E-06  0.2602577E+04  0.7818609E-02  0.8367326E-01
       -1   -1    0    0    0  501  0.00000000000E+00  0.00000000000E+00  0.11311775797E+04  0.11311775797E+04  0.50400001928E-02 0.  1.
        1   -1    0    0  501    0  0.00000000000E+00  0.00000000000E+00 -0.14969816167E+04  0.14969816167E+04  0.50400001928E-02 0. -1.
    10030    2    1    2    0    0  0.00000000000E+00  0.00000000000E+00 -0.36580403696E+03  0.26281591964E+04  0.26025772166E+04 0.  0.
        5    1    3    3  502    0 -0.61131696631E+03  0.11998714982E+03 -0.13365961153E+04  0.14746581349E+04  0.46999998093E+01 0. -1.
       -5    1    3    3    0  502  0.61131696631E+03 -0.11998714982E+03  0.97079207836E+03  0.11535010615E+04  0.46999998093E+01 0.  1.
</event>
<event>
 5   0  0.1086507E-05  0.2587210E+04  0.7818609E-02  0.8372559E-01
       -2   -1    0    0    0  501  0.00000000000E+00  0.00000000000E+00  0.88680317568E+03  0.88680317568E+03  0.25500000920E-02 0. -1.
        2   -1    0    0  501    0  0.00000000000E+00  0.00000000000E+00 -0.18870182165E+04  0.18870182165E+04  0.25500000920E-02 0.  1.
    10030    2    1    2    0    0  0.00000000000E+00  0.00000000000E+00 -0.10002150409E+04  0.27738213922E+04  0.25872098848E+04 0.  0.
        2    1    3    3  502    0 -0.10679005491E+03  0.13693628225E+03 -0.18744650316E+04  0.18824916510E+04  0.25500000920E-02 0.  1.
       -2    1    3    3    0  502  0.10679005491E+03 -0.13693628225E+03  0.87424999077E+03  0.89132974123E+03  0.25500000920E-02 0. -1.
</event>
<event>
 5   0  0.4464297E-06  0.2607563E+04  0.7818609E-02  0.8365637E-01
        1   -1    0    0  501    0  0.00000000000E+00  0.00000000000E+00  0.16531101741E+04  0.16531101741E+04  0.50400001928E-02 0. -1.
       -1   -1    0    0    0  501  0.00000000000E+00  0.00000000000E+00 -0.10282717703E+04  0.10282717703E+04  0.50400001928E-02 0.  1.
    10030    2    1    2    0    0  0.00000000000E+00  0.00000000000E+00  0.62483840387E+03  0.26813819444E+04  0.26075632496E+04 0.  0.
        4    1    3    3  502    0  0.12143641603E+04 -0.13762935267E+03  0.77939258423E+03  0.14495090775E+04  0.12699999809E+01 0. -1.
       -4    1    3    3    0  502 -0.12143641603E+04  0.13762935267E+03 -0.15455418036E+03  0.12318728669E+04  0.12699999809E+01 0.  1.
</event>
<event>
 5   0  0.4464297E-06  0.2564831E+04  0.7818609E-02  0.8380247E-01
       -1   -1    0    0    0  501  0.00000000000E+00  0.00000000000E+00  0.10811539805E+04  0.10811539806E+04  0.50400001928E-02 0. -1.
        1   -1    0    0  501    0  0.00000000000E+00  0.00000000000E+00 -0.15211421753E+04  0.15211421753E+04  0.50400001928E-02 0.  1.
    10030    2    1    2    0    0  0.00000000000E+00  0.00000000000E+00 -0.43998819474E+03  0.26022961559E+04  0.25648305346E+04 0.  0.
        4    1    3    3  502    0 -0.38414898773E+03 -0.24768174732E+03 -0.14356913916E+04  0.15066944208E+04  0.12699999809E+01 0.  1.
       -4    1    3    3    0  502  0.38414898773E+03  0.24768174732E+03  0.99570319688E+03  0.10956017351E+04  0.12699999809E+01 0. -1.
</event>
<event>
 5   0  0.4464297E-06  0.2583023E+04  0.7818609E-02  0.8373991E-01
        1   -1    0    0  501    0  0.00000000000E+00  0.00000000000E+00  0.85685270067E+03  0.85685270069E+03  0.50400001928E-02 0.  1.
       -1   -1    0    0    0  501  0.00000000000E+00  0.00000000000E+00 -0.19466609895E+04  0.19466609895E+04  0.50400001928E-02 0. -1.
    10030    2    1    2    0    0  0.00000000000E+00  0.00000000000E+00 -0.10898082888E+04  0.28035136902E+04  0.25830228231E+04 0.  0.
        4    1    3    3  502    0 -0.11958447879E+04  0.42771144259E+03 -0.79948628621E+03  0.15007204169E+04  0.12699999809E+01 0. -1.
       -4    1    3    3    0  502  0.11958447879E+04 -0.42771144259E+03 -0.29032200259E+03  0.13027932733E+04  0.12699999809E+01 0.  1.
</event>
<event>
 5   0  0.1086507E-05  0.2597054E+04  0.7818609E-02  0.8369203E-01
        2   -1    0    0  501    0  0.00000000000E+00  0.00000000000E+00  0.18297401475E+04  0.18297401475E+04  0.25500000920E-02 0.  1.
       -2   -1    0    0    0  501  0.00000000000E+00  0.00000000000E+00 -0.92153635909E+03  0.92153635910E+03  0.25500000920E-02 0. -1.
    10030    2    1    2    0    0  0.00000000000E+00  0.00000000000E+00  0.90820378836E+03  0.27512765065E+04  0.25970537719E+04 0.  0.
        2    1    3    3  502    0 -0.42949578021E+03  0.10504219540E+04 -0.21450199796E+03  0.11549303069E+04  0.25500000920E-02 0. -1.
       -2    1    3    3    0  502  0.42949578021E+03 -0.10504219540E+04  0.11227057863E+04  0.15963461997E+04  0.25500000920E-02 0.  1.
</event>
<event>
 5   0  0.3705250E-06  0.2593553E+04  0.7818609E-02  0.8370394E-01
       -3   -1    0    0    0  501  0.00000000000E+00  0.00000000000E+00  0.22464087175E+04  0.22464087198E+04  0.10100000352E+00 0. -1.
        3   -1    0    0  501    0  0.00000000000E+00  0.00000000000E+00 -0.74858580280E+03  0.74858580961E+03  0.10100000352E+00 0.  1.
    10030    2    1    2    0    0  0.00000000000E+00  0.00000000000E+00  0.14978229147E+04  0.29949945294E+04  0.25935533053E+04 0.  0.
        4    1    3    3  502    0 -0.98084680311E+03  0.44550507632E+03  0.15825128125E+04  0.19143885809E+04  0.12699999809E+01 0. -1.
       -4    1    3    3    0  502  0.98084680311E+03 -0.44550507632E+03 -0.84689897761E+02  0.10806059485E+04  0.12699999809E+01 0.  1.
</event>
<event>
 5   0  0.1085255E-05  0.2595224E+04  0.7818609E-02  0.8369825E-01
        2   -1    0    0  501    0  0.00000000000E+00  0.00000000000E+00  0.16370053290E+04  0.16370053290E+04  0.25500000920E-02 0. -1.
       -2   -1    0    0    0  501  0.00000000000E+00  0.00000000000E+00 -0.10285836291E+04  0.10285836291E+04  0.25500000920E-02 0.  1.
    10030    2    1    2    0    0  0.00000000000E+00  0.00000000000E+00  0.60842169992E+03  0.26655889582E+04  0.25952239844E+04 0.  0.
        5    1    3    3  502    0 -0.70796462052E+03  0.10762602835E+04  0.14434803586E+03  0.12963057306E+04  0.46999998093E+01 0.  1.
       -5    1    3    3    0  502  0.70796462052E+03 -0.10762602835E+04  0.46407366406E+03  0.13692832276E+04  0.46999998093E+01 0. -1.
</event>
<event>
 5   0  0.1085255E-05  0.2608175E+04  0.7818609E-02  0.8365430E-01
        2   -1    0    0  501    0  0.00000000000E+00  0.00000000000E+00  0.95672437988E+03  0.95672437988E+03  0.25500000920E-02 0.  1.
       -2   -1    0    0    0  501  0.00000000000E+00  0.00000000000E+00 -0.17775690873E+04  0.17775690873E+04  0.25500000920E-02 0. -1.
    10030    2    1    2    0    0  0.00000000000E+00  0.00000000000E+00 -0.82084470739E+03  0.27342934672E+04  0.26081745975E+04 0.  0.
        5    1    3    3  502    0  0.62144956552E+03  0.26219262032E+03 -0.15804906107E+04  0.17184054216E+04  0.46999998093E+01 0. -1.
       -5    1    3    3    0  502 -0.62144956552E+03 -0.26219262032E+03  0.75964590330E+03  0.10158880455E+04  0.46999998093E+01 0.  1.
</event>
<event>
 5   0  0.1116310E-05  0.2590184E+04  0.7818609E-02  0.8371543E-01
       -2   -1    0    0    0  501  0.00000000000E+00  0.00000000000E+00  0.80892457365E+03  0.80892457366E+03  0.25500000920E-02 0.  1.
        2   -1    0    0  501    0  0.00000000000E+00  0.00000000000E+00 -0.20734478247E+04  0.20734478247E+04  0.25500000920E-02 0. -1.
    10030    2    1    2    0    0  0.00000000000E+00  0.00000000000E+00 -0.12645232510E+04  0.28823723984E+04  0.25901836982E+04 0.  0.
        4    1    3    3  502    0  0.32162096323E+03  0.89121386384E+03 -0.16147876092E+04  0.18722293745E+04  0.12699999809E+01 0. -1.
       -4    1    3    3    0  502 -0.32162096323E+03 -0.89121386384E+03  0.35026435816E+03  0.10101430238E+04  0.12699999809E+01 0.  1.
</event>
<event>
 5   0  0.4464297E-06  0.2602353E+04  0.7818609E-02  0.8367402E-01
       -1   -1    0    0    0  501  0.00000000000E+00  0.00000000000E+00  0.73417018890E+03  0.73417018892E+03  0.50400001928E-02 0. -1.
        1   -1    0    0  501    0  0.00000000000E+00  0.00000000000E+00 -0.23060867030E+04  0.23060867030E+04  0.50400001928E-02 0.  1.
    10030    2    1    2    0    0  0.00000000000E+00  0.00000000000E+00 -0.15719165141E+04  0.30402568919E+04  0.26023528665E+04 0.  0.
        4    1    3    3  502    0 -0.10948406085E+04  0.68627989198E+03 -0.96467891474E+03  0.16125331220E+04  0.12699999809E+01 0.  1.
       -4    1    3    3    0  502  0.10948406085E+04 -0.68627989198E+03 -0.60723759935E+03  0.14277237699E+04  0.12699999809E+01 0. -1.
</event>
<event>
 5   0  0.4415080E-06  0.2599466E+04  0.7818609E-02  0.8368383E-01
        1   -1    0    0  501    0  0.00000000000E+00  0.00000000000E+00  0.21539449056E+04  0.21539449056E+04  0.50400001928E-02 0.  1.
       -1   -1    0    0    0  501  0.00000000000E+00  0.00000000000E+00 -0.78428476855E+03  0.78428476856E+03  0.50400001928E-02 0. -1.
    10030    2    1    2    0    0  0.00000000000E+00  0.00000000000E+00  0.13696601371E+04  0.29382296742E+04  0.25994662389E+04 0.  0.
        2    1    3    3  502    0 -0.63833886682E+03 -0.49832807935E+03 -0.46426655140E+03  0.93346173693E+03  0.25500000920E-02 0. -1.
       -2    1    3    3    0  502  0.63833886682E+03  0.49832807935E+03  0.18339266885E+04  0.20047679373E+04  0.25500000920E-02 0.  1.
</event>
<event>
 5   0  0.1086507E-05  0.2611261E+04  0.7818609E-02  0.8364386E-01
       -2   -1    0    0    0  501  0.00000000000E+00  0.00000000000E+00  0.10540785451E+04  0.10540785451E+04  0.25500000920E-02 0. -1.
        2   -1    0    0  501    0  0.00000000000E+00  0.00000000000E+00 -0.16172143925E+04  0.16172143925E+04  0.25500000920E-02 0.  1.
    10030    2    1    2    0    0  0.00000000000E+00  0.00000000000E+00 -0.56313584740E+03  0.26712929376E+04  0.26112609934E+04 0.  0.
        2    1    3    3  502    0  0.28899666933E+03 -0.33820396461E+03  0.97415758504E+03  0.10709267001E+04  0.25500000920E-02 0. -1.
       -2    1    3    3    0  502 -0.28899666933E+03  0.33820396461E+03 -0.15372934324E+04  0.16003662375E+04  0.25500000920E-02 0.  1.
</event>
<event>
 5   0  0.4415080E-06  0.2604215E+04  0.7818609E-02  0.8366771E-01
       -1   -1    0    0    0  501  0.00000000000E+00  0.00000000000E+00  0.58883610489E+03  0.58883610491E+03  0.50400001928E-02 0. -1.
        1   -1    0    0  501    0  0.00000000000E+00  0.00000000000E+00 -0.28793811959E+04  0.28793811959E+04  0.50400001928E-02 0.  1.
    10030    2    1    2    0    0  0.00000000000E+00  0.00000000000E+00 -0.22905450910E+04  0.34682173008E+04  0.26042147438E+04 0.  0.
        2    1    3    3  502    0 -0.26702839309E+03 -0.77564207513E+03  0.20143612356E+03  0.84469006346E+03  0.25500000920E-02 0. -1.
       -2    1    3    3    0  502  0.26702839309E+03  0.77564207513E+03 -0.24919812145E+04  0.26235272373E+04  0.25500000920E-02 0.  1.
</event>
<event>
 5   0  0.1136881E-05  0.2613297E+04  0.7818609E-02  0.8363699E-01
        2   -1    0    0  501    0  0.00000000000E+00  0.00000000000E+00  0.86130008681E+03  0.86130008681E+03  0.25500000920E-02 0.  1.
       -2   -1    0    0    0  501  0.00000000000E+00  0.00000000000E+00 -0.19822705666E+04  0.19822705666E+04  0.25500000920E-02 0. -1.
    10030    2    1    2    0    0  0.00000000000E+00  0.00000000000E+00 -0.11209704798E+04  0.28435706534E+04  0.26132966239E+04 0.  0.
        3    1    3    3  502    0  0.13028610832E+04 -0.53374711986E+02 -0.65174400981E+03  0.14577606547E+04  0.10100000352E+00 0. -1.
       -3    1    3    3    0  502 -0.13028610832E+04  0.53374711986E+02 -0.46922646995E+03  0.13858099986E+04  0.10100000352E+00 0.  1.
</event>
<event>
 5   0  0.1085255E-05  0.2602316E+04  0.7818609E-02  0.8367415E-01
       -2   -1    0    0    0  501  0.00000000000E+00  0.00000000000E+00  0.14494529487E+04  0.14494529487E+04  0.25500000920E-02 0.  1.
        2   -1    0    0  501    0  0.00000000000E+00  0.00000000000E+00 -0.11680349467E+04  0.11680349467E+04  0.25500000920E-02 0. -1.
    10030    2    1    2    0    0  0.00000000000E+00  0.00000000000E+00  0.28141800197E+03  0.26174878954E+04  0.26023156593E+04 0.  0.
        5    1    3    3  502    0 -0.53312242010E+03  0.26245997006E+03 -0.10235737043E+04  0.11835666305E+04  0.46999998093E+01 0. -1.
       -5    1    3    3    0  502  0.53312242010E+03 -0.26245997006E+03  0.13049917062E+04  0.14339212649E+04  0.46999998093E+01 0.  1.
</event>
<event>
 5   0  0.4597705E-06  0.2616433E+04  0.7818609E-02  0.8362641E-01
       -1   -1    0    0    0  501  0.00000000000E+00  0.00000000000E+00  0.86106530816E+03  0.86106530817E+03  0.50400001928E-02 0.  1.
        1   -1    0    0  501    0  0.00000000000E+00  0.00000000000E+00 -0.19875730798E+04  0.19875730798E+04  0.50400001928E-02 0. -1.
    10030    2    1    2    0    0  0.00000000000E+00  0.00000000000E+00 -0.11265077717E+04  0.28486383880E+04  0.26164328591E+04 0.  0.
        5    1    3    3  502    0  0.22059880831E+03  0.67553006652E+03 -0.17590964565E+04  0.18972208986E+04  0.46999998093E+01 0. -1.
       -5    1    3    3    0  502 -0.22059880831E+03 -0.67553006652E+03  0.63258868480E+03  0.95141748939E+03  0.46999998093E+01 0.  1.
</event>
<event>
 5   0  0.4361864E-06  0.2577785E+04  0.7818609E-02  0.8375786E-01
        1   -1    0    0  501    0  0.00000000000E+00  0.00000000000E+00  0.80437271762E+03  0.80437271763E+03  0.50400001928E-02 0.  1.
       -1   -1    0    0    0  501  0.00000000000E+00  0.00000000000E+00 -0.20652662827E+04  0.20652662827E+04  0.50400001928E-02 0. -1.
    10030    2    1    2    0    0  0.00000000000E+00  0.00000000000E+00 -0.12608935651E+04  0.28696390003E+04  0.25777849813E+04 0.  0.
        3    1    3    3  502    0 -0.81388519453E+03  0.71870151964E+03 -0.14035553654E+04  0.17745164575E+04  0.10100000352E+00 0. -1.
       -3    1    3    3    0  502  0.81388519453E+03 -0.71870151964E+03  0.14266180032E+03  0.10951225428E+04  0.10100000352E+00 0.  1.
</event>
<event>
 5   0  0.1136881E-05  0.2601349E+04  0.7818609E-02  0.8367743E-01
       -2   -1    0    0    0  501  0.00000000000E+00  0.00000000000E+00  0.97613717931E+03  0.97613717931E+03  0.25500000920E-02 0.  1.
        2   -1    0    0  501    0  0.00000000000E+00  0.00000000000E+00 -0.17331115386E+04  0.17331115386E+04  0.25500000920E-02 0. -1.
    10030    2    1    2    0    0  0.00000000000E+00  0.00000000000E+00 -0.75697435929E+03  0.27092487179E+04  0.26013493489E+04 0.  0.
        3    1    3    3  502    0 -0.32603289766E+03 -0.13301340577E+03  0.92555194379E+03  0.99027088583E+03  0.10100000352E+00 0.  1.
       -3    1    3    3    0  502  0.32603289766E+03  0.13301340577E+03 -0.16825263031E+04  0.17189778321E+04  0.10100000352E+00 0. -1.
</event>
<event>
 5   0  0.1085061E-05  0.2598895E+04  0.7818609E-02  0.8368577E-01
        2   -1    0    0  501    0  0.00000000000E+00  0.00000000000E+00  0.18535599362E+04  0.18535599362E+04  0.25500000920E-02 0. -1.
       -2   -1    0    0    0  501  0.00000000000E+00  0.00000000000E+00 -0.91098423683E+03  0.91098423683E+03  0.25500000920E-02 0.  1.
    10030    2    1    2    0    0  0.00000000000E+00  0.00000000000E+00  0.94257569939E+03  0.27645441731E+04  0.25988950605E+04 0.  0.
        1    1    3    3  502    0 -0.32096923456E+03  0.12053445786E+04  0.83808010889E+02  0.12501602239E+04  0.50400001928E-02 0.  1.
       -1    1    3    3    0  502  0.32096923456E+03 -0.12053445786E+04  0.85876768850E+03  0.15143839492E+04  0.50400001928E-02 0. -1.
</event>
<event>
 5   0  0.1085061E-05  0.2603973E+04  0.7818609E-02  0.8366853E-01
        2   -1    0    0  501    0  0.00000000000E+00  0.00000000000E+00  0.11180633673E+04  0.11180633673E+04  0.25500000920E-02 0. -1.
       -2   -1    0    0    0  501  0.00000000000E+00  0.00000000000E+00 -0.15161658038E+04  0.15161658038E+04  0.25500000920E-02 0.  1.
    10030    2    1    2    0    0  0.00000000000E+00  0.00000000000E+00 -0.39810243645E+03  0.26342291711E+04  0.26039734591E+04 0.  0.
        1    1    3    3  502    0  0.61644567377E+03 -0.11466759769E+04 -0.18157685812E+03  0.13144737427E+04  0.50400001928E-02 0.  1.
       -1    1    3    3    0  502 -0.61644567377E+03  0.11466759769E+04 -0.21652557832E+03  0.13197554284E+04  0.50400001928E-02 0. -1.
</event>
<event>
 5   0  0.1086507E-05  0.2587832E+04  0.7818609E-02  0.8372346E-01
       -2   -1    0    0    0  501  0.00000000000E+00  0.00000000000E+00  0.14684047308E+04  0.14684047308E+04  0.25500000920E-02 0.  1.
        2   -1    0    0  501    0  0.00000000000E+00  0.00000000000E+00 -0.11401614481E+04  0.11401614481E+04  0.25500000920E-02 0. -1.
    10030    2    1    2    0    0  0.00000000000E+00  0.00000000000E+00  0.32824328264E+03  0.26085661789E+04  0.25878318834E+04 0.  0.
        2    1    3    3  502    0 -0.12830534421E+04 -0.13028404815E+03  0.58312062859E+02  0.12909687700E+04  0.25500000920E-02 0.  1.
       -2    1    3    3    0  502  0.12830534421E+04  0.13028404815E+03  0.26993121979E+03  0.13175974089E+04  0.25500000920E-02 0. -1.
</event>
<event>
 5   0  0.4218590E-06  0.2395807E+04  0.7818609E-02  0.8441075E-01
       -1   -1    0    0    0  501  0.00000000000E+00  0.00000000000E+00  0.11001916309E+04  0.11001916309E+04  0.50400001928E-02 0.  1.
        1   -1    0    0  501    0  0.00000000000E+00  0.00000000000E+00 -0.13042940264E+04  0.13042940264E+04  0.50400001928E-02 0. -1.
    10030    2    1    2    0    0  0.00000000000E+00  0.00000000000E+00 -0.20410239553E+03  0.24044856573E+04  0.23958074815E+04 0.  0.
        1    1    3    3  502    0 -0.33577814111E+03  0.10145377430E+04 -0.64525062265E+03  0.12483517766E+04  0.50400001928E-02 0. -1.
       -1    1    3    3    0  502  0.33577814111E+03 -0.10145377430E+04  0.44114822711E+03  0.11561338808E+04  0.50400001928E-02 0.  1.
</event>
<event>
 5   0  0.1085061E-05  0.2556206E+04  0.7818609E-02  0.8383231E-01
       -2   -1    0    0    0  501  0.00000000000E+00  0.00000000000E+00  0.71435235914E+03  0.71435235915E+03  0.25500000920E-02 0.  1.
        2   -1    0    0  501    0  0.00000000000E+00  0.00000000000E+00 -0.22867529490E+04  0.22867529491E+04  0.25500000920E-02 0. -1.
    10030    2    1    2    0    0  0.00000000000E+00  0.00000000000E+00 -0.15724005899E+04  0.30011053082E+04  0.25562060668E+04 0.  0.
        1    1    3    3  502    0  0.11500801376E+04 -0.24163194560E+03 -0.19627594586E+03  0.11914674008E+04  0.50400001928E-02 0. -1.
       -1    1    3    3    0  502 -0.11500801376E+04  0.24163194560E+03 -0.13761246440E+04  0.18096379074E+04  0.50400001928E-02 0.  1.
</event>
<event>
 5   0  0.1116310E-05  0.2596184E+04  0.7818609E-02  0.8369499E-01
        2   -1    0    0  501    0  0.00000000000E+00  0.00000000000E+00  0.16545708903E+04  0.16545708903E+04  0.25500000920E-02 0. -1.
       -2   -1    0    0    0  501  0.00000000000E+00  0.00000000000E+00 -0.10184166232E+04  0.10184166232E+04  0.25500000920E-02 0.  1.
    10030    2    1    2    0    0  0.00000000000E+00  0.00000000000E+00  0.63615426710E+03  0.26729875135E+04  0.25961837369E+04 0.  0.
        4    1    3    3  502    0  0.90967175396E+03  0.90416298200E+03  0.52406454185E+03  0.13855174683E+04  0.12699999809E+01 0. -1.
       -4    1    3    3    0  502 -0.90967175396E+03 -0.90416298200E+03  0.11208972524E+03  0.12874700452E+04  0.12699999809E+01 0.  1.
</event>
<event>
 5   0  0.1136881E-05  0.2608093E+04  0.7818609E-02  0.8365457E-01
        2   -1    0    0  501    0  0.00000000000E+00  0.00000000000E+00  0.16530336076E+04  0.16530336076E+04  0.25500000920E-02 0.  1.
       -2   -1    0    0    0  501  0.00000000000E+00  0.00000000000E+00 -0.10287371091E+04  0.10287371091E+04  0.25500000920E-02 0. -1.
    10030    2    1    2    0    0  0.00000000000E+00  0.00000000000E+00  0.62429649849E+03  0.26817707168E+04  0.26080928011E+04 0.  0.
        3    1    3    3  502    0  0.84696068101E+02 -0.12190914428E+04  0.78017657228E+03  0.14498389096E+04  0.10100000352E+00 0.  1.
       -3    1    3    3    0  502 -0.84696068101E+02  0.12190914428E+04 -0.15588007380E+03  0.12319318071E+04  0.10100000352E+00 0. -1.
</event>
<event>
 5   0  0.4597705E-06  0.2577326E+04  0.7818609E-02  0.8375944E-01
        1   -1    0    0  501    0  0.00000000000E+00  0.00000000000E+00  0.11902034854E+04  0.11902034854E+04  0.50400001928E-02 0. -1.
       -1   -1    0    0    0  501  0.00000000000E+00  0.00000000000E+00 -0.13952670603E+04  0.13952670603E+04  0.50400001928E-02 0.  1.
    10030    2    1    2    0    0  0.00000000000E+00  0.00000000000E+00 -0.20506357489E+03  0.25854705457E+04  0.25773255272E+04 0.  0.
        5    1    3    3  502    0 -0.11128054243E+04  0.62316160965E+03 -0.28740560695E+03  0.13073983238E+04  0.46999998093E+01 0.  1.
       -5    1    3    3    0  502  0.11128054243E+04 -0.62316160965E+03  0.82342032055E+02  0.12780722219E+04  0.46999998093E+01 0. -1.
</event>
<event>
 5   0  0.4415080E-06  0.2599292E+04  0.7818609E-02  0.8368442E-01
        1   -1    0    0  501    0  0.00000000000E+00  0.00000000000E+00  0.14596944077E+04  0.14596944077E+04  0.50400001928E-02 0. -1.
       -1   -1    0    0    0  501  0.00000000000E+00  0.00000000000E+00 -0.11571461068E+04  0.11571461068E+04  0.50400001928E-02 0.  1.
    10030    2    1    2    0    0  0.00000000000E+00  0.00000000000E+00  0.30254830090E+03  0.26168405145E+04  0.25992919813E+04 0.  0.
        2    1    3    3  502    0 -0.59752082209E+03 -0.88565089387E+03  0.89631843113E+03  0.13945592023E+04  0.25500000920E-02 0. -1.
       -2    1    3    3    0  502  0.59752082209E+03  0.88565089387E+03 -0.59377013024E+03  0.12222813122E+04  0.25500000920E-02 0.  1.
</event>
<event>
 5   0  0.1085061E-05  0.2614092E+04  0.7818609E-02  0.8363430E-01
        2   -1    0    0  501    0  0.00000000000E+00  0.00000000000E+00  0.19591717257E+04  0.19591717257E+04  0.25500000920E-02 0.  1.
       -2   -1    0    0    0  501  0.00000000000E+00  0.00000000000E+00 -0.87198575920E+03  0.87198575920E+03  0.25500000920E-02 0. -1.
    10030    2    1    2    0    0  0.00000000000E+00  0.00000000000E+00  0.10871859665E+04  0.28311574849E+04  0.26140924579E+04 0.  0.
        1    1    3    3  502    0 -0.38801265498E+03  0.83313955977E+03  0.15501147248E+04  0.18020907321E+04  0.50400001928E-02 0.  1.
       -1    1    3    3    0  502  0.38801265498E+03 -0.83313955977E+03 -0.46292875832E+03  0.10290667528E+04  0.50400001928E-02 0. -1.
</event>
<event>
 5   0  0.1116310E-05  0.2596786E+04  0.7818609E-02  0.8369294E-01
        2   -1    0    0  501    0  0.00000000000E+00  0.00000000000E+00  0.26076091120E+04  0.26076091120E+04  0.25500000920E-02 0. -1.
       -2   -1    0    0    0  501  0.00000000000E+00  0.00000000000E+00 -0.64650204709E+03  0.64650204709E+03  0.25500000920E-02 0.  1.
    10030    2    1    2    0    0  0.00000000000E+00  0.00000000000E+00  0.19611070649E+04  0.32541111591E+04  0.25967861898E+04 0.  0.
        4    1    3    3  502    0  0.49923891959E+03  0.22942962407E+01 -0.52141500474E+03  0.72188640567E+03  0.12699999809E+01 0.  1.
       -4    1    3    3    0  502 -0.49923891959E+03 -0.22942962407E+01  0.24825220696E+04  0.25322247534E+04  0.12699999809E+01 0. -1.
</event>
<event>
 5   0  0.1136881E-05  0.2503720E+04  0.7818609E-02  0.8401661E-01
        2   -1    0    0  501    0  0.00000000000E+00  0.00000000000E+00  0.12863106537E+04  0.12863106537E+04  0.25500000920E-02 0.  1.
       -2   -1    0    0    0  501  0.00000000000E+00  0.00000000000E+00 -0.12183323484E+04  0.12183323484E+04  0.25500000920E-02 0. -1.
    10030    2    1    2    0    0  0.00000000000E+00  0.00000000000E+00  0.67978305360E+02  0.25046430021E+04  0.25037203354E+04 0.  0.
        3    1    3    3  502    0 -0.38576685522E+03  0.11218470930E+04 -0.36590420857E+03  0.12414680289E+04  0.10100000352E+00 0. -1.
       -3    1    3    3    0  502  0.38576685522E+03 -0.11218470930E+04  0.43388251393E+03  0.12631749732E+04  0.10100000352E+00 0.  1.
</event>
<event>
 5   0  0.4218590E-06  0.2604726E+04  0.7818609E-02  0.8366598E-01
        1   -1    0    0  501    0  0.00000000000E+00  0.00000000000E+00  0.19285720864E+04  0.19285720865E+04  0.50400001928E-02 0.  1.
       -1   -1    0    0    0  501  0.00000000000E+00  0.00000000000E+00 -0.87948478466E+03  0.87948478468E+03  0.50400001928E-02 0. -1.
    10030    2    1    2    0    0  0.00000000000E+00  0.00000000000E+00  0.10490873018E+04  0.28080568711E+04  0.26047263243E+04 0.  0.
        1    1    3    3  502    0  0.10007619512E+04  0.28667068686E+03 -0.31913572368E+03  0.10888306460E+04  0.50400001928E-02 0. -1.
       -1    1    3    3    0  502 -0.10007619512E+04 -0.28667068686E+03  0.13682230255E+04  0.17192262251E+04  0.50400001928E-02 0.  1.
</event>
<event>
 5   0  0.1086507E-05  0.2407430E+04  0.7818609E-02  0.8436727E-01
       -2   -1    0    0    0  501  0.00000000000E+00  0.00000000000E+00  0.24668414832E+04  0.24668414832E+04  0.25500000920E-02 0.  1.
        2   -1    0    0  501    0  0.00000000000E+00  0.00000000000E+00 -0.58736224710E+03  0.58736224710E+03  0.25500000920E-02 0. -1.
    10030    2    1    2    0    0  0.00000000000E+00  0.00000000000E+00  0.18794792361E+04  0.30542037303E+04  0.24074297969E+04 0.  0.
        2    1    3    3  502    0  0.90618854971E+03  0.60357719781E+02  0.19419860758E+04  0.21438588248E+04  0.25500000920E-02 0.  1.
       -2    1    3    3    0  502 -0.90618854971E+03 -0.60357719781E+02 -0.62506839718E+02  0.91034490551E+03  0.25500000920E-02 0. -1.
</event>
<event>
 5   0  0.4218590E-06  0.2599761E+04  0.7818609E-02  0.8368282E-01
        1   -1    0    0  501    0  0.00000000000E+00  0.00000000000E+00  0.11205058324E+04  0.11205058324E+04  0.50400001928E-02 0.  1.
       -1   -1    0    0    0  501  0.00000000000E+00  0.00000000000E+00 -0.15079702594E+04  0.15079702594E+04  0.50400001928E-02 0. -1.
    10030    2    1    2    0    0  0.00000000000E+00  0.00000000000E+00 -0.38746442703E+03  0.26284760918E+04  0.25997611204E+04 0.  0.
        1    1    3    3  502    0  0.15755863504E+03 -0.10080585332E+04  0.62057214263E+03  0.11942012034E+04  0.50400001928E-02 0.  1.
       -1    1    3    3    0  502 -0.15755863504E+03  0.10080585332E+04 -0.10080365697E+04  0.14342748885E+04  0.50400001928E-02 0. -1.
</event>
<event>
 5   0  0.4415080E-06  0.2616209E+04  0.7818609E-02  0.8362716E-01
        1   -1    0    0  501    0  0.00000000000E+00  0.00000000000E+00  0.11866311174E+04  0.11866311174E+04  0.50400001928E-02 0. -1.
       -1   -1    0    0    0  501  0.00000000000E+00  0.00000000000E+00 -0.14420124704E+04  0.14420124704E+04  0.50400001928E-02 0.  1.
    10030    2    1    2    0    0  0.00000000000E+00  0.00000000000E+00 -0.25538135304E+03  0.26286435878E+04  0.26162086072E+04 0.  0.
        2    1    3    3  502    0  0.86154094056E+03  0.27935474600E+03 -0.10760226843E+04  0.14064553613E+04  0.25500000920E-02 0.  1.
       -2    1    3    3    0  502 -0.86154094056E+03 -0.27935474600E+03  0.82064133124E+03  0.12221882265E+04  0.25500000920E-02 0. -1.
</event>
<event>
 5   0  0.1085255E-05  0.2613217E+04  0.7818609E-02  0.8363725E-01
        2   -1    0    0  501    0  0.00000000000E+00  0.00000000000E+00  0.23865066128E+04  0.23865066128E+04  0.25500000920E-02 0. -1.
       -2   -1    0    0    0  501  0.00000000000E+00  0.00000000000E+00 -0.71536607321E+03  0.71536607322E+03  0.25500000920E-02 0.  1.
    10030    2    1    2    0    0  0.00000000000E+00  0.00000000000E+00  0.16711405396E+04  0.31018726860E+04  0.26132170704E+04 0.  0.
        5    1    3    3  502    0  0.39871617209E+03  0.10162012743E+04 -0.16724534876E+02  0.10917606953E+04  0.46999998093E+01 0.  1.
       -5    1    3    3    0  502 -0.39871617209E+03 -0.10162012743E+04  0.16878650745E+04  0.20101119907E+04  0.46999998093E+01 0. -1.
</event>
<event>
 5   0  0.4218590E-06  0.2607930E+04  0.7818609E-02  0.8365513E-01
        1   -1    0    0  501    0  0.00000000000E+00  0.00000000000E+00  0.18393407121E+04  0.18393407121E+04  0.50400001928E-02 0.  1.
       -1   -1    0    0    0  501  0.00000000000E+00  0.00000000000E+00 -0.92442054365E+03  0.92442054366E+03  0.50400001928E-02 0. -1.
    10030    2    1    2    0    0  0.00000000000E+00  0.00000000000E+00  0.91492016847E+03  0.27637612558E+04  0.26079297085E+04 0.  0.
        1    1    3    3  502    0  0.34878098673E+03  0.36608742998E+03  0.17312179802E+04  0.18035475813E+04  0.50400001928E-02 0.  1.
       -1    1    3    3    0  502 -0.34878098673E+03 -0.36608742998E+03 -0.81629781176E+03  0.96021367445E+03  0.50400001928E-02 0. -1.
</event>
<event>
 5   0  0.1116310E-05  0.2581751E+04  0.7818609E-02  0.8374427E-01
       -2   -1    0    0    0  501  0.00000000000E+00  0.00000000000E+00  0.11135095573E+04  0.11135095573E+04  0.25500000920E-02 0.  1.
        2   -1    0    0  501    0  0.00000000000E+00  0.00000000000E+00 -0.14964930429E+04  0.14964930429E+04  0.25500000920E-02 0. -1.
    10030    2    1    2    0    0  0.00000000000E+00  0.00000000000E+00 -0.38298348565E+03  0.26100026002E+04  0.25817508057E+04 0.  0.
        4    1    3    3  502    0 -0.13050661679E+03  0.37462723125E+03  0.10503560869E+04  0.11227764968E+04  0.12699999809E+01 0.  1.
       -4    1    3    3    0  502  0.13050661679E+03 -0.37462723125E+03 -0.14333395726E+04  0.14872261034E+04  0.12699999809E+01 0. -1.
</event>
<event>
 5   0  0.3705250E-06  0.2596684E+04  0.7818609E-02  0.8369329E-01
       -3   -1    0    0    0  501  0.00000000000E+00  0.00000000000E+00  0.95985571483E+03  0.95985572014E+03  0.10100000352E+00 0. -1.
        3   -1    0    0  501    0  0.00000000000E+00  0.00000000000E+00 -0.17561924238E+04  0.17561924267E+04  0.10100000352E+00 0.  1.
    10030    2    1    2    0    0  0.00000000000E+00  0.00000000000E+00 -0.79633670893E+03  0.27160481468E+04  0.25966835352E+04 0.  0.
        1    1    3    3  502    0 -0.12766637944E+03  0.50417677785E+03 -0.16424741023E+04  0.17228505752E+04  0.50400001928E-02 0.  1.
       -1    1    3    3    0  502  0.12766637944E+03 -0.50417677785E+03  0.84613739336E+03  0.99319757160E+03  0.50400001928E-02 0. -1.
</event>
<event>
 5   0  0.1136881E-05  0.2589784E+04  0.7818609E-02  0.8371680E-01
       -2   -1    0    0    0  501  0.00000000000E+00  0.00000000000E+00  0.12364827452E+04  0.12364827452E+04  0.25500000920E-02 0.  1.
        2   -1    0    0  501    0  0.00000000000E+00  0.00000000000E+00 -0.13560606645E+04  0.13560606645E+04  0.25500000920E-02 0. -1.
    10030    2    1    2    0    0  0.00000000000E+00  0.00000000000E+00 -0.11957791935E+03  0.25925434097E+04  0.25897842483E+04 0.  0.
        3    1    3    3  502    0  0.22666284230E+03 -0.12551646729E+04  0.16390201724E+03  0.12859542299E+04  0.10100000352E+00 0. -1.
       -3    1    3    3    0  502 -0.22666284230E+03  0.12551646729E+04 -0.28347993659E+03  0.13065891798E+04  0.10100000352E+00 0.  1.
</event>
<event>
 5   0  0.1136881E-05  0.2489643E+04  0.7818609E-02  0.8406685E-01
       -2   -1    0    0    0  501  0.00000000000E+00  0.00000000000E+00  0.13851481011E+04  0.13851481011E+04  0.25500000920E-02 0.  1.
        2   -1    0    0  501    0  0.00000000000E+00  0.00000000000E+00 -0.11187108530E+04  0.11187108530E+04  0.25500000920E-02 0. -1.
    10030    2    1    2    0    0  0.00000000000E+00  0.00000000000E+00  0.26643724811E+03  0.25038589542E+04  0.24896427164E+04 0.  0.
        3    1    3    3  502    0  0.10147415422E+04 -0.40053834313E+03 -0.46974536898E+03  0.11877676892E+04  0.10100000352E+00 0. -1.
       -3    1    3    3    0  502 -0.10147415422E+04  0.40053834313E+03  0.73618261710E+03  0.13160912649E+04  0.10100000352E+00 0.  1.
</event>
<event>
 5   0  0.4361864E-06  0.2598517E+04  0.7818609E-02  0.8368705E-01
        1   -1    0    0  501    0  0.00000000000E+00  0.00000000000E+00  0.14962843658E+04  0.14962843658E+04  0.50400001928E-02 0. -1.
       -1   -1    0    0    0  501  0.00000000000E+00  0.00000000000E+00 -0.11281761986E+04  0.11281761986E+04  0.50400001928E-02 0.  1.
    10030    2    1    2    0    0  0.00000000000E+00  0.00000000000E+00  0.36810816721E+03  0.26244605645E+04  0.25985168138E+04 0.  0.
        3    1    3    3  502    0  0.89151706705E+03 -0.87704749477E+03  0.53978849090E+03  0.13621257703E+04  0.10100000352E+00 0. -1.
       -3    1    3    3    0  502 -0.89151706705E+03  0.87704749477E+03 -0.17168032369E+03  0.12623347942E+04  0.10100000352E+00 0.  1.
</event>
<event>
 5   0  0.1086507E-05  0.2585283E+04  0.7818609E-02  0.8373217E-01
        2   -1    0    0  501    0  0.00000000000E+00  0.00000000000E+00  0.11853913896E+04  0.11853913896E+04  0.25500000920E-02 0.  1.
       -2   -1    0    0    0  501  0.00000000000E+00  0.00000000000E+00 -0.14095953840E+04  0.14095953840E+04  0.25500000920E-02 0. -1.
    10030    2    1    2    0    0  0.00000000000E+00  0.00000000000E+00 -0.22420399433E+03  0.25949867736E+04  0.25852831420E+04 0.  0.
        2    1    3    3  502    0 -0.15946679730E+03 -0.11780527420E+04  0.39742948322E+03  0.12534704290E+04  0.25500000920E-02 0.  1.
       -2    1    3    3    0  502  0.15946679730E+03  0.11780527420E+04 -0.62163347755E+03  0.13415163446E+04  0.25500000920E-02 0. -1.
</event>
<event>
 5   0  0.1116310E-05  0.2590488E+04  0.7818609E-02  0.8371439E-01
       -2   -1    0    0    0  501  0.00000000000E+00  0.00000000000E+00  0.74446587200E+03  0.74446587201E+03  0.25500000920E-02 0. -1.
        2   -1    0    0  501    0  0.00000000000E+00  0.00000000000E+00 -0.22535041917E+04  0.22535041917E+04  0.25500000920E-02 0.  1.
    10030    2    1    2    0    0  0.00000000000E+00  0.00000000000E+00 -0.15090383197E+04  0.29979700637E+04  0.25904879564E+04 0.  0.
        4    1    3    3  502    0 -0.28287087675E+03  0.12617488921E+04 -0.84134862909E+03  0.15426909374E+04  0.12699999809E+01 0.  1.
       -4    1    3    3    0  502  0.28287087675E+03 -0.12617488921E+04 -0.66768969059E+03  0.14552791263E+04  0.12699999809E+01 0. -1.
</event>
<event>
 5   0  0.1116310E-05  0.2606781E+04  0.7818609E-02  0.8365902E-01
        2   -1    0    0  501    0  0.00000000000E+00  0.00000000000E+00  0.18345489438E+04  0.18345489438E+04  0.25500000920E-02 0. -1.
       -2   -1    0    0    0  501  0.00000000000E+00  0.00000000000E+00 -0.92601873168E+03  0.92601873168E+03  0.25500000920E-02 0.  1.
    10030    2    1    2    0    0  0.00000000000E+00  0.00000000000E+00  0.90853021215E+03  0.27605676755E+04  0.26067809161E+04 0.  0.
        4    1    3    3  502    0 -0.37058021898E+02 -0.12811248612E+04  0.20327914727E+03  0.12976818685E+04  0.12699999809E+01 0.  1.
       -4    1    3    3    0  502  0.37058021898E+02  0.12811248612E+04  0.70525106488E+03  0.14628858071E+04  0.12699999809E+01 0. -1.
</event>
<event>
 5   0  0.4464297E-06  0.2600608E+04  0.7818609E-02  0.8367995E-01
       -1   -1    0    0    0  501  0.00000000000E+00  0.00000000000E+00  0.10002799791E+04  0.10002799791E+04  0.50400001928E-02 0.  1.
        1   -1    0    0  501    0  0.00000000000E+00  0.00000000000E+00 -0.16903178021E+04  0.16903178021E+04  0.50400001928E-02 0. -1.
    10030    2    1    2    0    0  0.00000000000E+00  0.00000000000E+00 -0.69003782302E+03  0.26905977812E+04  0.26006084332E+04 0.  0.
        4    1    3    3  502    0 -0.49931447435E+03  0.10024674810E+04 -0.10285882530E+04  0.15206088918E+04  0.12699999809E+01 0. -1.
       -4    1    3    3    0  502  0.49931447435E+03 -0.10024674810E+04  0.33855042996E+03  0.11699888894E+04  0.12699999809E+01 0.  1.
</event>
<event>
 5   0  0.4361864E-06  0.2615359E+04  0.7818609E-02  0.8363003E-01
       -1   -1    0    0    0  501  0.00000000000E+00  0.00000000000E+00  0.84387694629E+03  0.84387694631E+03  0.50400001928E-02 0.  1.
        1   -1    0    0  501    0  0.00000000000E+00  0.00000000000E+00 -0.20263918018E+04  0.20263918018E+04  0.50400001928E-02 0. -1.
    10030    2    1    2    0    0  0.00000000000E+00  0.00000000000E+00 -0.11825148555E+04  0.28702687481E+04  0.26153587331E+04 0.  0.
        3    1    3    3  502    0  0.49867401195E+02  0.10576356447E+04 -0.14334837548E+04  0.17821210958E+04  0.10100000352E+00 0. -1.
       -3    1    3    3    0  502 -0.49867401195E+02 -0.10576356447E+04  0.25096889931E+03  0.10881476523E+04  0.10100000352E+00 0.  1.
</event>
<event>
 5   0  0.4218590E-06  0.2582501E+04  0.7818609E-02  0.8374169E-01
        1   -1    0    0  501    0  0.00000000000E+00  0.00000000000E+00  0.12143966437E+04  0.12143966437E+04  0.50400001928E-02 0.  1.
       -1   -1    0    0    0  501  0.00000000000E+00  0.00000000000E+00 -0.13729685788E+04  0.13729685788E+04  0.50400001928E-02 0. -1.
    10030    2    1    2    0    0  0.00000000000E+00  0.00000000000E+00 -0.15857193512E+03  0.25873652225E+04  0.25825014494E+04 0.  0.
        1    1    3    3  502    0 -0.41993627186E+03  0.11191891296E+04 -0.56846535732E+03  0.13236629642E+04  0.50400001928E-02 0. -1.
       -1    1    3    3    0  502  0.41993627186E+03 -0.11191891296E+04  0.40989342220E+03  0.12637022584E+04  0.50400001928E-02 0.  1.
</event>
<event>
 5   0  0.4464297E-06  0.2583564E+04  0.7818609E-02  0.8373806E-01
        1   -1    0    0  501    0  0.00000000000E+00  0.00000000000E+00  0.19963447384E+04  0.19963447385E+04  0.50400001928E-02 0. -1.
       -1   -1    0    0    0  501  0.00000000000E+00  0.00000000000E+00 -0.83587786361E+03  0.83587786363E+03  0.50400001928E-02 0.  1.
    10030    2    1    2    0    0  0.00000000000E+00  0.00000000000E+00  0.11604668748E+04  0.28322226021E+04  0.25835637209E+04 0.  0.
        4    1    3    3  502    0  0.15990693281E+03 -0.12759683269E+04  0.71464489450E+03  0.14711846711E+04  0.12699999809E+01 0. -1.
       -4    1    3    3    0  502 -0.15990693281E+03  0.12759683269E+04  0.44582198033E+03  0.13610379309E+04  0.12699999809E+01 0.  1.
</event>
<event>
 5   0  0.4218590E-06  0.2610347E+04  0.7818609E-02  0.8364695E-01
       -1   -1    0    0    0  501  0.00000000000E+00  0.00000000000E+00  0.10987020053E+04  0.10987020053E+04  0.50400001928E-02 0.  1.
        1   -1    0    0  501    0  0.00000000000E+00  0.00000000000E+00 -0.15504459780E+04  0.15504459780E+04  0.50400001928E-02 0. -1.
    10030    2    1    2    0    0  0.00000000000E+00  0.00000000000E+00 -0.45174397269E+03  0.26491479833E+04  0.26103471839E+04 0.  0.
        1    1    3    3  502    0 -0.12593650125E+04 -0.29758088419E+03 -0.39846899961E+03  0.13540059679E+04  0.50400001928E-02 0. -1.
       -1    1    3    3    0  502  0.12593650125E+04  0.29758088419E+03 -0.53274973084E+02  0.12951420154E+04  0.50400001928E-02 0.  1.
</event>
<event>
 5   0  0.1086507E-05  0.2597757E+04  0.7818609E-02  0.8368964E-01
       -2   -1    0    0    0  501  0.00000000000E+00  0.00000000000E+00  0.66908775667E+03  0.66908775668E+03  0.25500000920E-02 0.  1.
        2   -1    0    0  501    0  0.00000000000E+00  0.00000000000E+00 -0.25214703981E+04  0.25214703981E+04  0.25500000920E-02 0. -1.
    10030    2    1    2    0    0  0.00000000000E+00  0.00000000000E+00 -0.18523826414E+04  0.31905581548E+04  0.25977567032E+04 0.  0.
        2    1    3    3  502    0 -0.10962160492E+04  0.65718183670E+03 -0.12102938045E+04  0.17602240443E+04  0.25500000920E-02 0. -1.
       -2    1    3    3    0  502  0.10962160492E+04 -0.65718183670E+03 -0.64208883699E+03  0.14303341105E+04  0.25500000920E-02 0.  1.
</event>
<event>
 5   0  0.4464297E-06  0.2665132E+04  0.7818609E-02  0.8346408E-01
        1   -1    0    0  501    0  0.00000000000E+00  0.00000000000E+00  0.21882016350E+04  0.21882016350E+04  0.50400001928E-02 0. -1.
       -1   -1    0    0    0  501  0.00000000000E+00  0.00000000000E+00 -0.81150267618E+03  0.81150267620E+03  0.50400001928E-02 0.  1.
    10030    2    1    2    0    0  0.00000000000E+00  0.00000000000E+00  0.13766989588E+04  0.29997043112E+04  0.26651315036E+04 0.  0.
        4    1    3    3  502    0  0.43724026191E+03  0.11660113179E+04  0.12222011339E+04  0.17448606433E+04  0.12699999809E+01 0. -1.
       -4    1    3    3    0  502 -0.43724026191E+03 -0.11660113179E+04  0.15449782497E+03  0.12548436679E+04  0.12699999809E+01 0.  1.
</event>
<event>
 5   0  0.1086507E-05  0.2598702E+04  0.7818609E-02  0.8368642E-01
        2   -1    0    0  501    0  0.00000000000E+00  0.00000000000E+00  0.21704852500E+04  0.21704852500E+04  0.25500000920E-02 0.  1.
       -2   -1    0    0    0  501  0.00000000000E+00  0.00000000000E+00 -0.77785024795E+03  0.77785024795E+03  0.25500000920E-02 0. -1.
    10030    2    1    2    0    0  0.00000000000E+00  0.00000000000E+00  0.13926350020E+04  0.29483354979E+04  0.25987015911E+04 0.  0.
        2    1    3    3  502    0  0.81474404503E+03 -0.10121515732E+04  0.70464103614E+03  0.14780993390E+04  0.25500000920E-02 0. -1.
       -2    1    3    3    0  502 -0.81474404503E+03  0.10121515732E+04  0.68799396590E+03  0.14702361590E+04  0.25500000920E-02 0.  1.
</event>
<event>
 5   0  0.4218590E-06  0.2531094E+04  0.7818609E-02  0.8391991E-01
        1   -1    0    0  501    0  0.00000000000E+00  0.00000000000E+00  0.84237758470E+03  0.84237758472E+03  0.50400001928E-02 0.  1.
       -1   -1    0    0    0  501  0.00000000000E+00  0.00000000000E+00 -0.19012962491E+04  0.19012962491E+04  0.50400001928E-02 0. -1.
    10030    2    1    2    0    0  0.00000000000E+00  0.00000000000E+00 -0.10589186644E+04  0.27436738338E+04  0.25310941050E+04 0.  0.
        1    1    3    3  502    0 -0.90097084476E+03 -0.85339268111E+03 -0.26046048626E+03  0.12680170331E+04  0.50400001928E-02 0.  1.
       -1    1    3    3    0  502  0.90097084476E+03  0.85339268111E+03 -0.79845817813E+03  0.14756568007E+04  0.50400001928E-02 0. -1.
</event>
<event>
 5   0  0.4361864E-06  0.2637919E+04  0.7818609E-02  0.8355434E-01
        1   -1    0    0  501    0  0.00000000000E+00  0.00000000000E+00  0.10770270183E+04  0.10770270184E+04  0.50400001928E-02 0.  1.
       -1   -1    0    0    0  501  0.00000000000E+00  0.00000000000E+00 -0.16152374814E+04  0.16152374815E+04  0.50400001928E-02 0. -1.
    10030    2    1    2    0    0  0.00000000000E+00  0.00000000000E+00 -0.53821046310E+03  0.26922644998E+04  0.26379191865E+04 0.  0.
        3    1    3    3  502    0  0.12844706672E+02  0.71561329268E+03 -0.13998042166E+04  0.15721702281E+04  0.10100000352E+00 0. -1.
       -3    1    3    3    0  502 -0.12844706672E+02 -0.71561329268E+03  0.86159375352E+03  0.11200942717E+04  0.10100000352E+00 0.  1.
</event>
<event>
 5   0  0.1086507E-05  0.2593222E+04  0.7818609E-02  0.8370507E-01
       -2   -1    0    0    0  501  0.00000000000E+00  0.00000000000E+00  0.14357939133E+04  0.14357939133E+04  0.25500000920E-02 0. -1.
        2   -1    0    0  501    0  0.00000000000E+00  0.00000000000E+00 -0.11709200965E+04  0.11709200965E+04  0.25500000920E-02 0.  1.
    10030    2    1    2    0    0  0.00000000000E+00  0.00000000000E+00  0.26487381684E+03  0.26067140098E+04  0.25932218937E+04 0.  0.
        2    1    3    3  502    0 -0.50062993785E+03 -0.10932009656E+04 -0.35535195796E+03  0.12537917291E+04  0.25500000920E-02 0.  1.
       -2    1    3    3    0  502  0.50062993785E+03  0.10932009656E+04  0.62022577480E+03  0.13529222807E+04  0.25500000920E-02 0. -1.
</event>
<event>
 5   0  0.1136881E-05  0.2588173E+04  0.7818609E-02  0.8372230E-01
       -2   -1    0    0    0  501  0.00000000000E+00  0.00000000000E+00  0.11169012420E+04  0.11169012420E+04  0.25500000920E-02 0. -1.
        2   -1    0    0  501    0  0.00000000000E+00  0.00000000000E+00 -0.14993805972E+04  0.14993805972E+04  0.25500000920E-02 0.  1.
    10030    2    1    2    0    0  0.00000000000E+00  0.00000000000E+00 -0.38247935516E+03  0.26162818392E+04  0.25881731405E+04 0.  0.
        3    1    3    3  502    0 -0.74018911013E+03  0.64111171930E+02  0.87982879610E+03  0.11515593262E+04  0.10100000352E+00 0. -1.
       -3    1    3    3    0  502  0.74018911013E+03 -0.64111171930E+02 -0.12623081513E+04  0.14647225130E+04  0.10100000352E+00 0.  1.
</event>
<event>
 5   0  0.1085255E-05  0.2495066E+04  0.7818609E-02  0.8404745E-01
       -2   -1    0    0    0  501  0.00000000000E+00  0.00000000000E+00  0.10009809750E+04  0.10009809750E+04  0.25500000920E-02 0.  1.
        2   -1    0    0  501    0  0.00000000000E+00  0.00000000000E+00 -0.15548134429E+04  0.15548134429E+04  0.25500000920E-02 0. -1.
    10030    2    1    2    0    0  0.00000000000E+00  0.00000000000E+00 -0.55383246792E+03  0.25557944178E+04  0.24950660720E+04 0.  0.
        5    1    3    3  502    0  0.11903423284E+04 -0.93618543768E+02  0.93318753091E+02  0.11976684725E+04  0.46999998093E+01 0.  1.
       -5    1    3    3    0  502 -0.11903423284E+04  0.93618543768E+02 -0.64715122101E+03  0.13581259453E+04  0.46999998093E+01 0. -1.
</event>
<event>
 5   0  0.4464297E-06  0.2594914E+04  0.7818609E-02  0.8369931E-01
        1   -1    0    0  501    0  0.00000000000E+00  0.00000000000E+00  0.13899347490E+04  0.13899347490E+04  0.50400001928E-02 0.  1.
       -1   -1    0    0    0  501  0.00000000000E+00  0.00000000000E+00 -0.12111323362E+04  0.12111323362E+04  0.50400001928E-02 0. -1.
    10030    2    1    2    0    0  0.00000000000E+00  0.00000000000E+00  0.17880241282E+03  0.26010670852E+04  0.25949141949E+04 0.  0.
        4    1    3    3  502    0  0.91517409404E+03  0.32326677708E+03 -0.77365621700E+03  0.12412052959E+04  0.12699999809E+01 0. -1.
       -4    1    3    3    0  502 -0.91517409404E+03 -0.32326677708E+03  0.95245862982E+03  0.13598617893E+04  0.12699999809E+01 0.  1.
</event>
<event>
 5   0  0.4218590E-06  0.2595124E+04  0.7818609E-02  0.8369859E-01
       -1   -1    0    0    0  501  0.00000000000E+00  0.00000000000E+00  0.89896060612E+03  0.89896060614E+03  0.50400001928E-02 0.  1.
        1   -1    0    0  501    0  0.00000000000E+00  0.00000000000E+00 -0.18729039179E+04  0.18729039179E+04  0.50400001928E-02 0. -1.
    10030    2    1    2    0    0  0.00000000000E+00  0.00000000000E+00 -0.97394331176E+03  0.27718645240E+04  0.25951237668E+04 0.  0.
        1    1    3    3  502    0  0.32505244338E+03 -0.14456527310E+03 -0.18197974260E+04  0.18542440187E+04  0.50400001928E-02 0. -1.
       -1    1    3    3    0  502 -0.32505244338E+03  0.14456527310E+03  0.84585411427E+03  0.91762050532E+03  0.50400001928E-02 0.  1.
</event>
<event>
 5   0  0.4361864E-06  0.2586773E+04  0.7818609E-02  0.8372708E-01
       -1   -1    0    0    0  501  0.00000000000E+00  0.00000000000E+00  0.11455346868E+04  0.11455346868E+04  0.50400001928E-02 0. -1.
        1   -1    0    0  501    0  0.00000000000E+00  0.00000000000E+00 -0.14603217314E+04  0.14603217314E+04  0.50400001928E-02 0.  1.
    10030    2    1    2    0    0  0.00000000000E+00  0.00000000000E+00 -0.31478704461E+03  0.26058564182E+04  0.25867734321E+04 0.  0.
        3    1    3    3  502    0 -0.68079614920E+03 -0.50300040079E+03 -0.11425426386E+04  0.14219340671E+04  0.10100000352E+00 0.  1.
       -3    1    3    3    0  502  0.68079614920E+03  0.50300040079E+03  0.82775559397E+03  0.11839223511E+04  0.10100000352E+00 0. -1.
</event>
<event>
 5   0  0.1136881E-05  0.2600063E+04  0.7818609E-02  0.8368180E-01
       -2   -1    0    0    0  501  0.00000000000E+00  0.00000000000E+00  0.84795463269E+03  0.84795463269E+03  0.25500000920E-02 0.  1.
        2   -1    0    0  501    0  0.00000000000E+00  0.00000000000E+00 -0.19931274265E+04  0.19931274265E+04  0.25500000920E-02 0. -1.
    10030    2    1    2    0    0  0.00000000000E+00  0.00000000000E+00 -0.11451727938E+04  0.28410820592E+04  0.26000627953E+04 0.  0.
        3    1    3    3  502    0 -0.12381769692E+04 -0.39426318788E+03 -0.52948427587E+03  0.14031675869E+04  0.10100000352E+00 0. -1.
       -3    1    3    3    0  502  0.12381769692E+04  0.39426318788E+03 -0.61568851792E+03  0.14379144723E+04  0.10100000352E+00 0.  1.
</event>
<event>
 5   0  0.1086507E-05  0.2574836E+04  0.7818609E-02  0.8376799E-01
       -2   -1    0    0    0  501  0.00000000000E+00  0.00000000000E+00  0.16909317866E+04  0.16909317866E+04  0.25500000920E-02 0.  1.
        2   -1    0    0  501    0  0.00000000000E+00  0.00000000000E+00 -0.98019618152E+03  0.98019618152E+03  0.25500000920E-02 0. -1.
    10030    2    1    2    0    0  0.00000000000E+00  0.00000000000E+00  0.71073560511E+03  0.26711279681E+04  0.25748358243E+04 0.  0.
        2    1    3    3  502    0  0.41957947617E+03 -0.80412117667E+03 -0.59246778413E+03  0.10833632257E+04  0.25500000920E-02 0. -1.
       -2    1    3    3    0  502 -0.41957947617E+03  0.80412117667E+03  0.13032033892E+04  0.15877647424E+04  0.25500000920E-02 0.  1.
</event>
<event>
 5   0  0.4415080E-06  0.2603909E+04  0.7818609E-02  0.8366875E-01
       -1   -1    0    0    0  501  0.00000000000E+00  0.00000000000E+00  0.20242733321E+04  0.20242733321E+04  0.50400001928E-02 0.  1.
        1   -1    0    0  501    0  0.00000000000E+00  0.00000000000E+00 -0.83737955165E+03  0.83737955167E+03  0.50400001928E-02 0. -1.
    10030    2    1    2    0    0  0.00000000000E+00  0.00000000000E+00  0.11868937804E+04  0.28616528838E+04  0.26039086737E+04 0.  0.
        2    1    3    3  502    0 -0.10849975536E+04 -0.12044864622E+03 -0.18625661858E+03  0.11074380776E+04  0.25500000920E-02 0.  1.
       -2    1    3    3    0  502  0.10849975536E+04  0.12044864622E+03  0.13731503990E+04  0.17542148061E+04  0.25500000920E-02 0. -1.
</event>
<event>
 5   0  0.4415080E-06  0.2607715E+04  0.7818609E-02  0.8365585E-01
       -1   -1    0    0    0  501  0.00000000000E+00  0.00000000000E+00  0.95536216314E+03  0.95536216315E+03  0.50400001928E-02 0. -1.
        1   -1    0    0  501    0  0.00000000000E+00  0.00000000000E+00 -0.17794769018E+04  0.17794769018E+04  0.50400001928E-02 0.  1.
    10030    2    1    2    0    0  0.00000000000E+00  0.00000000000E+00 -0.82411473870E+03  0.27348390650E+04  0.26077154003E+04 0.  0.
        2    1    3    3  502    0  0.63780270817E+02 -0.13011715867E+04 -0.35529415994E+03  0.13503145415E+04  0.25500000920E-02 0. -1.
       -2    1    3    3    0  502 -0.63780270817E+02  0.13011715867E+04 -0.46882057876E+03  0.13845245235E+04  0.25500000920E-02 0.  1.
</event>
<event>
 5   0  0.1085061E-05  0.2610481E+04  0.7818609E-02  0.8364650E-01
       -2   -1    0    0    0  501  0.00000000000E+00  0.00000000000E+00  0.55038880251E+03  0.55038880252E+03  0.25500000920E-02 0.  1.
        2   -1    0    0  501    0  0.00000000000E+00  0.00000000000E+00 -0.30953631320E+04  0.30953631320E+04  0.25500000920E-02 0. -1.
    10030    2    1    2    0    0  0.00000000000E+00  0.00000000000E+00 -0.25449743295E+04  0.36457519345E+04  0.26104813407E+04 0.  0.
        1    1    3    3  502    0  0.48774167195E+03  0.98846606963E+03 -0.22487931627E+04  0.25044016846E+04  0.50400001928E-02 0. -1.
       -1    1    3    3    0  502 -0.48774167195E+03 -0.98846606963E+03 -0.29618116681E+03  0.11413502499E+04  0.50400001928E-02 0.  1.
</event>
<event>
 5   0  0.4361864E-06  0.2615806E+04  0.7818609E-02  0.8362852E-01
       -1   -1    0    0    0  501  0.00000000000E+00  0.00000000000E+00  0.89248522104E+03  0.89248522106E+03  0.50400001928E-02 0. -1.
        1   -1    0    0  501    0  0.00000000000E+00  0.00000000000E+00 -0.19166818686E+04  0.19166818686E+04  0.50400001928E-02 0.  1.
    10030    2    1    2    0    0  0.00000000000E+00  0.00000000000E+00 -0.10241966476E+04  0.28091670897E+04  0.26158059876E+04 0.  0.
        3    1    3    3  502    0  0.32626361707E+03  0.10735803827E+04  0.20957885484E+03  0.11414666410E+04  0.10100000352E+00 0. -1.
       -3    1    3    3    0  502 -0.32626361707E+03 -0.10735803827E+04 -0.12337755024E+04  0.16677004487E+04  0.10100000352E+00 0.  1.
</event>
<event>
 5   0  0.1085061E-05  0.2602585E+04  0.7818609E-02  0.8367324E-01
       -2   -1    0    0    0  501  0.00000000000E+00  0.00000000000E+00  0.88672172386E+03  0.88672172387E+03  0.25500000920E-02 0. -1.
        2   -1    0    0  501    0  0.00000000000E+00  0.00000000000E+00 -0.19096883665E+04  0.19096883665E+04  0.25500000920E-02 0.  1.
    10030    2    1    2    0    0  0.00000000000E+00  0.00000000000E+00 -0.10229666426E+04  0.27964100903E+04  0.26025849922E+04 0.  0.
        1    1    3    3  502    0  0.17666598448E+03 -0.12449322233E+04 -0.15142218728E+03  0.12664895537E+04  0.50400001928E-02 0. -1.
       -1    1    3    3    0  502 -0.17666598448E+03  0.12449322233E+04 -0.87154445532E+03  0.15299205366E+04  0.50400001928E-02 0.  1.
</event>
<event>
 5   0  0.4415080E-06  0.2570574E+04  0.7818609E-02  0.8378266E-01
       -1   -1    0    0    0  501  0.00000000000E+00  0.00000000000E+00  0.56642922492E+03  0.56642922494E+03  0.50400001928E-02 0. -1.
        1   -1    0    0  501    0  0.00000000000E+00  0.00000000000E+00 -0.29164501049E+04  0.29164501049E+04  0.50400001928E-02 0.  1.
    10030    2    1    2    0    0  0.00000000000E+00  0.00000000000E+00 -0.23500208800E+04  0.34828793299E+04  0.25705739223E+04 0.  0.
        2    1    3    3  502    0 -0.31032220404E+03 -0.45578233857E+03 -0.27480557081E+04  0.28028284973E+04  0.25500000920E-02 0.  1.
       -2    1    3    3    0  502  0.31032220404E+03  0.45578233857E+03  0.39803482810E+03  0.68005083256E+03  0.25500000920E-02 0. -1.
</event>
<event>
 5   0  0.4464297E-06  0.2693743E+04  0.7818609E-02  0.8337038E-01
        1   -1    0    0  501    0  0.00000000000E+00  0.00000000000E+00  0.19912545000E+04  0.19912545000E+04  0.50400001928E-02 0. -1.
       -1   -1    0    0    0  501  0.00000000000E+00  0.00000000000E+00 -0.91101495982E+03  0.91101495984E+03  0.50400001928E-02 0.  1.
    10030    2    1    2    0    0  0.00000000000E+00  0.00000000000E+00  0.10802395401E+04  0.29022694598E+04  0.26937428521E+04 0.  0.
        4    1    3    3  502    0  0.35234185249E+03  0.12969268412E+04  0.63586409125E+03  0.14867712560E+04  0.12699999809E+01 0.  1.
       -4    1    3    3    0  502 -0.35234185249E+03 -0.12969268412E+04  0.44437544888E+03  0.14154982038E+04  0.12699999809E+01 0. -1.
</event>
<event>
 5   0  0.1116310E-05  0.2616576E+04  0.7818609E-02  0.8362593E-01
        2   -1    0    0  501    0  0.00000000000E+00  0.00000000000E+00  0.17270961133E+04  0.17270961133E+04  0.25500000920E-02 0.  1.
       -2   -1    0    0    0  501  0.00000000000E+00  0.00000000000E+00 -0.99103747821E+03  0.99103747822E+03  0.25500000920E-02 0. -1.
    10030    2    1    2    0    0  0.00000000000E+00  0.00000000000E+00  0.73605863508E+03  0.27181335915E+04  0.26165756070E+04 0.  0.
        4    1    3    3  502    0 -0.11685936299E+04 -0.44566550131E+03 -0.30781050315E+02  0.12510707002E+04  0.12699999809E+01 0.  1.
       -4    1    3    3    0  502  0.11685936299E+04  0.44566550131E+03  0.76683968540E+03  0.14670628913E+04  0.12699999809E+01 0. -1.
</event>
<event>
 5   0  0.1086507E-05  0.2502822E+04  0.7818609E-02  0.8401981E-01
        2   -1    0    0  501    0  0.00000000000E+00  0.00000000000E+00  0.15705059221E+04  0.15705059221E+04  0.25500000920E-02 0. -1.
       -2   -1    0    0    0  501  0.00000000000E+00  0.00000000000E+00 -0.99715006040E+03  0.99715006040E+03  0.25500000920E-02 0.  1.
    10030    2    1    2    0    0  0.00000000000E+00  0.00000000000E+00  0.57335586169E+03  0.25676559825E+04  0.25028224668E+04 0.  0.
        2    1    3    3  502    0 -0.68553736660E+03 -0.67499583898E+02  0.13584961330E+04  0.15231642781E+04  0.25500000920E-02 0. -1.
       -2    1    3    3    0  502  0.68553736660E+03  0.67499583898E+02 -0.78514027130E+03  0.10444917044E+04  0.25500000920E-02 0.  1.
</event>
<event>
 5   0  0.4597705E-06  0.2580809E+04  0.7818609E-02  0.8374749E-01
       -1   -1    0    0    0  501  0.00000000000E+00  0.00000000000E+00  0.73880310826E+03  0.73880310828E+03  0.50400001928E-02 0. -1.
        1   -1    0    0  501    0  0.00000000000E+00  0.00000000000E+00 -0.22538392780E+04  0.22538392780E+04  0.50400001928E-02 0.  1.
    10030    2    1    2    0    0  0.00000000000E+00  0.00000000000E+00 -0.15150361698E+04  0.29926423863E+04  0.25808087602E+04 0.  0.
        5    1    3    3  502    0 -0.22440285860E+03  0.55295809164E+03  0.56917103316E+03  0.82467996765E+03  0.46999998093E+01 0. -1.
       -5    1    3    3    0  502  0.22440285860E+03 -0.55295809164E+03 -0.20842072029E+04  0.21679624187E+04  0.46999998093E+01 0.  1.
</event>
<event>
 5   0  0.1085255E-05  0.2602423E+04  0.7818609E-02  0.8367379E-01
       -2   -1    0    0    0  501  0.00000000000E+00  0.00000000000E+00  0.67269481627E+03  0.67269481628E+03  0.25500000920E-02 0.  1.
        2   -1    0    0  501    0  0.00000000000E+00  0.00000000000E+00 -0.25169685160E+04  0.25169685160E+04  0.25500000920E-02 0. -1.
    10030    2    1    2    0    0  0.00000000000E+00  0.00000000000E+00 -0.18442736997E+04  0.31896633323E+04  0.26024232350E+04 0.  0.
        5    1    3    3  502    0  0.51121128330E+03 -0.93922677954E+03 -0.18308113091E+04  0.21202301901E+04  0.46999998093E+01 0. -1.
       -5    1    3    3    0  502 -0.51121128330E+03  0.93922677954E+03 -0.13462390615E+02  0.10694331422E+04  0.46999998093E+01 0.  1.
</event>
<event>
 5   0  0.1086507E-05  0.2588715E+04  0.7818609E-02  0.8372045E-01
       -2   -1    0    0    0  501  0.00000000000E+00  0.00000000000E+00  0.61122109103E+03  0.61122109103E+03  0.25500000920E-02 0. -1.
        2   -1    0    0  501    0  0.00000000000E+00  0.00000000000E+00 -0.27410070227E+04  0.27410070227E+04  0.25500000920E-02 0.  1.
    10030    2    1    2    0    0  0.00000000000E+00  0.00000000000E+00 -0.21297859317E+04  0.33522281137E+04  0.25887149731E+04 0.  0.
        2    1    3    3  502    0  0.65480733535E+03 -0.27652004507E+03  0.33587279306E+03  0.78615934446E+03  0.25500000920E-02 0. -1.
       -2    1    3    3    0  502 -0.65480733535E+03  0.27652004507E+03 -0.24656587248E+04  0.25660687693E+04  0.25500000920E-02 0.  1.
</event>
<event>
 5   0  0.3705250E-06  0.2649232E+04  0.7818609E-02  0.8351668E-01
        4   -1    0    0  501    0  0.00000000000E+00  0.00000000000E+00  0.77294369001E+03  0.77294473336E+03  0.12699999809E+01 0.  1.
       -4   -1    0    0    0  501  0.00000000000E+00  0.00000000000E+00 -0.22700294399E+04  0.22700297951E+04  0.12699999809E+01 0. -1.
    10030    2    1    2    0    0  0.00000000000E+00  0.00000000000E+00 -0.14970857499E+04  0.30429745285E+04  0.26492316317E+04 0.  0.
        5    1    3    3  502    0  0.17203671743E+03  0.82534327783E+03  0.42496597214E+03  0.94414317022E+03  0.46999998093E+01 0.  1.
       -5    1    3    3    0  502 -0.17203671743E+03 -0.82534327783E+03 -0.19220517220E+04  0.20988313583E+04  0.46999998093E+01 0. -1.
</event>
<event>
 5   0  0.4361864E-06  0.2610346E+04  0.7818609E-02  0.8364696E-01
       -1   -1    0    0    0  501  0.00000000000E+00  0.00000000000E+00  0.71265448897E+03  0.71265448899E+03  0.50400001928E-02 0.  1.
        1   -1    0    0  501    0  0.00000000000E+00  0.00000000000E+00 -0.23903252135E+04  0.23903252135E+04  0.50400001928E-02 0. -1.
    10030    2    1    2    0    0  0.00000000000E+00  0.00000000000E+00 -0.16776707245E+04  0.31029797025E+04  0.26103455660E+04 0.  0.
        3    1    3    3  502    0 -0.23253556681E+03  0.91259043464E+03  0.23535389021E+03  0.97071394091E+03  0.10100000352E+00 0.  1.
       -3    1    3    3    0  502  0.23253556681E+03 -0.91259043464E+03 -0.19130246147E+04  0.21322657616E+04  0.10100000352E+00 0. -1.
</event>
<event>
 5   0  0.1085061E-05  0.2571852E+04  0.7818609E-02  0.8377826E-01
        2   -1    0    0  501    0  0.00000000000E+00  0.00000000000E+00  0.12130405307E+04  0.12130405307E+04  0.25500000920E-02 0. -1.
       -2   -1    0    0    0  501  0.00000000000E+00  0.00000000000E+00 -0.13631912157E+04  0.13631912157E+04  0.25500000920E-02 0.  1.
    10030    2    1    2    0    0  0.00000000000E+00  0.00000000000E+00 -0.15015068506E+03  0.25762317464E+04  0.25718524031E+04 0.  0.
        1    1    3    3  502    0 -0.91410948966E+02 -0.21177420627E+03  0.11921487420E+04  0.12142581682E+04  0.50400001928E-02 0. -1.
       -1    1    3    3    0  502  0.91410948966E+02  0.21177420627E+03 -0.13422994270E+04  0.13619735782E+04  0.50400001928E-02 0.  1.
</event>
<event>
 5   0  0.4361864E-06  0.2604539E+04  0.7818609E-02  0.8366661E-01
        1   -1    0    0  501    0  0.00000000000E+00  0.00000000000E+00  0.15900813741E+04  0.15900813741E+04  0.50400001928E-02 0.  1.
       -1   -1    0    0    0  501  0.00000000000E+00  0.00000000000E+00 -0.10665532474E+04  0.10665532474E+04  0.50400001928E-02 0. -1.
    10030    2    1    2    0    0  0.00000000000E+00  0.00000000000E+00  0.52352812667E+03  0.26566346215E+04  0.26045394627E+04 0.  0.
        3    1    3    3  502    0 -0.84550683793E+03  0.66384272978E+03 -0.48801519934E+03  0.11805625048E+04  0.10100000352E+00 0. -1.
       -3    1    3    3    0  502  0.84550683793E+03 -0.66384272978E+03  0.10115433260E+04  0.14760721166E+04  0.10100000352E+00 0.  1.
</event>
<event>
 5   0  0.1086507E-05  0.2594815E+04  0.7818609E-02  0.8369964E-01
       -2   -1    0    0    0  501  0.00000000000E+00  0.00000000000E+00  0.10501188109E+04  0.10501188109E+04  0.25500000920E-02 0. -1.
        2   -1    0    0  501    0  0.00000000000E+00  0.00000000000E+00 -0.16029297425E+04  0.16029297425E+04  0.25500000920E-02 0.  1.
    10030    2    1    2    0    0  0.00000000000E+00  0.00000000000E+00 -0.55281093156E+03  0.26530485534E+04  0.25948153500E+04 0.  0.
        2    1    3    3  502    0 -0.58817741579E+03 -0.19044788424E+03  0.88982576156E+03  0.10835187839E+04  0.25500000920E-02 0. -1.
       -2    1    3    3    0  502  0.58817741579E+03  0.19044788424E+03 -0.14426366931E+04  0.15695297695E+04  0.25500000920E-02 0.  1.
</event>
<event>
 5   0  0.1136881E-05  0.2561382E+04  0.7818609E-02  0.8381438E-01
       -2   -1    0    0    0  501  0.00000000000E+00  0.00000000000E+00  0.12021070795E+04  0.12021070795E+04  0.25500000920E-02 0.  1.
        2   -1    0    0  501    0  0.00000000000E+00  0.00000000000E+00 -0.13644121498E+04  0.13644121498E+04  0.25500000920E-02 0. -1.
    10030    2    1    2    0    0  0.00000000000E+00  0.00000000000E+00 -0.16230507028E+03  0.25665192293E+04  0.25613820524E+04 0.  0.
        3    1    3    3  502    0 -0.62819729250E+03 -0.21660139855E+03 -0.11781640605E+04  0.13526339371E+04  0.10100000352E+00 0. -1.
       -3    1    3    3    0  502  0.62819729250E+03  0.21660139855E+03  0.10158589903E+04  0.12138852921E+04  0.10100000352E+00 0.  1.
</event>
<event>
 5   0  0.1085061E-05  0.2592697E+04  0.7818609E-02  0.8370686E-01
        2   -1    0    0  501    0  0.00000000000E+00  0.00000000000E+00  0.20221389024E+04  0.20221389024E+04  0.25500000920E-02 0. -1.
       -2   -1    0    0    0  501  0.00000000000E+00  0.00000000000E+00 -0.83106004583E+03  0.83106004583E+03  0.25500000920E-02 0.  1.
    10030    2    1    2    0    0  0.00000000000E+00  0.00000000000E+00  0.11910788566E+04  0.28531989482E+04  0.25926965491E+04 0.  0.
        1    1    3    3  502    0 -0.17494311318E+03 -0.10609957999E+04 -0.20122431836E+03  0.10939873887E+04  0.50400001928E-02 0.  1.
       -1    1    3    3    0  502  0.17494311318E+03  0.10609957999E+04  0.13923031749E+04  0.17592115595E+04  0.50400001928E-02 0. -1.
</event>
<event>
 5   0  0.1085255E-05  0.2543984E+04  0.7818609E-02  0.8387482E-01
        2   -1    0    0  501    0  0.00000000000E+00  0.00000000000E+00  0.98928963192E+03  0.98928963193E+03  0.25500000920E-02 0. -1.
       -2   -1    0    0    0  501  0.00000000000E+00  0.00000000000E+00 -0.16354798251E+04  0.16354798251E+04  0.25500000920E-02 0.  1.
    10030    2    1    2    0    0  0.00000000000E+00  0.00000000000E+00 -0.64619019314E+03  0.26247694570E+04  0.25439836746E+04 0.  0.
        5    1    3    3  502    0 -0.13624014667E+03  0.10929416868E+04  0.33339523276E+03  0.11507638244E+04  0.46999998093E+01 0. -1.
       -5    1    3    3    0  502  0.13624014667E+03 -0.10929416868E+04 -0.97958542589E+03  0.14740056326E+04  0.46999998093E+01 0.  1.
</event>
<event>
 5   0  0.4464297E-06  0.2433603E+04  0.7818609E-02  0.8427029E-01
        1   -1    0    0  501    0  0.00000000000E+00  0.00000000000E+00  0.15271829257E+04  0.15271829258E+04  0.50400001928E-02 0. -1.
       -1   -1    0    0    0  501  0.00000000000E+00  0.00000000000E+00 -0.96950158687E+03  0.96950158688E+03  0.50400001928E-02 0.  1.
    10030    2    1    2    0    0  0.00000000000E+00  0.00000000000E+00  0.55768133888E+03  0.24966845126E+04  0.24336033119E+04 0.  0.
        4    1    3    3  502    0 -0.17714423109E+03  0.60465146621E+03  0.13467948560E+04  0.14868898652E+04  0.12699999809E+01 0. -1.
       -4    1    3    3    0  502  0.17714423109E+03 -0.60465146621E+03 -0.78911351712E+03  0.10097946474E+04  0.12699999809E+01 0.  1.
</event>
<event>
 5   0  0.4597705E-06  0.2584910E+04  0.7818609E-02  0.8373345E-01
        1   -1    0    0  501    0  0.00000000000E+00  0.00000000000E+00  0.20432414643E+04  0.20432414643E+04  0.50400001928E-02 0.  1.
       -1   -1    0    0    0  501  0.00000000000E+00  0.00000000000E+00 -0.81754431792E+03  0.81754431793E+03  0.50400001928E-02 0. -1.
    10030    2    1    2    0    0  0.00000000000E+00  0.00000000000E+00  0.12256971464E+04  0.28607857823E+04  0.25849104041E+04 0.  0.
        5    1    3    3  502    0  0.10500489136E+04  0.44039940685E+03 -0.63852193849E+02  0.11404619902E+04  0.46999998093E+01 0. -1.
       -5    1    3    3    0  502 -0.10500489136E+04 -0.44039940685E+03  0.12895493403E+04  0.17203237920E+04  0.46999998093E+01 0.  1.
</event>
<event>
 5   0  0.1116310E-05  0.2589168E+04  0.7818609E-02  0.8371890E-01
        2   -1    0    0  501    0  0.00000000000E+00  0.00000000000E+00  0.17682076554E+04  0.17682076554E+04  0.25500000920E-02 0.  1.
       -2   -1    0    0    0  501  0.00000000000E+00  0.00000000000E+00 -0.94782264925E+03  0.94782264925E+03  0.25500000920E-02 0. -1.
    10030    2    1    2    0    0  0.00000000000E+00  0.00000000000E+00  0.82038500615E+03  0.27160303046E+04  0.25891676380E+04 0.  0.
        4    1    3    3  502    0 -0.99079290194E+03  0.79274552657E+03  0.14104827382E+03  0.12767193399E+04  0.12699999809E+01 0. -1.
       -4    1    3    3    0  502  0.99079290194E+03 -0.79274552657E+03  0.67933673233E+03  0.14393109647E+04  0.12699999809E+01 0.  1.
</event>
<event>
 5   0  0.4464297E-06  0.2613794E+04  0.7818609E-02  0.8363531E-01
       -1   -1    0    0    0  501  0.00000000000E+00  0.00000000000E+00  0.14959908867E+04  0.14959908867E+04  0.50400001928E-02 0.  1.
        1   -1    0    0  501    0  0.00000000000E+00  0.00000000000E+00 -0.11417050617E+04  0.11417050618E+04  0.50400001928E-02 0. -1.
    10030    2    1    2    0    0  0.00000000000E+00  0.00000000000E+00  0.35428582498E+03  0.26376959485E+04  0.26137944584E+04 0.  0.
        4    1    3    3  502    0  0.71371270714E+03 -0.94704692704E+03  0.73143335180E+03  0.13932982708E+04  0.12699999809E+01 0.  1.
       -4    1    3    3    0  502 -0.71371270714E+03  0.94704692704E+03 -0.37714752683E+03  0.12443976777E+04  0.12699999809E+01 0. -1.
</event>
<event>
 5   0  0.4218590E-06  0.2583685E+04  0.7818609E-02  0.8373764E-01
        1   -1    0    0  501    0  0.00000000000E+00  0.00000000000E+00  0.74753102791E+03  0.74753102793E+03  0.50400001928E-02 0. -1.
       -1   -1    0    0    0  501  0.00000000000E+00  0.00000000000E+00 -0.22324924929E+04  0.22324924929E+04  0.50400001928E-02 0.  1.
    10030    2    1    2    0    0  0.00000000000E+00  0.00000000000E+00 -0.14849614650E+04  0.29800235209E+04  0.25836852812E+04 0.  0.
        1    1    3    3  502    0  0.79997941590E+03 -0.91850010289E+03 -0.12389092609E+04  0.17373847189E+04  0.50400001928E-02 0. -1.
       -1    1    3    3    0  502 -0.79997941590E+03  0.91850010289E+03 -0.24605220414E+03  0.12426388019E+04  0.50400001928E-02 0.  1.
</event>
<event>
 5   0  0.1085061E-05  0.2631691E+04  0.7818609E-02  0.8357516E-01
       -2   -1    0    0    0  501  0.00000000000E+00  0.00000000000E+00  0.13978308912E+04  0.13978308912E+04  0.25500000920E-02 0. -1.
        2   -1    0    0  501    0  0.00000000000E+00  0.00000000000E+00 -0.12386686569E+04  0.12386686569E+04  0.25500000920E-02 0.  1.
    10030    2    1    2    0    0  0.00000000000E+00  0.00000000000E+00  0.15916223429E+03  0.26364995481E+04  0.26316909489E+04 0.  0.
        1    1    3    3  502    0 -0.35528610264E+03  0.11557397946E+04 -0.44048842741E+03  0.12868538154E+04  0.50400001928E-02 0. -1.
       -1    1    3    3    0  502  0.35528610264E+03 -0.11557397946E+04  0.59965066170E+03  0.13496457327E+04  0.50400001928E-02 0.  1.
</event>
<event>
 5   0  0.4597705E-06  0.2599655E+04  0.7818609E-02  0.8368318E-01
        1   -1    0    0  501    0  0.00000000000E+00  0.00000000000E+00  0.14748087582E+04  0.14748087582E+04  0.50400001928E-02 0.  1.
       -1   -1    0    0    0  501  0.00000000000E+00  0.00000000000E+00 -0.11456069741E+04  0.11456069741E+04  0.50400001928E-02 0. -1.
    10030    2    1    2    0    0  0.00000000000E+00  0.00000000000E+00  0.32920178407E+03  0.26204157323E+04  0.25996547454E+04 0.  0.
        5    1    3    3  502    0 -0.59662173408E+03  0.20952416722E+03 -0.98010529823E+03  0.11663988837E+04  0.46999998093E+01 0. -1.
       -5    1    3    3    0  502  0.59662173408E+03 -0.20952416722E+03  0.13093070823E+04  0.14540168486E+04  0.46999998093E+01 0.  1.
</event>
<event>
 5   0  0.1116310E-05  0.2571165E+04  0.7818609E-02  0.8378062E-01
        2   -1    0    0  501    0  0.00000000000E+00  0.00000000000E+00  0.18271611464E+04  0.18271611464E+04  0.25500000920E-02 0.  1.
       -2   -1    0    0    0  501  0.00000000000E+00  0.00000000000E+00 -0.90452987253E+03  0.90452987253E+03  0.25500000920E-02 0. -1.
    10030    2    1    2    0    0  0.00000000000E+00  0.00000000000E+00  0.92263127385E+03  0.27316910189E+04  0.25711645912E+04 0.  0.
        4    1    3    3  502    0  0.20480800658E+03  0.12511172054E+04  0.23474155561E+03  0.12893198952E+04  0.12699999809E+01 0. -1.
       -4    1    3    3    0  502 -0.20480800658E+03 -0.12511172054E+04  0.68788971823E+03  0.14423711237E+04  0.12699999809E+01 0.  1.
</event>
<event>
 5   0  0.1085061E-05  0.2603256E+04  0.7818609E-02  0.8367096E-01
       -2   -1    0    0    0  501  0.00000000000E+00  0.00000000000E+00  0.12005439658E+04  0.12005439658E+04  0.25500000920E-02 0.  1.
        2   -1    0    0  501    0  0.00000000000E+00  0.00000000000E+00 -0.14112230504E+04  0.14112230504E+04  0.25500000920E-02 0. -1.
    10030    2    1    2    0    0  0.00000000000E+00  0.00000000000E+00 -0.21067908454E+03  0.26117670162E+04  0.26032558979E+04 0.  0.
        1    1    3    3  502    0  0.72978887539E+03  0.10151650532E+04 -0.46857770448E+03  0.13351842394E+04  0.50400001928E-02 0. -1.
       -1    1    3    3    0  502 -0.72978887539E+03 -0.10151650532E+04  0.25789861994E+03  0.12765827768E+04  0.50400001928E-02 0.  1.
</event>
<event>
 5   0  0.1136881E-05  0.2589726E+04  0.7818609E-02  0.8371699E-01
        2   -1    0    0  501    0  0.00000000000E+00  0.00000000000E+00  0.18310690264E+04  0.18310690264E+04  0.25500000920E-02 0. -1.
       -2   -1    0    0    0  501  0.00000000000E+00  0.00000000000E+00 -0.91567839551E+03  0.91567839551E+03  0.25500000920E-02 0.  1.
    10030    2    1    2    0    0  0.00000000000E+00  0.00000000000E+00  0.91539063088E+03  0.27467474219E+04  0.25897261231E+04 0.  0.
        3    1    3    3  502    0  0.82460363152E+03 -0.60714961601E+01 -0.60116557804E+03  0.10204940346E+04  0.10100000352E+00 0.  1.
       -3    1    3    3    0  502 -0.82460363152E+03  0.60714961601E+01  0.15165562089E+04  0.17262533873E+04  0.10100000352E+00 0. -1.
</event>
<event>
 5   0  0.1086507E-05  0.2597548E+04  0.7818609E-02  0.8369035E-01
        2   -1    0    0  501    0  0.00000000000E+00  0.00000000000E+00  0.10576419783E+04  0.10576419783E+04  0.25500000920E-02 0. -1.
       -2   -1    0    0    0  501  0.00000000000E+00  0.00000000000E+00 -0.15948813263E+04  0.15948813263E+04  0.25500000920E-02 0.  1.
    10030    2    1    2    0    0  0.00000000000E+00  0.00000000000E+00 -0.53723934798E+03  0.26525233046E+04  0.25975476443E+04 0.  0.
        2    1    3    3  502    0 -0.33606004332E+02 -0.38285842964E+03 -0.15354825185E+04  0.15828507527E+04  0.25500000920E-02 0.  1.
       -2    1    3    3    0  502  0.33606004332E+02  0.38285842964E+03  0.99824317056E+03  0.10696725519E+04  0.25500000920E-02 0. -1.
</event>
<event>
 5   0  0.1085061E-05  0.2578407E+04  0.7818609E-02  0.8375573E-01
       -2   -1    0    0    0  501  0.00000000000E+00  0.00000000000E+00  0.15394910862E+04  0.15394910862E+04  0.25500000920E-02 0. -1.
        2   -1    0    0  501    0  0.00000000000E+00  0.00000000000E+00 -0.10796069384E+04  0.10796069384E+04  0.25500000920E-02 0.  1.
    10030    2    1    2    0    0  0.00000000000E+00  0.00000000000E+00  0.45988414779E+03  0.26190980247E+04  0.25784066850E+04 0.  0.
        1    1    3    3  502    0  0.56265912728E+03 -0.95349844433E+03 -0.44101275086E+03  0.11917368935E+04  0.50400001928E-02 0.  1.
       -1    1    3    3    0  502 -0.56265912728E+03  0.95349844433E+03  0.90089689865E+03  0.14273611312E+04  0.50400001928E-02 0. -1.
</event>
<event>
 5   0  0.1085255E-05  0.2579395E+04  0.7818609E-02  0.8375234E-01
        2   -1    0    0  501    0  0.00000000000E+00  0.00000000000E+00  0.16606216522E+04  0.16606216522E+04  0.25500000920E-02 0.  1.
       -2   -1    0    0    0  501  0.00000000000E+00  0.00000000000E+00 -0.10016247302E+04  0.10016247302E+04  0.25500000920E-02 0. -1.
    10030    2    1    2    0    0  0.00000000000E+00  0.00000000000E+00  0.65899692203E+03  0.26622463824E+04  0.25793950565E+04 0.  0.
        5    1    3    3  502    0  0.35218287783E+03 -0.10440258611E+03 -0.94648168357E+03  0.10152745179E+04  0.46999998093E+01 0. -1.
       -5    1    3    3    0  502 -0.35218287783E+03  0.10440258611E+03  0.16054786056E+04  0.16469718645E+04  0.46999998093E+01 0.  1.
</event>
<event>
 5   0  0.1086507E-05  0.2601824E+04  0.7818609E-02  0.8367582E-01
       -2   -1    0    0    0  501  0.00000000000E+00  0.00000000000E+00  0.91663227668E+03  0.91663227669E+03  0.25500000920E-02 0. -1.
        2   -1    0    0  501    0  0.00000000000E+00  0.00000000000E+00 -0.18462935027E+04  0.18462935027E+04  0.25500000920E-02 0.  1.
    10030    2    1    2    0    0  0.00000000000E+00  0.00000000000E+00 -0.92966122598E+03  0.27629257794E+04  0.26018241422E+04 0.  0.
        2    1    3    3  502    0  0.96575601056E+03  0.63376956964E+03  0.17056930432E+03  0.11676653745E+04  0.25500000920E-02 0. -1.
       -2    1    3    3    0  502 -0.96575601056E+03 -0.63376956964E+03 -0.11002305303E+04  0.15952604048E+04  0.25500000920E-02 0.  1.
</event>
<event>
 5   0  0.4361864E-06  0.2502560E+04  0.7818609E-02  0.8402074E-01
       -1   -1    0    0    0  501  0.00000000000E+00  0.00000000000E+00  0.65949291343E+03  0.65949291344E+03  0.50400001928E-02 0.  1.
        1   -1    0    0  501    0  0.00000000000E+00  0.00000000000E+00 -0.23740994535E+04  0.23740994535E+04  0.50400001928E-02 0. -1.
    10030    2    1    2    0    0  0.00000000000E+00  0.00000000000E+00 -0.17146065401E+04  0.30335923670E+04  0.25025601015E+04 0.  0.
        3    1    3    3  502    0 -0.73985098874E+03 -0.15261957274E+03 -0.20664825390E+04  0.22002323317E+04  0.10100000352E+00 0. -1.
       -3    1    3    3    0  502  0.73985098874E+03  0.15261957274E+03  0.35187599888E+03  0.83336003523E+03  0.10100000352E+00 0.  1.
</event>
<event>
 5   0  0.4218590E-06  0.2596851E+04  0.7818609E-02  0.8369272E-01
       -1   -1    0    0    0  501  0.00000000000E+00  0.00000000000E+00  0.12018827677E+04  0.12018827677E+04  0.50400001928E-02 0. -1.
        1   -1    0    0  501    0  0.00000000000E+00  0.00000000000E+00 -0.14027231198E+04  0.14027231198E+04  0.50400001928E-02 0.  1.
    10030    2    1    2    0    0  0.00000000000E+00  0.00000000000E+00 -0.20084035210E+03  0.26046058876E+04  0.25968509743E+04 0.  0.
        1    1    3    3  502    0  0.49789889380E+03 -0.52392678864E+03  0.98146042454E+03  0.12188794663E+04  0.50400001928E-02 0. -1.
       -1    1    3    3    0  502 -0.49789889380E+03  0.52392678864E+03 -0.11823007766E+04  0.13857264213E+04  0.50400001928E-02 0.  1.
</event>
<event>
 5   0  0.1086507E-05  0.2468486E+04  0.7818609E-02  0.8414299E-01
        2   -1    0    0  501    0  0.00000000000E+00  0.00000000000E+00  0.12931997584E+04  0.12931997584E+04  0.25500000920E-02 0.  1.
       -2   -1    0    0    0  501  0.00000000000E+00  0.00000000000E+00 -0.11779737073E+04  0.11779737073E+04  0.25500000920E-02 0. -1.
    10030    2    1    2    0    0  0.00000000000E+00  0.00000000000E+00  0.11522605106E+03  0.24711734657E+04  0.24684856197E+04 0.  0.
        2    1    3    3  502    0 -0.45180920286E+03 -0.10762632467E+04 -0.34392368264E+03  0.12168638508E+04  0.25500000920E-02 0. -1.
       -2    1    3    3    0  502  0.45180920286E+03  0.10762632467E+04  0.45914973370E+03  0.12543096148E+04  0.25500000920E-02 0.  1.
</event>
<event>
 5   0  0.1085255E-05  0.2517149E+04  0.7818609E-02  0.8396901E-01
       -2   -1    0    0    0  501  0.00000000000E+00  0.00000000000E+00  0.11559221488E+04  0.11559221488E+04  0.25500000920E-02 0. -1.
        2   -1    0    0  501    0  0.00000000000E+00  0.00000000000E+00 -0.13703434195E+04  0.13703434195E+04  0.25500000920E-02 0.  1.
    10030    2    1    2    0    0  0.00000000000E+00  0.00000000000E+00 -0.21442127079E+03  0.25262655683E+04  0.25171494275E+04 0.  0.
        5    1    3    3  502    0 -0.66823117401E+03 -0.10404305080E+04  0.12807319810E+03  0.12431626515E+04  0.46999998093E+01 0. -1.
       -5    1    3    3    0  502  0.66823117401E+03  0.10404305080E+04 -0.34249446889E+03  0.12831029168E+04  0.46999998093E+01 0.  1.
</event>
<event>
 5   0  0.1085255E-05  0.2598106E+04  0.7818609E-02  0.8368845E-01
       -2   -1    0    0    0  501  0.00000000000E+00  0.00000000000E+00  0.80411693747E+03  0.80411693748E+03  0.25500000920E-02 0.  1.
        2   -1    0    0  501    0  0.00000000000E+00  0.00000000000E+00 -0.20986237803E+04  0.20986237803E+04  0.25500000920E-02 0. -1.
    10030    2    1    2    0    0  0.00000000000E+00  0.00000000000E+00 -0.12945068428E+04  0.29027407178E+04  0.25981061773E+04 0.  0.
        5    1    3    3  502    0  0.92706871152E+03 -0.63404236682E+03 -0.13765127620E+04  0.17765910032E+04  0.46999998093E+01 0.  1.
       -5    1    3    3    0  502 -0.92706871152E+03  0.63404236682E+03  0.82005919176E+02  0.11261497146E+04  0.46999998093E+01 0. -1.
</event>
<event>
 5   0  0.4464297E-06  0.2607422E+04  0.7818609E-02  0.8365685E-01
        1   -1    0    0  501    0  0.00000000000E+00  0.00000000000E+00  0.19506622033E+04  0.19506622033E+04  0.50400001928E-02 0.  1.
       -1   -1    0    0    0  501  0.00000000000E+00  0.00000000000E+00 -0.87132554767E+03  0.87132554768E+03  0.50400001928E-02 0. -1.
    10030    2    1    2    0    0  0.00000000000E+00  0.00000000000E+00  0.10793366556E+04  0.28219877510E+04  0.26074215713E+04 0.  0.
        4    1    3    3  502    0 -0.20059363138E+03 -0.60089296280E+03 -0.69354942606E+03  0.93932027391E+03  0.12699999809E+01 0. -1.
       -4    1    3    3    0  502  0.20059363138E+03  0.60089296280E+03  0.17728860817E+04  0.18826674771E+04  0.12699999809E+01 0.  1.
</event>
<event>
 5   0  0.4597705E-06  0.2590387E+04  0.7818609E-02  0.8371474E-01
        1   -1    0    0  501    0  0.00000000000E+00  0.00000000000E+00  0.13298280097E+04  0.13298280097E+04  0.50400001928E-02 0. -1.
       -1   -1    0    0    0  501  0.00000000000E+00  0.00000000000E+00 -0.12614609352E+04  0.12614609352E+04  0.50400001928E-02 0.  1.
    10030    2    1    2    0    0  0.00000000000E+00  0.00000000000E+00  0.68367074469E+02  0.25912889449E+04  0.25903869092E+04 0.  0.
        5    1    3    3  502    0 -0.64405015754E+03  0.56552691116E+03  0.10055431441E+04  0.13212722646E+04  0.46999998093E+01 0. -1.
       -5    1    3    3    0  502  0.64405015754E+03 -0.56552691116E+03 -0.93717606962E+03  0.12700166803E+04  0.46999998093E+01 0.  1.
</event>
<event>
 5   0  0.1085061E-05  0.2516779E+04  0.7818609E-02  0.8397032E-01
        2   -1    0    0  501    0  0.00000000000E+00  0.00000000000E+00  0.24717787711E+04  0.24717787712E+04  0.25500000920E-02 0.  1.
       -2   -1    0    0    0  501  0.00000000000E+00  0.00000000000E+00 -0.64064963159E+03  0.64064963160E+03  0.25500000920E-02 0. -1.
    10030    2    1    2    0    0  0.00000000000E+00  0.00000000000E+00  0.18311291396E+04  0.31124284028E+04  0.25167790202E+04 0.  0.
        1    1    3    3  502    0  0.56811404349E+03  0.22589178854E+03  0.22757700557E+04  0.23564613328E+04  0.50400001928E-02 0.  1.
       -1    1    3    3    0  502 -0.56811404349E+03 -0.22589178854E+03 -0.44464091614E+03  0.75596706996E+03  0.50400001928E-02 0. -1.
</event>
<event>
 5   0  0.1116310E-05  0.2575054E+04  0.7818609E-02  0.8376724E-01
        2   -1    0    0  501    0  0.00000000000E+00  0.00000000000E+00  0.10184041586E+04  0.10184041586E+04  0.25500000920E-02 0.  1.
       -2   -1    0    0    0  501  0.00000000000E+00  0.00000000000E+00 -0.16277686502E+04  0.16277686502E+04  0.25500000920E-02 0. -1.
    10030    2    1    2    0    0  0.00000000000E+00  0.00000000000E+00 -0.60936449154E+03  0.26461728088E+04  0.25750544558E+04 0.  0.
        4    1    3    3  502    0 -0.56758764501E+03  0.49638105312E+03  0.76777648726E+03  0.10761190603E+04  0.12699999809E+01 0.  1.
       -4    1    3    3    0  502  0.56758764501E+03 -0.49638105312E+03 -0.13771409788E+04  0.15700537485E+04  0.12699999809E+01 0. -1.
</event>
<event>
 5   0  0.1086507E-05  0.2590450E+04  0.7818609E-02  0.8371452E-01
        2   -1    0    0  501    0  0.00000000000E+00  0.00000000000E+00  0.82322918374E+03  0.82322918374E+03  0.25500000920E-02 0. -1.
       -2   -1    0    0    0  501  0.00000000000E+00  0.00000000000E+00 -0.20378376573E+04  0.20378376573E+04  0.25500000920E-02 0.  1.
    10030    2    1    2    0    0  0.00000000000E+00  0.00000000000E+00 -0.12146084736E+04  0.28610668411E+04  0.25904497148E+04 0.  0.
        2    1    3    3  502    0  0.70198563000E+03  0.51696479319E+03 -0.16652725962E+04  0.18796726422E+04  0.25500000920E-02 0.  1.
       -2    1    3    3    0  502 -0.70198563000E+03 -0.51696479319E+03  0.45066412263E+03  0.98139419886E+03  0.25500000920E-02 0. -1.
</event>
<event>
 5   0  0.1086507E-05  0.2610766E+04  0.7818609E-02  0.8364554E-01
       -2   -1    0    0    0  501  0.00000000000E+00  0.00000000000E+00  0.11494473815E+04  0.11494473815E+04  0.25500000920E-02 0. -1.
        2   -1    0    0  501    0  0.00000000000E+00  0.00000000000E+00 -0.14824725094E+04  0.14824725094E+04  0.25500000920E-02 0.  1.
    10030    2    1    2    0    0  0.00000000000E+00  0.00000000000E+00 -0.33302512794E+03  0.26319198909E+04  0.26107655154E+04 0.  0.
        2    1    3    3  502    0  0.36625693422E+03  0.10503465379E+04 -0.85516713635E+03  0.14030975813E+04  0.25500000920E-02 0.  1.
       -2    1    3    3    0  502 -0.36625693422E+03 -0.10503465379E+04  0.52214200841E+03  0.12288223096E+04  0.25500000920E-02 0. -1.
</event>
<event>
 5   0  0.4415080E-06  0.2544686E+04  0.7818609E-02  0.8387236E-01
       -1   -1    0    0    0  501  0.00000000000E+00  0.00000000000E+00  0.10387359066E+04  0.10387359066E+04  0.50400001928E-02 0.  1.
        1   -1    0    0  501    0  0.00000000000E+00  0.00000000000E+00 -0.15584878593E+04  0.15584878593E+04  0.50400001928E-02 0. -1.
    10030    2    1    2    0    0  0.00000000000E+00  0.00000000000E+00 -0.51975195273E+03  0.25972237659E+04  0.25446864635E+04 0.  0.
        2    1    3    3  502    0 -0.81642203986E+03 -0.54850378503E+03  0.56391611098E+03  0.11337560274E+04  0.25500000920E-02 0.  1.
       -2    1    3    3    0  502  0.81642203986E+03  0.54850378503E+03 -0.10836680637E+04  0.14634677385E+04  0.25500000920E-02 0. -1.
</event>
<event>
 5   0  0.4361864E-06  0.2596182E+04  0.7818609E-02  0.8369499E-01
        1   -1    0    0  501    0  0.00000000000E+00  0.00000000000E+00  0.12499731611E+04  0.12499731611E+04  0.50400001928E-02 0.  1.
       -1   -1    0    0    0  501  0.00000000000E+00  0.00000000000E+00 -0.13480612408E+04  0.13480612408E+04  0.50400001928E-02 0. -1.
    10030    2    1    2    0    0  0.00000000000E+00  0.00000000000E+00 -0.98088079699E+02  0.25980344020E+04  0.25961820973E+04 0.  0.
        3    1    3    3  502    0 -0.59884222332E+03  0.11188621943E+04 -0.32232447372E+03  0.13093348292E+04  0.10100000352E+00 0. -1.
       -3    1    3    3    0  502  0.59884222332E+03 -0.11188621943E+04  0.22423639402E+03  0.12886995728E+04  0.10100000352E+00 0.  1.
</event>
<event>
 5   0  0.1085255E-05  0.2599550E+04  0.7818609E-02  0.8368354E-01
       -2   -1    0    0    0  501  0.00000000000E+00  0.00000000000E+00  0.86784328655E+03  0.86784328656E+03  0.25500000920E-02 0. -1.
        2   -1    0    0  501    0  0.00000000000E+00  0.00000000000E+00 -0.19466821694E+04  0.19466821694E+04  0.25500000920E-02 0.  1.
    10030    2    1    2    0    0  0.00000000000E+00  0.00000000000E+00 -0.10788388829E+04  0.28145254560E+04  0.25995500009E+04 0.  0.
        5    1    3    3  502    0  0.22694626883E+03 -0.64491778320E+03  0.65742352551E+03  0.94849951919E+03  0.46999998093E+01 0. -1.
       -5    1    3    3    0  502 -0.22694626883E+03  0.64491778320E+03 -0.17362624084E+04  0.18660259368E+04  0.46999998093E+01 0.  1.
</event>
<event>
 5   0  0.1085061E-05  0.2602241E+04  0.7818609E-02  0.8367440E-01
       -2   -1    0    0    0  501  0.00000000000E+00  0.00000000000E+00  0.15514355788E+04  0.15514355788E+04  0.25500000920E-02 0.  1.
        2   -1    0    0  501    0  0.00000000000E+00  0.00000000000E+00 -0.10911923148E+04  0.10911923148E+04  0.25500000920E-02 0. -1.
    10030    2    1    2    0    0  0.00000000000E+00  0.00000000000E+00  0.46024326400E+03  0.26426278936E+04  0.26022410192E+04 0.  0.
        1    1    3    3  502    0 -0.10073860436E+04 -0.48010454460E+03 -0.44928143492E+03  0.12029882885E+04  0.50400001928E-02 0. -1.
       -1    1    3    3    0  502  0.10073860436E+04  0.48010454460E+03  0.90952469892E+03  0.14396396051E+04  0.50400001928E-02 0.  1.
</event>
<event>
 5   0  0.4464297E-06  0.2589593E+04  0.7818609E-02  0.8371745E-01
        1   -1    0    0  501    0  0.00000000000E+00  0.00000000000E+00  0.17927442250E+04  0.17927442250E+04  0.50400001928E-02 0. -1.
       -1   -1    0    0    0  501  0.00000000000E+00  0.00000000000E+00 -0.93515713785E+03  0.93515713787E+03  0.50400001928E-02 0.  1.
    10030    2    1    2    0    0  0.00000000000E+00  0.00000000000E+00  0.85758708711E+03  0.27279013628E+04  0.25895926771E+04 0.  0.
        4    1    3    3  502    0 -0.12165270917E+04 -0.40787019130E+03  0.24573144748E+03  0.13064003272E+04  0.12699999809E+01 0.  1.
       -4    1    3    3    0  502  0.12165270917E+04  0.40787019130E+03  0.61185563964E+03  0.14215010357E+04  0.12699999809E+01 0. -1.
</event>
<event>
 5   0  0.4361864E-06  0.2505291E+04  0.7818609E-02  0.8401103E-01
       -1   -1    0    0    0  501  0.00000000000E+00  0.00000000000E+00  0.83145401526E+03  0.83145401527E+03  0.50400001928E-02 0.  1.
        1   -1    0    0  501    0  0.00000000000E+00  0.00000000000E+00 -0.18872009775E+04  0.18872009775E+04  0.50400001928E-02 0. -1.
    10030    2    1    2    0    0  0.00000000000E+00  0.00000000000E+00 -0.10557469623E+04  0.27186549928E+04  0.25052910652E+04 0.  0.
        3    1    3    3  502    0  0.74340654324E+02  0.60622292934E+03 -0.17146733323E+04  0.18202025765E+04  0.10100000352E+00 0. -1.
       -3    1    3    3    0  502 -0.74340654324E+02 -0.60622292934E+03  0.65892637004E+03  0.89845241626E+03  0.10100000352E+00 0.  1.
</event>
<event>
 5   0  0.1085255E-05  0.2473106E+04  0.7818609E-02  0.8412630E-01
        2   -1    0    0  501    0  0.00000000000E+00  0.00000000000E+00  0.12941363111E+04  0.12941363111E+04  0.25500000920E-02 0. -1.
       -2   -1    0    0    0  501  0.00000000000E+00  0.00000000000E+00 -0.11815315475E+04  0.11815315475E+04  0.25500000920E-02 0.  1.
    10030    2    1    2    0    0  0.00000000000E+00  0.00000000000E+00  0.11260476360E+03  0.24756678586E+04  0.24731056413E+04 0.  0.
        5    1    3    3  502    0 -0.51691198512E+02  0.10989588307E+04  0.62138549007E+03  0.12635365087E+04  0.46999998093E+01 0. -1.
       -5    1    3    3    0  502  0.51691198512E+02 -0.10989588307E+04 -0.50878072648E+03  0.12121313498E+04  0.46999998093E+01 0.  1.
</event>
<event>
 5   0  0.3705250E-06  0.2599067E+04  0.7818609E-02  0.8368518E-01
       -4   -1    0    0    0  501  0.00000000000E+00  0.00000000000E+00  0.12401662577E+04  0.12401669080E+04  0.12699999809E+01 0. -1.
        4   -1    0    0  501    0  0.00000000000E+00  0.00000000000E+00 -0.13617416331E+04  0.13617422253E+04  0.12699999809E+01 0.  1.
    10030    2    1    2    0    0  0.00000000000E+00  0.00000000000E+00 -0.12157537543E+03  0.26019091333E+04  0.25990672492E+04 0.  0.
        2    1    3    3  502    0 -0.93124588785E+02  0.71682423716E+03 -0.11419122573E+04  0.13514705988E+04  0.25500000920E-02 0.  1.
       -2    1    3    3    0  502  0.93124588785E+02 -0.71682423716E+03  0.10203368819E+04  0.12504385345E+04  0.25500000920E-02 0. -1.
</event>
<event>
 5   0  0.1086507E-05  0.2610868E+04  0.7818609E-02  0.8364519E-01
        2   -1    0    0  501    0  0.00000000000E+00  0.00000000000E+00  0.20999683951E+04  0.20999683951E+04  0.25500000920E-02 0. -1.
       -2   -1    0    0    0  501  0.00000000000E+00  0.00000000000E+00 -0.81151614420E+03  0.81151614421E+03  0.25500000920E-02 0.  1.
    10030    2    1    2    0    0  0.00000000000E+00  0.00000000000E+00  0.12884522509E+04  0.29114845393E+04  0.26108682502E+04 0.  0.
        2    1    3    3  502    0  0.11805713917E+04 -0.53034836459E+03  0.83458569918E+03  0.15399842493E+04  0.25500000920E-02 0. -1.
       -2    1    3    3    0  502 -0.11805713917E+04  0.53034836459E+03  0.45386655175E+03  0.13715002900E+04  0.25500000920E-02 0.  1.
</event>
<event>
 5   0  0.1116310E-05  0.2591516E+04  0.7818609E-02  0.8371089E-01
        2   -1    0    0  501    0  0.00000000000E+00  0.00000000000E+00  0.21735905257E+04  0.21735905257E+04  0.25500000920E-02 0.  1.
       -2   -1    0    0    0  501  0.00000000000E+00  0.00000000000E+00 -0.77244953149E+03  0.77244953149E+03  0.25500000920E-02 0. -1.
    10030    2    1    2    0    0  0.00000000000E+00  0.00000000000E+00  0.14011409942E+04  0.29460400572E+04  0.25915161456E+04 0.  0.
        4    1    3    3  502    0  0.82449656516E+03  0.41063786211E+03 -0.33546032018E+03  0.98028224459E+03  0.12699999809E+01 0. -1.
       -4    1    3    3    0  502 -0.82449656516E+03 -0.41063786211E+03  0.17366013143E+04  0.19657578126E+04  0.12699999809E+01 0.  1.
</event>
<event>
 5   0  0.4218590E-06  0.2590018E+04  0.7818609E-02  0.8371600E-01
        1   -1    0    0  501    0  0.00000000000E+00  0.00000000000E+00  0.18351177700E+04  0.18351177700E+04  0.50400001928E-02 0. -1.
       -1   -1    0    0    0  501  0.00000000000E+00  0.00000000000E+00 -0.91386434345E+03  0.91386434346E+03  0.50400001928E-02 0.  1.
    10030    2    1    2    0    0  0.00000000000E+00  0.00000000000E+00  0.92125342654E+03  0.27489821135E+04  0.25900182980E+04 0.  0.
        1    1    3    3  502    0  0.71421519396E+03 -0.52223172421E+02  0.16058396727E+04  0.17582808813E+04  0.50400001928E-02 0. -1.
       -1    1    3    3    0  502 -0.71421519396E+03  0.52223172421E+02 -0.68458624615E+03  0.99070123219E+03  0.50400001928E-02 0.  1.
</event>
<event>
 5   0  0.4218590E-06  0.2570139E+04  0.7818609E-02  0.8378416E-01
        1   -1    0    0  501    0  0.00000000000E+00  0.00000000000E+00  0.21784288788E+04  0.21784288788E+04  0.50400001928E-02 0. -1.
       -1   -1    0    0    0  501  0.00000000000E+00  0.00000000000E+00 -0.75807085167E+03  0.75807085169E+03  0.50400001928E-02 0.  1.
    10030    2    1    2    0    0  0.00000000000E+00  0.00000000000E+00  0.14203580271E+04  0.29364997305E+04  0.25701388565E+04 0.  0.
        1    1    3    3  502    0 -0.12667341255E+04 -0.18787091556E+03  0.58769406895E+03  0.14090050193E+04  0.50400001928E-02 0. -1.
       -1    1    3    3    0  502  0.12667341255E+04  0.18787091556E+03  0.83266395818E+03  0.15274947112E+04  0.50400001928E-02 0.  1.
</event>
<event>
 5   0  0.4597705E-06  0.2609538E+04  0.7818609E-02  0.8364969E-01
       -1   -1    0    0    0  501  0.00000000000E+00  0.00000000000E+00  0.10512885060E+04  0.10512885060E+04  0.50400001928E-02 0.  1.
        1   -1    0    0  501    0  0.00000000000E+00  0.00000000000E+00 -0.16193672301E+04  0.16193672301E+04  0.50400001928E-02 0. -1.
    10030    2    1    2    0    0  0.00000000000E+00  0.00000000000E+00 -0.56807872407E+03  0.26706557362E+04  0.26095380097E+04 0.  0.
        5    1    3    3  502    0 -0.25864828186E+03 -0.12102540609E+04  0.13890254644E+03  0.12453633337E+04  0.46999998093E+01 0. -1.
       -5    1    3    3    0  502  0.25864828186E+03  0.12102540609E+04 -0.70698127051E+03  0.14252924024E+04  0.46999998093E+01 0.  1.
</event>
<event>
 5   0  0.1085061E-05  0.2607908E+04  0.7818609E-02  0.8365520E-01
        2   -1    0    0  501    0  0.00000000000E+00  0.00000000000E+00  0.14602994343E+04  0.14602994343E+04  0.25500000920E-02 0. -1.
       -2   -1    0    0    0  501  0.00000000000E+00  0.00000000000E+00 -0.11643477674E+04  0.11643477674E+04  0.25500000920E-02 0.  1.
    10030    2    1    2    0    0  0.00000000000E+00  0.00000000000E+00  0.29595166696E+03  0.26246472017E+04  0.26079082699E+04 0.  0.
        1    1    3    3  502    0  0.36451820687E+03 -0.10050569580E+04 -0.60332983699E+03  0.12276073901E+04  0.50400001928E-02 0.  1.
       -1    1    3    3    0  502 -0.36451820687E+03  0.10050569580E+04  0.89928150394E+03  0.13970398116E+04  0.50400001928E-02 0. -1.
</event>
<event>
 5   0  0.1116310E-05  0.2584910E+04  0.7818609E-02  0.8373345E-01
        2   -1    0    0  501    0  0.00000000000E+00  0.00000000000E+00  0.11049346627E+04  0.11049346627E+04  0.25500000920E-02 0. -1.
       -2   -1    0    0    0  501  0.00000000000E+00  0.00000000000E+00 -0.15117994655E+04  0.15117994655E+04  0.25500000920E-02 0.  1.
    10030    2    1    2    0    0  0.00000000000E+00  0.00000000000E+00 -0.40686480283E+03  0.26167341282E+04  0.25849097721E+04 0.  0.
        4    1    3    3  502    0 -0.78306278781E+03 -0.28371789319E+02 -0.12439221522E+04  0.14701483672E+04  0.12699999809E+01 0.  1.
       -4    1    3    3    0  502  0.78306278781E+03  0.28371789319E+02  0.83705734937E+03  0.11465857609E+04  0.12699999809E+01 0. -1.
</event>
<event>
 5   0  0.4464297E-06  0.2596792E+04  0.7818609E-02  0.8369292E-01
        1   -1    0    0  501    0  0.00000000000E+00  0.00000000000E+00  0.75837879008E+03  0.75837879010E+03  0.50400001928E-02 0. -1.
       -1   -1    0    0    0  501  0.00000000000E+00  0.00000000000E+00 -0.22229419589E+04  0.22229419589E+04  0.50400001928E-02 0.  1.
    10030    2    1    2    0    0  0.00000000000E+00  0.00000000000E+00 -0.14645631688E+04  0.29813207490E+04  0.25967918925E+04 0.  0.
        4    1    3    3  502    0 -0.51432800140E+03  0.81600372686E+03  0.26557957867E+03  0.10004646424E+04  0.12699999809E+01 0. -1.
       -4    1    3    3    0  502  0.51432800140E+03 -0.81600372686E+03 -0.17301427475E+04  0.19808561065E+04  0.12699999809E+01 0.  1.
</event>
<event>
 5   0  0.4597705E-06  0.2505660E+04  0.7818609E-02  0.8400972E-01
        1   -1    0    0  501    0  0.00000000000E+00  0.00000000000E+00  0.17341170311E+04  0.17341170312E+04  0.50400001928E-02 0.  1.
       -1   -1    0    0    0  501  0.00000000000E+00  0.00000000000E+00 -0.90511960724E+03  0.90511960726E+03  0.50400001928E-02 0. -1.
    10030    2    1    2    0    0  0.00000000000E+00  0.00000000000E+00  0.82899742390E+03  0.26392366384E+04  0.25056602532E+04 0.  0.
        5    1    3    3  502    0  0.97076367921E+03 -0.48809676498E+03 -0.24239911148E+03  0.11132834285E+04  0.46999998093E+01 0. -1.
       -5    1    3    3    0  502 -0.97076367921E+03  0.48809676498E+03  0.10713965354E+04  0.15259532099E+04  0.46999998093E+01 0.  1.
</event>
<event>
 5   0  0.1085061E-05  0.2600287E+04  0.7818609E-02  0.8368104E-01
       -2   -1    0    0    0  501  0.00000000000E+00  0.00000000000E+00  0.16869878817E+04  0.16869878817E+04  0.25500000920E-02 0.  1.
        2   -1    0    0  501    0  0.00000000000E+00  0.00000000000E+00 -0.10020065488E+04  0.10020065488E+04  0.25500000920E-02 0. -1.
    10030    2    1    2    0    0  0.00000000000E+00  0.00000000000E+00  0.68498133294E+03  0.26889944305E+04  0.26002868344E+04 0.  0.
        1    1    3    3  502    0 -0.17671224275E+03  0.22715103462E+02  0.16743040233E+04  0.16837568575E+04  0.50400001928E-02 0.  1.
       -1    1    3    3    0  502  0.17671224275E+03 -0.22715103462E+02 -0.98932269035E+03  0.10052375731E+04  0.50400001928E-02 0. -1.
</event>
<event>
 5   0  0.4361864E-06  0.2583319E+04  0.7818609E-02  0.8373890E-01
        1   -1    0    0  501    0  0.00000000000E+00  0.00000000000E+00  0.21697352409E+04  0.21697352409E+04  0.50400001928E-02 0. -1.
       -1   -1    0    0    0  501  0.00000000000E+00  0.00000000000E+00 -0.76893420999E+03  0.76893421001E+03  0.50400001928E-02 0.  1.
    10030    2    1    2    0    0  0.00000000000E+00  0.00000000000E+00  0.14008010309E+04  0.29386694509E+04  0.25833185273E+04 0.  0.
        3    1    3    3  502    0  0.12754482993E+04  0.19575627705E+03  0.76569621932E+03  0.15004597944E+04  0.10100000352E+00 0. -1.
       -3    1    3    3    0  502 -0.12754482993E+04 -0.19575627705E+03  0.63510481158E+03  0.14382096565E+04  0.10100000352E+00 0.  1.
</event>
<event>
 5   0  0.1086507E-05  0.2593903E+04  0.7818609E-02  0.8370275E-01
       -2   -1    0    0    0  501  0.00000000000E+00  0.00000000000E+00  0.84797275903E+03  0.84797275903E+03  0.25500000920E-02 0. -1.
        2   -1    0    0  501    0  0.00000000000E+00  0.00000000000E+00 -0.19836516705E+04  0.19836516705E+04  0.25500000920E-02 0.  1.
    10030    2    1    2    0    0  0.00000000000E+00  0.00000000000E+00 -0.11356789115E+04  0.28316244295E+04  0.25939025271E+04 0.  0.
        2    1    3    3  502    0 -0.71813491580E+03 -0.26709084082E+03  0.57449814645E+03  0.95765515444E+03  0.25500000920E-02 0. -1.
       -2    1    3    3    0  502  0.71813491580E+03  0.26709084082E+03 -0.17101770579E+04  0.18739692751E+04  0.25500000920E-02 0.  1.
</event>
<event>
 5   0  0.1086507E-05  0.2611649E+04  0.7818609E-02  0.8364255E-01
       -2   -1    0    0    0  501  0.00000000000E+00  0.00000000000E+00  0.95156153254E+03  0.95156153254E+03  0.25500000920E-02 0.  1.
        2   -1    0    0  501    0  0.00000000000E+00  0.00000000000E+00 -0.17919780266E+04  0.17919780266E+04  0.25500000920E-02 0. -1.
    10030    2    1    2    0    0  0.00000000000E+00  0.00000000000E+00 -0.84041649405E+03  0.27435395591E+04  0.26116487951E+04 0.  0.
        2    1    3    3  502    0 -0.66442589856E+03  0.42030452917E+02  0.75988780769E+03  0.10102761078E+04  0.25500000920E-02 0.  1.
       -2    1    3    3    0  502  0.66442589856E+03 -0.42030452917E+02 -0.16003043017E+04  0.17332634514E+04  0.25500000920E-02 0. -1.
</event>
<event>
 5   0  0.1116310E-05  0.2588883E+04  0.7818609E-02  0.8371987E-01
        2   -1    0    0  501    0  0.00000000000E+00  0.00000000000E+00  0.17612340581E+04  0.17612340581E+04  0.25500000920E-02 0. -1.
       -2   -1    0    0    0  501  0.00000000000E+00  0.00000000000E+00 -0.95136649510E+03  0.95136649510E+03  0.25500000920E-02 0.  1.
    10030    2    1    2    0    0  0.00000000000E+00  0.00000000000E+00  0.80986756297E+03  0.27126005532E+04  0.25888832132E+04 0.  0.
        4    1    3    3  502    0  0.12921545902E+04  0.30528969940E+02  0.47888977507E+03  0.13783804020E+04  0.12699999809E+01 0. -1.
       -4    1    3    3    0  502 -0.12921545902E+04 -0.30528969940E+02  0.33097778789E+03  0.13342201512E+04  0.12699999809E+01 0.  1.
</event>
<event>
 5   0  0.1085255E-05  0.2612045E+04  0.7818609E-02  0.8364121E-01
        2   -1    0    0  501    0  0.00000000000E+00  0.00000000000E+00  0.16976902177E+04  0.16976902177E+04  0.25500000920E-02 0.  1.
       -2   -1    0    0    0  501  0.00000000000E+00  0.00000000000E+00 -0.10047151074E+04  0.10047151074E+04  0.25500000920E-02 0. -1.
    10030    2    1    2    0    0  0.00000000000E+00  0.00000000000E+00  0.69297511032E+03  0.27024053250E+04  0.26120451829E+04 0.  0.
        5    1    3    3  502    0 -0.10312287278E+04  0.39086347543E+03 -0.37733324014E+03  0.11655940157E+04  0.46999998093E+01 0. -1.
       -5    1    3    3    0  502  0.10312287278E+04 -0.39086347543E+03  0.10703083505E+04  0.15368113093E+04  0.46999998093E+01 0.  1.
</event>
<event>
 5   0  0.1085061E-05  0.2595727E+04  0.7818609E-02  0.8369654E-01
        2   -1    0    0  501    0  0.00000000000E+00  0.00000000000E+00  0.12587561032E+04  0.12587561032E+04  0.25500000920E-02 0. -1.
       -2   -1    0    0    0  501  0.00000000000E+00  0.00000000000E+00 -0.13381859033E+04  0.13381859033E+04  0.25500000920E-02 0.  1.
    10030    2    1    2    0    0  0.00000000000E+00  0.00000000000E+00 -0.79429800076E+02  0.25969420065E+04  0.25957270065E+04 0.  0.
        1    1    3    3  502    0 -0.82698495527E+03  0.47582562835E+03 -0.91997645653E+03  0.13253945923E+04  0.50400001928E-02 0.  1.
       -1    1    3    3    0  502  0.82698495527E+03 -0.47582562835E+03  0.84054665645E+03  0.12715474142E+04  0.50400001928E-02 0. -1.
</event>
<event>
 5   0  0.1085255E-05  0.2627349E+04  0.7818609E-02  0.8358970E-01
       -2   -1    0    0    0  501  0.00000000000E+00  0.00000000000E+00  0.84819029034E+03  0.84819029035E+03  0.25500000920E-02 0.  1.
        2   -1    0    0  501    0  0.00000000000E+00  0.00000000000E+00 -0.20346145544E+04  0.20346145544E+04  0.25500000920E-02 0. -1.
    10030    2    1    2    0    0  0.00000000000E+00  0.00000000000E+00 -0.11864242640E+04  0.28828048447E+04  0.26273487090E+04 0.  0.
        5    1    3    3  502    0 -0.89617289134E+02 -0.41143006196E+03  0.77212791024E+03  0.87949391935E+03  0.46999998093E+01 0.  1.
       -5    1    3    3    0  502  0.89617289134E+02  0.41143006196E+03 -0.19585521743E+04  0.20033109254E+04  0.46999998093E+01 0. -1.
</event>
<event>
 5   0  0.4464297E-06  0.2653214E+04  0.7818609E-02  0.8350347E-01
        1   -1    0    0  501    0  0.00000000000E+00  0.00000000000E+00  0.16584624962E+04  0.16584624963E+04  0.50400001928E-02 0.  1.
       -1   -1    0    0    0  501  0.00000000000E+00  0.00000000000E+00 -0.10611555106E+04  0.10611555106E+04  0.50400001928E-02 0. -1.
    10030    2    1    2    0    0  0.00000000000E+00  0.00000000000E+00  0.59730698566E+03  0.27196180068E+04  0.26532143653E+04 0.  0.
        4    1    3    3  502    0 -0.70593653410E+03  0.98519137582E+03  0.85153838513E+03  0.14812385599E+04  0.12699999809E+01 0.  1.
       -4    1    3    3    0  502  0.70593653410E+03 -0.98519137582E+03 -0.25423139947E+03  0.12383794469E+04  0.12699999809E+01 0. -1.
</event>
<event>
 5   0  0.4597705E-06  0.2610899E+04  0.7818609E-02  0.8364508E-01
       -1   -1    0    0    0  501  0.00000000000E+00  0.00000000000E+00  0.14309505518E+04  0.14309505518E+04  0.50400001928E-02 0.  1.
        1   -1    0    0  501    0  0.00000000000E+00  0.00000000000E+00 -0.11909557514E+04  0.11909557514E+04  0.50400001928E-02 0. -1.
    10030    2    1    2    0    0  0.00000000000E+00  0.00000000000E+00  0.23999480036E+03  0.26219063032E+04  0.26108993008E+04 0.  0.
        5    1    3    3  502    0  0.99048562135E+03  0.61447696463E+03  0.71029607336E+03  0.13649858270E+04  0.46999998093E+01 0.  1.
       -5    1    3    3    0  502 -0.99048562135E+03 -0.61447696463E+03 -0.47030127300E+03  0.12569204762E+04  0.46999998093E+01 0. -1.
</event>
<event>
 5   0  0.1116310E-05  0.2592436E+04  0.7818609E-02  0.8370775E-01
       -2   -1    0    0    0  501  0.00000000000E+00  0.00000000000E+00  0.67612548069E+03  0.67612548070E+03  0.25500000920E-02 0. -1.
        2   -1    0    0  501    0  0.00000000000E+00  0.00000000000E+00 -0.24850132578E+04  0.24850132578E+04  0.25500000920E-02 0.  1.
    10030    2    1    2    0    0  0.00000000000E+00  0.00000000000E+00 -0.18088877771E+04  0.31611387385E+04  0.25924357531E+04 0.  0.
        4    1    3    3  502    0  0.22494099833E+03  0.27327733607E+03 -0.24249452610E+04  0.24506407502E+04  0.12699999809E+01 0.  1.
       -4    1    3    3    0  502 -0.22494099833E+03 -0.27327733607E+03  0.61605748381E+03  0.71049798831E+03  0.12699999809E+01 0. -1.
</event>
<event>
 5   0  0.1086507E-05  0.2615949E+04  0.7818609E-02  0.8362804E-01
        2   -1    0    0  501    0  0.00000000000E+00  0.00000000000E+00  0.21977211286E+04  0.21977211286E+04  0.25500000920E-02 0. -1.
       -2   -1    0    0    0  501  0.00000000000E+00  0.00000000000E+00 -0.77844158234E+03  0.77844158234E+03  0.25500000920E-02 0.  1.
    10030    2    1    2    0    0  0.00000000000E+00  0.00000000000E+00  0.14192795462E+04  0.29761627109E+04  0.26159491684E+04 0.  0.
        2    1    3    3  502    0 -0.41491121601E+03  0.74602550273E+03  0.18371058636E+04  0.20257500640E+04  0.25500000920E-02 0. -1.
       -2    1    3    3    0  502  0.41491121601E+03 -0.74602550273E+03 -0.41782631734E+03  0.95041264689E+03  0.25500000920E-02 0.  1.
</event>
<event>
 5   0  0.4597705E-06  0.2605036E+04  0.7818609E-02  0.8366493E-01
        1   -1    0    0  501    0  0.00000000000E+00  0.00000000000E+00  0.17900314304E+04  0.17900314304E+04  0.50400001928E-02 0. -1.
       -1   -1    0    0    0  501  0.00000000000E+00  0.00000000000E+00 -0.94777823294E+03  0.94777823295E+03  0.50400001928E-02 0.  1.
    10030    2    1    2    0    0  0.00000000000E+00  0.00000000000E+00  0.84225319749E+03  0.27378096634E+04  0.26050357587E+04 0.  0.
        5    1    3    3  502    0 -0.10103752004E+04  0.91993254452E+02 -0.43733488393E+03  0.11048098004E+04  0.46999998093E+01 0.  1.
       -5    1    3    3    0  502  0.10103752004E+04 -0.91993254452E+02  0.12795880814E+04  0.16329998630E+04  0.46999998093E+01 0. -1.
</event>
<event>
 5   0  0.4464297E-06  0.2572421E+04  0.7818609E-02  0.8377630E-01
       -1   -1    0    0    0  501  0.00000000000E+00  0.00000000000E+00  0.12776176019E+04  0.12776176019E+04  0.50400001928E-02 0. -1.
        1   -1    0    0  501    0  0.00000000000E+00  0.00000000000E+00 -0.12948612587E+04  0.12948612587E+04  0.50400001928E-02 0.  1.
    10030    2    1    2    0    0  0.00000000000E+00  0.00000000000E+00 -0.17243656812E+02  0.25724788606E+04  0.25724210667E+04 0.  0.
        4    1    3    3  502    0  0.86977440325E+01 -0.98810721836E+03  0.81474616855E+03  0.12807202887E+04  0.12699999809E+01 0. -1.
       -4    1    3    3    0  502 -0.86977440325E+01  0.98810721836E+03 -0.83198982536E+03  0.12917585719E+04  0.12699999809E+01 0.  1.
</event>
<event>
 5   0  0.1085255E-05  0.2630814E+04  0.7818609E-02  0.8357809E-01
        2   -1    0    0  501    0  0.00000000000E+00  0.00000000000E+00  0.10436525784E+04  0.10436525784E+04  0.25500000920E-02 0.  1.
       -2   -1    0    0    0  501  0.00000000000E+00  0.00000000000E+00 -0.16579226144E+04  0.16579226144E+04  0.25500000920E-02 0. -1.
    10030    2    1    2    0    0  0.00000000000E+00  0.00000000000E+00 -0.61427003603E+03  0.27015751929E+04  0.26308137231E+04 0.  0.
        5    1    3    3  502    0 -0.42756677191E+03 -0.29403237938E+03  0.93409643785E+03  0.10685628806E+04  0.46999998093E+01 0.  1.
       -5    1    3    3    0  502  0.42756677191E+03  0.29403237938E+03 -0.15483664739E+04  0.16330123123E+04  0.46999998093E+01 0. -1.
</event>
<event>
 5   0  0.4415080E-06  0.2626607E+04  0.7818609E-02  0.8359219E-01
        1   -1    0    0  501    0  0.00000000000E+00  0.00000000000E+00  0.29836702590E+04  0.29836702591E+04  0.50400001928E-02 0. -1.
       -1   -1    0    0    0  501  0.00000000000E+00  0.00000000000E+00 -0.57806852873E+03  0.57806852876E+03  0.50400001928E-02 0.  1.
    10030    2    1    2    0    0  0.00000000000E+00  0.00000000000E+00  0.24056017303E+04  0.35617387878E+04  0.26266068430E+04 0.  0.
        2    1    3    3  502    0 -0.10947147142E+04  0.70259546569E+02  0.22361608388E+03  0.11195270708E+04  0.25500000920E-02 0.  1.
       -2    1    3    3    0  502  0.10947147142E+04 -0.70259546569E+02  0.21819856464E+04  0.24422117170E+04  0.25500000920E-02 0. -1.
</event>
<event>
 5   0  0.4361864E-06  0.2588649E+04  0.7818609E-02  0.8372067E-01
        1   -1    0    0  501    0  0.00000000000E+00  0.00000000000E+00  0.14823993470E+04  0.14823993470E+04  0.50400001928E-02 0.  1.
       -1   -1    0    0    0  501  0.00000000000E+00  0.00000000000E+00 -0.11301112907E+04  0.11301112907E+04  0.50400001928E-02 0. -1.
    10030    2    1    2    0    0  0.00000000000E+00  0.00000000000E+00  0.35228805637E+03  0.26125106377E+04  0.25886492535E+04 0.  0.
        3    1    3    3  502    0 -0.48465157952E+03  0.22464782342E+02  0.13871566567E+04  0.14695561985E+04  0.10100000352E+00 0.  1.
       -3    1    3    3    0  502  0.48465157952E+03 -0.22464782342E+02 -0.10348686004E+04  0.11429544392E+04  0.10100000352E+00 0. -1.
</event>
<event>
 5   0  0.4218590E-06  0.2594423E+04  0.7818609E-02  0.8370098E-01
       -1   -1    0    0    0  501  0.00000000000E+00  0.00000000000E+00  0.10982531331E+04  0.10982531331E+04  0.50400001928E-02 0. -1.
        1   -1    0    0  501    0  0.00000000000E+00  0.00000000000E+00 -0.15322134520E+04  0.15322134520E+04  0.50400001928E-02 0.  1.
    10030    2    1    2    0    0  0.00000000000E+00  0.00000000000E+00 -0.43396031889E+03  0.26304665851E+04  0.25944234228E+04 0.  0.
        1    1    3    3  502    0  0.12962141595E+04  0.49306533530E+02 -0.20431897498E+03  0.13131445180E+04  0.50400001928E-02 0.  1.
       -1    1    3    3    0  502 -0.12962141595E+04 -0.49306533530E+02 -0.22964134391E+03  0.13173220671E+04  0.50400001928E-02 0. -1.
</event>
<event>
 5   0  0.1085061E-05  0.2576925E+04  0.7818609E-02  0.8376082E-01
        2   -1    0    0  501    0  0.00000000000E+00  0.00000000000E+00  0.17052348398E+04  0.17052348398E+04  0.25500000920E-02 0.  1.
       -2   -1    0    0    0  501  0.00000000000E+00  0.00000000000E+00 -0.97355253617E+03  0.97355253617E+03  0.25500000920E-02 0. -1.
    10030    2    1    2    0    0  0.00000000000E+00  0.00000000000E+00  0.73168230366E+03  0.26787873760E+04  0.25769250692E+04 0.  0.
        1    1    3    3  502    0 -0.42103861293E+02  0.22364322993E+02 -0.97263533763E+03  0.97380305921E+03  0.50400001928E-02 0. -1.
       -1    1    3    3    0  502  0.42103861293E+02 -0.22364322993E+02  0.17043176413E+04  0.17049843168E+04  0.50400001928E-02 0.  1.
</event>
<event>
 5   0  0.1136881E-05  0.2586480E+04  0.7818609E-02  0.8372808E-01
        2   -1    0    0  501    0  0.00000000000E+00  0.00000000000E+00  0.12129962060E+04  0.12129962060E+04  0.25500000920E-02 0. -1.
       -2   -1    0    0    0  501  0.00000000000E+00  0.00000000000E+00 -0.13787923662E+04  0.13787923662E+04  0.25500000920E-02 0.  1.
    10030    2    1    2    0    0  0.00000000000E+00  0.00000000000E+00 -0.16579616025E+03  0.25917885722E+04  0.25864801635E+04 0.  0.
        3    1    3    3  502    0 -0.34243282027E+03 -0.11932427974E+04  0.28031140179E+03  0.12726598533E+04  0.10100000352E+00 0.  1.
       -3    1    3    3    0  502  0.34243282027E+03  0.11932427974E+04 -0.44610756204E+03  0.13191287189E+04  0.10100000352E+00 0. -1.
</event>
<event>
 5   0  0.1085255E-05  0.2597131E+04  0.7818609E-02  0.8369176E-01
        2   -1    0    0  501    0  0.00000000000E+00  0.00000000000E+00  0.11407602151E+04  0.11407602151E+04  0.25500000920E-02 0.  1.
       -2   -1    0    0    0  501  0.00000000000E+00  0.00000000000E+00 -0.14782008651E+04  0.14782008651E+04  0.25500000920E-02 0. -1.
    10030    2    1    2    0    0  0.00000000000E+00  0.00000000000E+00 -0.33744064998E+03  0.26189610801E+04  0.25971312918E+04 0.  0.
        5    1    3    3  502    0 -0.35179415560E+03  0.72970336200E+03  0.85471150925E+03  0.11776162272E+04  0.46999998093E+01 0.  1.
       -5    1    3    3    0  502  0.35179415560E+03 -0.72970336200E+03 -0.11921521592E+04  0.14413448530E+04  0.46999998093E+01 0. -1.
</event>
<event>
 5   0  0.1116310E-05  0.2604893E+04  0.7818609E-02  0.8366541E-01
       -2   -1    0    0    0  501  0.00000000000E+00  0.00000000000E+00  0.11016572032E+04  0.11016572032E+04  0.25500000920E-02 0.  1.
        2   -1    0    0  501    0  0.00000000000E+00  0.00000000000E+00 -0.15398318131E+04  0.15398318131E+04  0.25500000920E-02 0. -1.
    10030    2    1    2    0    0  0.00000000000E+00  0.00000000000E+00 -0.43817460993E+03  0.26414890164E+04  0.26048929411E+04 0.  0.
        4    1    3    3  502    0  0.35697276444E+03 -0.10758908397E+04  0.43132416770E+03  0.12128531668E+04  0.12699999809E+01 0.  1.
       -4    1    3    3    0  502 -0.35697276444E+03  0.10758908397E+04 -0.86949877763E+03  0.14286358496E+04  0.12699999809E+01 0. -1.
</event>
<event>
 5   0  0.1085061E-05  0.2584988E+04  0.7818609E-02  0.8373318E-01
        2   -1    0    0  501    0  0.00000000000E+00  0.00000000000E+00  0.13539519331E+04  0.13539519331E+04  0.25500000920E-02 0.  1.
       -2   -1    0    0    0  501  0.00000000000E+00  0.00000000000E+00 -0.12338259631E+04  0.12338259631E+04  0.25500000920E-02 0. -1.
    10030    2    1    2    0    0  0.00000000000E+00  0.00000000000E+00  0.12012596999E+03  0.25877778962E+04  0.25849882382E+04 0.  0.
        1    1    3    3  502    0 -0.12040428338E+04 -0.23360692072E+03  0.46824030920E+03  0.13128367477E+04  0.50400001928E-02 0. -1.
       -1    1    3    3    0  502  0.12040428338E+04  0.23360692072E+03 -0.34811433921E+03  0.12749411485E+04  0.50400001928E-02 0.  1.
</event>
<event>
 5   0  0.4415080E-06  0.2597369E+04  0.7818609E-02  0.8369095E-01
       -1   -1    0    0    0  501  0.00000000000E+00  0.00000000000E+00  0.99118246556E+03  0.99118246558E+03  0.50400001928E-02 0. -1.
        1   -1    0    0  501    0  0.00000000000E+00  0.00000000000E+00 -0.17015857023E+04  0.17015857023E+04  0.50400001928E-02 0.  1.
    10030    2    1    2    0    0  0.00000000000E+00  0.00000000000E+00 -0.71040323674E+03  0.26927681679E+04  0.25973693706E+04 0.  0.
        2    1    3    3  502    0 -0.11870836963E+03 -0.78277783760E+03  0.71204988789E+03  0.10648229256E+04  0.25500000920E-02 0. -1.
       -2    1    3    3    0  502  0.11870836963E+03  0.78277783760E+03 -0.14224531246E+04  0.16279452423E+04  0.25500000920E-02 0.  1.
</event>
<event>
 5   0  0.4361864E-06  0.2595121E+04  0.7818609E-02  0.8369860E-01
        1   -1    0    0  501    0  0.00000000000E+00  0.00000000000E+00  0.13197466631E+04  0.13197466631E+04  0.50400001928E-02 0.  1.
       -1   -1    0    0    0  501  0.00000000000E+00  0.00000000000E+00 -0.12757470764E+04  0.12757470764E+04  0.50400001928E-02 0. -1.
    10030    2    1    2    0    0  0.00000000000E+00  0.00000000000E+00  0.43999586624E+02  0.25954937395E+04  0.25951207656E+04 0.  0.
        3    1    3    3  502    0 -0.75924658227E+03  0.10521721586E+04  0.33889012686E+02  0.12979484194E+04  0.10100000352E+00 0. -1.
       -3    1    3    3    0  502  0.75924658227E+03 -0.10521721586E+04  0.10110573938E+02  0.12975453202E+04  0.10100000352E+00 0.  1.
</event>
<event>
 5   0  0.1136881E-05  0.2520456E+04  0.7818609E-02  0.8395734E-01
       -2   -1    0    0    0  501  0.00000000000E+00  0.00000000000E+00  0.12769273845E+04  0.12769273845E+04  0.25500000920E-02 0.  1.
        2   -1    0    0  501    0  0.00000000000E+00  0.00000000000E+00 -0.12437467172E+04  0.12437467172E+04  0.25500000920E-02 0. -1.
    10030    2    1    2    0    0  0.00000000000E+00  0.00000000000E+00  0.33180667333E+02  0.25206741018E+04  0.25204557069E+04 0.  0.
        3    1    3    3  502    0 -0.12199602474E+04 -0.28234321126E+03 -0.12538512572E+03  0.12584681697E+04  0.10100000352E+00 0. -1.
       -3    1    3    3    0  502  0.12199602474E+04  0.28234321126E+03  0.15856579306E+03  0.12622059321E+04  0.10100000352E+00 0.  1.
</event>
<event>
 5   0  0.1136881E-05  0.2593290E+04  0.7818609E-02  0.8370484E-01
        2   -1    0    0  501    0  0.00000000000E+00  0.00000000000E+00  0.18071012233E+04  0.18071012233E+04  0.25500000920E-02 0.  1.
       -2   -1    0    0    0  501  0.00000000000E+00  0.00000000000E+00 -0.93037866920E+03  0.93037866921E+03  0.25500000920E-02 0. -1.
    10030    2    1    2    0    0  0.00000000000E+00  0.00000000000E+00  0.87672255406E+03  0.27374798925E+04  0.25932901351E+04 0.  0.
        3    1    3    3  502    0  0.12209174440E+04 -0.19785188333E+02  0.89879888995E+03  0.15162025965E+04  0.10100000352E+00 0.  1.
       -3    1    3    3    0  502 -0.12209174440E+04  0.19785188333E+02 -0.22076335896E+02  0.12212772960E+04  0.10100000352E+00 0. -1.
</event>
<event>
 5   0  0.4464297E-06  0.2386478E+04  0.7818609E-02  0.8444583E-01
       -1   -1    0    0    0  501  0.00000000000E+00  0.00000000000E+00  0.11808821823E+04  0.11808821824E+04  0.50400001928E-02 0. -1.
        1   -1    0    0  501    0  0.00000000000E+00  0.00000000000E+00 -0.12057255986E+04  0.12057255986E+04  0.50400001928E-02 0.  1.
    10030    2    1    2    0    0  0.00000000000E+00  0.00000000000E+00 -0.24843416273E+02  0.23866077810E+04  0.23864784736E+04 0.  0.
        4    1    3    3  502    0 -0.76753180563E+03  0.24864803936E+03  0.86676604242E+03  0.11841519773E+04  0.12699999809E+01 0. -1.
       -4    1    3    3    0  502  0.76753180563E+03 -0.24864803936E+03 -0.89160945869E+03  0.12024558037E+04  0.12699999809E+01 0.  1.
</event>
<event>
 5   0  0.4218590E-06  0.2574370E+04  0.7818609E-02  0.8376960E-01
       -1   -1    0    0    0  501  0.00000000000E+00  0.00000000000E+00  0.97466436799E+03  0.97466436800E+03  0.50400001928E-02 0. -1.
        1   -1    0    0  501    0  0.00000000000E+00  0.00000000000E+00 -0.16999136140E+04  0.16999136140E+04  0.50400001928E-02 0.  1.
    10030    2    1    2    0    0  0.00000000000E+00  0.00000000000E+00 -0.72524924604E+03  0.26745779820E+04  0.25743700032E+04 0.  0.
        1    1    3    3  502    0  0.59964493923E+03  0.70537191746E+02 -0.15436663585E+04  0.16575449843E+04  0.50400001928E-02 0.  1.
       -1    1    3    3    0  502 -0.59964493923E+03 -0.70537191746E+02  0.81841711245E+03  0.10170329978E+04  0.50400001928E-02 0. -1.
</event>
<event>
 5   0  0.1085255E-05  0.2597454E+04  0.7818609E-02  0.8369066E-01
       -2   -1    0    0    0  501  0.00000000000E+00  0.00000000000E+00  0.14158507708E+04  0.14158507708E+04  0.25500000920E-02 0.  1.
        2   -1    0    0  501    0  0.00000000000E+00  0.00000000000E+00 -0.11912924925E+04  0.11912924925E+04  0.25500000920E-02 0. -1.
    10030    2    1    2    0    0  0.00000000000E+00  0.00000000000E+00  0.22455827833E+03  0.26071432633E+04  0.25974544413E+04 0.  0.
        5    1    3    3  502    0 -0.69216786647E+03  0.67319044205E+03 -0.75951613286E+03  0.12284822232E+04  0.46999998093E+01 0. -1.
       -5    1    3    3    0  502  0.69216786647E+03 -0.67319044205E+03  0.98407441119E+03  0.13786610401E+04  0.46999998093E+01 0.  1.
</event>
<event>
 5   0  0.4464297E-06  0.2602258E+04  0.7818609E-02  0.8367435E-01
       -1   -1    0    0    0  501  0.00000000000E+00  0.00000000000E+00  0.73872916062E+03  0.73872916063E+03  0.50400001928E-02 0.  1.
        1   -1    0    0  501    0  0.00000000000E+00  0.00000000000E+00 -0.22916873772E+04  0.22916873772E+04  0.50400001928E-02 0. -1.
    10030    2    1    2    0    0  0.00000000000E+00  0.00000000000E+00 -0.15529582166E+04  0.30304165378E+04  0.26022577064E+04 0.  0.
        4    1    3    3  502    0  0.16007478475E+03 -0.48517732526E+03  0.61703203880E+03  0.80109370455E+03  0.12699999809E+01 0.  1.
       -4    1    3    3    0  502 -0.16007478475E+03  0.48517732526E+03 -0.21699902554E+04  0.22293228333E+04  0.12699999809E+01 0. -1.
</event>
<event>
 5   0  0.4218590E-06  0.2607314E+04  0.7818609E-02  0.8365721E-01
        1   -1    0    0  501    0  0.00000000000E+00  0.00000000000E+00  0.92808277026E+03  0.92808277028E+03  0.50400001928E-02 0. -1.
       -1   -1    0    0    0  501  0.00000000000E+00  0.00000000000E+00 -0.18312175632E+04  0.18312175632E+04  0.50400001928E-02 0.  1.
    10030    2    1    2    0    0  0.00000000000E+00  0.00000000000E+00 -0.90313479294E+03  0.27593003335E+04  0.26073139198E+04 0.  0.
        1    1    3    3  502    0  0.59033800521E+03  0.22237566195E+03 -0.16589354425E+04  0.17748286390E+04  0.50400001928E-02 0.  1.
       -1    1    3    3    0  502 -0.59033800521E+03 -0.22237566195E+03  0.75580064954E+03  0.98447169451E+03  0.50400001928E-02 0. -1.
</event>
<event>
 5   0  0.1116310E-05  0.2615398E+04  0.7818609E-02  0.8362990E-01
        2   -1    0    0  501    0  0.00000000000E+00  0.00000000000E+00  0.16659522045E+04  0.16659522045E+04  0.25500000920E-02 0.  1.
       -2   -1    0    0    0  501  0.00000000000E+00  0.00000000000E+00 -0.10264859527E+04  0.10264859527E+04  0.25500000920E-02 0. -1.
    10030    2    1    2    0    0  0.00000000000E+00  0.00000000000E+00  0.63946625183E+03  0.26924381572E+04  0.26153978938E+04 0.  0.
        4    1    3    3  502    0 -0.16910364550E+03  0.75061371655E+03  0.14082624170E+04  0.16047497133E+04  0.12699999809E+01 0.  1.
       -4    1    3    3    0  502  0.16910364550E+03 -0.75061371655E+03 -0.76879616518E+03  0.10876884439E+04  0.12699999809E+01 0. -1.
</event>
<event>
 5   0  0.4361864E-06  0.2600887E+04  0.7818609E-02  0.8367900E-01
       -1   -1    0    0    0  501  0.00000000000E+00  0.00000000000E+00  0.13072896562E+04  0.13072896562E+04  0.50400001928E-02 0.  1.
        1   -1    0    0  501    0  0.00000000000E+00  0.00000000000E+00 -0.12936330468E+04  0.12936330468E+04  0.50400001928E-02 0. -1.
    10030    2    1    2    0    0  0.00000000000E+00  0.00000000000E+00  0.13656609404E+02  0.26009227031E+04  0.26008868496E+04 0.  0.
        3    1    3    3  502    0 -0.77420555186E+03 -0.10120515499E+03  0.10468024336E+04  0.13059219215E+04  0.10100000352E+00 0.  1.
       -3    1    3    3    0  502  0.77420555186E+03  0.10120515499E+03 -0.10331458242E+04  0.12950007816E+04  0.10100000352E+00 0. -1.
</event>
<event>
 5   0  0.4218590E-06  0.2612190E+04  0.7818609E-02  0.8364072E-01
        1   -1    0    0  501    0  0.00000000000E+00  0.00000000000E+00  0.19229723581E+04  0.19229723581E+04  0.50400001928E-02 0. -1.
       -1   -1    0    0    0  501  0.00000000000E+00  0.00000000000E+00 -0.88710800280E+03  0.88710800281E+03  0.50400001928E-02 0.  1.
    10030    2    1    2    0    0  0.00000000000E+00  0.00000000000E+00  0.10358643553E+04  0.28100803609E+04  0.26121900146E+04 0.  0.
        1    1    3    3  502    0  0.12346376150E+04  0.40134157466E+03  0.67187841186E+03  0.14617885279E+04  0.50400001928E-02 0.  1.
       -1    1    3    3    0  502 -0.12346376150E+04 -0.40134157466E+03  0.36398594346E+03  0.13482918330E+04  0.50400001928E-02 0. -1.
</event>
<event>
 5   0  0.4218590E-06  0.2599415E+04  0.7818609E-02  0.8368400E-01
        1   -1    0    0  501    0  0.00000000000E+00  0.00000000000E+00  0.10176891145E+04  0.10176891146E+04  0.50400001928E-02 0. -1.
       -1   -1    0    0    0  501  0.00000000000E+00  0.00000000000E+00 -0.16598784253E+04  0.16598784253E+04  0.50400001928E-02 0.  1.
    10030    2    1    2    0    0  0.00000000000E+00  0.00000000000E+00 -0.64218931074E+03  0.26775675398E+04  0.25994154765E+04 0.  0.
        1    1    3    3  502    0  0.46668756329E+02  0.36222302085E+03 -0.16059360893E+04  0.16469408650E+04  0.50400001928E-02 0.  1.
       -1    1    3    3    0  502 -0.46668756329E+02 -0.36222302085E+03  0.96374677861E+03  0.10306266749E+04  0.50400001928E-02 0. -1.
</event>
<event>
 5   0  0.4597705E-06  0.2641866E+04  0.7818609E-02  0.8354118E-01
       -1   -1    0    0    0  501  0.00000000000E+00  0.00000000000E+00  0.93781956132E+03  0.93781956134E+03  0.50400001928E-02 0.  1.
        1   -1    0    0  501    0  0.00000000000E+00  0.00000000000E+00 -0.18605536151E+04  0.18605536151E+04  0.50400001928E-02 0. -1.
    10030    2    1    2    0    0  0.00000000000E+00  0.00000000000E+00 -0.92273405381E+03  0.27983731765E+04  0.26418656856E+04 0.  0.
        5    1    3    3  502    0  0.58785285287E+02  0.43240114837E+03 -0.17819886007E+04  0.18346476299E+04  0.46999998093E+01 0. -1.
       -5    1    3    3    0  502 -0.58785285287E+02 -0.43240114837E+03  0.85925454686E+03  0.96372554660E+03  0.46999998093E+01 0.  1.
</event>
<event>
 5   0  0.4597705E-06  0.2556770E+04  0.7818609E-02  0.8383035E-01
       -1   -1    0    0    0  501  0.00000000000E+00  0.00000000000E+00  0.10572879076E+04  0.10572879076E+04  0.50400001928E-02 0. -1.
        1   -1    0    0  501    0  0.00000000000E+00  0.00000000000E+00 -0.15457174502E+04  0.15457174502E+04  0.50400001928E-02 0.  1.
    10030    2    1    2    0    0  0.00000000000E+00  0.00000000000E+00 -0.48842954260E+03  0.26030053578E+04  0.25567701255E+04 0.  0.
        5    1    3    3  502    0  0.12206090077E+04 -0.19749554237E+03 -0.57466941647E+03  0.13635093939E+04  0.46999998093E+01 0.  1.
       -5    1    3    3    0  502 -0.12206090077E+04  0.19749554237E+03  0.86239873864E+02  0.12394959640E+04  0.46999998093E+01 0. -1.
</event>
<event>
 5   0  0.4415080E-06  0.2574910E+04  0.7818609E-02  0.8376774E-01
        1   -1    0    0  501    0  0.00000000000E+00  0.00000000000E+00  0.78227358070E+03  0.78227358071E+03  0.50400001928E-02 0.  1.
       -1   -1    0    0    0  501  0.00000000000E+00  0.00000000000E+00 -0.21188759116E+04  0.21188759116E+04  0.50400001928E-02 0. -1.
    10030    2    1    2    0    0  0.00000000000E+00  0.00000000000E+00 -0.13366023309E+04  0.29011494923E+04  0.25749102093E+04 0.  0.
        2    1    3    3  502    0  0.76740156373E+03 -0.90877438868E+03 -0.12234388313E+04  0.17063348510E+04  0.25500000920E-02 0. -1.
       -2    1    3    3    0  502 -0.76740156373E+03  0.90877438868E+03 -0.11316349952E+03  0.11948146413E+04  0.25500000920E-02 0.  1.
</event>
<event>
 5   0  0.4415080E-06  0.2600272E+04  0.7818609E-02  0.8368109E-01
        1   -1    0    0  501    0  0.00000000000E+00  0.00000000000E+00  0.16417495108E+04  0.16417495108E+04  0.50400001928E-02 0. -1.
       -1   -1    0    0    0  501  0.00000000000E+00  0.00000000000E+00 -0.10296052060E+04  0.10296052060E+04  0.50400001928E-02 0.  1.
    10030    2    1    2    0    0  0.00000000000E+00  0.00000000000E+00  0.61214430477E+03  0.26713547169E+04  0.26002721729E+04 0.  0.
        2    1    3    3  502    0  0.87486327918E+03 -0.20744500629E+03  0.12708580699E+04  0.15567592690E+04  0.25500000920E-02 0. -1.
       -2    1    3    3    0  502 -0.87486327918E+03  0.20744500629E+03 -0.65871376514E+03  0.11145954478E+04  0.25500000920E-02 0.  1.
</event>
<event>
 5   0  0.4415080E-06  0.2593266E+04  0.7818609E-02  0.8370492E-01
        1   -1    0    0  501    0  0.00000000000E+00  0.00000000000E+00  0.13445656727E+04  0.13445656727E+04  0.50400001928E-02 0.  1.
       -1   -1    0    0    0  501  0.00000000000E+00  0.00000000000E+00 -0.12504090995E+04  0.12504090995E+04  0.50400001928E-02 0. -1.
    10030    2    1    2    0    0  0.00000000000E+00  0.00000000000E+00  0.94156573219E+02  0.25949747722E+04  0.25932660118E+04 0.  0.
        2    1    3    3  502    0 -0.45004795168E+03  0.97517791182E+02  0.12599843398E+04  0.13414967071E+04  0.25500000920E-02 0.  1.
       -2    1    3    3    0  502  0.45004795168E+03 -0.97517791182E+02 -0.11658277666E+04  0.12534780651E+04  0.25500000920E-02 0. -1.
</event>
<event>
 5   0  0.1085255E-05  0.2611562E+04  0.7818609E-02  0.8364285E-01
        2   -1    0    0  501    0  0.00000000000E+00  0.00000000000E+00  0.12161463379E+04  0.12161463379E+04  0.25500000920E-02 0.  1.
       -2   -1    0    0    0  501  0.00000000000E+00  0.00000000000E+00 -0.14020218632E+04  0.14020218632E+04  0.25500000920E-02 0. -1.
    10030    2    1    2    0    0  0.00000000000E+00  0.00000000000E+00 -0.18587552528E+03  0.26181682011E+04  0.26115617968E+04 0.  0.
        5    1    3    3  502    0 -0.69735992425E+03  0.13549053506E+03 -0.11913247192E+04  0.13870635262E+04  0.46999998093E+01 0. -1.
       -5    1    3    3    0  502  0.69735992425E+03 -0.13549053506E+03  0.10054491939E+04  0.12311046749E+04  0.46999998093E+01 0.  1.
</event>
<event>
 5   0  0.4218590E-06  0.2598369E+04  0.7818609E-02  0.8368755E-01
       -1   -1    0    0    0  501  0.00000000000E+00  0.00000000000E+00  0.12698804234E+04  0.12698804234E+04  0.50400001928E-02 0.  1.
        1   -1    0    0  501    0  0.00000000000E+00  0.00000000000E+00 -0.13291652600E+04  0.13291652600E+04  0.50400001928E-02 0. -1.
    10030    2    1    2    0    0  0.00000000000E+00  0.00000000000E+00 -0.59284836573E+02  0.25990456834E+04  0.25983694450E+04 0.  0.
        1    1    3    3  502    0 -0.42759807375E+03 -0.65325169003E+03  0.10090415569E+04  0.12758302187E+04  0.50400001928E-02 0.  1.
       -1    1    3    3    0  502  0.42759807375E+03  0.65325169003E+03 -0.10683263935E+04  0.13232154648E+04  0.50400001928E-02 0. -1.
</event>
<event>
 5   0  0.3705250E-06  0.2600088E+04  0.7818609E-02  0.8368171E-01
       -3   -1    0    0    0  501  0.00000000000E+00  0.00000000000E+00  0.23228806846E+04  0.23228806868E+04  0.10100000352E+00 0. -1.
        3   -1    0    0  501    0  0.00000000000E+00  0.00000000000E+00 -0.72759414654E+03  0.72759415355E+03  0.10100000352E+00 0.  1.
    10030    2    1    2    0    0  0.00000000000E+00  0.00000000000E+00  0.15952865380E+04  0.30504748403E+04  0.26000880010E+04 0.  0.
        3    1    3    3  502    0 -0.58796651914E+03 -0.10527026332E+04  0.13678654470E+04  0.18234427199E+04  0.10100000352E+00 0. -1.
       -3    1    3    3    0  502  0.58796651914E+03  0.10527026332E+04  0.22742109106E+03  0.12270321204E+04  0.10100000352E+00 0.  1.
</event>
<event>
 5   0  0.1085255E-05  0.2528257E+04  0.7818609E-02  0.8392988E-01
        2   -1    0    0  501    0  0.00000000000E+00  0.00000000000E+00  0.21251214974E+04  0.21251214974E+04  0.25500000920E-02 0. -1.
       -2   -1    0    0    0  501  0.00000000000E+00  0.00000000000E+00 -0.75196660399E+03  0.75196660400E+03  0.25500000920E-02 0.  1.
    10030    2    1    2    0    0  0.00000000000E+00  0.00000000000E+00  0.13731548934E+04  0.28770881014E+04  0.25282566290E+04 0.  0.
        5    1    3    3  502    0 -0.54679662763E+03 -0.48081095501E+03  0.18625131860E+04  0.19997857847E+04  0.46999998093E+01 0. -1.
       -5    1    3    3    0  502  0.54679662763E+03  0.48081095501E+03 -0.48935829260E+03  0.87730231675E+03  0.46999998093E+01 0.  1.
</event>
<event>
 5   0  0.4464297E-06  0.2626476E+04  0.7818609E-02  0.8359263E-01
       -1   -1    0    0    0  501  0.00000000000E+00  0.00000000000E+00  0.69397771811E+03  0.69397771812E+03  0.50400001928E-02 0.  1.
        1   -1    0    0  501    0  0.00000000000E+00  0.00000000000E+00 -0.24850858389E+04  0.24850858389E+04  0.50400001928E-02 0. -1.
    10030    2    1    2    0    0  0.00000000000E+00  0.00000000000E+00 -0.17911081208E+04  0.31790635571E+04  0.26264761182E+04 0.  0.
        4    1    3    3  502    0  0.19850939964E+03 -0.98145971459E+03  0.13286785795E+03  0.10101111987E+04  0.12699999809E+01 0.  1.
       -4    1    3    3    0  502 -0.19850939964E+03  0.98145971459E+03 -0.19239759788E+04  0.21689523584E+04  0.12699999809E+01 0. -1.
</event>
<event>
 5   0  0.1116310E-05  0.2574540E+04  0.7818609E-02  0.8376901E-01
       -2   -1    0    0    0  501  0.00000000000E+00  0.00000000000E+00  0.87377556586E+03  0.87377556586E+03  0.25500000920E-02 0.  1.
        2   -1    0    0  501    0  0.00000000000E+00  0.00000000000E+00 -0.18964405591E+04  0.18964405591E+04  0.25500000920E-02 0. -1.
    10030    2    1    2    0    0  0.00000000000E+00  0.00000000000E+00 -0.10226649932E+04  0.27702161250E+04  0.25745395104E+04 0.  0.
        4    1    3    3  502    0 -0.86198043771E+02 -0.55324665701E+03 -0.17585465136E+04  0.18455349955E+04  0.12699999809E+01 0. -1.
       -4    1    3    3    0  502  0.86198043771E+02  0.55324665701E+03  0.73588152037E+03  0.92468112945E+03  0.12699999809E+01 0.  1.
</event>
<event>
 5   0  0.1085061E-05  0.2671560E+04  0.7818609E-02  0.8344292E-01
        2   -1    0    0  501    0  0.00000000000E+00  0.00000000000E+00  0.19038294901E+04  0.19038294901E+04  0.25500000920E-02 0.  1.
       -2   -1    0    0    0  501  0.00000000000E+00  0.00000000000E+00 -0.93722055774E+03  0.93722055774E+03  0.25500000920E-02 0. -1.
    10030    2    1    2    0    0  0.00000000000E+00  0.00000000000E+00  0.96660893240E+03  0.28410500479E+04  0.26715599463E+04 0.  0.
        1    1    3    3  502    0 -0.68657904589E+03  0.50759054146E+03 -0.60913049515E+03  0.10488464636E+04  0.50400001928E-02 0. -1.
       -1    1    3    3    0  502  0.68657904589E+03 -0.50759054146E+03  0.15757394276E+04  0.17922035843E+04  0.50400001928E-02 0.  1.
</event>
<event>
 5   0  0.4361864E-06  0.2615743E+04  0.7818609E-02  0.8362873E-01
       -1   -1    0    0    0  501  0.00000000000E+00  0.00000000000E+00  0.89879695108E+03  0.89879695110E+03  0.50400001928E-02 0. -1.
        1   -1    0    0  501    0  0.00000000000E+00  0.00000000000E+00 -0.19031307250E+04  0.19031307250E+04  0.50400001928E-02 0.  1.
    10030    2    1    2    0    0  0.00000000000E+00  0.00000000000E+00 -0.10043337739E+04  0.28019276761E+04  0.26157431779E+04 0.  0.
        3    1    3    3  502    0  0.71098450148E+03 -0.43135211805E+02 -0.16771321894E+04  0.18221229373E+04  0.10100000352E+00 0.  1.
       -3    1    3    3    0  502 -0.71098450148E+03  0.43135211805E+02  0.67279841554E+03  0.97980473871E+03  0.10100000352E+00 0. -1.
</event>
<event>
 5   0  0.1136881E-05  0.2615449E+04  0.7818609E-02  0.8362973E-01
       -2   -1    0    0    0  501  0.00000000000E+00  0.00000000000E+00  0.16340299490E+04  0.16340299490E+04  0.25500000920E-02 0.  1.
        2   -1    0    0  501    0  0.00000000000E+00  0.00000000000E+00 -0.10465799610E+04  0.10465799610E+04  0.25500000920E-02 0. -1.
    10030    2    1    2    0    0  0.00000000000E+00  0.00000000000E+00  0.58744998797E+03  0.26806099100E+04  0.26154487189E+04 0.  0.
        3    1    3    3  502    0  0.64307207176E+03 -0.10049476752E+04  0.84249102626E+03  0.14605658694E+04  0.10100000352E+00 0.  1.
       -3    1    3    3    0  502 -0.64307207176E+03  0.10049476752E+04 -0.25504103829E+03  0.12200440405E+04  0.10100000352E+00 0. -1.
</event>
<event>
 5   0  0.4464297E-06  0.2604071E+04  0.7818609E-02  0.8366820E-01
        1   -1    0    0  501    0  0.00000000000E+00  0.00000000000E+00  0.10190696591E+04  0.10190696591E+04  0.50400001928E-02 0. -1.
       -1   -1    0    0    0  501  0.00000000000E+00  0.00000000000E+00 -0.16635729298E+04  0.16635729298E+04  0.50400001928E-02 0.  1.
    10030    2    1    2    0    0  0.00000000000E+00  0.00000000000E+00 -0.64450327064E+03  0.26826425889E+04  0.26040711960E+04 0.  0.
        4    1    3    3  502    0  0.56764434830E+03  0.80035601944E+03  0.55943716399E+03  0.11294960900E+04  0.12699999809E+01 0. -1.
       -4    1    3    3    0  502 -0.56764434830E+03 -0.80035601944E+03 -0.12039404346E+04  0.15531464989E+04  0.12699999809E+01 0.  1.
</event>
<event>
 5   0  0.1086507E-05  0.2570046E+04  0.7818609E-02  0.8378448E-01
        2   -1    0    0  501    0  0.00000000000E+00  0.00000000000E+00  0.18335015460E+04  0.18335015460E+04  0.25500000920E-02 0. -1.
       -2   -1    0    0    0  501  0.00000000000E+00  0.00000000000E+00 -0.90061801924E+03  0.90061801925E+03  0.25500000920E-02 0.  1.
    10030    2    1    2    0    0  0.00000000000E+00  0.00000000000E+00  0.93288352673E+03  0.27341195652E+04  0.25700463269E+04 0.  0.
        2    1    3    3  502    0 -0.11341120833E+04  0.59987062115E+03  0.38950945614E+03  0.13408104251E+04  0.25500000920E-02 0. -1.
       -2    1    3    3    0  502  0.11341120833E+04 -0.59987062115E+03  0.54337407060E+03  0.13933091402E+04  0.25500000920E-02 0.  1.
</event>
<event>
 5   0  0.4464297E-06  0.2592450E+04  0.7818609E-02  0.8370770E-01
       -1   -1    0    0    0  501  0.00000000000E+00  0.00000000000E+00  0.12027770261E+04  0.12027770261E+04  0.50400001928E-02 0. -1.
        1   -1    0    0  501    0  0.00000000000E+00  0.00000000000E+00 -0.13969334519E+04  0.13969334519E+04  0.50400001928E-02 0.  1.
    10030    2    1    2    0    0  0.00000000000E+00  0.00000000000E+00 -0.19415642579E+03  0.25997104781E+04  0.25924501639E+04 0.  0.
        4    1    3    3  502    0 -0.31613118463E+02  0.54906906021E+03  0.10799728565E+04  0.12119485161E+04  0.12699999809E+01 0. -1.
       -4    1    3    3    0  502  0.31613118463E+02 -0.54906906021E+03 -0.12741292823E+04  0.13877619619E+04  0.12699999809E+01 0.  1.
</event>
<event>
 5   0  0.4464297E-06  0.2596516E+04  0.7818609E-02  0.8369385E-01
        1   -1    0    0  501    0  0.00000000000E+00  0.00000000000E+00  0.15320506643E+04  0.15320506643E+04  0.50400001928E-02 0.  1.
       -1   -1    0    0    0  501  0.00000000000E+00  0.00000000000E+00 -0.11001426461E+04  0.11001426462E+04  0.50400001928E-02 0. -1.
    10030    2    1    2    0    0  0.00000000000E+00  0.00000000000E+00  0.43190801813E+03  0.26321933104E+04  0.25965163368E+04 0.  0.
        4    1    3    3  502    0 -0.43035724634E+03  0.43771277581E+03 -0.94373692964E+03  0.11258067502E+04  0.12699999809E+01 0. -1.
       -4    1    3    3    0  502  0.43035724634E+03 -0.43771277581E+03  0.13756449478E+04  0.15063865602E+04  0.12699999809E+01 0.  1.
</event>
<event>
 5   0  0.4415080E-06  0.2659137E+04  0.7818609E-02  0.8348387E-01
        1   -1    0    0  501    0  0.00000000000E+00  0.00000000000E+00  0.23389990787E+04  0.23389990787E+04  0.50400001928E-02 0.  1.
       -1   -1    0    0    0  501  0.00000000000E+00  0.00000000000E+00 -0.75577312422E+03  0.75577312424E+03  0.50400001928E-02 0. -1.
    10030    2    1    2    0    0  0.00000000000E+00  0.00000000000E+00  0.15832259545E+04  0.30947722029E+04  0.26591371843E+04 0.  0.
        2    1    3    3  502    0 -0.12233541091E+04 -0.11561959928E+03  0.13825218809E+04  0.18496837349E+04  0.25500000920E-02 0.  1.
       -2    1    3    3    0  502  0.12233541091E+04  0.11561959928E+03  0.20070407357E+03  0.12450884680E+04  0.25500000920E-02 0. -1.
</event>
<event>
 5   0  0.1086507E-05  0.2582363E+04  0.7818609E-02  0.8374217E-01
       -2   -1    0    0    0  501  0.00000000000E+00  0.00000000000E+00  0.95708766264E+03  0.95708766264E+03  0.25500000920E-02 0. -1.
        2   -1    0    0  501    0  0.00000000000E+00  0.00000000000E+00 -0.17418991652E+04  0.17418991652E+04  0.25500000920E-02 0.  1.
    10030    2    1    2    0    0  0.00000000000E+00  0.00000000000E+00 -0.78481150254E+03  0.26989868278E+04  0.25823634140E+04 0.  0.
        2    1    3    3  502    0  0.92401214110E+02  0.55236779507E+02 -0.17372005275E+04  0.17405328951E+04  0.25500000920E-02 0.  1.
       -2    1    3    3    0  502 -0.92401214110E+02 -0.55236779507E+02  0.95238902498E+03  0.95845393269E+03  0.25500000920E-02 0. -1.
</event>
<event>
 5   0  0.1085061E-05  0.2595483E+04  0.7818609E-02  0.8369737E-01
       -2   -1    0    0    0  501  0.00000000000E+00  0.00000000000E+00  0.11773537554E+04  0.11773537554E+04  0.25500000920E-02 0. -1.
        2   -1    0    0  501    0  0.00000000000E+00  0.00000000000E+00 -0.14304390745E+04  0.14304390745E+04  0.25500000920E-02 0.  1.
    10030    2    1    2    0    0  0.00000000000E+00  0.00000000000E+00 -0.25308531904E+03  0.26077928299E+04  0.25954828578E+04 0.  0.
        1    1    3    3  502    0 -0.36459654757E+03 -0.63535459826E+03 -0.12028500521E+04  0.14083516450E+04  0.50400001928E-02 0.  1.
       -1    1    3    3    0  502  0.36459654757E+03  0.63535459826E+03  0.94976473304E+03  0.11994411850E+04  0.50400001928E-02 0. -1.
</event>
<event>
 5   0  0.3705250E-06  0.2596971E+04  0.7818609E-02  0.8369231E-01
       -4   -1    0    0    0  501  0.00000000000E+00  0.00000000000E+00  0.12971438816E+04  0.12971445033E+04  0.12699999809E+01 0.  1.
        4   -1    0    0  501    0  0.00000000000E+00  0.00000000000E+00 -0.12998275277E+04  0.12998281482E+04  0.12699999809E+01 0. -1.
    10030    2    1    2    0    0  0.00000000000E+00  0.00000000000E+00 -0.26836461007E+01  0.25969726515E+04  0.25969712649E+04 0.  0.
        1    1    3    3  502    0 -0.49805787719E+02 -0.11037168380E+04  0.68085606593E+03  0.12977813596E+04  0.50400001928E-02 0.  1.
       -1    1    3    3    0  502  0.49805787719E+02  0.11037168380E+04 -0.68353971203E+03  0.12991912919E+04  0.50400001928E-02 0. -1.
</event>
<event>
 5   0  0.1085061E-05  0.2583126E+04  0.7818609E-02  0.8373956E-01
       -2   -1    0    0    0  501  0.00000000000E+00  0.00000000000E+00  0.11137431430E+04  0.11137431430E+04  0.25500000920E-02 0. -1.
        2   -1    0    0  501    0  0.00000000000E+00  0.00000000000E+00 -0.14977737046E+04  0.14977737046E+04  0.25500000920E-02 0.  1.
    10030    2    1    2    0    0  0.00000000000E+00  0.00000000000E+00 -0.38403056157E+03  0.26115168476E+04  0.25831261628E+04 0.  0.
        1    1    3    3  502    0  0.52731190852E+03  0.11598293829E+04  0.22145764023E+02  0.12742654674E+04  0.50400001928E-02 0. -1.
       -1    1    3    3    0  502 -0.52731190852E+03 -0.11598293829E+04 -0.40617632559E+03  0.13372513802E+04  0.50400001928E-02 0.  1.
</event>
<event>
 5   0  0.4218590E-06  0.2617308E+04  0.7818609E-02  0.8362346E-01
        1   -1    0    0  501    0  0.00000000000E+00  0.00000000000E+00  0.13717651868E+04  0.13717651868E+04  0.50400001928E-02 0.  1.
       -1   -1    0    0    0  501  0.00000000000E+00  0.00000000000E+00 -0.12484463783E+04  0.12484463783E+04  0.50400001928E-02 0. -1.
    10030    2    1    2    0    0  0.00000000000E+00  0.00000000000E+00  0.12331880847E+03  0.26202115651E+04  0.26173079906E+04 0.  0.
        1    1    3    3  502    0  0.31619726612E+03 -0.18825028380E+03 -0.11955826782E+04  0.12509343791E+04  0.50400001928E-02 0. -1.
       -1    1    3    3    0  502 -0.31619726612E+03  0.18825028380E+03  0.13189014867E+04  0.13692771860E+04  0.50400001928E-02 0.  1.
</event>
<event>
 5   0  0.1085255E-05  0.2601579E+04  0.7818609E-02  0.8367665E-01
       -2   -1    0    0    0  501  0.00000000000E+00  0.00000000000E+00  0.86068945684E+03  0.86068945685E+03  0.25500000920E-02 0.  1.
        2   -1    0    0  501    0  0.00000000000E+00  0.00000000000E+00 -0.19659276143E+04  0.19659276143E+04  0.25500000920E-02 0. -1.
    10030    2    1    2    0    0  0.00000000000E+00  0.00000000000E+00 -0.11052381575E+04  0.28266170712E+04  0.26015788826E+04 0.  0.
        5    1    3    3  502    0  0.88734788515E+03 -0.16211249156E+03 -0.15708993500E+04  0.18114672470E+04  0.46999998093E+01 0. -1.
       -5    1    3    3    0  502 -0.88734788515E+03  0.16211249156E+03  0.46566119254E+03  0.10151498241E+04  0.46999998093E+01 0.  1.
</event>
<event>
 5   0  0.1116310E-05  0.2592941E+04  0.7818609E-02  0.8370603E-01
       -2   -1    0    0    0  501  0.00000000000E+00  0.00000000000E+00  0.16513819102E+04  0.16513819102E+04  0.25500000920E-02 0.  1.
        2   -1    0    0  501    0  0.00000000000E+00  0.00000000000E+00 -0.10178357167E+04  0.10178357167E+04  0.25500000920E-02 0. -1.
    10030    2    1    2    0    0  0.00000000000E+00  0.00000000000E+00  0.63354619352E+03  0.26692176268E+04  0.25929407938E+04 0.  0.
        4    1    3    3  502    0 -0.62735688874E+03  0.12421666089E+02  0.14846525570E+04  0.16118082366E+04  0.12699999809E+01 0.  1.
       -4    1    3    3    0  502  0.62735688874E+03 -0.12421666089E+02 -0.85110636350E+03  0.10574093902E+04  0.12699999809E+01 0. -1.
</event>
<event>
 5   0  0.1116310E-05  0.2594007E+04  0.7818609E-02  0.8370240E-01
        2   -1    0    0  501    0  0.00000000000E+00  0.00000000000E+00  0.18833071222E+04  0.18833071222E+04  0.25500000920E-02 0.  1.
       -2   -1    0    0    0  501  0.00000000000E+00  0.00000000000E+00 -0.89322539168E+03  0.89322539168E+03  0.25500000920E-02 0. -1.
    10030    2    1    2    0    0  0.00000000000E+00  0.00000000000E+00  0.99008173049E+03  0.27765325139E+04  0.25940067400E+04 0.  0.
        4    1    3    3  502    0 -0.63882574953E+03  0.11222250641E+04  0.62494226074E+03  0.14345877020E+04  0.12699999809E+01 0.  1.
       -4    1    3    3    0  502  0.63882574953E+03 -0.11222250641E+04  0.36513946976E+03  0.13419448118E+04  0.12699999809E+01 0. -1.
</event>
<event>
 5   0  0.4415080E-06  0.2585490E+04  0.7818609E-02  0.8373147E-01
        1   -1    0    0  501    0  0.00000000000E+00  0.00000000000E+00  0.10980326090E+04  0.10980326090E+04  0.50400001928E-02 0. -1.
       -1   -1    0    0    0  501  0.00000000000E+00  0.00000000000E+00 -0.15219858652E+04  0.15219858652E+04  0.50400001928E-02 0.  1.
    10030    2    1    2    0    0  0.00000000000E+00  0.00000000000E+00 -0.42395325619E+03  0.26200184741E+04  0.25854903677E+04 0.  0.
        2    1    3    3  502    0 -0.47431163866E+03 -0.39328417267E+02  0.10060198584E+04  0.11129214754E+04  0.25500000920E-02 0. -1.
       -2    1    3    3    0  502  0.47431163866E+03  0.39328417267E+02 -0.14299731146E+04  0.15070969987E+04  0.25500000920E-02 0.  1.
</event>
<event>
 5   0  0.4361864E-06  0.2598718E+04  0.7818609E-02  0.8368637E-01
       -1   -1    0    0    0  501  0.00000000000E+00  0.00000000000E+00  0.13242387979E+04  0.13242387979E+04  0.50400001928E-02 0.  1.
        1   -1    0    0  501    0  0.00000000000E+00  0.00000000000E+00 -0.12749464577E+04  0.12749464577E+04  0.50400001928E-02 0. -1.
    10030    2    1    2    0    0  0.00000000000E+00  0.00000000000E+00  0.49292340152E+02  0.25991852556E+04  0.25987178104E+04 0.  0.
        3    1    3    3  502    0  0.10974354175E+04  0.69437630786E+03  0.67204991516E+02  0.13003997361E+04  0.10100000352E+00 0.  1.
       -3    1    3    3    0  502 -0.10974354175E+04 -0.69437630786E+03 -0.17912651363E+02  0.12987855195E+04  0.10100000352E+00 0. -1.
</event>
<event>
 5   0  0.4597705E-06  0.2603130E+04  0.7818609E-02  0.8367139E-01
        1   -1    0    0  501    0  0.00000000000E+00  0.00000000000E+00  0.19465612906E+04  0.19465612906E+04  0.50400001928E-02 0. -1.
       -1   -1    0    0    0  501  0.00000000000E+00  0.00000000000E+00 -0.87028944314E+03  0.87028944315E+03  0.50400001928E-02 0.  1.
    10030    2    1    2    0    0  0.00000000000E+00  0.00000000000E+00  0.10762718475E+04  0.28168507338E+04  0.26031302247E+04 0.  0.
        5    1    3    3  502    0 -0.11619681774E+04  0.51347217975E+03  0.84463227708E+03  0.15255325293E+04  0.46999998093E+01 0. -1.
       -5    1    3    3    0  502  0.11619681774E+04 -0.51347217975E+03  0.23163957040E+03  0.12913182044E+04  0.46999998093E+01 0.  1.
</event>
<event>
 5   0  0.1116310E-05  0.2593571E+04  0.7818609E-02  0.8370388E-01
       -2   -1    0    0    0  501  0.00000000000E+00  0.00000000000E+00  0.11986814687E+04  0.11986814687E+04  0.25500000920E-02 0.  1.
        2   -1    0    0  501    0  0.00000000000E+00  0.00000000000E+00 -0.14029191915E+04  0.14029191916E+04  0.25500000920E-02 0. -1.
    10030    2    1    2    0    0  0.00000000000E+00  0.00000000000E+00 -0.20423772280E+03  0.26016006603E+04  0.25935714658E+04 0.  0.
        4    1    3    3  502    0  0.12347856637E+04  0.19429171135E+02  0.29480615704E+03  0.12696398745E+04  0.12699999809E+01 0.  1.
       -4    1    3    3    0  502 -0.12347856637E+04 -0.19429171135E+02 -0.49904387984E+03  0.13319607858E+04  0.12699999809E+01 0. -1.
</event>
<event>
 5   0  0.1085255E-05  0.2552892E+04  0.7818609E-02  0.8384381E-01
       -2   -1    0    0    0  501  0.00000000000E+00  0.00000000000E+00  0.87381797385E+03  0.87381797386E+03  0.25500000920E-02 0.  1.
        2   -1    0    0  501    0  0.00000000000E+00  0.00000000000E+00 -0.18645921066E+04  0.18645921066E+04  0.25500000920E-02 0. -1.
    10030    2    1    2    0    0  0.00000000000E+00  0.00000000000E+00 -0.99077413274E+03  0.27384100805E+04  0.25528917695E+04 0.  0.
        5    1    3    3  502    0  0.96933227955E+02  0.15049692931E+03 -0.18510510930E+04  0.18596928820E+04  0.46999998093E+01 0. -1.
       -5    1    3    3    0  502 -0.96933227955E+02 -0.15049692931E+03  0.86027696029E+03  0.87871719843E+03  0.46999998093E+01 0.  1.
</event>
<event>
 5   0  0.1085061E-05  0.2608236E+04  0.7818609E-02  0.8365409E-01
       -2   -1    0    0    0  501  0.00000000000E+00  0.00000000000E+00  0.13424491060E+04  0.13424491060E+04  0.25500000920E-02 0.  1.
        2   -1    0    0  501    0  0.00000000000E+00  0.00000000000E+00 -0.12668812012E+04  0.12668812012E+04  0.25500000920E-02 0. -1.
    10030    2    1    2    0    0  0.00000000000E+00  0.00000000000E+00  0.75567904821E+02  0.26093303073E+04  0.26082358299E+04 0.  0.
        1    1    3    3  502    0  0.67913844498E+03 -0.91499507284E+03 -0.59673650214E+03  0.12862890281E+04  0.50400001928E-02 0. -1.
       -1    1    3    3    0  502 -0.67913844498E+03  0.91499507284E+03  0.67230440697E+03  0.13230412792E+04  0.50400001928E-02 0.  1.
</event>
<event>
 5   0  0.1085061E-05  0.2594566E+04  0.7818609E-02  0.8370049E-01
       -2   -1    0    0    0  501  0.00000000000E+00  0.00000000000E+00  0.33790455151E+04  0.33790455151E+04  0.25500000920E-02 0.  1.
        2   -1    0    0  501    0  0.00000000000E+00  0.00000000000E+00 -0.49805284574E+03  0.49805284575E+03  0.25500000920E-02 0. -1.
    10030    2    1    2    0    0  0.00000000000E+00  0.00000000000E+00  0.28809926693E+04  0.38770983608E+04  0.25945660405E+04 0.  0.
        1    1    3    3  502    0  0.64238586955E+03 -0.93718931919E+03  0.23760374064E+04  0.26337306586E+04  0.50400001928E-02 0.  1.
       -1    1    3    3    0  502 -0.64238586955E+03  0.93718931919E+03  0.50495526297E+03  0.12433677023E+04  0.50400001928E-02 0. -1.
</event>
<event>
 5   0  0.3705250E-06  0.2580593E+04  0.7818609E-02  0.8374823E-01
       -3   -1    0    0    0  501  0.00000000000E+00  0.00000000000E+00  0.19572262590E+04  0.19572262616E+04  0.10100000352E+00 0.  1.
        3   -1    0    0  501    0  0.00000000000E+00  0.00000000000E+00 -0.85062500363E+03  0.85062500963E+03  0.10100000352E+00 0. -1.
    10030    2    1    2    0    0  0.00000000000E+00  0.00000000000E+00  0.11066012553E+04  0.28078512712E+04  0.25805934246E+04 0.  0.
        2    1    3    3  502    0  0.12573751162E+04  0.28922960300E+03  0.53717451701E+03  0.13975701799E+04  0.25500000920E-02 0.  1.
       -2    1    3    3    0  502 -0.12573751162E+04 -0.28922960300E+03  0.56942673834E+03  0.14102810913E+04  0.25500000920E-02 0. -1.
</event>
<event>
 5   0  0.3705250E-06  0.2600415E+04  0.7818609E-02  0.8368060E-01
       -3   -1    0    0    0  501  0.00000000000E+00  0.00000000000E+00  0.69374788570E+03  0.69374789305E+03  0.10100000352E+00 0. -1.
        3   -1    0    0  501    0  0.00000000000E+00  0.00000000000E+00 -0.24368209556E+04  0.24368209577E+04  0.10100000352E+00 0.  1.
    10030    2    1    2    0    0  0.00000000000E+00  0.00000000000E+00 -0.17430730699E+04  0.31305688508E+04  0.26004148904E+04 0.  0.
        4    1    3    3  502    0  0.95497753384E+03 -0.82644408666E+03 -0.49941348382E+03  0.13580895991E+04  0.12699999809E+01 0. -1.
       -4    1    3    3    0  502 -0.95497753384E+03  0.82644408666E+03 -0.12436595861E+04  0.17724792516E+04  0.12699999809E+01 0.  1.
</event>
<event>
 5   0  0.1116310E-05  0.2600679E+04  0.7818609E-02  0.8367971E-01
       -2   -1    0    0    0  501  0.00000000000E+00  0.00000000000E+00  0.11617416192E+04  0.11617416192E+04  0.25500000920E-02 0.  1.
        2   -1    0    0  501    0  0.00000000000E+00  0.00000000000E+00 -0.14554719719E+04  0.14554719719E+04  0.25500000920E-02 0. -1.
    10030    2    1    2    0    0  0.00000000000E+00  0.00000000000E+00 -0.29373035273E+03  0.26172135911E+04  0.26006786540E+04 0.  0.
        4    1    3    3  502    0  0.76780012532E+02 -0.21652524891E+03 -0.14348863339E+04  0.14531616421E+04  0.12699999809E+01 0. -1.
       -4    1    3    3    0  502 -0.76780012532E+02  0.21652524891E+03  0.11411559812E+04  0.11640519491E+04  0.12699999809E+01 0.  1.
</event>
<event>
 5   0  0.4464297E-06  0.2535540E+04  0.7818609E-02  0.8390432E-01
        1   -1    0    0  501    0  0.00000000000E+00  0.00000000000E+00  0.13099730174E+04  0.13099730174E+04  0.50400001928E-02 0.  1.
       -1   -1    0    0    0  501  0.00000000000E+00  0.00000000000E+00 -0.12269268884E+04  0.12269268884E+04  0.50400001928E-02 0. -1.
    10030    2    1    2    0    0  0.00000000000E+00  0.00000000000E+00  0.83046128997E+02  0.25368999058E+04  0.25355402723E+04 0.  0.
        4    1    3    3  502    0 -0.92613821638E+03 -0.45296913276E+03  0.77970352976E+03  0.12926144972E+04  0.12699999809E+01 0.  1.
       -4    1    3    3    0  502  0.92613821638E+03  0.45296913276E+03 -0.69665740076E+03  0.12442854086E+04  0.12699999809E+01 0. -1.
</event>
<event>
 5   0  0.1116310E-05  0.2570829E+04  0.7818609E-02  0.8378178E-01
        2   -1    0    0  501    0  0.00000000000E+00  0.00000000000E+00  0.11315853420E+04  0.11315853420E+04  0.25500000920E-02 0. -1.
       -2   -1    0    0    0  501  0.00000000000E+00  0.00000000000E+00 -0.14601548726E+04  0.14601548726E+04  0.25500000920E-02 0.  1.
    10030    2    1    2    0    0  0.00000000000E+00  0.00000000000E+00 -0.32856953058E+03  0.25917402147E+04  0.25708285442E+04 0.  0.
        4    1    3    3  502    0 -0.11243318937E+04 -0.52163664980E+03  0.17916399330E+03  0.12523291703E+04  0.12699999809E+01 0. -1.
       -4    1    3    3    0  502  0.11243318937E+04  0.52163664980E+03 -0.50773352388E+03  0.13394110443E+04  0.12699999809E+01 0.  1.
</event>
<event>
 5   0  0.4361864E-06  0.2588368E+04  0.7818609E-02  0.8372163E-01
        1   -1    0    0  501    0  0.00000000000E+00  0.00000000000E+00  0.22229388576E+04  0.22229388577E+04  0.50400001928E-02 0.  1.
       -1   -1    0    0    0  501  0.00000000000E+00  0.00000000000E+00 -0.75346744308E+03  0.75346744309E+03  0.50400001928E-02 0. -1.
    10030    2    1    2    0    0  0.00000000000E+00  0.00000000000E+00  0.14694714146E+04  0.29764063007E+04  0.25883678697E+04 0.  0.
        3    1    3    3  502    0  0.10966963332E+04  0.62161669385E+03  0.10714901825E+04  0.16544610551E+04  0.10100000352E+00 0. -1.
       -3    1    3    3    0  502 -0.10966963332E+04 -0.62161669385E+03  0.39798123206E+03  0.13219452457E+04  0.10100000352E+00 0.  1.
</event>
<event>
 5   0  0.4464297E-06  0.2596527E+04  0.7818609E-02  0.8369382E-01
       -1   -1    0    0    0  501  0.00000000000E+00  0.00000000000E+00  0.98803435469E+03  0.98803435470E+03  0.50400001928E-02 0. -1.
        1   -1    0    0  501    0  0.00000000000E+00  0.00000000000E+00 -0.17059000508E+04  0.17059000508E+04  0.50400001928E-02 0.  1.
    10030    2    1    2    0    0  0.00000000000E+00  0.00000000000E+00 -0.71786569610E+03  0.26939344055E+04  0.25965268001E+04 0.  0.
        4    1    3    3  502    0 -0.55417119988E+03 -0.10898585133E+04  0.94009639082E+02  0.12262694333E+04  0.12699999809E+01 0. -1.
       -4    1    3    3    0  502  0.55417119988E+03  0.10898585133E+04 -0.81187533518E+03  0.14676649722E+04  0.12699999809E+01 0.  1.
</event>
<event>
 5   0  0.4415080E-06  0.2647896E+04  0.7818609E-02  0.8352112E-01
       -1   -1    0    0    0  501  0.00000000000E+00  0.00000000000E+00  0.10078774552E+04  0.10078774552E+04  0.50400001928E-02 0. -1.
        1   -1    0    0  501    0  0.00000000000E+00  0.00000000000E+00 -0.17391381639E+04  0.17391381639E+04  0.50400001928E-02 0.  1.
    10030    2    1    2    0    0  0.00000000000E+00  0.00000000000E+00 -0.73126070872E+03  0.27470156191E+04  0.26478958793E+04 0.  0.
        2    1    3    3  502    0  0.25139562304E+03 -0.95923354753E+03  0.54442369523E+03  0.11312497151E+04  0.25500000920E-02 0. -1.
       -2    1    3    3    0  502 -0.25139562304E+03  0.95923354753E+03 -0.12756844040E+04  0.16157659040E+04  0.25500000920E-02 0.  1.
</event>
<event>
 5   0  0.1085061E-05  0.2603778E+04  0.7818609E-02  0.8366919E-01
        2   -1    0    0  501    0  0.00000000000E+00  0.00000000000E+00  0.21127912541E+04  0.21127912541E+04  0.25500000920E-02 0. -1.
       -2   -1    0    0    0  501  0.00000000000E+00  0.00000000000E+00 -0.80221616319E+03  0.80221616319E+03  0.25500000920E-02 0.  1.
    10030    2    1    2    0    0  0.00000000000E+00  0.00000000000E+00  0.13105750909E+04  0.29150074173E+04  0.26037782498E+04 0.  0.
        1    1    3    3  502    0 -0.42580678653E+03 -0.95737777666E+03 -0.20974879507E+03  0.10685870034E+04  0.50400001928E-02 0.  1.
       -1    1    3    3    0  502  0.42580678653E+03  0.95737777666E+03  0.15203238860E+04  0.18464204139E+04  0.50400001928E-02 0. -1.
</event>
<event>
 5   0  0.4218590E-06  0.2349573E+04  0.7818609E-02  0.8458628E-01
       -1   -1    0    0    0  501  0.00000000000E+00  0.00000000000E+00  0.91019082103E+03  0.91019082105E+03  0.50400001928E-02 0. -1.
        1   -1    0    0  501    0  0.00000000000E+00  0.00000000000E+00 -0.15163005099E+04  0.15163005099E+04  0.50400001928E-02 0.  1.
    10030    2    1    2    0    0  0.00000000000E+00  0.00000000000E+00 -0.60610968891E+03  0.24264913310E+04  0.23495725621E+04 0.  0.
        1    1    3    3  502    0 -0.13576223609E+03 -0.10693163496E+04 -0.78552555547E+03  0.13337613124E+04  0.50400001928E-02 0.  1.
       -1    1    3    3    0  502  0.13576223609E+03  0.10693163496E+04  0.17941586656E+03  0.10927300186E+04  0.50400001928E-02 0. -1.
</event>
<event>
 5   0  0.1085061E-05  0.2584120E+04  0.7818609E-02  0.8373615E-01
       -2   -1    0    0    0  501  0.00000000000E+00  0.00000000000E+00  0.79997707133E+03  0.79997707133E+03  0.25500000920E-02 0.  1.
        2   -1    0    0  501    0  0.00000000000E+00  0.00000000000E+00 -0.20868328999E+04  0.20868328999E+04  0.25500000920E-02 0. -1.
    10030    2    1    2    0    0  0.00000000000E+00  0.00000000000E+00 -0.12868558286E+04  0.28868099713E+04  0.25841195573E+04 0.  0.
        1    1    3    3  502    0  0.11347947554E+04  0.43990073509E+02  0.44970301948E+02  0.11365371052E+04  0.50400001928E-02 0.  1.
       -1    1    3    3    0  502 -0.11347947554E+04 -0.43990073509E+02 -0.13318261305E+04  0.17502728660E+04  0.50400001928E-02 0. -1.
</event>
<event>
 5   0  0.1086507E-05  0.2596457E+04  0.7818609E-02  0.8369406E-01
        2   -1    0    0  501    0  0.00000000000E+00  0.00000000000E+00  0.17773764723E+04  0.17773764723E+04  0.25500000920E-02 0. -1.
       -2   -1    0    0    0  501  0.00000000000E+00  0.00000000000E+00 -0.94824996855E+03  0.94824996855E+03  0.25500000920E-02 0.  1.
    10030    2    1    2    0    0  0.00000000000E+00  0.00000000000E+00  0.82912650374E+03  0.27256264408E+04  0.25964569582E+04 0.  0.
        2    1    3    3  502    0  0.55393412995E+03 -0.95967293091E+02 -0.81384169781E+03  0.98913651776E+03  0.25500000920E-02 0.  1.
       -2    1    3    3    0  502 -0.55393412995E+03  0.95967293091E+02  0.16429682016E+04  0.17364899231E+04  0.25500000920E-02 0. -1.
</event>
<event>
 5   0  0.1116310E-05  0.2626068E+04  0.7818609E-02  0.8359400E-01
        2   -1    0    0  501    0  0.00000000000E+00  0.00000000000E+00  0.71666011009E+03  0.71666011010E+03  0.25500000920E-02 0.  1.
       -2   -1    0    0    0  501  0.00000000000E+00  0.00000000000E+00 -0.24056851321E+04  0.24056851321E+04  0.25500000920E-02 0. -1.
    10030    2    1    2    0    0  0.00000000000E+00  0.00000000000E+00 -0.16890250220E+04  0.31223452422E+04  0.26260682182E+04 0.  0.
        4    1    3    3  502    0  0.10157222805E+04  0.35105177122E+02  0.14393970907E+03  0.10264718102E+04  0.12699999809E+01 0.  1.
       -4    1    3    3    0  502 -0.10157222805E+04 -0.35105177122E+02 -0.18329647311E+04  0.20958734319E+04  0.12699999809E+01 0. -1.
</event>
<event>
 5   0  0.4464297E-06  0.2600261E+04  0.7818609E-02  0.8368112E-01
       -1   -1    0    0    0  501  0.00000000000E+00  0.00000000000E+00  0.14132092765E+04  0.14132092765E+04  0.50400001928E-02 0.  1.
        1   -1    0    0  501    0  0.00000000000E+00  0.00000000000E+00 -0.11960999773E+04  0.11960999773E+04  0.50400001928E-02 0. -1.
    10030    2    1    2    0    0  0.00000000000E+00  0.00000000000E+00  0.21710929915E+03  0.26093092538E+04  0.26002612050E+04 0.  0.
        4    1    3    3  502    0 -0.26684936548E+02 -0.12417246080E+04 -0.27716012217E+03  0.12725609747E+04  0.12699999809E+01 0. -1.
       -4    1    3    3    0  502  0.26684936548E+02  0.12417246080E+04  0.49426942132E+03  0.13367482791E+04  0.12699999809E+01 0.  1.
</event>
<event>
 5   0  0.4218590E-06  0.2614354E+04  0.7818609E-02  0.8363342E-01
       -1   -1    0    0    0  501  0.00000000000E+00  0.00000000000E+00  0.72485015675E+03  0.72485015677E+03  0.50400001928E-02 0. -1.
        1   -1    0    0  501    0  0.00000000000E+00  0.00000000000E+00 -0.23573312846E+04  0.23573312846E+04  0.50400001928E-02 0.  1.
    10030    2    1    2    0    0  0.00000000000E+00  0.00000000000E+00 -0.16324811278E+04  0.30821814414E+04  0.26143541850E+04 0.  0.
        1    1    3    3  502    0 -0.71265226466E+03 -0.75323363971E+03  0.12209779750E+03  0.10440986728E+04  0.50400001928E-02 0. -1.
       -1    1    3    3    0  502  0.71265226466E+03  0.75323363971E+03 -0.17545789253E+04  0.20380827686E+04  0.50400001928E-02 0.  1.
</event>
<event>
 5   0  0.1116310E-05  0.2569585E+04  0.7818609E-02  0.8378606E-01
        2   -1    0    0  501    0  0.00000000000E+00  0.00000000000E+00  0.27919648617E+04  0.27919648617E+04  0.25500000920E-02 0. -1.
       -2   -1    0    0    0  501  0.00000000000E+00  0.00000000000E+00 -0.59122956780E+03  0.59122956780E+03  0.25500000920E-02 0.  1.
    10030    2    1    2    0    0  0.00000000000E+00  0.00000000000E+00  0.22007352939E+04  0.33831944295E+04  0.25695853195E+04 0.  0.
        4    1    3    3  502    0 -0.78785154774E+03  0.82171015275E+03  0.31614541216E+03  0.11814682268E+04  0.12699999809E+01 0.  1.
       -4    1    3    3    0  502  0.78785154774E+03 -0.82171015275E+03  0.18845898817E+04  0.22017262027E+04  0.12699999809E+01 0. -1.
</event>
<event>
 5   0  0.1085255E-05  0.2670759E+04  0.7818609E-02  0.8344555E-01
        2   -1    0    0  501    0  0.00000000000E+00  0.00000000000E+00  0.24473040713E+04  0.24473040713E+04  0.25500000920E-02 0.  1.
       -2   -1    0    0    0  501  0.00000000000E+00  0.00000000000E+00 -0.72865440156E+03  0.72865440156E+03  0.25500000920E-02 0. -1.
    10030    2    1    2    0    0  0.00000000000E+00  0.00000000000E+00  0.17186496697E+04  0.31759584728E+04  0.26707593553E+04 0.  0.
        5    1    3    3  502    0 -0.69233902131E+03 -0.50615636251E+03  0.20765089960E+04  0.22466506814E+04  0.46999998093E+01 0.  1.
       -5    1    3    3    0  502  0.69233902131E+03  0.50615636251E+03 -0.35785932632E+03  0.92930779141E+03  0.46999998093E+01 0. -1.
</event>
<event>
 5   0  0.4415080E-06  0.2685379E+04  0.7818609E-02  0.8339765E-01
       -1   -1    0    0    0  501  0.00000000000E+00  0.00000000000E+00  0.13970350973E+04  0.13970350973E+04  0.50400001928E-02 0. -1.
        1   -1    0    0  501    0  0.00000000000E+00  0.00000000000E+00 -0.12904576583E+04  0.12904576583E+04  0.50400001928E-02 0.  1.
    10030    2    1    2    0    0  0.00000000000E+00  0.00000000000E+00  0.10657743896E+03  0.26874927556E+04  0.26853786625E+04 0.  0.
        2    1    3    3  502    0 -0.69455165827E+03 -0.22207895168E+03  0.11816041565E+04  0.13884917895E+04  0.25500000920E-02 0. -1.
       -2    1    3    3    0  502  0.69455165827E+03  0.22207895168E+03 -0.10750267175E+04  0.12990009662E+04  0.25500000920E-02 0.  1.
</event>
<event>
 5   0  0.4361864E-06  0.2592097E+04  0.7818609E-02  0.8370891E-01
        1   -1    0    0  501    0  0.00000000000E+00  0.00000000000E+00  0.18460648810E+04  0.18460648810E+04  0.50400001928E-02 0.  1.
       -1   -1    0    0    0  501  0.00000000000E+00  0.00000000000E+00 -0.90990370259E+03  0.90990370260E+03  0.50400001928E-02 0. -1.
    10030    2    1    2    0    0  0.00000000000E+00  0.00000000000E+00  0.93616117845E+03  0.27559685837E+04  0.25920966575E+04 0.  0.
        3    1    3    3  502    0 -0.36019097991E+03  0.50553434887E+03 -0.74158080792E+03  0.96708046448E+03  0.10100000352E+00 0. -1.
       -3    1    3    3    0  502  0.36019097991E+03 -0.50553434887E+03  0.16777419864E+04  0.17888881192E+04  0.10100000352E+00 0.  1.
</event>
<event>
 5   0  0.1086507E-05  0.2599113E+04  0.7818609E-02  0.8368502E-01
       -2   -1    0    0    0  501  0.00000000000E+00  0.00000000000E+00  0.18840727024E+04  0.18840727024E+04  0.25500000920E-02 0. -1.
        2   -1    0    0  501    0  0.00000000000E+00  0.00000000000E+00 -0.89638117921E+03  0.89638117921E+03  0.25500000920E-02 0.  1.
    10030    2    1    2    0    0  0.00000000000E+00  0.00000000000E+00  0.98769152315E+03  0.27804538816E+04  0.25991131646E+04 0.  0.
        2    1    3    3  502    0  0.19475611781E+03  0.81466471183E+03 -0.56907675893E+03  0.10126484561E+04  0.25500000920E-02 0.  1.
       -2    1    3    3    0  502 -0.19475611781E+03 -0.81466471183E+03  0.15567682821E+04  0.17678054254E+04  0.25500000920E-02 0. -1.
</event>
<event>
 5   0  0.1116310E-05  0.2510271E+04  0.7818609E-02  0.8399335E-01
       -2   -1    0    0    0  501  0.00000000000E+00  0.00000000000E+00  0.10351828137E+04  0.10351828137E+04  0.25500000920E-02 0. -1.
        2   -1    0    0  501    0  0.00000000000E+00  0.00000000000E+00 -0.15218233279E+04  0.15218233279E+04  0.25500000920E-02 0.  1.
    10030    2    1    2    0    0  0.00000000000E+00  0.00000000000E+00 -0.48664051423E+03  0.25570061417E+04  0.25102711842E+04 0.  0.
        4    1    3    3  502    0 -0.38163039473E+02  0.41335833549E+03  0.96323300693E+03  0.10488760507E+04  0.12699999809E+01 0. -1.
       -4    1    3    3    0  502  0.38163039473E+02 -0.41335833549E+03 -0.14498735212E+04  0.15081300910E+04  0.12699999809E+01 0.  1.
</event>
<event>
 5   0  0.4218590E-06  0.2593677E+04  0.7818609E-02  0.8370352E-01
       -1   -1    0    0    0  501  0.00000000000E+00  0.00000000000E+00  0.69077474436E+03  0.69077474438E+03  0.50400001928E-02 0.  1.
        1   -1    0    0  501    0  0.00000000000E+00  0.00000000000E+00 -0.24346440323E+04  0.24346440323E+04  0.50400001928E-02 0. -1.
    10030    2    1    2    0    0  0.00000000000E+00  0.00000000000E+00 -0.17438692879E+04  0.31254187766E+04  0.25936773963E+04 0.  0.
        1    1    3    3  502    0 -0.59487255863E+03 -0.23432322713E+03  0.48765593241E+03  0.80410760736E+03  0.50400001928E-02 0.  1.
       -1    1    3    3    0  502  0.59487255863E+03  0.23432322713E+03 -0.22315252203E+04  0.23213111693E+04  0.50400001928E-02 0. -1.
</event>
<event>
 5   0  0.4218590E-06  0.2588863E+04  0.7818609E-02  0.8371994E-01
        1   -1    0    0  501    0  0.00000000000E+00  0.00000000000E+00  0.13158191959E+04  0.13158191959E+04  0.50400001928E-02 0.  1.
       -1   -1    0    0    0  501  0.00000000000E+00  0.00000000000E+00 -0.12733911889E+04  0.12733911889E+04  0.50400001928E-02 0. -1.
    10030    2    1    2    0    0  0.00000000000E+00  0.00000000000E+00  0.42428006984E+02  0.25892103849E+04  0.25888627390E+04 0.  0.
        1    1    3    3  502    0 -0.12706600299E+04 -0.15816132917E+03 -0.16844440307E+03  0.12914973615E+04  0.50400001928E-02 0. -1.
       -1    1    3    3    0  502  0.12706600299E+04  0.15816132917E+03  0.21087241005E+03  0.12977130234E+04  0.50400001928E-02 0.  1.
</event>
<event>
 5   0  0.1136881E-05  0.2599937E+04  0.7818609E-02  0.8368222E-01
       -2   -1    0    0    0  501  0.00000000000E+00  0.00000000000E+00  0.10343686053E+04  0.10343686053E+04  0.25500000920E-02 0. -1.
        2   -1    0    0  501    0  0.00000000000E+00  0.00000000000E+00 -0.16337683589E+04  0.16337683589E+04  0.25500000920E-02 0.  1.
    10030    2    1    2    0    0  0.00000000000E+00  0.00000000000E+00 -0.59939975355E+03  0.26681369642E+04  0.25999374598E+04 0.  0.
        3    1    3    3  502    0  0.10480583721E+04  0.23219708198E+03  0.45272907564E+03  0.11650345327E+04  0.10100000352E+00 0. -1.
       -3    1    3    3    0  502 -0.10480583721E+04 -0.23219708198E+03 -0.10521288292E+04  0.15031024315E+04  0.10100000352E+00 0.  1.
</event>
<event>
 5   0  0.4464297E-06  0.2590981E+04  0.7818609E-02  0.8371271E-01
       -1   -1    0    0    0  501  0.00000000000E+00  0.00000000000E+00  0.71237471225E+03  0.71237471227E+03  0.50400001928E-02 0. -1.
        1   -1    0    0  501    0  0.00000000000E+00  0.00000000000E+00 -0.23559174533E+04  0.23559174533E+04  0.50400001928E-02 0.  1.
    10030    2    1    2    0    0  0.00000000000E+00  0.00000000000E+00 -0.16435427410E+04  0.30682921656E+04  0.25909812951E+04 0.  0.
        4    1    3    3  502    0 -0.12723164754E+04  0.58961340439E+02 -0.11020809290E+04  0.16842949980E+04  0.12699999809E+01 0.  1.
       -4    1    3    3    0  502  0.12723164754E+04 -0.58961340439E+02 -0.54146181202E+03  0.13839971676E+04  0.12699999809E+01 0. -1.
</event>
<event>
 5   0  0.4218590E-06  0.2602027E+04  0.7818609E-02  0.8367513E-01
       -1   -1    0    0    0  501  0.00000000000E+00  0.00000000000E+00  0.16018714306E+04  0.16018714306E+04  0.50400001928E-02 0.  1.
        1   -1    0    0  501    0  0.00000000000E+00  0.00000000000E+00 -0.10566619915E+04  0.10566619915E+04  0.50400001928E-02 0. -1.
    10030    2    1    2    0    0  0.00000000000E+00  0.00000000000E+00  0.54520943910E+03  0.26585334221E+04  0.26020274065E+04 0.  0.
        1    1    3    3  502    0 -0.23043967034E+03  0.27744471806E+03  0.15497738724E+04  0.15911873142E+04  0.50400001928E-02 0.  1.
       -1    1    3    3    0  502  0.23043967034E+03 -0.27744471806E+03 -0.10045644333E+04  0.10673461079E+04  0.50400001928E-02 0. -1.
</event>
<event>
 5   0  0.4218590E-06  0.2600263E+04  0.7818609E-02  0.8368112E-01
        1   -1    0    0  501    0  0.00000000000E+00  0.00000000000E+00  0.26118822006E+04  0.26118822006E+04  0.50400001928E-02 0. -1.
       -1   -1    0    0    0  501  0.00000000000E+00  0.00000000000E+00 -0.64717384101E+03  0.64717384103E+03  0.50400001928E-02 0.  1.
    10030    2    1    2    0    0  0.00000000000E+00  0.00000000000E+00  0.19647083596E+04  0.32590560416E+04  0.26002629375E+04 0.  0.
        1    1    3    3  502    0 -0.22569927057E+03  0.10733001224E+04  0.10730989604E+03  0.11020112192E+04  0.50400001928E-02 0.  1.
       -1    1    3    3    0  502  0.22569927057E+03 -0.10733001224E+04  0.18573984635E+04  0.21570448224E+04  0.50400001928E-02 0. -1.
</event>
<event>
 5   0  0.4361864E-06  0.2611513E+04  0.7818609E-02  0.8364301E-01
        1   -1    0    0  501    0  0.00000000000E+00  0.00000000000E+00  0.77513805411E+03  0.77513805413E+03  0.50400001928E-02 0. -1.
       -1   -1    0    0    0  501  0.00000000000E+00  0.00000000000E+00 -0.21996080451E+04  0.21996080451E+04  0.50400001928E-02 0.  1.
    10030    2    1    2    0    0  0.00000000000E+00  0.00000000000E+00 -0.14244699910E+04  0.29747460992E+04  0.26115128948E+04 0.  0.
        3    1    3    3  502    0  0.12395822514E+04 -0.22467516935E+03 -0.32101664250E+03  0.13000364551E+04  0.10100000352E+00 0. -1.
       -3    1    3    3    0  502 -0.12395822514E+04  0.22467516935E+03 -0.11034533485E+04  0.16747096441E+04  0.10100000352E+00 0.  1.
</event>
<event>
 5   0  0.1085255E-05  0.2588575E+04  0.7818609E-02  0.8372092E-01
       -2   -1    0    0    0  501  0.00000000000E+00  0.00000000000E+00  0.10653172464E+04  0.10653172464E+04  0.25500000920E-02 0. -1.
        2   -1    0    0  501    0  0.00000000000E+00  0.00000000000E+00 -0.15724709422E+04  0.15724709422E+04  0.25500000920E-02 0.  1.
    10030    2    1    2    0    0  0.00000000000E+00  0.00000000000E+00 -0.50715369581E+03  0.26377881887E+04  0.25885752176E+04 0.  0.
        5    1    3    3  502    0  0.95213504320E+03 -0.78497475192E+03  0.14424484262E+03  0.12424070051E+04  0.46999998093E+01 0. -1.
       -5    1    3    3    0  502 -0.95213504320E+03  0.78497475192E+03 -0.65139853843E+03  0.13953811836E+04  0.46999998093E+01 0.  1.
</event>
<event>
 5   0  0.4464297E-06  0.2586020E+04  0.7818609E-02  0.8372966E-01
       -1   -1    0    0    0  501  0.00000000000E+00  0.00000000000E+00  0.92373781098E+03  0.92373781100E+03  0.50400001928E-02 0.  1.
        1   -1    0    0  501    0  0.00000000000E+00  0.00000000000E+00 -0.18099012653E+04  0.18099012654E+04  0.50400001928E-02 0. -1.
    10030    2    1    2    0    0  0.00000000000E+00  0.00000000000E+00 -0.88616345436E+03  0.27336390764E+04  0.25860195150E+04 0.  0.
        4    1    3    3  502    0  0.38482622010E+03 -0.95014414802E+03 -0.12761062722E+04  0.16368610059E+04  0.12699999809E+01 0. -1.
       -4    1    3    3    0  502 -0.38482622010E+03  0.95014414802E+03  0.38994281789E+03  0.10967780704E+04  0.12699999809E+01 0.  1.
</event>
<event>
 5   0  0.4218590E-06  0.2583673E+04  0.7818609E-02  0.8373768E-01
        1   -1    0    0  501    0  0.00000000000E+00  0.00000000000E+00  0.17168423019E+04  0.17168423019E+04  0.50400001928E-02 0. -1.
       -1   -1    0    0    0  501  0.00000000000E+00  0.00000000000E+00 -0.97204135742E+03  0.97204135743E+03  0.50400001928E-02 0.  1.
    10030    2    1    2    0    0  0.00000000000E+00  0.00000000000E+00  0.74480094448E+03  0.26888836593E+04  0.25836731385E+04 0.  0.
        1    1    3    3  502    0 -0.10079623207E+03  0.97238597876E+03 -0.50646839023E+03  0.11010016360E+04  0.50400001928E-02 0.  1.
       -1    1    3    3    0  502  0.10079623207E+03 -0.97238597876E+03  0.12512693347E+04  0.15878820234E+04  0.50400001928E-02 0. -1.
</event>
<event>
 5   0  0.4361864E-06  0.2603935E+04  0.7818609E-02  0.8366866E-01
        1   -1    0    0  501    0  0.00000000000E+00  0.00000000000E+00  0.19024717867E+04  0.19024717867E+04  0.50400001928E-02 0.  1.
       -1   -1    0    0    0  501  0.00000000000E+00  0.00000000000E+00 -0.89100918382E+03  0.89100918384E+03  0.50400001928E-02 0. -1.
    10030    2    1    2    0    0  0.00000000000E+00  0.00000000000E+00  0.10114626028E+04  0.27934809705E+04  0.26039353555E+04 0.  0.
        3    1    3    3  502    0 -0.25944519409E+03  0.10958368407E+04 -0.19524581640E+03  0.11429309381E+04  0.10100000352E+00 0. -1.
       -3    1    3    3    0  502  0.25944519409E+03 -0.10958368407E+04  0.12067084192E+04  0.16505500324E+04  0.10100000352E+00 0.  1.
</event>
<event>
 5   0  0.1085255E-05  0.2607623E+04  0.7818609E-02  0.8365617E-01
        2   -1    0    0  501    0  0.00000000000E+00  0.00000000000E+00  0.10316772978E+04  0.10316772978E+04  0.25500000920E-02 0. -1.
       -2   -1    0    0    0  501  0.00000000000E+00  0.00000000000E+00 -0.16477284755E+04  0.16477284755E+04  0.25500000920E-02 0.  1.
    10030    2    1    2    0    0  0.00000000000E+00  0.00000000000E+00 -0.61605117769E+03  0.26794057733E+04  0.26076227190E+04 0.  0.
        5    1    3    3  502    0  0.12652162089E+04 -0.17954810385E+03 -0.57378099191E+03  0.14008055874E+04  0.46999998093E+01 0. -1.
       -5    1    3    3    0  502 -0.12652162089E+04  0.17954810385E+03 -0.42270185785E+02  0.12786001860E+04  0.46999998093E+01 0.  1.
</event>
<event>
 5   0  0.1116310E-05  0.2594894E+04  0.7818609E-02  0.8369938E-01
       -2   -1    0    0    0  501  0.00000000000E+00  0.00000000000E+00  0.23683298802E+04  0.23683298802E+04  0.25500000920E-02 0.  1.
        2   -1    0    0  501    0  0.00000000000E+00  0.00000000000E+00 -0.71078325789E+03  0.71078325790E+03  0.25500000920E-02 0. -1.
    10030    2    1    2    0    0  0.00000000000E+00  0.00000000000E+00  0.16575466223E+04  0.30791131381E+04  0.25948943933E+04 0.  0.
        4    1    3    3  502    0 -0.76922428649E+03 -0.51887750477E+03 -0.24733215204E+03  0.96026802207E+03  0.12699999809E+01 0. -1.
       -4    1    3    3    0  502  0.76922428649E+03  0.51887750477E+03  0.19048787744E+04  0.21188451161E+04  0.12699999809E+01 0.  1.
</event>
<event>
 5   0  0.4597705E-06  0.2599429E+04  0.7818609E-02  0.8368395E-01
       -1   -1    0    0    0  501  0.00000000000E+00  0.00000000000E+00  0.15234807635E+04  0.15234807635E+04  0.50400001928E-02 0.  1.
        1   -1    0    0  501    0  0.00000000000E+00  0.00000000000E+00 -0.11088148082E+04  0.11088148082E+04  0.50400001928E-02 0. -1.
    10030    2    1    2    0    0  0.00000000000E+00  0.00000000000E+00  0.41466595526E+03  0.26322955717E+04  0.25994291917E+04 0.  0.
        5    1    3    3  502    0  0.14472289323E+03 -0.20171465799E+03  0.14992387094E+04  0.15196619087E+04  0.46999998093E+01 0.  1.
       -5    1    3    3    0  502 -0.14472289323E+03  0.20171465799E+03 -0.10845727541E+04  0.11126336630E+04  0.46999998093E+01 0. -1.
</event>
<event>
 5   0  0.1116310E-05  0.2384387E+04  0.7818609E-02  0.8445372E-01
       -2   -1    0    0    0  501  0.00000000000E+00  0.00000000000E+00  0.85764370332E+03  0.85764370332E+03  0.25500000920E-02 0. -1.
        2   -1    0    0  501    0  0.00000000000E+00  0.00000000000E+00 -0.16572439474E+04  0.16572439474E+04  0.25500000920E-02 0.  1.
    10030    2    1    2    0    0  0.00000000000E+00  0.00000000000E+00 -0.79960024405E+03  0.25148876507E+04  0.23843865763E+04 0.  0.
        4    1    3    3  502    0 -0.31922199990E+03  0.10341115319E+04 -0.92720160710E+03  0.14251293902E+04  0.12699999809E+01 0.  1.
       -4    1    3    3    0  502  0.31922199990E+03 -0.10341115319E+04  0.12760136304E+03  0.10897582605E+04  0.12699999809E+01 0. -1.
</event>
<event>
 5   0  0.4361864E-06  0.2529196E+04  0.7818609E-02  0.8392657E-01
        1   -1    0    0  501    0  0.00000000000E+00  0.00000000000E+00  0.34647118617E+04  0.34647118617E+04  0.50400001928E-02 0. -1.
       -1   -1    0    0    0  501  0.00000000000E+00  0.00000000000E+00 -0.46157037840E+03  0.46157037843E+03  0.50400001928E-02 0.  1.
    10030    2    1    2    0    0  0.00000000000E+00  0.00000000000E+00  0.30031414833E+04  0.39262822402E+04  0.25291962084E+04 0.  0.
        3    1    3    3  502    0  0.17224979732E+03  0.11903968763E+04  0.89535828249E+03  0.14994602962E+04  0.10100000352E+00 0.  1.
       -3    1    3    3    0  502 -0.17224979732E+03 -0.11903968763E+04  0.21077832008E+04  0.24268219439E+04  0.10100000352E+00 0. -1.
</event>
<event>
 5   0  0.1086507E-05  0.2608906E+04  0.7818609E-02  0.8365182E-01
       -2   -1    0    0    0  501  0.00000000000E+00  0.00000000000E+00  0.12477073532E+04  0.12477073532E+04  0.25500000920E-02 0.  1.
        2   -1    0    0  501    0  0.00000000000E+00  0.00000000000E+00 -0.13637797615E+04  0.13637797615E+04  0.25500000920E-02 0. -1.
    10030    2    1    2    0    0  0.00000000000E+00  0.00000000000E+00 -0.11607240829E+03  0.26114871147E+04  0.26089063123E+04 0.  0.
        2    1    3    3  502    0  0.77842039285E+03  0.68203859541E+03  0.73677892063E+03  0.12704165189E+04  0.25500000920E-02 0.  1.
       -2    1    3    3    0  502 -0.77842039285E+03 -0.68203859541E+03 -0.85285132892E+03  0.13410705958E+04  0.25500000920E-02 0. -1.
</event>
<event>
 5   0  0.1085061E-05  0.2616371E+04  0.7818609E-02  0.8362662E-01
        2   -1    0    0  501    0  0.00000000000E+00  0.00000000000E+00  0.11262272937E+04  0.11262272937E+04  0.25500000920E-02 0.  1.
       -2   -1    0    0    0  501  0.00000000000E+00  0.00000000000E+00 -0.15195413798E+04  0.15195413798E+04  0.25500000920E-02 0. -1.
    10030    2    1    2    0    0  0.00000000000E+00  0.00000000000E+00 -0.39331408617E+03  0.26457686735E+04  0.26163707503E+04 0.  0.
        1    1    3    3  502    0 -0.13801319300E+03  0.11881257515E+04  0.33906770593E+03  0.12432446871E+04  0.50400001928E-02 0.  1.
       -1    1    3    3    0  502  0.13801319300E+03 -0.11881257515E+04 -0.73238179210E+03  0.14025239864E+04  0.50400001928E-02 0. -1.
</event>
<event>
 5   0  0.4464297E-06  0.2273817E+04  0.7818609E-02  0.8488317E-01
       -1   -1    0    0    0  501  0.00000000000E+00  0.00000000000E+00  0.62981944923E+03  0.62981944925E+03  0.50400001928E-02 0.  1.
        1   -1    0    0  501    0  0.00000000000E+00  0.00000000000E+00 -0.20522713802E+04  0.20522713802E+04  0.50400001928E-02 0. -1.
    10030    2    1    2    0    0  0.00000000000E+00  0.00000000000E+00 -0.14224519309E+04  0.26820908294E+04  0.22738165540E+04 0.  0.
        4    1    3    3  502    0 -0.10037868595E+04  0.29166224742E+03 -0.18383986237E+03  0.10613452001E+04  0.12699999809E+01 0.  1.
       -4    1    3    3    0  502  0.10037868595E+04 -0.29166224742E+03 -0.12386120686E+04  0.16207456294E+04  0.12699999809E+01 0. -1.
</event>
<event>
 5   0  0.1085061E-05  0.2591340E+04  0.7818609E-02  0.8371149E-01
       -2   -1    0    0    0  501  0.00000000000E+00  0.00000000000E+00  0.20012907461E+04  0.20012907461E+04  0.25500000920E-02 0.  1.
        2   -1    0    0  501    0  0.00000000000E+00  0.00000000000E+00 -0.83883926999E+03  0.83883927000E+03  0.25500000920E-02 0. -1.
    10030    2    1    2    0    0  0.00000000000E+00  0.00000000000E+00  0.11624514761E+04  0.28401300161E+04  0.25913404010E+04 0.  0.
        1    1    3    3  502    0 -0.74060000128E+03  0.76701718258E+03 -0.22563092604E+03  0.10898224787E+04  0.50400001928E-02 0. -1.
       -1    1    3    3    0  502  0.74060000128E+03 -0.76701718258E+03  0.13880824021E+04  0.17503075374E+04  0.50400001928E-02 0.  1.
</event>
<event>
 5   0  0.4415080E-06  0.2597438E+04  0.7818609E-02  0.8369072E-01
        1   -1    0    0  501    0  0.00000000000E+00  0.00000000000E+00  0.20266599190E+04  0.20266599190E+04  0.50400001928E-02 0. -1.
       -1   -1    0    0    0  501  0.00000000000E+00  0.00000000000E+00 -0.83224167110E+03  0.83224167112E+03  0.50400001928E-02 0.  1.
    10030    2    1    2    0    0  0.00000000000E+00  0.00000000000E+00  0.11944182479E+04  0.28589015901E+04  0.25974378435E+04 0.  0.
        2    1    3    3  502    0 -0.49576963631E+03 -0.85832326277E+03 -0.32640613718E+03  0.10435743012E+04  0.25500000920E-02 0.  1.
       -2    1    3    3    0  502  0.49576963631E+03  0.85832326277E+03  0.15208243850E+04  0.18153272889E+04  0.25500000920E-02 0. -1.
</event>
<event>
 5   0  0.1116310E-05  0.2597074E+04  0.7818609E-02  0.8369196E-01
       -2   -1    0    0    0  501  0.00000000000E+00  0.00000000000E+00  0.12153240607E+04  0.12153240607E+04  0.25500000920E-02 0.  1.
        2   -1    0    0  501    0  0.00000000000E+00  0.00000000000E+00 -0.13874471218E+04  0.13874471218E+04  0.25500000920E-02 0. -1.
    10030    2    1    2    0    0  0.00000000000E+00  0.00000000000E+00 -0.17212306110E+03  0.26027711825E+04  0.25970736379E+04 0.  0.
        4    1    3    3  502    0  0.72817774793E+03  0.29371647783E+03  0.95046276679E+03  0.12328395215E+04  0.12699999809E+01 0.  1.
       -4    1    3    3    0  502 -0.72817774793E+03 -0.29371647783E+03 -0.11225858279E+04  0.13699316610E+04  0.12699999809E+01 0. -1.
</event>
<event>
 5   0  0.1136881E-05  0.2651551E+04  0.7818609E-02  0.8350898E-01
       -2   -1    0    0    0  501  0.00000000000E+00  0.00000000000E+00  0.23289683890E+04  0.23289683890E+04  0.25500000920E-02 0. -1.
        2   -1    0    0  501    0  0.00000000000E+00  0.00000000000E+00 -0.75470334986E+03  0.75470334986E+03  0.25500000920E-02 0.  1.
    10030    2    1    2    0    0  0.00000000000E+00  0.00000000000E+00  0.15742650391E+04  0.30836717389E+04  0.26515506745E+04 0.  0.
        3    1    3    3  502    0  0.11656568366E+04 -0.41621156435E+03  0.23463976421E+03  0.12597792490E+04  0.10100000352E+00 0.  1.
       -3    1    3    3    0  502 -0.11656568366E+04  0.41621156435E+03  0.13396252749E+04  0.18238924899E+04  0.10100000352E+00 0. -1.
</event>
<event>
 5   0  0.4415080E-06  0.2597317E+04  0.7818609E-02  0.8369113E-01
       -1   -1    0    0    0  501  0.00000000000E+00  0.00000000000E+00  0.88508489741E+03  0.88508489742E+03  0.50400001928E-02 0.  1.
        1   -1    0    0  501    0  0.00000000000E+00  0.00000000000E+00 -0.19054829739E+04  0.19054829739E+04  0.50400001928E-02 0. -1.
    10030    2    1    2    0    0  0.00000000000E+00  0.00000000000E+00 -0.10203980765E+04  0.27905678713E+04  0.25973172332E+04 0.  0.
        2    1    3    3  502    0 -0.83583539871E+03  0.82640444709E+02  0.55398379892E+03  0.10061552098E+04  0.25500000920E-02 0.  1.
       -2    1    3    3    0  502  0.83583539871E+03 -0.82640444709E+02 -0.15743818754E+04  0.17844126615E+04  0.25500000920E-02 0. -1.
</event>
<event>
 5   0  0.4464297E-06  0.2602224E+04  0.7818609E-02  0.8367446E-01
        1   -1    0    0  501    0  0.00000000000E+00  0.00000000000E+00  0.23326985148E+04  0.23326985148E+04  0.50400001928E-02 0. -1.
       -1   -1    0    0    0  501  0.00000000000E+00  0.00000000000E+00 -0.72572269525E+03  0.72572269527E+03  0.50400001928E-02 0.  1.
    10030    2    1    2    0    0  0.00000000000E+00  0.00000000000E+00  0.16069758195E+04  0.30584212100E+04  0.26022238592E+04 0.  0.
        4    1    3    3  502    0  0.88573369193E+02 -0.47426587141E+03  0.22236781147E+04  0.22754162980E+04  0.12699999809E+01 0. -1.
       -4    1    3    3    0  502 -0.88573369193E+02  0.47426587141E+03 -0.61670229518E+03  0.78300491205E+03  0.12699999809E+01 0.  1.
</event>
<event>
 5   0  0.4361864E-06  0.2587805E+04  0.7818609E-02  0.8372355E-01
       -1   -1    0    0    0  501  0.00000000000E+00  0.00000000000E+00  0.14281493389E+04  0.14281493389E+04  0.50400001928E-02 0. -1.
        1   -1    0    0  501    0  0.00000000000E+00  0.00000000000E+00 -0.11722749075E+04  0.11722749075E+04  0.50400001928E-02 0.  1.
    10030    2    1    2    0    0  0.00000000000E+00  0.00000000000E+00  0.25587443135E+03  0.26004242464E+04  0.25878049649E+04 0.  0.
        3    1    3    3  502    0 -0.42149083018E+03 -0.15450946043E+03 -0.10915108534E+04  0.11802218633E+04  0.10100000352E+00 0.  1.
       -3    1    3    3    0  502  0.42149083018E+03  0.15450946043E+03  0.13473852847E+04  0.14202023831E+04  0.10100000352E+00 0. -1.
</event>
<event>
 5   0  0.4361864E-06  0.2597083E+04  0.7818609E-02  0.8369193E-01
       -1   -1    0    0    0  501  0.00000000000E+00  0.00000000000E+00  0.15519403537E+04  0.15519403537E+04  0.50400001928E-02 0. -1.
        1   -1    0    0  501    0  0.00000000000E+00  0.00000000000E+00 -0.10865176427E+04  0.10865176428E+04  0.50400001928E-02 0.  1.
    10030    2    1    2    0    0  0.00000000000E+00  0.00000000000E+00  0.46542271091E+03  0.26384579964E+04  0.25970834217E+04 0.  0.
        3    1    3    3  502    0 -0.60006940641E+03  0.53537060628E+03  0.12685156289E+04  0.15019443697E+04  0.10100000352E+00 0. -1.
       -3    1    3    3    0  502  0.60006940641E+03 -0.53537060628E+03 -0.80309291802E+03  0.11365136267E+04  0.10100000352E+00 0.  1.
</event>
<event>
 5   0  0.1136881E-05  0.2607407E+04  0.7818609E-02  0.8365689E-01
       -2   -1    0    0    0  501  0.00000000000E+00  0.00000000000E+00  0.80431288235E+03  0.80431288235E+03  0.25500000920E-02 0.  1.
        2   -1    0    0  501    0  0.00000000000E+00  0.00000000000E+00 -0.21131616488E+04  0.21131616488E+04  0.25500000920E-02 0. -1.
    10030    2    1    2    0    0  0.00000000000E+00  0.00000000000E+00 -0.13088487665E+04  0.29174745312E+04  0.26074072460E+04 0.  0.
        3    1    3    3  502    0 -0.12087089080E+04 -0.10012499105E+03 -0.11894507126E+04  0.16987628575E+04  0.10100000352E+00 0. -1.
       -3    1    3    3    0  502  0.12087089080E+04  0.10012499105E+03 -0.11939805387E+03  0.12187116737E+04  0.10100000352E+00 0.  1.
</event>
<event>
 5   0  0.1085255E-05  0.2599725E+04  0.7818609E-02  0.8368295E-01
        2   -1    0    0  501    0  0.00000000000E+00  0.00000000000E+00  0.83515759799E+03  0.83515759800E+03  0.25500000920E-02 0.  1.
       -2   -1    0    0    0  501  0.00000000000E+00  0.00000000000E+00 -0.20231421406E+04  0.20231421406E+04  0.25500000920E-02 0. -1.
    10030    2    1    2    0    0  0.00000000000E+00  0.00000000000E+00 -0.11879845426E+04  0.28582997386E+04  0.25997250090E+04 0.  0.
        5    1    3    3  502    0 -0.51193298434E+03 -0.49858767371E+03 -0.17877853153E+04  0.19253216543E+04  0.46999998093E+01 0. -1.
       -5    1    3    3    0  502  0.51193298434E+03  0.49858767371E+03  0.59980077272E+03  0.93297808430E+03  0.46999998093E+01 0.  1.
</event>
<event>
 5   0  0.1086507E-05  0.2529938E+04  0.7818609E-02  0.8392397E-01
        2   -1    0    0  501    0  0.00000000000E+00  0.00000000000E+00  0.15344340260E+04  0.15344340260E+04  0.25500000920E-02 0.  1.
       -2   -1    0    0    0  501  0.00000000000E+00  0.00000000000E+00 -0.10428249108E+04  0.10428249108E+04  0.25500000920E-02 0. -1.
    10030    2    1    2    0    0  0.00000000000E+00  0.00000000000E+00  0.49160911517E+03  0.25772589368E+04  0.25299375694E+04 0.  0.
        2    1    3    3  502    0 -0.96942043579E+03 -0.17869115268E+03  0.10533742150E+04  0.14426724320E+04  0.25500000920E-02 0.  1.
       -2    1    3    3    0  502  0.96942043579E+03  0.17869115268E+03 -0.56176509979E+03  0.11345865047E+04  0.25500000920E-02 0. -1.
</event>
<event>
 5   0  0.4218590E-06  0.2586727E+04  0.7818609E-02  0.8372724E-01
        1   -1    0    0  501    0  0.00000000000E+00  0.00000000000E+00  0.23003165009E+04  0.23003165009E+04  0.50400001928E-02 0.  1.
       -1   -1    0    0    0  501  0.00000000000E+00  0.00000000000E+00 -0.72719931521E+03  0.72719931523E+03  0.50400001928E-02 0. -1.
    10030    2    1    2    0    0  0.00000000000E+00  0.00000000000E+00  0.15731171856E+04  0.30275158161E+04  0.25867265679E+04 0.  0.
        1    1    3    3  502    0  0.87728630724E+03  0.85955299966E+03  0.31211019309E+03  0.12672313904E+04  0.50400001928E-02 0. -1.
       -1    1    3    3    0  502 -0.87728630724E+03 -0.85955299966E+03  0.12610069925E+04  0.17602844257E+04  0.50400001928E-02 0.  1.
</event>
<event>
 5   0  0.1086507E-05  0.2546704E+04  0.7818609E-02  0.8386533E-01
       -2   -1    0    0    0  501  0.00000000000E+00  0.00000000000E+00  0.12800570282E+04  0.12800570282E+04  0.25500000920E-02 0. -1.
        2   -1    0    0  501    0  0.00000000000E+00  0.00000000000E+00 -0.12666818552E+04  0.12666818552E+04  0.25500000920E-02 0.  1.
    10030    2    1    2    0    0  0.00000000000E+00  0.00000000000E+00  0.13375172996E+02  0.25467388834E+04  0.25467037607E+04 0.  0.
        2    1    3    3  502    0 -0.29428366315E+03 -0.10126755309E+04  0.72035729600E+03  0.12771175510E+04  0.25500000920E-02 0. -1.
       -2    1    3    3    0  502  0.29428366315E+03  0.10126755309E+04 -0.70698212301E+03  0.12696213323E+04  0.25500000920E-02 0.  1.
</event>
<event>
 5   0  0.4218590E-06  0.2613515E+04  0.7818609E-02  0.8363625E-01
        1   -1    0    0  501    0  0.00000000000E+00  0.00000000000E+00  0.26783438899E+04  0.26783438899E+04  0.50400001928E-02 0.  1.
       -1   -1    0    0    0  501  0.00000000000E+00  0.00000000000E+00 -0.63756381121E+03  0.63756381123E+03  0.50400001928E-02 0. -1.
    10030    2    1    2    0    0  0.00000000000E+00  0.00000000000E+00  0.20407800787E+04  0.33159077011E+04  0.26135149804E+04 0.  0.
        1    1    3    3  502    0 -0.29607143621E+02 -0.12872428301E+04  0.13033661437E+04  0.18321118938E+04  0.50400001928E-02 0. -1.
       -1    1    3    3    0  502  0.29607143621E+02  0.12872428301E+04  0.73741393495E+03  0.14837958074E+04  0.50400001928E-02 0.  1.
</event>
<event>
 5   0  0.4597705E-06  0.2616993E+04  0.7818609E-02  0.8362452E-01
       -1   -1    0    0    0  501  0.00000000000E+00  0.00000000000E+00  0.73715953719E+03  0.73715953721E+03  0.50400001928E-02 0.  1.
        1   -1    0    0  501    0  0.00000000000E+00  0.00000000000E+00 -0.23226490804E+04  0.23226490804E+04  0.50400001928E-02 0. -1.
    10030    2    1    2    0    0  0.00000000000E+00  0.00000000000E+00 -0.15854895432E+04  0.30598086176E+04  0.26169928706E+04 0.  0.
        5    1    3    3  502    0 -0.53063268231E+03 -0.69292694111E+03 -0.19326007302E+04  0.21205391912E+04  0.46999998093E+01 0. -1.
       -5    1    3    3    0  502  0.53063268231E+03  0.69292694111E+03  0.34711118696E+03  0.93926942640E+03  0.46999998093E+01 0.  1.
</event>
<event>
 5   0  0.1116310E-05  0.2558932E+04  0.7818609E-02  0.8382287E-01
       -2   -1    0    0    0  501  0.00000000000E+00  0.00000000000E+00  0.83622778062E+03  0.83622778062E+03  0.25500000920E-02 0.  1.
        2   -1    0    0  501    0  0.00000000000E+00  0.00000000000E+00 -0.19576397090E+04  0.19576397090E+04  0.25500000920E-02 0. -1.
    10030    2    1    2    0    0  0.00000000000E+00  0.00000000000E+00 -0.11214119283E+04  0.27938674896E+04  0.25589315810E+04 0.  0.
        4    1    3    3  502    0  0.23264643786E+03  0.12119539651E+03 -0.19279637448E+04  0.19457282707E+04  0.12699999809E+01 0. -1.
       -4    1    3    3    0  502 -0.23264643786E+03 -0.12119539651E+03  0.80655181643E+03  0.84813921892E+03  0.12699999809E+01 0.  1.
</event>
<event>
 5   0  0.4361864E-06  0.2615935E+04  0.7818609E-02  0.8362809E-01
       -1   -1    0    0    0  501  0.00000000000E+00  0.00000000000E+00  0.14107177337E+04  0.14107177337E+04  0.50400001928E-02 0.  1.
        1   -1    0    0  501    0  0.00000000000E+00  0.00000000000E+00 -0.12127008680E+04  0.12127008681E+04  0.50400001928E-02 0. -1.
    10030    2    1    2    0    0  0.00000000000E+00  0.00000000000E+00  0.19801686563E+03  0.26234186017E+04  0.26159347241E+04 0.  0.
        3    1    3    3  502    0 -0.60116923625E+03  0.30997107338E+03  0.12217164935E+04  0.13964518315E+04  0.10100000352E+00 0.  1.
       -3    1    3    3    0  502  0.60116923625E+03 -0.30997107338E+03 -0.10236996279E+04  0.12269667702E+04  0.10100000352E+00 0. -1.
</event>
<event>
 5   0  0.3705250E-06  0.2575974E+04  0.7818609E-02  0.8376408E-01
        3   -1    0    0  501    0  0.00000000000E+00  0.00000000000E+00  0.10091459426E+04  0.10091459476E+04  0.10100000352E+00 0.  1.
       -3   -1    0    0    0  501  0.00000000000E+00  0.00000000000E+00 -0.16438754501E+04  0.16438754532E+04  0.10100000352E+00 0. -1.
    10030    2    1    2    0    0  0.00000000000E+00  0.00000000000E+00 -0.63472950750E+03  0.26530214008E+04  0.25759737975E+04 0.  0.
        3    1    3    3  502    0  0.86303424247E+03 -0.46205406907E+03  0.54468178695E+03  0.11202679705E+04  0.10100000352E+00 0.  1.
       -3    1    3    3    0  502 -0.86303424247E+03  0.46205406907E+03 -0.11794112944E+04  0.15327534303E+04  0.10100000352E+00 0. -1.
</event>
<event>
 5   0  0.4218590E-06  0.2601667E+04  0.7818609E-02  0.8367635E-01
        1   -1    0    0  501    0  0.00000000000E+00  0.00000000000E+00  0.67873453481E+03  0.67873453483E+03  0.50400001928E-02 0. -1.
       -1   -1    0    0    0  501  0.00000000000E+00  0.00000000000E+00 -0.24931223180E+04  0.24931223180E+04  0.50400001928E-02 0.  1.
    10030    2    1    2    0    0  0.00000000000E+00  0.00000000000E+00 -0.18143877831E+04  0.31718568528E+04  0.26016673244E+04 0.  0.
        1    1    3    3  502    0  0.66738342570E+03  0.98816107242E+03 -0.15410476606E+04  0.19485099010E+04  0.50400001928E-02 0. -1.
       -1    1    3    3    0  502 -0.66738342570E+03 -0.98816107242E+03 -0.27334012257E+03  0.12233469518E+04  0.50400001928E-02 0.  1.
</event>
<event>
 5   0  0.4415080E-06  0.2604969E+04  0.7818609E-02  0.8366515E-01
       -1   -1    0    0    0  501  0.00000000000E+00  0.00000000000E+00  0.84825353197E+03  0.84825353198E+03  0.50400001928E-02 0. -1.
        1   -1    0    0  501    0  0.00000000000E+00  0.00000000000E+00 -0.19999520448E+04  0.19999520448E+04  0.50400001928E-02 0.  1.
    10030    2    1    2    0    0  0.00000000000E+00  0.00000000000E+00 -0.11516985128E+04  0.28482055768E+04  0.26049693939E+04 0.  0.
        2    1    3    3  502    0 -0.30329016125E+03  0.12413232358E+04 -0.85158352083E+03  0.15355985122E+04  0.25500000920E-02 0. -1.
       -2    1    3    3    0  502  0.30329016125E+03 -0.12413232358E+04 -0.30011499197E+03  0.13126070646E+04  0.25500000920E-02 0.  1.
</event>
<event>
 5   0  0.4464297E-06  0.2624648E+04  0.7818609E-02  0.8359877E-01
       -1   -1    0    0    0  501  0.00000000000E+00  0.00000000000E+00  0.11907962774E+04  0.11907962774E+04  0.50400001928E-02 0. -1.
        1   -1    0    0  501    0  0.00000000000E+00  0.00000000000E+00 -0.14462541563E+04  0.14462541563E+04  0.50400001928E-02 0.  1.
    10030    2    1    2    0    0  0.00000000000E+00  0.00000000000E+00 -0.25545787891E+03  0.26370504337E+04  0.26246478358E+04 0.  0.
        4    1    3    3  502    0  0.21365284529E+03  0.10922109786E+03  0.11685676688E+04  0.11929496201E+04  0.12699999809E+01 0. -1.
       -4    1    3    3    0  502 -0.21365284529E+03 -0.10922109786E+03 -0.14240255477E+04  0.14441008136E+04  0.12699999809E+01 0.  1.
</event>
<event>
 5   0  0.3705250E-06  0.2642964E+04  0.7818609E-02  0.8353752E-01
       -3   -1    0    0    0  501  0.00000000000E+00  0.00000000000E+00  0.16249666502E+04  0.16249666533E+04  0.10100000352E+00 0.  1.
        3   -1    0    0  501    0  0.00000000000E+00  0.00000000000E+00 -0.10746770525E+04  0.10746770572E+04  0.10100000352E+00 0. -1.
    10030    2    1    2    0    0  0.00000000000E+00  0.00000000000E+00  0.55028959770E+03  0.26996437105E+04  0.26429637762E+04 0.  0.
        2    1    3    3  502    0 -0.48859287330E+03 -0.11348689648E+04  0.75387905392E+03  0.14474060215E+04  0.25500000920E-02 0.  1.
       -2    1    3    3    0  502  0.48859287330E+03  0.11348689648E+04 -0.20358945622E+03  0.12522376890E+04  0.25500000920E-02 0. -1.
</event>
<event>
 5   0  0.1085061E-05  0.2581597E+04  0.7818609E-02  0.8374479E-01
       -2   -1    0    0    0  501  0.00000000000E+00  0.00000000000E+00  0.11137371019E+04  0.11137371019E+04  0.25500000920E-02 0. -1.
        2   -1    0    0  501    0  0.00000000000E+00  0.00000000000E+00 -0.14960089820E+04  0.14960089820E+04  0.25500000920E-02 0.  1.
    10030    2    1    2    0    0  0.00000000000E+00  0.00000000000E+00 -0.38227188010E+03  0.26097460838E+04  0.25815969538E+04 0.  0.
        1    1    3    3  502    0 -0.21201793649E+03 -0.83598846312E+03  0.77971721256E+03  0.11626638583E+04  0.50400001928E-02 0. -1.
       -1    1    3    3    0  502  0.21201793649E+03  0.83598846312E+03 -0.11619890927E+04  0.14470822255E+04  0.50400001928E-02 0.  1.
</event>
<event>
 5   0  0.4415080E-06  0.2602885E+04  0.7818609E-02  0.8367222E-01
        1   -1    0    0  501    0  0.00000000000E+00  0.00000000000E+00  0.18167648527E+04  0.18167648527E+04  0.50400001928E-02 0. -1.
       -1   -1    0    0    0  501  0.00000000000E+00  0.00000000000E+00 -0.93229080664E+03  0.93229080666E+03  0.50400001928E-02 0.  1.
    10030    2    1    2    0    0  0.00000000000E+00  0.00000000000E+00  0.88447404605E+03  0.27490556594E+04  0.26028854527E+04 0.  0.
        2    1    3    3  502    0 -0.77223814316E+03 -0.43923041602E+03 -0.56221106298E+03  0.10513593046E+04  0.25500000920E-02 0.  1.
       -2    1    3    3    0  502  0.77223814316E+03  0.43923041602E+03  0.14466851090E+04  0.16976963547E+04  0.25500000920E-02 0. -1.
</event>
<event>
 5   0  0.1136881E-05  0.2565628E+04  0.7818609E-02  0.8379971E-01
       -2   -1    0    0    0  501  0.00000000000E+00  0.00000000000E+00  0.84711552563E+03  0.84711552563E+03  0.25500000920E-02 0. -1.
        2   -1    0    0  501    0  0.00000000000E+00  0.00000000000E+00 -0.19426062743E+04  0.19426062743E+04  0.25500000920E-02 0.  1.
    10030    2    1    2    0    0  0.00000000000E+00  0.00000000000E+00 -0.10954907487E+04  0.27897218000E+04  0.25656281376E+04 0.  0.
        3    1    3    3  502    0  0.10715643466E+04  0.31814826278E+03  0.13662851383E+03  0.11261153702E+04  0.10100000352E+00 0. -1.
       -3    1    3    3    0  502 -0.10715643466E+04 -0.31814826278E+03 -0.12321192625E+04  0.16636064298E+04  0.10100000352E+00 0.  1.
</event>
<event>
 5   0  0.4464297E-06  0.2640262E+04  0.7818609E-02  0.8354652E-01
        1   -1    0    0  501    0  0.00000000000E+00  0.00000000000E+00  0.17288504293E+04  0.17288504293E+04  0.50400001928E-02 0.  1.
       -1   -1    0    0    0  501  0.00000000000E+00  0.00000000000E+00 -0.10080370752E+04  0.10080370752E+04  0.50400001928E-02 0. -1.
    10030    2    1    2    0    0  0.00000000000E+00  0.00000000000E+00  0.72081335414E+03  0.27368875045E+04  0.26402616009E+04 0.  0.
        4    1    3    3  502    0  0.48744314492E+02 -0.83961993399E+03 -0.69438171509E+03  0.10906444063E+04  0.12699999809E+01 0. -1.
       -4    1    3    3    0  502 -0.48744314492E+02  0.83961993399E+03  0.14151950692E+04  0.16462430983E+04  0.12699999809E+01 0.  1.
</event>
<event>
 5   0  0.1085061E-05  0.2593377E+04  0.7818609E-02  0.8370454E-01
       -2   -1    0    0    0  501  0.00000000000E+00  0.00000000000E+00  0.14264112983E+04  0.14264112983E+04  0.25500000920E-02 0. -1.
        2   -1    0    0  501    0  0.00000000000E+00  0.00000000000E+00 -0.11787634946E+04  0.11787634946E+04  0.25500000920E-02 0.  1.
    10030    2    1    2    0    0  0.00000000000E+00  0.00000000000E+00  0.24764780377E+03  0.26051747929E+04  0.25933773861E+04 0.  0.
        1    1    3    3  502    0  0.65093641177E+03 -0.10838302139E+04 -0.16557589148E+03  0.12750770645E+04  0.50400001928E-02 0.  1.
       -1    1    3    3    0  502 -0.65093641177E+03  0.10838302139E+04  0.41322369525E+03  0.13300977284E+04  0.50400001928E-02 0. -1.
</event>
<event>
 5   0  0.4361864E-06  0.2576601E+04  0.7818609E-02  0.8376193E-01
       -1   -1    0    0    0  501  0.00000000000E+00  0.00000000000E+00  0.66673597848E+03  0.66673597850E+03  0.50400001928E-02 0.  1.
        1   -1    0    0  501    0  0.00000000000E+00  0.00000000000E+00 -0.24893178601E+04  0.24893178601E+04  0.50400001928E-02 0. -1.
    10030    2    1    2    0    0  0.00000000000E+00  0.00000000000E+00 -0.18225818817E+04  0.31560538386E+04  0.25766006903E+04 0.  0.
        3    1    3    3  502    0  0.10250340478E+04  0.69507055919E+03 -0.47667069244E+03  0.13270391255E+04  0.10100000352E+00 0. -1.
       -3    1    3    3    0  502 -0.10250340478E+04 -0.69507055919E+03 -0.13459111892E+04  0.18290147131E+04  0.10100000352E+00 0.  1.
</event>
<event>
 5   0  0.1116310E-05  0.2609755E+04  0.7818609E-02  0.8364895E-01
       -2   -1    0    0    0  501  0.00000000000E+00  0.00000000000E+00  0.74000821347E+03  0.74000821347E+03  0.25500000920E-02 0.  1.
        2   -1    0    0  501    0  0.00000000000E+00  0.00000000000E+00 -0.23009268905E+04  0.23009268905E+04  0.25500000920E-02 0. -1.
    10030    2    1    2    0    0  0.00000000000E+00  0.00000000000E+00 -0.15609186771E+04  0.30409351040E+04  0.26097546226E+04 0.  0.
        4    1    3    3  502    0 -0.32049972203E+01  0.38594554471E+03  0.67197498311E+03  0.77492982025E+03  0.12699999809E+01 0.  1.
       -4    1    3    3    0  502  0.32049972203E+01 -0.38594554471E+03 -0.22328936602E+04  0.22660052838E+04  0.12699999809E+01 0. -1.
</event>
<event>
 5   0  0.1116310E-05  0.2597007E+04  0.7818609E-02  0.8369219E-01
       -2   -1    0    0    0  501  0.00000000000E+00  0.00000000000E+00  0.79122559702E+03  0.79122559703E+03  0.25500000920E-02 0.  1.
        2   -1    0    0  501    0  0.00000000000E+00  0.00000000000E+00 -0.21310117269E+04  0.21310117269E+04  0.25500000920E-02 0. -1.
    10030    2    1    2    0    0  0.00000000000E+00  0.00000000000E+00 -0.13397861299E+04  0.29222373239E+04  0.25970067585E+04 0.  0.
        4    1    3    3  502    0  0.10634359718E+04  0.55131901658E+03 -0.10585985384E+03  0.12025209544E+04  0.12699999809E+01 0. -1.
       -4    1    3    3    0  502 -0.10634359718E+04 -0.55131901658E+03 -0.12339262760E+04  0.17197163696E+04  0.12699999809E+01 0.  1.
</event>
<event>
 5   0  0.1085255E-05  0.2604117E+04  0.7818609E-02  0.8366804E-01
        2   -1    0    0  501    0  0.00000000000E+00  0.00000000000E+00  0.21321801029E+04  0.21321801029E+04  0.25500000920E-02 0.  1.
       -2   -1    0    0    0  501  0.00000000000E+00  0.00000000000E+00 -0.79512814315E+03  0.79512814316E+03  0.25500000920E-02 0. -1.
    10030    2    1    2    0    0  0.00000000000E+00  0.00000000000E+00  0.13370519598E+04  0.29273082461E+04  0.26041170528E+04 0.  0.
        5    1    3    3  502    0  0.46036449115E+03  0.32739018733E+03 -0.65018925010E+03  0.86132917657E+03  0.46999998093E+01 0. -1.
       -5    1    3    3    0  502 -0.46036449115E+03 -0.32739018733E+03  0.19872412099E+04  0.20659790695E+04  0.46999998093E+01 0.  1.
</event>
<event>
 5   0  0.1086507E-05  0.2601532E+04  0.7818609E-02  0.8367681E-01
       -2   -1    0    0    0  501  0.00000000000E+00  0.00000000000E+00  0.18976958912E+04  0.18976958912E+04  0.25500000920E-02 0. -1.
        2   -1    0    0  501    0  0.00000000000E+00  0.00000000000E+00 -0.89160373229E+03  0.89160373229E+03  0.25500000920E-02 0.  1.
    10030    2    1    2    0    0  0.00000000000E+00  0.00000000000E+00  0.10060921589E+04  0.27892996235E+04  0.26015324248E+04 0.  0.
        2    1    3    3  502    0 -0.10404966536E+04 -0.13873312902E+03 -0.32058619929E+03  0.10975680746E+04  0.25500000920E-02 0.  1.
       -2    1    3    3    0  502  0.10404966536E+04  0.13873312902E+03  0.13266783582E+04  0.16917315489E+04  0.25500000920E-02 0. -1.
</event>
<event>
 5   0  0.1136881E-05  0.2527711E+04  0.7818609E-02  0.8393179E-01
        2   -1    0    0  501    0  0.00000000000E+00  0.00000000000E+00  0.13095177096E+04  0.13095177096E+04  0.25500000920E-02 0.  1.
       -2   -1    0    0    0  501  0.00000000000E+00  0.00000000000E+00 -0.12197856999E+04  0.12197856999E+04  0.25500000920E-02 0. -1.
    10030    2    1    2    0    0  0.00000000000E+00  0.00000000000E+00  0.89732009725E+02  0.25293034096E+04  0.25277111987E+04 0.  0.
        3    1    3    3  502    0 -0.61596972520E+03 -0.58556670911E+03  0.98088235022E+03  0.12978587243E+04  0.10100000352E+00 0.  1.
       -3    1    3    3    0  502  0.61596972520E+03  0.58556670911E+03 -0.89115034049E+03  0.12314446852E+04  0.10100000352E+00 0. -1.
</event>
<event>
 5   0  0.1136881E-05  0.2471833E+04  0.7818609E-02  0.8413090E-01
       -2   -1    0    0    0  501  0.00000000000E+00  0.00000000000E+00  0.22088578930E+04  0.22088578930E+04  0.25500000920E-02 0.  1.
        2   -1    0    0  501    0  0.00000000000E+00  0.00000000000E+00 -0.69152897954E+03  0.69152897954E+03  0.25500000920E-02 0. -1.
    10030    2    1    2    0    0  0.00000000000E+00  0.00000000000E+00  0.15173289134E+04  0.29003868725E+04  0.24718327166E+04 0.  0.
        3    1    3    3  502    0 -0.14716414235E+01  0.12357643044E+04  0.78134591398E+03  0.14620591743E+04  0.10100000352E+00 0. -1.
       -3    1    3    3    0  502  0.14716414235E+01 -0.12357643044E+04  0.73598299946E+03  0.14383276982E+04  0.10100000352E+00 0.  1.
</event>
<event>
 5   0  0.1086507E-05  0.2596781E+04  0.7818609E-02  0.8369295E-01
        2   -1    0    0  501    0  0.00000000000E+00  0.00000000000E+00  0.20080644780E+04  0.20080644780E+04  0.25500000920E-02 0. -1.
       -2   -1    0    0    0  501  0.00000000000E+00  0.00000000000E+00 -0.83952387053E+03  0.83952387054E+03  0.25500000920E-02 0.  1.
    10030    2    1    2    0    0  0.00000000000E+00  0.00000000000E+00  0.11685406075E+04  0.28475883485E+04  0.25967811327E+04 0.  0.
        2    1    3    3  502    0  0.10582859199E+04 -0.14904766805E+03 -0.22425771130E+03  0.10920054105E+04  0.25500000920E-02 0.  1.
       -2    1    3    3    0  502 -0.10582859199E+04  0.14904766805E+03  0.13927983188E+04  0.17555829380E+04  0.25500000920E-02 0. -1.
</event>
<event>
 5   0  0.3705250E-06  0.2574057E+04  0.7818609E-02  0.8377067E-01
       -4   -1    0    0    0  501  0.00000000000E+00  0.00000000000E+00  0.94668384424E+03  0.94668469610E+03  0.12699999809E+01 0.  1.
        4   -1    0    0  501    0  0.00000000000E+00  0.00000000000E+00 -0.17497300480E+04  0.17497305089E+04  0.12699999809E+01 0. -1.
    10030    2    1    2    0    0  0.00000000000E+00  0.00000000000E+00 -0.80304620378E+03  0.26964152050E+04  0.25740574493E+04 0.  0.
        3    1    3    3  502    0 -0.32532687001E+03  0.41880743207E+03  0.82691240905E+03  0.98235501727E+03  0.10100000352E+00 0.  1.
       -3    1    3    3    0  502  0.32532687001E+03 -0.41880743207E+03 -0.16299586128E+04  0.17140601878E+04  0.10100000352E+00 0. -1.
</event>
<event>
 5   0  0.1136881E-05  0.2496895E+04  0.7818609E-02  0.8404093E-01
        2   -1    0    0  501    0  0.00000000000E+00  0.00000000000E+00  0.11941880910E+04  0.11941880910E+04  0.25500000920E-02 0. -1.
       -2   -1    0    0    0  501  0.00000000000E+00  0.00000000000E+00 -0.13051722526E+04  0.13051722526E+04  0.25500000920E-02 0.  1.
    10030    2    1    2    0    0  0.00000000000E+00  0.00000000000E+00 -0.11098416161E+03  0.24993603436E+04  0.24968950004E+04 0.  0.
        3    1    3    3  502    0 -0.81226214923E+03 -0.88705333958E+03  0.27948400574E+03  0.12348055499E+04  0.10100000352E+00 0.  1.
       -3    1    3    3    0  502  0.81226214923E+03  0.88705333958E+03 -0.39046816736E+03  0.12645547937E+04  0.10100000352E+00 0. -1.
</event>
<event>
 5   0  0.4218590E-06  0.2590302E+04  0.7818609E-02  0.8371503E-01
       -1   -1    0    0    0  501  0.00000000000E+00  0.00000000000E+00  0.68613828778E+03  0.68613828780E+03  0.50400001928E-02 0.  1.
        1   -1    0    0  501    0  0.00000000000E+00  0.00000000000E+00 -0.24447203940E+04  0.24447203940E+04  0.50400001928E-02 0. -1.
    10030    2    1    2    0    0  0.00000000000E+00  0.00000000000E+00 -0.17585821062E+04  0.31308586818E+04  0.25903021177E+04 0.  0.
        1    1    3    3  502    0 -0.72265587248E+03  0.10002458651E+04 -0.13546791744E+04  0.18324516273E+04  0.50400001928E-02 0. -1.
       -1    1    3    3    0  502  0.72265587248E+03 -0.10002458651E+04 -0.40390293174E+03  0.12984070545E+04  0.50400001928E-02 0.  1.
</event>
<event>
 5   0  0.1085061E-05  0.2572968E+04  0.7818609E-02  0.8377442E-01
        2   -1    0    0  501    0  0.00000000000E+00  0.00000000000E+00  0.17722273119E+04  0.17722273119E+04  0.25500000920E-02 0.  1.
       -2   -1    0    0    0  501  0.00000000000E+00  0.00000000000E+00 -0.93387661999E+03  0.93387661999E+03  0.25500000920E-02 0. -1.
    10030    2    1    2    0    0  0.00000000000E+00  0.00000000000E+00  0.83835069189E+03  0.27061039319E+04  0.25729684428E+04 0.  0.
        1    1    3    3  502    0 -0.95773837806E+03 -0.47083524974E+03 -0.33639343431E+03  0.11189768433E+04  0.50400001928E-02 0. -1.
       -1    1    3    3    0  502  0.95773837806E+03  0.47083524974E+03  0.11747441262E+04  0.15871270886E+04  0.50400001928E-02 0.  1.
</event>
<event>
 5   0  0.1086507E-05  0.2580322E+04  0.7818609E-02  0.8374916E-01
        2   -1    0    0  501    0  0.00000000000E+00  0.00000000000E+00  0.11781022110E+04  0.11781022110E+04  0.25500000920E-02 0.  1.
       -2   -1    0    0    0  501  0.00000000000E+00  0.00000000000E+00 -0.14128788913E+04  0.14128788913E+04  0.25500000920E-02 0. -1.
    10030    2    1    2    0    0  0.00000000000E+00  0.00000000000E+00 -0.23477668031E+03  0.25909811024E+04  0.25803222634E+04 0.  0.
        2    1    3    3  502    0  0.21352053888E+03  0.75096476218E+02  0.11580100859E+04  0.11799228196E+04  0.25500000920E-02 0.  1.
       -2    1    3    3    0  502 -0.21352053888E+03 -0.75096476218E+02 -0.13927867662E+04  0.14110582827E+04  0.25500000920E-02 0. -1.
</event>
<event>
 5   0  0.4415080E-06  0.2583111E+04  0.7818609E-02  0.8373961E-01
       -1   -1    0    0    0  501  0.00000000000E+00  0.00000000000E+00  0.67785663866E+03  0.67785663868E+03  0.50400001928E-02 0.  1.
        1   -1    0    0  501    0  0.00000000000E+00  0.00000000000E+00 -0.24608681292E+04  0.24608681292E+04  0.50400001928E-02 0. -1.
    10030    2    1    2    0    0  0.00000000000E+00  0.00000000000E+00 -0.17830114906E+04  0.31387247679E+04  0.25831111461E+04 0.  0.
        2    1    3    3  502    0  0.49294484216E+03 -0.31071005464E+03  0.50906183299E+03  0.77374369483E+03  0.25500000920E-02 0.  1.
       -2    1    3    3    0  502 -0.49294484216E+03  0.31071005464E+03 -0.22920733236E+04  0.23649810731E+04  0.25500000920E-02 0. -1.
</event>
<event>
 5   0  0.1085255E-05  0.2364371E+04  0.7818609E-02  0.8452964E-01
       -2   -1    0    0    0  501  0.00000000000E+00  0.00000000000E+00  0.59290827079E+03  0.59290827080E+03  0.25500000920E-02 0. -1.
        2   -1    0    0  501    0  0.00000000000E+00  0.00000000000E+00 -0.23571317343E+04  0.23571317343E+04  0.25500000920E-02 0.  1.
    10030    2    1    2    0    0  0.00000000000E+00  0.00000000000E+00 -0.17642234635E+04  0.29500400051E+04  0.23643712912E+04 0.  0.
        5    1    3    3  502    0 -0.71034530867E+01  0.10248520820E+04 -0.16172726694E+04  0.19146710491E+04  0.46999998093E+01 0.  1.
       -5    1    3    3    0  502  0.71034530867E+01 -0.10248520820E+04 -0.14695079410E+03  0.10353689560E+04  0.46999998093E+01 0. -1.
</event>
<event>
 5   0  0.4361864E-06  0.2599778E+04  0.7818609E-02  0.8368277E-01
        1   -1    0    0  501    0  0.00000000000E+00  0.00000000000E+00  0.13605444172E+04  0.13605444172E+04  0.50400001928E-02 0. -1.
       -1   -1    0    0    0  501  0.00000000000E+00  0.00000000000E+00 -0.12419378744E+04  0.12419378744E+04  0.50400001928E-02 0.  1.
    10030    2    1    2    0    0  0.00000000000E+00  0.00000000000E+00  0.11860654279E+03  0.26024822916E+04  0.25997781763E+04 0.  0.
        3    1    3    3  502    0 -0.92391008741E+03  0.42169238326E+03 -0.75288354197E+03  0.12642262273E+04  0.10100000352E+00 0.  1.
       -3    1    3    3    0  502  0.92391008741E+03 -0.42169238326E+03  0.87149008476E+03  0.13382560643E+04  0.10100000352E+00 0. -1.
</event>
<event>
 5   0  0.4361864E-06  0.2526872E+04  0.7818609E-02  0.8393474E-01
        1   -1    0    0  501    0  0.00000000000E+00  0.00000000000E+00  0.57774818874E+03  0.57774818876E+03  0.50400001928E-02 0. -1.
       -1   -1    0    0    0  501  0.00000000000E+00  0.00000000000E+00 -0.27629178705E+04  0.27629178705E+04  0.50400001928E-02 0.  1.
    10030    2    1    2    0    0  0.00000000000E+00  0.00000000000E+00 -0.21851696817E+04  0.33406660593E+04  0.25268722131E+04 0.  0.
        3    1    3    3  502    0 -0.36712508433E+03 -0.23829072119E+01  0.50567305669E+03  0.62489339591E+03  0.10100000352E+00 0. -1.
       -3    1    3    3    0  502  0.36712508433E+03  0.23829072119E+01 -0.26908427384E+04  0.27157726633E+04  0.10100000352E+00 0.  1.
</event>
<event>
 5   0  0.4464297E-06  0.2595579E+04  0.7818609E-02  0.8369705E-01
        1   -1    0    0  501    0  0.00000000000E+00  0.00000000000E+00  0.14443520711E+04  0.14443520711E+04  0.50400001928E-02 0.  1.
       -1   -1    0    0    0  501  0.00000000000E+00  0.00000000000E+00 -0.11660988842E+04  0.11660988842E+04  0.50400001928E-02 0. -1.
    10030    2    1    2    0    0  0.00000000000E+00  0.00000000000E+00  0.27825318687E+03  0.26104509553E+04  0.25955788091E+04 0.  0.
        4    1    3    3  502    0  0.50380834668E+03 -0.11166518769E+04  0.56997525448E+03  0.13511504979E+04  0.12699999809E+01 0.  1.
       -4    1    3    3    0  502 -0.50380834668E+03  0.11166518769E+04 -0.29172206760E+03  0.12593004574E+04  0.12699999809E+01 0. -1.
</event>
<event>
 5   0  0.1116310E-05  0.2599847E+04  0.7818609E-02  0.8368253E-01
        2   -1    0    0  501    0  0.00000000000E+00  0.00000000000E+00  0.14822198223E+04  0.14822198223E+04  0.25500000920E-02 0.  1.
       -2   -1    0    0    0  501  0.00000000000E+00  0.00000000000E+00 -0.11400477800E+04  0.11400477800E+04  0.25500000920E-02 0. -1.
    10030    2    1    2    0    0  0.00000000000E+00  0.00000000000E+00  0.34217204231E+03  0.26222676024E+04  0.25998472401E+04 0.  0.
        4    1    3    3  502    0  0.37519160767E+03 -0.11495369980E+04 -0.31009806442E+03  0.12483454949E+04  0.12699999809E+01 0. -1.
       -4    1    3    3    0  502 -0.37519160767E+03  0.11495369980E+04  0.65227010672E+03  0.13739221074E+04  0.12699999809E+01 0.  1.
</event>
<event>
 5   0  0.1086507E-05  0.2514553E+04  0.7818609E-02  0.8397819E-01
        2   -1    0    0  501    0  0.00000000000E+00  0.00000000000E+00  0.19570824055E+04  0.19570824055E+04  0.25500000920E-02 0.  1.
       -2   -1    0    0    0  501  0.00000000000E+00  0.00000000000E+00 -0.80770440628E+03  0.80770440628E+03  0.25500000920E-02 0. -1.
    10030    2    1    2    0    0  0.00000000000E+00  0.00000000000E+00  0.11493779992E+04  0.27647868118E+04  0.25145529085E+04 0.  0.
        2    1    3    3  502    0  0.29169074353E+03 -0.78822827858E+03 -0.45343432176E+03  0.95498167164E+03  0.25500000920E-02 0. -1.
       -2    1    3    3    0  502 -0.29169074353E+03  0.78822827858E+03  0.16028123210E+04  0.18098051402E+04  0.25500000920E-02 0.  1.
</event>
<event>
 5   0  0.1116310E-05  0.2596792E+04  0.7818609E-02  0.8369292E-01
       -2   -1    0    0    0  501  0.00000000000E+00  0.00000000000E+00  0.13124540081E+04  0.13124540081E+04  0.25500000920E-02 0. -1.
        2   -1    0    0  501    0  0.00000000000E+00  0.00000000000E+00 -0.12844890329E+04  0.12844890329E+04  0.25500000920E-02 0.  1.
    10030    2    1    2    0    0  0.00000000000E+00  0.00000000000E+00  0.27964975243E+02  0.25969430410E+04  0.25967924673E+04 0.  0.
        4    1    3    3  502    0 -0.28656295203E+03  0.40046412748E+02  0.12798003759E+04  0.13121023801E+04  0.12699999809E+01 0. -1.
       -4    1    3    3    0  502  0.28656295203E+03 -0.40046412748E+02 -0.12518354007E+04  0.12848406609E+04  0.12699999809E+01 0.  1.
</event>
<event>
 5   0  0.1085061E-05  0.2601652E+04  0.7818609E-02  0.8367640E-01
       -2   -1    0    0    0  501  0.00000000000E+00  0.00000000000E+00  0.11455137476E+04  0.11455137476E+04  0.25500000920E-02 0. -1.
        2   -1    0    0  501    0  0.00000000000E+00  0.00000000000E+00 -0.14771954007E+04  0.14771954007E+04  0.25500000920E-02 0.  1.
    10030    2    1    2    0    0  0.00000000000E+00  0.00000000000E+00 -0.33168165307E+03  0.26227091483E+04  0.26016515058E+04 0.  0.
        1    1    3    3  502    0  0.11160437693E+04 -0.52543057291E+03 -0.58211974228E+03  0.13639994048E+04  0.50400001928E-02 0.  1.
       -1    1    3    3    0  502 -0.11160437693E+04  0.52543057291E+03  0.25043808920E+03  0.12587097435E+04  0.50400001928E-02 0. -1.
</event>
<event>
 5   0  0.1136881E-05  0.2569717E+04  0.7818609E-02  0.8378561E-01
       -2   -1    0    0    0  501  0.00000000000E+00  0.00000000000E+00  0.16874428980E+04  0.16874428980E+04  0.25500000920E-02 0. -1.
        2   -1    0    0  501    0  0.00000000000E+00  0.00000000000E+00 -0.97832151342E+03  0.97832151343E+03  0.25500000920E-02 0.  1.
    10030    2    1    2    0    0  0.00000000000E+00  0.00000000000E+00  0.70912138458E+03  0.26657644114E+04  0.25697172528E+04 0.  0.
        3    1    3    3  502    0 -0.78935460459E+03 -0.81108587277E+02 -0.69375560048E+03  0.10540190407E+04  0.10100000352E+00 0.  1.
       -3    1    3    3    0  502  0.78935460459E+03  0.81108587277E+02  0.14028769851E+04  0.16117453708E+04  0.10100000352E+00 0. -1.
</event>
<event>
 5   0  0.4218590E-06  0.2615676E+04  0.7818609E-02  0.8362896E-01
       -1   -1    0    0    0  501  0.00000000000E+00  0.00000000000E+00  0.97910575934E+03  0.97910575935E+03  0.50400001928E-02 0.  1.
        1   -1    0    0  501    0  0.00000000000E+00  0.00000000000E+00 -0.17469406497E+04  0.17469406497E+04  0.50400001928E-02 0. -1.
    10030    2    1    2    0    0  0.00000000000E+00  0.00000000000E+00 -0.76783489035E+03  0.27260464091E+04  0.26156755543E+04 0.  0.
        1    1    3    3  502    0 -0.59624767153E+03  0.77039462009E+03  0.52549659059E+03  0.11068720898E+04  0.50400001928E-02 0.  1.
       -1    1    3    3    0  502  0.59624767153E+03 -0.77039462009E+03 -0.12933314809E+04  0.16191743192E+04  0.50400001928E-02 0. -1.
</event>
<event>
 5   0  0.1086507E-05  0.2593920E+04  0.7818609E-02  0.8370269E-01
       -2   -1    0    0    0  501  0.00000000000E+00  0.00000000000E+00  0.10564780768E+04  0.10564780768E+04  0.25500000920E-02 0.  1.
        2   -1    0    0  501    0  0.00000000000E+00  0.00000000000E+00 -0.15921818265E+04  0.15921818265E+04  0.25500000920E-02 0. -1.
    10030    2    1    2    0    0  0.00000000000E+00  0.00000000000E+00 -0.53570374968E+03  0.26486599032E+04  0.25939199632E+04 0.  0.
        2    1    3    3  502    0 -0.76216296102E+03 -0.36591781182E+03 -0.12721300593E+04  0.15274498722E+04  0.25500000920E-02 0. -1.
       -2    1    3    3    0  502  0.76216296102E+03  0.36591781182E+03  0.73642630966E+03  0.11212100311E+04  0.25500000920E-02 0.  1.
</event>
<event>
 5   0  0.4415080E-06  0.2605471E+04  0.7818609E-02  0.8366345E-01
        1   -1    0    0  501    0  0.00000000000E+00  0.00000000000E+00  0.15878951948E+04  0.15878951948E+04  0.50400001928E-02 0.  1.
       -1   -1    0    0    0  501  0.00000000000E+00  0.00000000000E+00 -0.10687856267E+04  0.10687856267E+04  0.50400001928E-02 0. -1.
    10030    2    1    2    0    0  0.00000000000E+00  0.00000000000E+00  0.51910956806E+03  0.26566808215E+04  0.26054708296E+04 0.  0.
        2    1    3    3  502    0 -0.29421711801E+03  0.80884642226E+03 -0.73758383563E+03  0.11335017256E+04  0.25500000920E-02 0. -1.
       -2    1    3    3    0  502  0.29421711801E+03 -0.80884642226E+03  0.12566934037E+04  0.15231790959E+04  0.25500000920E-02 0.  1.
</event>
<event>
 5   0  0.1086507E-05  0.2595476E+04  0.7818609E-02  0.8369740E-01
       -2   -1    0    0    0  501  0.00000000000E+00  0.00000000000E+00  0.77949314332E+03  0.77949314332E+03  0.25500000920E-02 0.  1.
        2   -1    0    0  501    0  0.00000000000E+00  0.00000000000E+00 -0.21605366560E+04  0.21605366560E+04  0.25500000920E-02 0. -1.
    10030    2    1    2    0    0  0.00000000000E+00  0.00000000000E+00 -0.13810435127E+04  0.29400297994E+04  0.25954756861E+04 0.  0.
        2    1    3    3  502    0  0.54491189539E+03  0.11693608375E+04 -0.84987287264E+03  0.15448681632E+04  0.25500000920E-02 0. -1.
       -2    1    3    3    0  502 -0.54491189539E+03 -0.11693608375E+04 -0.53117064008E+03  0.13951616361E+04  0.25500000920E-02 0.  1.
</event>
<event>
 5   0  0.1116310E-05  0.2598595E+04  0.7818609E-02  0.8368678E-01
       -2   -1    0    0    0  501  0.00000000000E+00  0.00000000000E+00  0.16977220722E+04  0.16977220722E+04  0.25500000920E-02 0. -1.
        2   -1    0    0  501    0  0.00000000000E+00  0.00000000000E+00 -0.99437626560E+03  0.99437626560E+03  0.25500000920E-02 0.  1.
    10030    2    1    2    0    0  0.00000000000E+00  0.00000000000E+00  0.70334580660E+03  0.26920983378E+04  0.25985954161E+04 0.  0.
        4    1    3    3  502    0 -0.12739381189E+04 -0.14107234008E+03  0.13104717857E+03  0.12884078205E+04  0.12699999809E+01 0.  1.
       -4    1    3    3    0  502  0.12739381189E+04  0.14107234008E+03  0.57229862803E+03  0.14036905173E+04  0.12699999809E+01 0. -1.
</event>
<event>
 5   0  0.4218590E-06  0.2624151E+04  0.7818609E-02  0.8360044E-01
        1   -1    0    0  501    0  0.00000000000E+00  0.00000000000E+00  0.14408282533E+04  0.14408282533E+04  0.50400001928E-02 0.  1.
       -1   -1    0    0    0  501  0.00000000000E+00  0.00000000000E+00 -0.11948278527E+04  0.11948278527E+04  0.50400001928E-02 0. -1.
    10030    2    1    2    0    0  0.00000000000E+00  0.00000000000E+00  0.24600040057E+03  0.26356561060E+04  0.26241507030E+04 0.  0.
        1    1    3    3  502    0  0.72063110285E+03 -0.23151179168E+03  0.11994430128E+04  0.14182984302E+04  0.50400001928E-02 0.  1.
       -1    1    3    3    0  502 -0.72063110285E+03  0.23151179168E+03 -0.95344261224E+03  0.12173576758E+04  0.50400001928E-02 0. -1.
</event>
<event>
 5   0  0.4361864E-06  0.2609791E+04  0.7818609E-02  0.8364883E-01
       -1   -1    0    0    0  501  0.00000000000E+00  0.00000000000E+00  0.12556887000E+04  0.12556887000E+04  0.50400001928E-02 0. -1.
        1   -1    0    0  501    0  0.00000000000E+00  0.00000000000E+00 -0.13560304404E+04  0.13560304404E+04  0.50400001928E-02 0.  1.
    10030    2    1    2    0    0  0.00000000000E+00  0.00000000000E+00 -0.10034174043E+03  0.26117191405E+04  0.26097908736E+04 0.  0.
        3    1    3    3  502    0  0.90678062156E+03 -0.51698601820E+03  0.73349548886E+03  0.12757512614E+04  0.10100000352E+00 0. -1.
       -3    1    3    3    0  502 -0.90678062156E+03  0.51698601820E+03 -0.83383722929E+03  0.13359678790E+04  0.10100000352E+00 0.  1.
</event>
<event>
 5   0  0.1136881E-05  0.2606804E+04  0.7818609E-02  0.8365894E-01
       -2   -1    0    0    0  501  0.00000000000E+00  0.00000000000E+00  0.79208449092E+03  0.79208449093E+03  0.25500000920E-02 0.  1.
        2   -1    0    0  501    0  0.00000000000E+00  0.00000000000E+00 -0.21447928889E+04  0.21447928889E+04  0.25500000920E-02 0. -1.
    10030    2    1    2    0    0  0.00000000000E+00  0.00000000000E+00 -0.13527083979E+04  0.29368773798E+04  0.26068043145E+04 0.  0.
        3    1    3    3  502    0  0.24353714182E+03 -0.92829654225E+03  0.31725317106E+03  0.10107889961E+04  0.10100000352E+00 0.  1.
       -3    1    3    3    0  502 -0.24353714182E+03  0.92829654225E+03 -0.16699615690E+04  0.19260883837E+04  0.10100000352E+00 0. -1.
</event>
<event>
 5   0  0.4597705E-06  0.2610314E+04  0.7818609E-02  0.8364706E-01
       -1   -1    0    0    0  501  0.00000000000E+00  0.00000000000E+00  0.11715799344E+04  0.11715799345E+04  0.50400001928E-02 0. -1.
        1   -1    0    0  501    0  0.00000000000E+00  0.00000000000E+00 -0.14539642916E+04  0.14539642916E+04  0.50400001928E-02 0.  1.
    10030    2    1    2    0    0  0.00000000000E+00  0.00000000000E+00 -0.28238435719E+03  0.26255442261E+04  0.26103144558E+04 0.  0.
        5    1    3    3  502    0 -0.13466215276E+03  0.10604826917E+04  0.61194605328E+03  0.12317700666E+04  0.46999998093E+01 0. -1.
       -5    1    3    3    0  502  0.13466215276E+03 -0.10604826917E+04 -0.89433041047E+03  0.13937741595E+04  0.46999998093E+01 0.  1.
</event>
<event>
 5   0  0.4464297E-06  0.2614482E+04  0.7818609E-02  0.8363299E-01
        1   -1    0    0  501    0  0.00000000000E+00  0.00000000000E+00  0.15826410931E+04  0.15826410931E+04  0.50400001928E-02 0. -1.
       -1   -1    0    0    0  501  0.00000000000E+00  0.00000000000E+00 -0.10797639187E+04  0.10797639187E+04  0.50400001928E-02 0.  1.
    10030    2    1    2    0    0  0.00000000000E+00  0.00000000000E+00  0.50287717447E+03  0.26624050118E+04  0.26144817831E+04 0.  0.
        4    1    3    3  502    0  0.67768484690E+03 -0.84665587421E+03 -0.49186846316E+03  0.11908060795E+04  0.12699999809E+01 0.  1.
       -4    1    3    3    0  502 -0.67768484690E+03  0.84665587421E+03  0.99474563763E+03  0.14715989323E+04  0.12699999809E+01 0. -1.
</event>
<event>
 5   0  0.1116310E-05  0.2693990E+04  0.7818609E-02  0.8336958E-01
       -2   -1    0    0    0  501  0.00000000000E+00  0.00000000000E+00  0.13837375124E+04  0.13837375124E+04  0.25500000920E-02 0.  1.
        2   -1    0    0  501    0  0.00000000000E+00  0.00000000000E+00 -0.13112278438E+04  0.13112278438E+04  0.25500000920E-02 0. -1.
    10030    2    1    2    0    0  0.00000000000E+00  0.00000000000E+00  0.72509668663E+02  0.26949653562E+04  0.26939897214E+04 0.  0.
        4    1    3    3  502    0 -0.80427639452E+03  0.46489913297E+03 -0.93949669596E+03  0.13212294945E+04  0.12699999809E+01 0. -1.
       -4    1    3    3    0  502  0.80427639452E+03 -0.46489913297E+03  0.10120063646E+04  0.13737358616E+04  0.12699999809E+01 0.  1.
</event>
<event>
 5   0  0.1085061E-05  0.2576024E+04  0.7818609E-02  0.8376391E-01
       -2   -1    0    0    0  501  0.00000000000E+00  0.00000000000E+00  0.92067857352E+03  0.92067857353E+03  0.25500000920E-02 0. -1.
        2   -1    0    0  501    0  0.00000000000E+00  0.00000000000E+00 -0.18019044796E+04  0.18019044796E+04  0.25500000920E-02 0.  1.
    10030    2    1    2    0    0  0.00000000000E+00  0.00000000000E+00 -0.88122590610E+03  0.27225830531E+04  0.25760239486E+04 0.  0.
        1    1    3    3  502    0  0.53362700136E+03  0.48291008816E+03  0.68834274946E+03  0.99587934540E+03  0.50400001928E-02 0. -1.
       -1    1    3    3    0  502 -0.53362700136E+03 -0.48291008816E+03 -0.15695686556E+04  0.17267037078E+04  0.50400001928E-02 0.  1.
</event>
<event>
 5   0  0.4415080E-06  0.2600844E+04  0.7818609E-02  0.8367914E-01
        1   -1    0    0  501    0  0.00000000000E+00  0.00000000000E+00  0.16342923386E+04  0.16342923387E+04  0.50400001928E-02 0.  1.
       -1   -1    0    0    0  501  0.00000000000E+00  0.00000000000E+00 -0.10347583869E+04  0.10347583869E+04  0.50400001928E-02 0. -1.
    10030    2    1    2    0    0  0.00000000000E+00  0.00000000000E+00  0.59953395172E+03  0.26690507256E+04  0.26008442507E+04 0.  0.
        2    1    3    3  502    0  0.20305272532E+03  0.12824290619E+04  0.22545954470E+03  0.13178340997E+04  0.25500000920E-02 0.  1.
       -2    1    3    3    0  502 -0.20305272532E+03 -0.12824290619E+04  0.37407440701E+03  0.13512166259E+04  0.25500000920E-02 0. -1.
</event>
<event>
 5   0  0.1086507E-05  0.2619023E+04  0.7818609E-02  0.8361768E-01
        2   -1    0    0  501    0  0.00000000000E+00  0.00000000000E+00  0.12721579184E+04  0.12721579184E+04  0.25500000920E-02 0.  1.
       -2   -1    0    0    0  501  0.00000000000E+00  0.00000000000E+00 -0.13479620911E+04  0.13479620911E+04  0.25500000920E-02 0. -1.
    10030    2    1    2    0    0  0.00000000000E+00  0.00000000000E+00 -0.75804172701E+02  0.26201200095E+04  0.26190232133E+04 0.  0.
        2    1    3    3  502    0  0.36751639436E+03 -0.74517819659E+03 -0.10504829633E+04  0.13393555544E+04  0.25500000920E-02 0. -1.
       -2    1    3    3    0  502 -0.36751639436E+03  0.74517819659E+03  0.97467879059E+03  0.12807644552E+04  0.25500000920E-02 0.  1.
</event>
<event>
 5   0  0.1085061E-05  0.2609120E+04  0.7818609E-02  0.8365110E-01
        2   -1    0    0  501    0  0.00000000000E+00  0.00000000000E+00  0.22054907764E+04  0.22054907764E+04  0.25500000920E-02 0.  1.
       -2   -1    0    0    0  501  0.00000000000E+00  0.00000000000E+00 -0.77165419032E+03  0.77165419033E+03  0.25500000920E-02 0. -1.
    10030    2    1    2    0    0  0.00000000000E+00  0.00000000000E+00  0.14338365861E+04  0.29771449667E+04  0.26091195445E+04 0.  0.
        1    1    3    3  502    0 -0.10736483863E+04  0.69885821290E+03  0.43567108158E+03  0.13531197103E+04  0.50400001928E-02 0. -1.
       -1    1    3    3    0  502  0.10736483863E+04 -0.69885821290E+03  0.99816550450E+03  0.16240252564E+04  0.50400001928E-02 0.  1.
</event>
<event>
 5   0  0.1136881E-05  0.2587480E+04  0.7818609E-02  0.8372466E-01
        2   -1    0    0  501    0  0.00000000000E+00  0.00000000000E+00  0.14527368396E+04  0.14527368396E+04  0.25500000920E-02 0. -1.
       -2   -1    0    0    0  501  0.00000000000E+00  0.00000000000E+00 -0.11521447600E+04  0.11521447600E+04  0.25500000920E-02 0.  1.
    10030    2    1    2    0    0  0.00000000000E+00  0.00000000000E+00  0.30059207961E+03  0.26048815996E+04  0.25874799612E+04 0.  0.
        3    1    3    3  502    0 -0.11054963964E+04 -0.40817529614E+03 -0.38718005534E+03  0.12404183811E+04  0.10100000352E+00 0.  1.
       -3    1    3    3    0  502  0.11054963964E+04  0.40817529614E+03  0.68777213495E+03  0.13644632185E+04  0.10100000352E+00 0. -1.
</event>
<event>
 5   0  0.1086507E-05  0.2598932E+04  0.7818609E-02  0.8368564E-01
        2   -1    0    0  501    0  0.00000000000E+00  0.00000000000E+00  0.19765432878E+04  0.19765432878E+04  0.25500000920E-02 0. -1.
       -2   -1    0    0    0  501  0.00000000000E+00  0.00000000000E+00 -0.85432583702E+03  0.85432583702E+03  0.25500000920E-02 0.  1.
    10030    2    1    2    0    0  0.00000000000E+00  0.00000000000E+00  0.11222174508E+04  0.28308691249E+04  0.25989320874E+04 0.  0.
        2    1    3    3  502    0 -0.67313628822E+03 -0.41495323817E+03  0.16843045832E+04  0.18606935754E+04  0.25500000920E-02 0. -1.
       -2    1    3    3    0  502  0.67313628822E+03  0.41495323817E+03 -0.56208713241E+03  0.97017554948E+03  0.25500000920E-02 0.  1.
</event>
<event>
 5   0  0.4597705E-06  0.2595874E+04  0.7818609E-02  0.8369604E-01
       -1   -1    0    0    0  501  0.00000000000E+00  0.00000000000E+00  0.18904310084E+04  0.18904310084E+04  0.50400001928E-02 0. -1.
        1   -1    0    0  501    0  0.00000000000E+00  0.00000000000E+00 -0.89114098803E+03  0.89114098804E+03  0.50400001928E-02 0.  1.
    10030    2    1    2    0    0  0.00000000000E+00  0.00000000000E+00  0.99929002037E+03  0.27815719965E+04  0.25958740776E+04 0.  0.
        5    1    3    3  502    0  0.37201571230E+03  0.42124999790E+03  0.17532829173E+04  0.18411600498E+04  0.46999998093E+01 0. -1.
       -5    1    3    3    0  502 -0.37201571230E+03 -0.42124999790E+03 -0.75399289688E+03  0.94041194669E+03  0.46999998093E+01 0.  1.
</event>
<event>
 5   0  0.1116310E-05  0.2535745E+04  0.7818609E-02  0.8390361E-01
       -2   -1    0    0    0  501  0.00000000000E+00  0.00000000000E+00  0.90220512967E+03  0.90220512967E+03  0.25500000920E-02 0. -1.
        2   -1    0    0  501    0  0.00000000000E+00  0.00000000000E+00 -0.17817467720E+04  0.17817467720E+04  0.25500000920E-02 0.  1.
    10030    2    1    2    0    0  0.00000000000E+00  0.00000000000E+00 -0.87954164231E+03  0.26839519017E+04  0.25357453164E+04 0.  0.
        4    1    3    3  502    0 -0.37444754903E+03  0.85420763377E+03  0.46927295059E+03  0.10440787152E+04  0.12699999809E+01 0. -1.
       -4    1    3    3    0  502  0.37444754903E+03 -0.85420763377E+03 -0.13488145929E+04  0.16398731864E+04  0.12699999809E+01 0.  1.
</event>
<event>
 5   0  0.4361864E-06  0.2602848E+04  0.7818609E-02  0.8367234E-01
        1   -1    0    0  501    0  0.00000000000E+00  0.00000000000E+00  0.16152168611E+04  0.16152168611E+04  0.50400001928E-02 0. -1.
       -1   -1    0    0    0  501  0.00000000000E+00  0.00000000000E+00 -0.10485927940E+04  0.10485927940E+04  0.50400001928E-02 0.  1.
    10030    2    1    2    0    0  0.00000000000E+00  0.00000000000E+00  0.56662406712E+03  0.26638096551E+04  0.26028482563E+04 0.  0.
        3    1    3    3  502    0  0.16172609067E+03 -0.19417125126E+03 -0.10232431300E+04  0.10539849697E+04  0.10100000352E+00 0.  1.
       -3    1    3    3    0  502 -0.16172609067E+03  0.19417125126E+03  0.15898671971E+04  0.16098246854E+04  0.10100000352E+00 0. -1.
</event>
<event>
 5   0  0.4361864E-06  0.2607161E+04  0.7818609E-02  0.8365773E-01
        1   -1    0    0  501    0  0.00000000000E+00  0.00000000000E+00  0.82272136571E+03  0.82272136572E+03  0.50400001928E-02 0. -1.
       -1   -1    0    0    0  501  0.00000000000E+00  0.00000000000E+00 -0.20654898906E+04  0.20654898906E+04  0.50400001928E-02 0.  1.
    10030    2    1    2    0    0  0.00000000000E+00  0.00000000000E+00 -0.12427685249E+04  0.28882112563E+04  0.26071614171E+04 0.  0.
        3    1    3    3  502    0 -0.94871068965E+03  0.67858553672E+03 -0.12661884267E+04  0.17215584351E+04  0.10100000352E+00 0.  1.
       -3    1    3    3    0  502  0.94871068965E+03 -0.67858553672E+03  0.23419901814E+02  0.11666528212E+04  0.10100000352E+00 0. -1.
</event>
<event>
 5   0  0.1136881E-05  0.2580682E+04  0.7818609E-02  0.8374793E-01
        2   -1    0    0  501    0  0.00000000000E+00  0.00000000000E+00  0.25793343181E+04  0.25793343181E+04  0.25500000920E-02 0.  1.
       -2   -1    0    0    0  501  0.00000000000E+00  0.00000000000E+00 -0.64550743720E+03  0.64550743720E+03  0.25500000920E-02 0. -1.
    10030    2    1    2    0    0  0.00000000000E+00  0.00000000000E+00  0.19338268809E+04  0.32248417553E+04  0.25806816815E+04 0.  0.
        3    1    3    3  502    0 -0.85802548516E+02 -0.17319900711E+03  0.25611413642E+04  0.25684246283E+04  0.10100000352E+00 0.  1.
       -3    1    3    3    0  502  0.85802548516E+02  0.17319900711E+03 -0.62731448335E+03  0.65641712700E+03  0.10100000352E+00 0. -1.
</event>
<event>
 5   0  0.3705250E-06  0.2601003E+04  0.7818609E-02  0.8367861E-01
       -3   -1    0    0    0  501  0.00000000000E+00  0.00000000000E+00  0.18189586556E+04  0.18189586584E+04  0.10100000352E+00 0.  1.
        3   -1    0    0  501    0  0.00000000000E+00  0.00000000000E+00 -0.92981992126E+03  0.92981992675E+03  0.10100000352E+00 0. -1.
    10030    2    1    2    0    0  0.00000000000E+00  0.00000000000E+00  0.88913873432E+03  0.27487785851E+04  0.26010028876E+04 0.  0.
        3    1    3    3  502    0  0.83138580202E+03  0.66218898365E+03  0.12365514062E+04  0.16305692234E+04  0.10100000352E+00 0.  1.
       -3    1    3    3    0  502 -0.83138580202E+03 -0.66218898365E+03 -0.34741267190E+03  0.11182093617E+04  0.10100000352E+00 0. -1.
</event>
<event>
 5   0  0.4361864E-06  0.2601074E+04  0.7818609E-02  0.8367837E-01
        1   -1    0    0  501    0  0.00000000000E+00  0.00000000000E+00  0.62051427651E+03  0.62051427653E+03  0.50400001928E-02 0.  1.
       -1   -1    0    0    0  501  0.00000000000E+00  0.00000000000E+00 -0.27257970472E+04  0.27257970472E+04  0.50400001928E-02 0. -1.
    10030    2    1    2    0    0  0.00000000000E+00  0.00000000000E+00 -0.21052827707E+04  0.33463113238E+04  0.26010736112E+04 0.  0.
        3    1    3    3  502    0 -0.22580700172E+03  0.11627576996E+04 -0.17435372766E+04  0.21078226954E+04  0.10100000352E+00 0. -1.
       -3    1    3    3    0  502  0.22580700172E+03 -0.11627576996E+04 -0.36174549409E+03  0.12384886284E+04  0.10100000352E+00 0.  1.
</event>
<event>
 5   0  0.4464297E-06  0.2600276E+04  0.7818609E-02  0.8368107E-01
       -1   -1    0    0    0  501  0.00000000000E+00  0.00000000000E+00  0.14978594478E+04  0.14978594478E+04  0.50400001928E-02 0.  1.
        1   -1    0    0  501    0  0.00000000000E+00  0.00000000000E+00 -0.11285165920E+04  0.11285165921E+04  0.50400001928E-02 0. -1.
    10030    2    1    2    0    0  0.00000000000E+00  0.00000000000E+00  0.36934285572E+03  0.26263760398E+04  0.26002763233E+04 0.  0.
        4    1    3    3  502    0 -0.73572101500E+03 -0.40392635741E+03  0.11875706631E+04  0.14542240566E+04  0.12699999809E+01 0. -1.
       -4    1    3    3    0  502  0.73572101500E+03  0.40392635741E+03 -0.81822780735E+03  0.11721519832E+04  0.12699999809E+01 0.  1.
</event>
<event>
 5   0  0.4597705E-06  0.2617212E+04  0.7818609E-02  0.8362378E-01
       -1   -1    0    0    0  501  0.00000000000E+00  0.00000000000E+00  0.10032167713E+04  0.10032167713E+04  0.50400001928E-02 0.  1.
        1   -1    0    0  501    0  0.00000000000E+00  0.00000000000E+00 -0.17069590382E+04  0.17069590382E+04  0.50400001928E-02 0. -1.
    10030    2    1    2    0    0  0.00000000000E+00  0.00000000000E+00 -0.70374226691E+03  0.27101758095E+04  0.26172122078E+04 0.  0.
        5    1    3    3  502    0  0.37510066676E+03  0.50824131855E+02  0.94527815275E+03  0.10182614982E+04  0.46999998093E+01 0.  1.
       -5    1    3    3    0  502 -0.37510066676E+03 -0.50824131855E+02 -0.16490204197E+04  0.16919143114E+04  0.46999998093E+01 0. -1.
</event>
<event>
 5   0  0.4464297E-06  0.2588827E+04  0.7818609E-02  0.8372006E-01
       -1   -1    0    0    0  501  0.00000000000E+00  0.00000000000E+00  0.20678965898E+04  0.20678965898E+04  0.50400001928E-02 0.  1.
        1   -1    0    0  501    0  0.00000000000E+00  0.00000000000E+00 -0.81024682110E+03  0.81024682111E+03  0.50400001928E-02 0. -1.
    10030    2    1    2    0    0  0.00000000000E+00  0.00000000000E+00  0.12576497687E+04  0.28781434109E+04  0.25888272544E+04 0.  0.
        4    1    3    3  502    0 -0.39520200607E+03  0.76520155553E+03  0.17031439047E+04  0.19085122005E+04  0.12699999809E+01 0.  1.
       -4    1    3    3    0  502  0.39520200607E+03 -0.76520155553E+03 -0.44549413602E+03  0.96963121047E+03  0.12699999809E+01 0. -1.
</event>
<event>
 5   0  0.1136881E-05  0.2619053E+04  0.7818609E-02  0.8361758E-01
        2   -1    0    0  501    0  0.00000000000E+00  0.00000000000E+00  0.19417480773E+04  0.19417480773E+04  0.25500000920E-02 0. -1.
       -2   -1    0    0    0  501  0.00000000000E+00  0.00000000000E+00 -0.88315255864E+03  0.88315255864E+03  0.25500000920E-02 0.  1.
    10030    2    1    2    0    0  0.00000000000E+00  0.00000000000E+00  0.10585955186E+04  0.28249006359E+04  0.26190530981E+04 0.  0.
        3    1    3    3  502    0 -0.11066860615E+03 -0.93247193791E+02  0.19330968641E+04  0.19385061454E+04  0.10100000352E+00 0. -1.
       -3    1    3    3    0  502  0.11066860615E+03  0.93247193791E+02 -0.87450134543E+03  0.88639449056E+03  0.10100000352E+00 0.  1.
</event>
<event>
 5   0  0.4218590E-06  0.2550646E+04  0.7818609E-02  0.8385162E-01
        1   -1    0    0  501    0  0.00000000000E+00  0.00000000000E+00  0.26909635428E+04  0.26909635428E+04  0.50400001928E-02 0.  1.
       -1   -1    0    0    0  501  0.00000000000E+00  0.00000000000E+00 -0.60441135011E+03  0.60441135013E+03  0.50400001928E-02 0. -1.
    10030    2    1    2    0    0  0.00000000000E+00  0.00000000000E+00  0.20865521927E+04  0.32953748929E+04  0.25506461205E+04 0.  0.
        1    1    3    3  502    0 -0.20797601498E+03 -0.96306324473E+03 -0.29090762591E+01  0.98526813554E+03  0.50400001928E-02 0. -1.
       -1    1    3    3    0  502  0.20797601498E+03  0.96306324473E+03  0.20894612690E+04  0.23101067574E+04  0.50400001928E-02 0.  1.
</event>
<event>
 5   0  0.1136881E-05  0.2587499E+04  0.7818609E-02  0.8372460E-01
        2   -1    0    0  501    0  0.00000000000E+00  0.00000000000E+00  0.22418285263E+04  0.22418285263E+04  0.25500000920E-02 0. -1.
       -2   -1    0    0    0  501  0.00000000000E+00  0.00000000000E+00 -0.74661734408E+03  0.74661734408E+03  0.25500000920E-02 0.  1.
    10030    2    1    2    0    0  0.00000000000E+00  0.00000000000E+00  0.14952111822E+04  0.29884458704E+04  0.25874992253E+04 0.  0.
        3    1    3    3  502    0 -0.41603625219E+03  0.12177390892E+04  0.59345736062E+03  0.14170978448E+04  0.10100000352E+00 0.  1.
       -3    1    3    3    0  502  0.41603625219E+03 -0.12177390892E+04  0.90175382161E+03  0.15713480256E+04  0.10100000352E+00 0. -1.
</event>
<event>
 5   0  0.1116310E-05  0.2605016E+04  0.7818609E-02  0.8366499E-01
        2   -1    0    0  501    0  0.00000000000E+00  0.00000000000E+00  0.19374134209E+04  0.19374134209E+04  0.25500000920E-02 0.  1.
       -2   -1    0    0    0  501  0.00000000000E+00  0.00000000000E+00 -0.87566581130E+03  0.87566581131E+03  0.25500000920E-02 0. -1.
    10030    2    1    2    0    0  0.00000000000E+00  0.00000000000E+00  0.10617476096E+04  0.28130792322E+04  0.26050156967E+04 0.  0.
        4    1    3    3  502    0 -0.15346264039E+03  0.20944431382E+03  0.19091824351E+04  0.19267581285E+04  0.12699999809E+01 0.  1.
       -4    1    3    3    0  502  0.15346264039E+03 -0.20944431382E+03 -0.84743482545E+03  0.88632110370E+03  0.12699999809E+01 0. -1.
</event>
<event>
 5   0  0.4464297E-06  0.2586107E+04  0.7818609E-02  0.8372936E-01
        1   -1    0    0  501    0  0.00000000000E+00  0.00000000000E+00  0.10348728157E+04  0.10348728157E+04  0.50400001928E-02 0. -1.
       -1   -1    0    0    0  501  0.00000000000E+00  0.00000000000E+00 -0.16156456831E+04  0.16156456831E+04  0.50400001928E-02 0.  1.
    10030    2    1    2    0    0  0.00000000000E+00  0.00000000000E+00 -0.58077286738E+03  0.26505184988E+04  0.25861073429E+04 0.  0.
        4    1    3    3  502    0  0.17217431983E+03 -0.95205360504E+03 -0.11696201868E+04  0.15179140481E+04  0.12699999809E+01 0.  1.
       -4    1    3    3    0  502 -0.17217431983E+03  0.95205360504E+03  0.58884731940E+03  0.11326044507E+04  0.12699999809E+01 0. -1.
</event>
<event>
 5   0  0.4218590E-06  0.2654708E+04  0.7818609E-02  0.8349852E-01
        1   -1    0    0  501    0  0.00000000000E+00  0.00000000000E+00  0.24711217422E+04  0.24711217422E+04  0.50400001928E-02 0.  1.
       -1   -1    0    0    0  501  0.00000000000E+00  0.00000000000E+00 -0.71298309039E+03  0.71298309041E+03  0.50400001928E-02 0. -1.
    10030    2    1    2    0    0  0.00000000000E+00  0.00000000000E+00  0.17581386518E+04  0.31841048326E+04  0.26547075293E+04 0.  0.
        1    1    3    3  502    0  0.13000456154E+04 -0.14191168306E+03  0.11515524824E+04  0.17425070007E+04  0.50400001928E-02 0.  1.
       -1    1    3    3    0  502 -0.13000456154E+04  0.14191168306E+03  0.60658616939E+03  0.14415978319E+04  0.50400001928E-02 0. -1.
</event>
<event>
 5   0  0.1086507E-05  0.2612131E+04  0.7818609E-02  0.8364092E-01
        2   -1    0    0  501    0  0.00000000000E+00  0.00000000000E+00  0.12552058770E+04  0.12552058770E+04  0.25500000920E-02 0. -1.
       -2   -1    0    0    0  501  0.00000000000E+00  0.00000000000E+00 -0.13589857638E+04  0.13589857638E+04  0.25500000920E-02 0.  1.
    10030    2    1    2    0    0  0.00000000000E+00  0.00000000000E+00 -0.10377988685E+03  0.26141916408E+04  0.26121308677E+04 0.  0.
        2    1    3    3  502    0 -0.12668070981E+04  0.29240619466E+03 -0.17650850429E+03  0.13120430094E+04  0.25500000920E-02 0.  1.
       -2    1    3    3    0  502  0.12668070981E+04 -0.29240619466E+03  0.72728617444E+02  0.13021486314E+04  0.25500000920E-02 0. -1.
</event>
<event>
 5   0  0.1136881E-05  0.2605594E+04  0.7818609E-02  0.8366303E-01
       -2   -1    0    0    0  501  0.00000000000E+00  0.00000000000E+00  0.97258005933E+03  0.97258005934E+03  0.25500000920E-02 0.  1.
        2   -1    0    0  501    0  0.00000000000E+00  0.00000000000E+00 -0.17451316618E+04  0.17451316618E+04  0.25500000920E-02 0. -1.
    10030    2    1    2    0    0  0.00000000000E+00  0.00000000000E+00 -0.77255160246E+03  0.27177117211E+04  0.26055941781E+04 0.  0.
        3    1    3    3  502    0 -0.88655346969E+03 -0.39111941508E+03  0.52201598205E+03  0.11006598690E+04  0.10100000352E+00 0.  1.
       -3    1    3    3    0  502  0.88655346969E+03  0.39111941508E+03 -0.12945675845E+04  0.16170518521E+04  0.10100000352E+00 0. -1.
</event>
<event>
 5   0  0.4464297E-06  0.2399664E+04  0.7818609E-02  0.8439629E-01
       -1   -1    0    0    0  501  0.00000000000E+00  0.00000000000E+00  0.77832724706E+03  0.77832724707E+03  0.50400001928E-02 0.  1.
        1   -1    0    0  501    0  0.00000000000E+00  0.00000000000E+00 -0.18496034263E+04  0.18496034263E+04  0.50400001928E-02 0. -1.
    10030    2    1    2    0    0  0.00000000000E+00  0.00000000000E+00 -0.10712761793E+04  0.26279306734E+04  0.23996639290E+04 0.  0.
        4    1    3    3  502    0  0.78585317376E+02  0.30150020684E+03 -0.18045263936E+04  0.18312277698E+04  0.12699999809E+01 0. -1.
       -4    1    3    3    0  502 -0.78585317376E+02 -0.30150020684E+03  0.73325021435E+03  0.79670290358E+03  0.12699999809E+01 0.  1.
</event>
<event>
 5   0  0.4415080E-06  0.2604703E+04  0.7818609E-02  0.8366605E-01
        1   -1    0    0  501    0  0.00000000000E+00  0.00000000000E+00  0.14880115537E+04  0.14880115537E+04  0.50400001928E-02 0. -1.
       -1   -1    0    0    0  501  0.00000000000E+00  0.00000000000E+00 -0.11398565314E+04  0.11398565315E+04  0.50400001928E-02 0.  1.
    10030    2    1    2    0    0  0.00000000000E+00  0.00000000000E+00  0.34815502229E+03  0.26278680852E+04  0.26047031988E+04 0.  0.
        2    1    3    3  502    0  0.55557189550E+03  0.53177901252E+03 -0.88630296470E+03  0.11734487609E+04  0.25500000920E-02 0.  1.
       -2    1    3    3    0  502 -0.55557189550E+03 -0.53177901252E+03  0.12344579870E+04  0.14544193243E+04  0.25500000920E-02 0. -1.
</event>
<event>
 5   0  0.4218590E-06  0.2604983E+04  0.7818609E-02  0.8366511E-01
       -1   -1    0    0    0  501  0.00000000000E+00  0.00000000000E+00  0.82915353885E+03  0.82915353886E+03  0.50400001928E-02 0. -1.
        1   -1    0    0  501    0  0.00000000000E+00  0.00000000000E+00 -0.20460430622E+04  0.20460430622E+04  0.50400001928E-02 0.  1.
    10030    2    1    2    0    0  0.00000000000E+00  0.00000000000E+00 -0.12168895234E+04  0.28751966011E+04  0.26049827990E+04 0.  0.
        1    1    3    3  502    0 -0.72976020856E+03 -0.94944368789E+02  0.57770229138E+03  0.93557700520E+03  0.50400001928E-02 0. -1.
       -1    1    3    3    0  502  0.72976020856E+03  0.94944368789E+02 -0.17945918148E+04  0.19396195959E+04  0.50400001928E-02 0.  1.
</event>
<event>
 5   0  0.1086507E-05  0.2498510E+04  0.7818609E-02  0.8403516E-01
       -2   -1    0    0    0  501  0.00000000000E+00  0.00000000000E+00  0.14146440861E+04  0.14146440861E+04  0.25500000920E-02 0.  1.
        2   -1    0    0  501    0  0.00000000000E+00  0.00000000000E+00 -0.11032022204E+04  0.11032022204E+04  0.25500000920E-02 0. -1.
    10030    2    1    2    0    0  0.00000000000E+00  0.00000000000E+00  0.31144186575E+03  0.25178463065E+04  0.24985103537E+04 0.  0.
        2    1    3    3  502    0  0.50634261988E+03  0.33506630775E+03 -0.94450956693E+03  0.11228315107E+04  0.25500000920E-02 0. -1.
       -2    1    3    3    0  502 -0.50634261988E+03 -0.33506630775E+03  0.12559514327E+04  0.13950147958E+04  0.25500000920E-02 0.  1.
</event>
<event>
 5   0  0.4597705E-06  0.2602129E+04  0.7818609E-02  0.8367478E-01
        1   -1    0    0  501    0  0.00000000000E+00  0.00000000000E+00  0.22623080711E+04  0.22623080711E+04  0.50400001928E-02 0.  1.
       -1   -1    0    0    0  501  0.00000000000E+00  0.00000000000E+00 -0.74824863670E+03  0.74824863672E+03  0.50400001928E-02 0. -1.
    10030    2    1    2    0    0  0.00000000000E+00  0.00000000000E+00  0.15140594344E+04  0.30105567078E+04  0.26021290744E+04 0.  0.
        5    1    3    3  502    0 -0.15050582376E+03 -0.61826306619E+03  0.20699848314E+04  0.21655854899E+04  0.46999998093E+01 0.  1.
       -5    1    3    3    0  502  0.15050582376E+03  0.61826306619E+03 -0.55592539701E+03  0.84497121788E+03  0.46999998093E+01 0. -1.
</event>
<event>
 5   0  0.4361864E-06  0.2699854E+04  0.7818609E-02  0.8335052E-01
       -1   -1    0    0    0  501  0.00000000000E+00  0.00000000000E+00  0.11882491862E+04  0.11882491862E+04  0.50400001928E-02 0. -1.
        1   -1    0    0  501    0  0.00000000000E+00  0.00000000000E+00 -0.15336028824E+04  0.15336028824E+04  0.50400001928E-02 0.  1.
    10030    2    1    2    0    0  0.00000000000E+00  0.00000000000E+00 -0.34535369624E+03  0.27218520686E+04  0.26998536086E+04 0.  0.
        3    1    3    3  502    0  0.74121825651E+03  0.10219605295E+04 -0.65458271534E+03  0.14220711547E+04  0.10100000352E+00 0.  1.
       -3    1    3    3    0  502 -0.74121825651E+03 -0.10219605295E+04  0.30922901910E+03  0.12997809139E+04  0.10100000352E+00 0. -1.
</event>
<event>
 5   0  0.1136881E-05  0.2622590E+04  0.7818609E-02  0.8360568E-01
       -2   -1    0    0    0  501  0.00000000000E+00  0.00000000000E+00  0.12442540256E+04  0.12442540256E+04  0.25500000920E-02 0. -1.
        2   -1    0    0  501    0  0.00000000000E+00  0.00000000000E+00 -0.13819484002E+04  0.13819484002E+04  0.25500000920E-02 0.  1.
    10030    2    1    2    0    0  0.00000000000E+00  0.00000000000E+00 -0.13769437464E+03  0.26262024258E+04  0.26225902159E+04 0.  0.
        3    1    3    3  502    0  0.16767159944E+03  0.12926512670E+04 -0.21199087032E+03  0.13206063769E+04  0.10100000352E+00 0.  1.
       -3    1    3    3    0  502 -0.16767159944E+03 -0.12926512670E+04  0.74296495682E+02  0.13055960489E+04  0.10100000352E+00 0. -1.
</event>
<event>
 5   0  0.1136881E-05  0.2605181E+04  0.7818609E-02  0.8366444E-01
       -2   -1    0    0    0  501  0.00000000000E+00  0.00000000000E+00  0.16404480890E+04  0.16404480890E+04  0.25500000920E-02 0.  1.
        2   -1    0    0  501    0  0.00000000000E+00  0.00000000000E+00 -0.10343161036E+04  0.10343161036E+04  0.25500000920E-02 0. -1.
    10030    2    1    2    0    0  0.00000000000E+00  0.00000000000E+00  0.60613198543E+03  0.26747641926E+04  0.26051808963E+04 0.  0.
        3    1    3    3  502    0 -0.81839669883E+02  0.88918686565E+03  0.12767585462E+04  0.15580319025E+04  0.10100000352E+00 0.  1.
       -3    1    3    3    0  502  0.81839669883E+02 -0.88918686565E+03 -0.67062656078E+03  0.11167322901E+04  0.10100000352E+00 0. -1.
</event>
<event>
 5   0  0.4218590E-06  0.2589483E+04  0.7818609E-02  0.8371782E-01
        1   -1    0    0  501    0  0.00000000000E+00  0.00000000000E+00  0.11266496188E+04  0.11266496188E+04  0.50400001928E-02 0. -1.
       -1   -1    0    0    0  501  0.00000000000E+00  0.00000000000E+00 -0.14879118585E+04  0.14879118585E+04  0.50400001928E-02 0.  1.
    10030    2    1    2    0    0  0.00000000000E+00  0.00000000000E+00 -0.36126223975E+03  0.26145614774E+04  0.25894828273E+04 0.  0.
        1    1    3    3  502    0 -0.62641129491E+03  0.93665557690E+03  0.46322846289E+03  0.12183166210E+04  0.50400001928E-02 0. -1.
       -1    1    3    3    0  502  0.62641129491E+03 -0.93665557690E+03 -0.82449070265E+03  0.13962448564E+04  0.50400001928E-02 0.  1.
</event>
<event>
 5   0  0.1085061E-05  0.2583950E+04  0.7818609E-02  0.8373673E-01
        2   -1    0    0  501    0  0.00000000000E+00  0.00000000000E+00  0.17068007369E+04  0.17068007369E+04  0.25500000920E-02 0. -1.
       -2   -1    0    0    0  501  0.00000000000E+00  0.00000000000E+00 -0.97796976311E+03  0.97796976312E+03  0.25500000920E-02 0.  1.
    10030    2    1    2    0    0  0.00000000000E+00  0.00000000000E+00  0.72883097382E+03  0.26847705001E+04  0.25839500865E+04 0.  0.
        1    1    3    3  502    0 -0.46306668439E+02 -0.12905019734E+04  0.40674652964E+03  0.13538768003E+04  0.50400001928E-02 0. -1.
       -1    1    3    3    0  502  0.46306668439E+02  0.12905019734E+04  0.32208444418E+03  0.13308936998E+04  0.50400001928E-02 0.  1.
</event>
<event>
 5   0  0.4415080E-06  0.2599295E+04  0.7818609E-02  0.8368441E-01
       -1   -1    0    0    0  501  0.00000000000E+00  0.00000000000E+00  0.12624459816E+04  0.12624459816E+04  0.50400001928E-02 0. -1.
        1   -1    0    0  501    0  0.00000000000E+00  0.00000000000E+00 -0.13379454667E+04  0.13379454667E+04  0.50400001928E-02 0.  1.
    10030    2    1    2    0    0  0.00000000000E+00  0.00000000000E+00 -0.75499485102E+02  0.26003914484E+04  0.25992951954E+04 0.  0.
        2    1    3    3  502    0  0.46472020122E+03  0.12129228183E+04  0.62830180558E+01  0.12989172818E+04  0.25500000920E-02 0.  1.
       -2    1    3    3    0  502 -0.46472020122E+03 -0.12129228183E+04 -0.81782503158E+02  0.13014741666E+04  0.25500000920E-02 0. -1.
</event>
<event>
 5   0  0.4218590E-06  0.2478812E+04  0.7818609E-02  0.8410573E-01
       -1   -1    0    0    0  501  0.00000000000E+00  0.00000000000E+00  0.93095151965E+03  0.93095151966E+03  0.50400001928E-02 0. -1.
        1   -1    0    0  501    0  0.00000000000E+00  0.00000000000E+00 -0.16500616794E+04  0.16500616794E+04  0.50400001928E-02 0.  1.
    10030    2    1    2    0    0  0.00000000000E+00  0.00000000000E+00 -0.71911015972E+03  0.25810131990E+04  0.24788121574E+04 0.  0.
        1    1    3    3  502    0 -0.52498868767E+02 -0.89540503197E+03 -0.12501695081E+04  0.15386455412E+04  0.50400001928E-02 0.  1.
       -1    1    3    3    0  502  0.52498868767E+02  0.89540503197E+03  0.53105934839E+03  0.10423676578E+04  0.50400001928E-02 0. -1.
</event>
<event>
 5   0  0.4415080E-06  0.2586632E+04  0.7818609E-02  0.8372756E-01
       -1   -1    0    0    0  501  0.00000000000E+00  0.00000000000E+00  0.12153814170E+04  0.12153814170E+04  0.50400001928E-02 0. -1.
        1   -1    0    0  501    0  0.00000000000E+00  0.00000000000E+00 -0.13762485398E+04  0.13762485398E+04  0.50400001928E-02 0.  1.
    10030    2    1    2    0    0  0.00000000000E+00  0.00000000000E+00 -0.16086712278E+03  0.25916299569E+04  0.25866324830E+04 0.  0.
        2    1    3    3  502    0 -0.56800956817E+03 -0.11574628513E+04  0.21309560318E+02  0.12894996003E+04  0.25500000920E-02 0. -1.
       -2    1    3    3    0  502  0.56800956817E+03  0.11574628513E+04 -0.18217668310E+03  0.13021303566E+04  0.25500000920E-02 0.  1.
</event>
<event>
 5   0  0.1085061E-05  0.2601996E+04  0.7818609E-02  0.8367524E-01
        2   -1    0    0  501    0  0.00000000000E+00  0.00000000000E+00  0.11073027045E+04  0.11073027045E+04  0.25500000920E-02 0.  1.
       -2   -1    0    0    0  501  0.00000000000E+00  0.00000000000E+00 -0.15285751153E+04  0.15285751153E+04  0.25500000920E-02 0. -1.
    10030    2    1    2    0    0  0.00000000000E+00  0.00000000000E+00 -0.42127241082E+03  0.26358778198E+04  0.26019956643E+04 0.  0.
        1    1    3    3  502    0  0.35942126119E+03 -0.55933190606E+03  0.92220984025E+03  0.11368846967E+04  0.50400001928E-02 0.  1.
       -1    1    3    3    0  502 -0.35942126119E+03  0.55933190606E+03 -0.13434822511E+04  0.14989931231E+04  0.50400001928E-02 0. -1.
</event>
<event>
 5   0  0.4464297E-06  0.2600526E+04  0.7818609E-02  0.8368023E-01
        1   -1    0    0  501    0  0.00000000000E+00  0.00000000000E+00  0.20453480643E+04  0.20453480643E+04  0.50400001928E-02 0. -1.
       -1   -1    0    0    0  501  0.00000000000E+00  0.00000000000E+00 -0.82659949492E+03  0.82659949494E+03  0.50400001928E-02 0.  1.
    10030    2    1    2    0    0  0.00000000000E+00  0.00000000000E+00  0.12187485694E+04  0.28719475592E+04  0.26005258521E+04 0.  0.
        4    1    3    3  502    0  0.82236684398E+03 -0.40309525812E+03  0.16286975721E+04  0.18685369698E+04  0.12699999809E+01 0. -1.
       -4    1    3    3    0  502 -0.82236684398E+03  0.40309525812E+03 -0.40994900277E+03  0.10034105894E+04  0.12699999809E+01 0.  1.
</event>
<event>
 5   0  0.4415080E-06  0.2611018E+04  0.7818609E-02  0.8364468E-01
       -1   -1    0    0    0  501  0.00000000000E+00  0.00000000000E+00  0.12143682459E+04  0.12143682459E+04  0.50400001928E-02 0. -1.
        1   -1    0    0  501    0  0.00000000000E+00  0.00000000000E+00 -0.14034897131E+04  0.14034897132E+04  0.50400001928E-02 0.  1.
    10030    2    1    2    0    0  0.00000000000E+00  0.00000000000E+00 -0.18912146723E+03  0.26178579591E+04  0.26110176875E+04 0.  0.
        2    1    3    3  502    0 -0.53335502942E+03 -0.66370888886E+03  0.89766629265E+03  0.12372476913E+04  0.25500000920E-02 0. -1.
       -2    1    3    3    0  502  0.53335502942E+03  0.66370888886E+03 -0.10867877599E+04  0.13806102678E+04  0.25500000920E-02 0.  1.
</event>
<event>
 5   0  0.1086507E-05  0.2712937E+04  0.7818609E-02  0.8330820E-01
        2   -1    0    0  501    0  0.00000000000E+00  0.00000000000E+00  0.21946775233E+04  0.21946775233E+04  0.25500000920E-02 0.  1.
       -2   -1    0    0    0  501  0.00000000000E+00  0.00000000000E+00 -0.83839495577E+03  0.83839495577E+03  0.25500000920E-02 0. -1.
    10030    2    1    2    0    0  0.00000000000E+00  0.00000000000E+00  0.13562825675E+04  0.30330724790E+04  0.27129368331E+04 0.  0.
        2    1    3    3  502    0  0.89495419118E+03 -0.24864067543E+03  0.17833493085E+04  0.20107461167E+04  0.25500000920E-02 0.  1.
       -2    1    3    3    0  502 -0.89495419118E+03  0.24864067543E+03 -0.42706674101E+03  0.10223263623E+04  0.25500000920E-02 0. -1.
</event>
<event>
 5   0  0.4361864E-06  0.2606903E+04  0.7818609E-02  0.8365860E-01
       -1   -1    0    0    0  501  0.00000000000E+00  0.00000000000E+00  0.82381985422E+03  0.82381985424E+03  0.50400001928E-02 0.  1.
        1   -1    0    0  501    0  0.00000000000E+00  0.00000000000E+00 -0.20623262787E+04  0.20623262787E+04  0.50400001928E-02 0. -1.
    10030    2    1    2    0    0  0.00000000000E+00  0.00000000000E+00 -0.12385064245E+04  0.28861461329E+04  0.26069026329E+04 0.  0.
        3    1    3    3  502    0 -0.59347264701E+03  0.57156709323E+03 -0.17374340030E+04  0.19229081231E+04  0.10100000352E+00 0. -1.
       -3    1    3    3    0  502  0.59347264701E+03 -0.57156709323E+03  0.49892757853E+03  0.96323800986E+03  0.10100000352E+00 0.  1.
</event>
<event>
 5   0  0.1085255E-05  0.2576748E+04  0.7818609E-02  0.8376142E-01
       -2   -1    0    0    0  501  0.00000000000E+00  0.00000000000E+00  0.15257023594E+04  0.15257023595E+04  0.25500000920E-02 0. -1.
        2   -1    0    0  501    0  0.00000000000E+00  0.00000000000E+00 -0.10879632359E+04  0.10879632359E+04  0.25500000920E-02 0.  1.
    10030    2    1    2    0    0  0.00000000000E+00  0.00000000000E+00  0.43773912358E+03  0.26136655953E+04  0.25767483975E+04 0.  0.
        5    1    3    3  502    0  0.87991615509E+03  0.68289624452E+03 -0.43793071118E+03  0.11968312824E+04  0.46999998093E+01 0.  1.
       -5    1    3    3    0  502 -0.87991615509E+03 -0.68289624452E+03  0.87566983475E+03  0.14168343129E+04  0.46999998093E+01 0. -1.
</event>
<event>
 5   0  0.4361864E-06  0.2604731E+04  0.7818609E-02  0.8366596E-01
        1   -1    0    0  501    0  0.00000000000E+00  0.00000000000E+00  0.94430323786E+03  0.94430323788E+03  0.50400001928E-02 0.  1.
       -1   -1    0    0    0  501  0.00000000000E+00  0.00000000000E+00 -0.17961978869E+04  0.17961978869E+04  0.50400001928E-02 0. -1.
    10030    2    1    2    0    0  0.00000000000E+00  0.00000000000E+00 -0.85189464905E+03  0.27405011248E+04  0.26047306813E+04 0.  0.
        3    1    3    3  502    0 -0.35774795800E+02 -0.88315259365E+03  0.58042350207E+03  0.10574165649E+04  0.10100000352E+00 0.  1.
       -3    1    3    3    0  502  0.35774795800E+02  0.88315259365E+03 -0.14323181511E+04  0.16830845599E+04  0.10100000352E+00 0. -1.
</event>
<event>
 5   0  0.1086507E-05  0.2584975E+04  0.7818609E-02  0.8373323E-01
        2   -1    0    0  501    0  0.00000000000E+00  0.00000000000E+00  0.13707587524E+04  0.13707587524E+04  0.25500000920E-02 0. -1.
       -2   -1    0    0    0  501  0.00000000000E+00  0.00000000000E+00 -0.12186854432E+04  0.12186854432E+04  0.25500000920E-02 0.  1.
    10030    2    1    2    0    0  0.00000000000E+00  0.00000000000E+00  0.15207330923E+03  0.25894441956E+04  0.25849748453E+04 0.  0.
        2    1    3    3  502    0  0.77731117786E+03 -0.29172008548E+03 -0.91623667822E+03  0.12364477045E+04  0.25500000920E-02 0.  1.
       -2    1    3    3    0  502 -0.77731117786E+03  0.29172008548E+03  0.10683099874E+04  0.13529964910E+04  0.25500000920E-02 0. -1.
</event>
<event>
 5   0  0.1086507E-05  0.2595530E+04  0.7818609E-02  0.8369721E-01
       -2   -1    0    0    0  501  0.00000000000E+00  0.00000000000E+00  0.10710508074E+04  0.10710508074E+04  0.25500000920E-02 0.  1.
        2   -1    0    0  501    0  0.00000000000E+00  0.00000000000E+00 -0.15724691050E+04  0.15724691050E+04  0.25500000920E-02 0. -1.
    10030    2    1    2    0    0  0.00000000000E+00  0.00000000000E+00 -0.50141829765E+03  0.26435199124E+04  0.25955302383E+04 0.  0.
        2    1    3    3  502    0  0.58922945249E+03 -0.19753147382E+03  0.90964673440E+03  0.11016656536E+04  0.25500000920E-02 0.  1.
       -2    1    3    3    0  502 -0.58922945249E+03  0.19753147382E+03 -0.14110650321E+04  0.15418542588E+04  0.25500000920E-02 0. -1.
</event>
<event>
 5   0  0.4218590E-06  0.2609851E+04  0.7818609E-02  0.8364863E-01
        1   -1    0    0  501    0  0.00000000000E+00  0.00000000000E+00  0.18097717760E+04  0.18097717760E+04  0.50400001928E-02 0. -1.
       -1   -1    0    0    0  501  0.00000000000E+00  0.00000000000E+00 -0.94090871053E+03  0.94090871055E+03  0.50400001928E-02 0.  1.
    10030    2    1    2    0    0  0.00000000000E+00  0.00000000000E+00  0.86886306543E+03  0.27506804865E+04  0.26098505920E+04 0.  0.
        1    1    3    3  502    0  0.10361555334E+04 -0.35377553676E+03  0.11827100822E+04  0.16117005175E+04  0.50400001928E-02 0.  1.
       -1    1    3    3    0  502 -0.10361555334E+04  0.35377553676E+03 -0.31384701675E+03  0.11389799690E+04  0.50400001928E-02 0. -1.
</event>
<event>
 5   0  0.1136881E-05  0.2569211E+04  0.7818609E-02  0.8378735E-01
        2   -1    0    0  501    0  0.00000000000E+00  0.00000000000E+00  0.14549563774E+04  0.14549563774E+04  0.25500000920E-02 0.  1.
       -2   -1    0    0    0  501  0.00000000000E+00  0.00000000000E+00 -0.11341998131E+04  0.11341998131E+04  0.25500000920E-02 0. -1.
    10030    2    1    2    0    0  0.00000000000E+00  0.00000000000E+00  0.32075656433E+03  0.25891561905E+04  0.25692109694E+04 0.  0.
        3    1    3    3  502    0 -0.47254075308E+03  0.94395633016E+03 -0.57733115191E+03  0.12031872613E+04  0.10100000352E+00 0. -1.
       -3    1    3    3    0  502  0.47254075308E+03 -0.94395633016E+03  0.89808771624E+03  0.13859689292E+04  0.10100000352E+00 0.  1.
</event>
<event>
 5   0  0.1086507E-05  0.2610634E+04  0.7818609E-02  0.8364598E-01
       -2   -1    0    0    0  501  0.00000000000E+00  0.00000000000E+00  0.13105701533E+04  0.13105701533E+04  0.25500000920E-02 0.  1.
        2   -1    0    0  501    0  0.00000000000E+00  0.00000000000E+00 -0.13000847813E+04  0.13000847813E+04  0.25500000920E-02 0. -1.
    10030    2    1    2    0    0  0.00000000000E+00  0.00000000000E+00  0.10485372001E+02  0.26106549347E+04  0.26106338780E+04 0.  0.
        2    1    3    3  502    0  0.57878395721E+03  0.92513188430E+03 -0.71099799570E+03  0.13024507754E+04  0.25500000920E-02 0. -1.
       -2    1    3    3    0  502 -0.57878395721E+03 -0.92513188430E+03  0.72148336770E+03  0.13082041593E+04  0.25500000920E-02 0.  1.
</event>
<event>
 5   0  0.4361864E-06  0.2607936E+04  0.7818609E-02  0.8365510E-01
       -1   -1    0    0    0  501  0.00000000000E+00  0.00000000000E+00  0.15966933057E+04  0.15966933057E+04  0.50400001928E-02 0.  1.
        1   -1    0    0  501    0  0.00000000000E+00  0.00000000000E+00 -0.10649088950E+04  0.10649088950E+04  0.50400001928E-02 0. -1.
    10030    2    1    2    0    0  0.00000000000E+00  0.00000000000E+00  0.53178441070E+03  0.26616022007E+04  0.26079362752E+04 0.  0.
        3    1    3    3  502    0 -0.12374693137E+03 -0.72317032351E+03  0.13660564068E+04  0.15506123747E+04  0.10100000352E+00 0.  1.
       -3    1    3    3    0  502  0.12374693137E+03  0.72317032351E+03 -0.83427199609E+03  0.11109898260E+04  0.10100000352E+00 0. -1.
</event>
<event>
 5   0  0.4361864E-06  0.2605583E+04  0.7818609E-02  0.8366307E-01
        1   -1    0    0  501    0  0.00000000000E+00  0.00000000000E+00  0.24356928544E+04  0.24356928544E+04  0.50400001928E-02 0.  1.
       -1   -1    0    0    0  501  0.00000000000E+00  0.00000000000E+00 -0.69683070913E+03  0.69683070915E+03  0.50400001928E-02 0. -1.
    10030    2    1    2    0    0  0.00000000000E+00  0.00000000000E+00  0.17388621453E+04  0.31325235636E+04  0.26055829129E+04 0.  0.
        3    1    3    3  502    0  0.52381573552E+03  0.38658339192E+03  0.22261128692E+04  0.23193551174E+04  0.10100000352E+00 0.  1.
       -3    1    3    3    0  502 -0.52381573552E+03 -0.38658339192E+03 -0.48725072395E+03  0.81316844619E+03  0.10100000352E+00 0. -1.
</event>
<event>
 5   0  0.4464297E-06  0.2666349E+04  0.7818609E-02  0.8346007E-01
       -1   -1    0    0    0  501  0.00000000000E+00  0.00000000000E+00  0.98089523862E+03  0.98089523864E+03  0.50400001928E-02 0. -1.
        1   -1    0    0  501    0  0.00000000000E+00  0.00000000000E+00 -0.18119709773E+04  0.18119709773E+04  0.50400001928E-02 0.  1.
    10030    2    1    2    0    0  0.00000000000E+00  0.00000000000E+00 -0.83107573866E+03  0.27928662159E+04  0.26663485925E+04 0.  0.
        4    1    3    3  502    0 -0.11498430852E+04  0.67180324035E+03 -0.48089551920E+03  0.14158816432E+04  0.12699999809E+01 0. -1.
       -4    1    3    3    0  502  0.11498430852E+04 -0.67180324035E+03 -0.35018021945E+03  0.13769845727E+04  0.12699999809E+01 0.  1.
</event>
<event>
 5   0  0.1136881E-05  0.2604094E+04  0.7818609E-02  0.8366812E-01
        2   -1    0    0  501    0  0.00000000000E+00  0.00000000000E+00  0.15093256551E+04  0.15093256551E+04  0.25500000920E-02 0.  1.
       -2   -1    0    0    0  501  0.00000000000E+00  0.00000000000E+00 -0.11232347262E+04  0.11232347262E+04  0.25500000920E-02 0. -1.
    10030    2    1    2    0    0  0.00000000000E+00  0.00000000000E+00  0.38609092896E+03  0.26325603813E+04  0.26040944598E+04 0.  0.
        3    1    3    3  502    0 -0.48075889838E+03 -0.74760562837E+03 -0.76881916382E+03  0.11752132618E+04  0.10100000352E+00 0. -1.
       -3    1    3    3    0  502  0.48075889838E+03  0.74760562837E+03  0.11549100928E+04  0.14573471194E+04  0.10100000352E+00 0.  1.
</event>
<event>
 5   0  0.1086507E-05  0.2609742E+04  0.7818609E-02  0.8364900E-01
        2   -1    0    0  501    0  0.00000000000E+00  0.00000000000E+00  0.22028197291E+04  0.22028197291E+04  0.25500000920E-02 0. -1.
       -2   -1    0    0    0  501  0.00000000000E+00  0.00000000000E+00 -0.77295847657E+03  0.77295847658E+03  0.25500000920E-02 0.  1.
    10030    2    1    2    0    0  0.00000000000E+00  0.00000000000E+00  0.14298612525E+04  0.29757782057E+04  0.26097418891E+04 0.  0.
        2    1    3    3  502    0  0.51494028063E+03  0.56579734683E+03  0.19202633768E+04  0.20670514185E+04  0.25500000920E-02 0. -1.
       -2    1    3    3    0  502 -0.51494028063E+03 -0.56579734683E+03 -0.49040212428E+03  0.90872678721E+03  0.25500000920E-02 0.  1.
</event>
<event>
 5   0  0.1116310E-05  0.2495397E+04  0.7818609E-02  0.8404627E-01
        2   -1    0    0  501    0  0.00000000000E+00  0.00000000000E+00  0.17422833794E+04  0.17422833794E+04  0.25500000920E-02 0.  1.
       -2   -1    0    0    0  501  0.00000000000E+00  0.00000000000E+00 -0.89351219378E+03  0.89351219379E+03  0.25500000920E-02 0. -1.
    10030    2    1    2    0    0  0.00000000000E+00  0.00000000000E+00  0.84877118562E+03  0.26357955732E+04  0.24953969180E+04 0.  0.
        4    1    3    3  502    0  0.44354873524E+03 -0.34657055290E+03  0.16005444430E+04  0.16966410214E+04  0.12699999809E+01 0.  1.
       -4    1    3    3    0  502 -0.44354873524E+03  0.34657055290E+03 -0.75177325738E+03  0.93915455176E+03  0.12699999809E+01 0. -1.
</event>
<event>
 5   0  0.4415080E-06  0.2572301E+04  0.7818609E-02  0.8377671E-01
        1   -1    0    0  501    0  0.00000000000E+00  0.00000000000E+00  0.19590328601E+04  0.19590328601E+04  0.50400001928E-02 0. -1.
       -1   -1    0    0    0  501  0.00000000000E+00  0.00000000000E+00 -0.84438759866E+03  0.84438759867E+03  0.50400001928E-02 0.  1.
    10030    2    1    2    0    0  0.00000000000E+00  0.00000000000E+00  0.11146452614E+04  0.28034204588E+04  0.25723009563E+04 0.  0.
        2    1    3    3  502    0  0.29453856641E+03  0.25563619048E+03 -0.77838997097E+03  0.87062837991E+03  0.25500000920E-02 0.  1.
       -2    1    3    3    0  502 -0.29453856641E+03 -0.25563619048E+03  0.18930352324E+04  0.19327920788E+04  0.25500000920E-02 0. -1.
</event>
<event>
 5   0  0.1136881E-05  0.2596791E+04  0.7818609E-02  0.8369292E-01
        2   -1    0    0  501    0  0.00000000000E+00  0.00000000000E+00  0.11482513174E+04  0.11482513174E+04  0.25500000920E-02 0.  1.
       -2   -1    0    0    0  501  0.00000000000E+00  0.00000000000E+00 -0.14681724818E+04  0.14681724818E+04  0.25500000920E-02 0. -1.
    10030    2    1    2    0    0  0.00000000000E+00  0.00000000000E+00 -0.31992116436E+03  0.26164237992E+04  0.25967910863E+04 0.  0.
        3    1    3    3  502    0  0.36242350300E+03 -0.93217341740E+03  0.67426831686E+03  0.12062072164E+04  0.10100000352E+00 0.  1.
       -3    1    3    3    0  502 -0.36242350300E+03  0.93217341740E+03 -0.99418948122E+03  0.14102165828E+04  0.10100000352E+00 0. -1.
</event>
<event>
 5   0  0.1086507E-05  0.2562925E+04  0.7818609E-02  0.8380905E-01
        2   -1    0    0  501    0  0.00000000000E+00  0.00000000000E+00  0.13752580773E+04  0.13752580773E+04  0.25500000920E-02 0.  1.
       -2   -1    0    0    0  501  0.00000000000E+00  0.00000000000E+00 -0.11940643052E+04  0.11940643052E+04  0.25500000920E-02 0. -1.
    10030    2    1    2    0    0  0.00000000000E+00  0.00000000000E+00  0.18119377209E+03  0.25693223825E+04  0.25629253446E+04 0.  0.
        2    1    3    3  502    0 -0.12372666302E+04 -0.69910887228E+02 -0.23645402064E+03  0.12615969048E+04  0.25500000920E-02 0. -1.
       -2    1    3    3    0  502  0.12372666302E+04  0.69910887228E+02  0.41764779273E+03  0.13077254777E+04  0.25500000920E-02 0.  1.
</event>
<event>
 5   0  0.4218590E-06  0.2601513E+04  0.7818609E-02  0.8367687E-01
        1   -1    0    0  501    0  0.00000000000E+00  0.00000000000E+00  0.18598551006E+04  0.18598551006E+04  0.50400001928E-02 0.  1.
       -1   -1    0    0    0  501  0.00000000000E+00  0.00000000000E+00 -0.90973081322E+03  0.90973081323E+03  0.50400001928E-02 0. -1.
    10030    2    1    2    0    0  0.00000000000E+00  0.00000000000E+00  0.95012428740E+03  0.27695859139E+04  0.26015130161E+04 0.  0.
        1    1    3    3  502    0  0.11849873453E+04 -0.26256417054E+03  0.97307985746E+03  0.15556411415E+04  0.50400001928E-02 0.  1.
       -1    1    3    3    0  502 -0.11849873453E+04  0.26256417054E+03 -0.22955570063E+02  0.12139447724E+04  0.50400001928E-02 0. -1.
</event>
<event>
 5   0  0.4361864E-06  0.2636151E+04  0.7818609E-02  0.8356024E-01
       -1   -1    0    0    0  501  0.00000000000E+00  0.00000000000E+00  0.12583291174E+04  0.12583291174E+04  0.50400001928E-02 0. -1.
        1   -1    0    0  501    0  0.00000000000E+00  0.00000000000E+00 -0.13806582580E+04  0.13806582580E+04  0.50400001928E-02 0.  1.
    10030    2    1    2    0    0  0.00000000000E+00  0.00000000000E+00 -0.12232914058E+03  0.26389873754E+04  0.26361505930E+04 0.  0.
        3    1    3    3  502    0  0.79551717330E+03 -0.25658776746E+03  0.95906785255E+03  0.12722012464E+04  0.10100000352E+00 0. -1.
       -3    1    3    3    0  502 -0.79551717330E+03  0.25658776746E+03 -0.10813969931E+04  0.13667861290E+04  0.10100000352E+00 0.  1.
</event>
<event>
 5   0  0.4464297E-06  0.2595585E+04  0.7818609E-02  0.8369702E-01
        1   -1    0    0  501    0  0.00000000000E+00  0.00000000000E+00  0.14169210990E+04  0.14169210990E+04  0.50400001928E-02 0. -1.
       -1   -1    0    0    0  501  0.00000000000E+00  0.00000000000E+00 -0.11886798687E+04  0.11886798688E+04  0.50400001928E-02 0.  1.
    10030    2    1    2    0    0  0.00000000000E+00  0.00000000000E+00  0.22824123028E+03  0.26056009678E+04  0.25955851641E+04 0.  0.
        4    1    3    3  502    0 -0.19102792365E+03 -0.12815430089E+04  0.18802413545E+03  0.13092741652E+04  0.12699999809E+01 0.  1.
       -4    1    3    3    0  502  0.19102792365E+03  0.12815430089E+04  0.40217094828E+02  0.12963268025E+04  0.12699999809E+01 0. -1.
</event>
<event>
 5   0  0.4361864E-06  0.2553150E+04  0.7818609E-02  0.8384292E-01
       -1   -1    0    0    0  501  0.00000000000E+00  0.00000000000E+00  0.76389788822E+03  0.76389788823E+03  0.50400001928E-02 0.  1.
        1   -1    0    0  501    0  0.00000000000E+00  0.00000000000E+00 -0.21333263909E+04  0.21333263909E+04  0.50400001928E-02 0. -1.
    10030    2    1    2    0    0  0.00000000000E+00  0.00000000000E+00 -0.13694285027E+04  0.28972242791E+04  0.25531498389E+04 0.  0.
        3    1    3    3  502    0  0.72399768801E+03 -0.74151539611E+03 -0.15305713659E+04  0.18484226928E+04  0.10100000352E+00 0.  1.
       -3    1    3    3    0  502 -0.72399768801E+03  0.74151539611E+03  0.16114286323E+03  0.10488015863E+04  0.10100000352E+00 0. -1.
</event>
<event>
 5   0  0.1136881E-05  0.2605903E+04  0.7818609E-02  0.8366199E-01
        2   -1    0    0  501    0  0.00000000000E+00  0.00000000000E+00  0.19451298467E+04  0.19451298467E+04  0.25500000920E-02 0.  1.
       -2   -1    0    0    0  501  0.00000000000E+00  0.00000000000E+00 -0.87278647627E+03  0.87278647627E+03  0.25500000920E-02 0. -1.
    10030    2    1    2    0    0  0.00000000000E+00  0.00000000000E+00  0.10723433704E+04  0.28179163229E+04  0.26059033173E+04 0.  0.
        3    1    3    3  502    0  0.70326347156E+03  0.10957221480E+04  0.48214184209E+03  0.13883973863E+04  0.10100000352E+00 0. -1.
       -3    1    3    3    0  502 -0.70326347156E+03 -0.10957221480E+04  0.59020152830E+03  0.14295189367E+04  0.10100000352E+00 0.  1.
</event>
<event>
 5   0  0.4415080E-06  0.2603111E+04  0.7818609E-02  0.8367145E-01
        1   -1    0    0  501    0  0.00000000000E+00  0.00000000000E+00  0.15364676516E+04  0.15364676516E+04  0.50400001928E-02 0. -1.
       -1   -1    0    0    0  501  0.00000000000E+00  0.00000000000E+00 -0.11025595659E+04  0.11025595659E+04  0.50400001928E-02 0.  1.
    10030    2    1    2    0    0  0.00000000000E+00  0.00000000000E+00  0.43390808568E+03  0.26390272176E+04  0.26031112977E+04 0.  0.
        2    1    3    3  502    0  0.20059927932E+03 -0.35033086487E+03 -0.10374845611E+04  0.11132591793E+04  0.25500000920E-02 0.  1.
       -2    1    3    3    0  502 -0.20059927932E+03  0.35033086487E+03  0.14713926468E+04  0.15257680383E+04  0.25500000920E-02 0. -1.
</event>
<event>
 5   0  0.1085061E-05  0.2636659E+04  0.7818609E-02  0.8355855E-01
        2   -1    0    0  501    0  0.00000000000E+00  0.00000000000E+00  0.20632006042E+04  0.20632006042E+04  0.25500000920E-02 0. -1.
       -2   -1    0    0    0  501  0.00000000000E+00  0.00000000000E+00 -0.84237665719E+03  0.84237665719E+03  0.25500000920E-02 0.  1.
    10030    2    1    2    0    0  0.00000000000E+00  0.00000000000E+00  0.12208239470E+04  0.29055772614E+04  0.26366585127E+04 0.  0.
        1    1    3    3  502    0 -0.57523199005E+03  0.10492627600E+04  0.67273140755E+00  0.11965971062E+04  0.50400001928E-02 0.  1.
       -1    1    3    3    0  502  0.57523199005E+03 -0.10492627600E+04  0.12201512156E+04  0.17089801552E+04  0.50400001928E-02 0. -1.
</event>
<event>
 5   0  0.4415080E-06  0.2474518E+04  0.7818609E-02  0.8412120E-01
        1   -1    0    0  501    0  0.00000000000E+00  0.00000000000E+00  0.14450260270E+04  0.14450260270E+04  0.50400001928E-02 0. -1.
       -1   -1    0    0    0  501  0.00000000000E+00  0.00000000000E+00 -0.10593649928E+04  0.10593649928E+04  0.50400001928E-02 0.  1.
    10030    2    1    2    0    0  0.00000000000E+00  0.00000000000E+00  0.38566103418E+03  0.25043910199E+04  0.24745181242E+04 0.  0.
        2    1    3    3  502    0 -0.36577736997E+02  0.65753952367E+03 -0.86724631654E+03  0.10889501043E+04  0.25500000920E-02 0.  1.
       -2    1    3    3    0  502  0.36577736997E+02 -0.65753952367E+03  0.12529073507E+04  0.14154409156E+04  0.25500000920E-02 0. -1.
</event>
<event>
 5   0  0.4361864E-06  0.2602488E+04  0.7818609E-02  0.8367357E-01
       -1   -1    0    0    0  501  0.00000000000E+00  0.00000000000E+00  0.98399025461E+03  0.98399025463E+03  0.50400001928E-02 0.  1.
        1   -1    0    0  501    0  0.00000000000E+00  0.00000000000E+00 -0.17207848575E+04  0.17207848575E+04  0.50400001928E-02 0. -1.
    10030    2    1    2    0    0  0.00000000000E+00  0.00000000000E+00 -0.73679460293E+03  0.27047751122E+04  0.26024876792E+04 0.  0.
        3    1    3    3  502    0 -0.10017487954E+04  0.29757062531E+03 -0.11742341514E+04  0.15719016440E+04  0.10100000352E+00 0. -1.
       -3    1    3    3    0  502  0.10017487954E+04 -0.29757062531E+03  0.43743954843E+03  0.11328734681E+04  0.10100000352E+00 0.  1.
</event>
<event>
 5   0  0.1085061E-05  0.2603688E+04  0.7818609E-02  0.8366950E-01
        2   -1    0    0  501    0  0.00000000000E+00  0.00000000000E+00  0.12609586278E+04  0.12609586278E+04  0.25500000920E-02 0.  1.
       -2   -1    0    0    0  501  0.00000000000E+00  0.00000000000E+00 -0.13440549429E+04  0.13440549429E+04  0.25500000920E-02 0. -1.
    10030    2    1    2    0    0  0.00000000000E+00  0.00000000000E+00 -0.83096315095E+02  0.26050135707E+04  0.26036879049E+04 0.  0.
        1    1    3    3  502    0  0.95403315771E+03 -0.83867290579E+03  0.24363410252E+03  0.12934098673E+04  0.50400001928E-02 0.  1.
       -1    1    3    3    0  502 -0.95403315771E+03  0.83867290579E+03 -0.32673041762E+03  0.13116037034E+04  0.50400001928E-02 0. -1.
</event>
<event>
 5   0  0.4464297E-06  0.2459019E+04  0.7818609E-02  0.8417733E-01
       -1   -1    0    0    0  501  0.00000000000E+00  0.00000000000E+00  0.12808155776E+04  0.12808155776E+04  0.50400001928E-02 0. -1.
        1   -1    0    0  501    0  0.00000000000E+00  0.00000000000E+00 -0.11802581553E+04  0.11802581553E+04  0.50400001928E-02 0.  1.
    10030    2    1    2    0    0  0.00000000000E+00  0.00000000000E+00  0.10055742225E+03  0.24610737329E+04  0.24590185286E+04 0.  0.
        4    1    3    3  502    0  0.74286025108E+03  0.95801787993E+03  0.25551547407E+03  0.12389226696E+04  0.12699999809E+01 0. -1.
       -4    1    3    3    0  502 -0.74286025108E+03 -0.95801787993E+03 -0.15495805182E+03  0.12221510633E+04  0.12699999809E+01 0.  1.
</event>
<event>
 5   0  0.1086507E-05  0.2604001E+04  0.7818609E-02  0.8366844E-01
        2   -1    0    0  501    0  0.00000000000E+00  0.00000000000E+00  0.96219169100E+03  0.96219169100E+03  0.25500000920E-02 0.  1.
       -2   -1    0    0    0  501  0.00000000000E+00  0.00000000000E+00 -0.17618159978E+04  0.17618159978E+04  0.25500000920E-02 0. -1.
    10030    2    1    2    0    0  0.00000000000E+00  0.00000000000E+00 -0.79962430682E+03  0.27240076888E+04  0.26040005485E+04 0.  0.
        2    1    3    3  502    0 -0.71348898925E+03 -0.15308853572E+03  0.72816806074E+03  0.10308886275E+04  0.25500000920E-02 0.  1.
       -2    1    3    3    0  502  0.71348898925E+03  0.15308853572E+03 -0.15277923676E+04  0.16931190614E+04  0.25500000920E-02 0. -1.
</event>
<event>
 5   0  0.4597705E-06  0.2621134E+04  0.7818609E-02  0.8361058E-01
        1   -1    0    0  501    0  0.00000000000E+00  0.00000000000E+00  0.21529724602E+04  0.21529724602E+04  0.50400001928E-02 0. -1.
       -1   -1    0    0    0  501  0.00000000000E+00  0.00000000000E+00 -0.79777409192E+03  0.79777409194E+03  0.50400001928E-02 0.  1.
    10030    2    1    2    0    0  0.00000000000E+00  0.00000000000E+00  0.13551983683E+04  0.29507465521E+04  0.26211338382E+04 0.  0.
        5    1    3    3  502    0 -0.65709166762E+02 -0.97303097809E+02 -0.79183185980E+03  0.80050319901E+03  0.46999998093E+01 0.  1.
       -5    1    3    3    0  502  0.65709166762E+02  0.97303097809E+02  0.21470302280E+04  0.21502433531E+04  0.46999998093E+01 0. -1.
</event>
<event>
 5   0  0.1136881E-05  0.2621036E+04  0.7818609E-02  0.8361091E-01
       -2   -1    0    0    0  501  0.00000000000E+00  0.00000000000E+00  0.92776531722E+03  0.92776531722E+03  0.25500000920E-02 0.  1.
        2   -1    0    0  501    0  0.00000000000E+00  0.00000000000E+00 -0.18511768104E+04  0.18511768104E+04  0.25500000920E-02 0. -1.
    10030    2    1    2    0    0  0.00000000000E+00  0.00000000000E+00 -0.92341149314E+03  0.27789421276E+04  0.26210361621E+04 0.  0.
        3    1    3    3  502    0  0.10604271595E+04  0.74635768056E+03 -0.26081204993E+03  0.13227163277E+04  0.10100000352E+00 0.  1.
       -3    1    3    3    0  502 -0.10604271595E+04 -0.74635768056E+03 -0.66259944320E+03  0.14562257999E+04  0.10100000352E+00 0. -1.
</event>
<event>
 5   0  0.4415080E-06  0.2600294E+04  0.7818609E-02  0.8368101E-01
       -1   -1    0    0    0  501  0.00000000000E+00  0.00000000000E+00  0.11382246632E+04  0.11382246632E+04  0.50400001928E-02 0. -1.
        1   -1    0    0  501    0  0.00000000000E+00  0.00000000000E+00 -0.14851042938E+04  0.14851042939E+04  0.50400001928E-02 0.  1.
    10030    2    1    2    0    0  0.00000000000E+00  0.00000000000E+00 -0.34687963066E+03  0.26233289570E+04  0.26002940870E+04 0.  0.
        2    1    3    3  502    0 -0.11037187760E+04  0.54330418447E+03 -0.59788971912E+03  0.13677889785E+04  0.25500000920E-02 0.  1.
       -2    1    3    3    0  502  0.11037187760E+04 -0.54330418447E+03  0.25101008846E+03  0.12555399786E+04  0.25500000920E-02 0. -1.
</event>
<event>
 5   0  0.1086507E-05  0.2618306E+04  0.7818609E-02  0.8362010E-01
       -2   -1    0    0    0  501  0.00000000000E+00  0.00000000000E+00  0.71270659702E+03  0.71270659702E+03  0.25500000920E-02 0.  1.
        2   -1    0    0  501    0  0.00000000000E+00  0.00000000000E+00 -0.24047503831E+04  0.24047503831E+04  0.25500000920E-02 0. -1.
    10030    2    1    2    0    0  0.00000000000E+00  0.00000000000E+00 -0.16920437861E+04  0.31174569801E+04  0.26183059120E+04 0.  0.
        2    1    3    3  502    0 -0.21509696996E+03  0.82170362484E+02  0.68840767979E+03  0.72589517739E+03  0.25500000920E-02 0.  1.
       -2    1    3    3    0  502  0.21509696996E+03 -0.82170362484E+02 -0.23804514659E+04  0.23915618027E+04  0.25500000920E-02 0. -1.
</event>
<event>
 5   0  0.1085061E-05  0.2597514E+04  0.7818609E-02  0.8369046E-01
        2   -1    0    0  501    0  0.00000000000E+00  0.00000000000E+00  0.24623996474E+04  0.24623996474E+04  0.25500000920E-02 0. -1.
       -2   -1    0    0    0  501  0.00000000000E+00  0.00000000000E+00 -0.68501071242E+03  0.68501071242E+03  0.25500000920E-02 0.  1.
    10030    2    1    2    0    0  0.00000000000E+00  0.00000000000E+00  0.17773889350E+04  0.31474103598E+04  0.25975143016E+04 0.  0.
        1    1    3    3  502    0  0.83815177140E+03 -0.48305837797E+03  0.19387060605E+04  0.21666621743E+04  0.50400001928E-02 0. -1.
       -1    1    3    3    0  502 -0.83815177140E+03  0.48305837797E+03 -0.16131712551E+03  0.98074818554E+03  0.50400001928E-02 0.  1.
</event>
<event>
 5   0  0.4361864E-06  0.2519405E+04  0.7818609E-02  0.8396105E-01
        1   -1    0    0  501    0  0.00000000000E+00  0.00000000000E+00  0.14789411736E+04  0.14789411736E+04  0.50400001928E-02 0. -1.
       -1   -1    0    0    0  501  0.00000000000E+00  0.00000000000E+00 -0.10729642395E+04  0.10729642395E+04  0.50400001928E-02 0.  1.
    10030    2    1    2    0    0  0.00000000000E+00  0.00000000000E+00  0.40597693409E+03  0.25519054131E+04  0.25194054787E+04 0.  0.
        3    1    3    3  502    0  0.14229123199E+03 -0.60938129607E+03  0.13103704324E+04  0.14521236308E+04  0.10100000352E+00 0. -1.
       -3    1    3    3    0  502 -0.14229123199E+03  0.60938129607E+03 -0.90439349831E+03  0.10997817823E+04  0.10100000352E+00 0.  1.
</event>
<event>
 5   0  0.4464297E-06  0.2613011E+04  0.7818609E-02  0.8363795E-01
       -1   -1    0    0    0  501  0.00000000000E+00  0.00000000000E+00  0.84888631105E+03  0.84888631106E+03  0.50400001928E-02 0.  1.
        1   -1    0    0  501    0  0.00000000000E+00  0.00000000000E+00 -0.20108195905E+04  0.20108195905E+04  0.50400001928E-02 0. -1.
    10030    2    1    2    0    0  0.00000000000E+00  0.00000000000E+00 -0.11619332795E+04  0.28597059016E+04  0.26130114614E+04 0.  0.
        4    1    3    3  502    0  0.10656336552E+04  0.47887851549E+02 -0.14065662809E+04  0.17653041236E+04  0.12699999809E+01 0. -1.
       -4    1    3    3    0  502 -0.10656336552E+04 -0.47887851549E+02  0.24463300145E+03  0.10944017780E+04  0.12699999809E+01 0.  1.
</event>
<event>
 5   0  0.1086507E-05  0.2618607E+04  0.7818609E-02  0.8361908E-01
        2   -1    0    0  501    0  0.00000000000E+00  0.00000000000E+00  0.17569876363E+04  0.17569876363E+04  0.25500000920E-02 0.  1.
       -2   -1    0    0    0  501  0.00000000000E+00  0.00000000000E+00 -0.97569048042E+03  0.97569048043E+03  0.25500000920E-02 0. -1.
    10030    2    1    2    0    0  0.00000000000E+00  0.00000000000E+00  0.78129715584E+03  0.27326781167E+04  0.26186073481E+04 0.  0.
        2    1    3    3  502    0  0.82254951408E+03 -0.69162886942E+03  0.11711168026E+04  0.15894819161E+04  0.25500000920E-02 0.  1.
       -2    1    3    3    0  502 -0.82254951408E+03  0.69162886942E+03 -0.38981964677E+03  0.11431962006E+04  0.25500000920E-02 0. -1.
</event>
<event>
 5   0  0.1116310E-05  0.2477140E+04  0.7818609E-02  0.8411175E-01
        2   -1    0    0  501    0  0.00000000000E+00  0.00000000000E+00  0.13478954211E+04  0.13478954211E+04  0.25500000920E-02 0.  1.
       -2   -1    0    0    0  501  0.00000000000E+00  0.00000000000E+00 -0.11381118295E+04  0.11381118295E+04  0.25500000920E-02 0. -1.
    10030    2    1    2    0    0  0.00000000000E+00  0.00000000000E+00  0.20978359162E+03  0.24860072507E+04  0.24771400637E+04 0.  0.
        4    1    3    3  502    0  0.21457350430E+03 -0.98569871988E+03 -0.61629754458E+03  0.11821455204E+04  0.12699999809E+01 0. -1.
       -4    1    3    3    0  502 -0.21457350430E+03  0.98569871988E+03  0.82608113619E+03  0.13038617302E+04  0.12699999809E+01 0.  1.
</event>
<event>
 5   0  0.1136881E-05  0.2590972E+04  0.7818609E-02  0.8371274E-01
       -2   -1    0    0    0  501  0.00000000000E+00  0.00000000000E+00  0.91319343012E+03  0.91319343012E+03  0.25500000920E-02 0. -1.
        2   -1    0    0  501    0  0.00000000000E+00  0.00000000000E+00 -0.18378189148E+04  0.18378189148E+04  0.25500000920E-02 0.  1.
    10030    2    1    2    0    0  0.00000000000E+00  0.00000000000E+00 -0.92462548469E+03  0.27510123449E+04  0.25909721409E+04 0.  0.
        3    1    3    3  502    0 -0.78353796000E+03  0.91264085960E+03 -0.97310950787E+03  0.15471868659E+04  0.10100000352E+00 0.  1.
       -3    1    3    3    0  502  0.78353796000E+03 -0.91264085960E+03  0.48484023188E+02  0.12038254791E+04  0.10100000352E+00 0. -1.
</event>
<event>
 5   0  0.1085255E-05  0.2600104E+04  0.7818609E-02  0.8368166E-01
       -2   -1    0    0    0  501  0.00000000000E+00  0.00000000000E+00  0.96885585270E+03  0.96885585271E+03  0.25500000920E-02 0.  1.
        2   -1    0    0  501    0  0.00000000000E+00  0.00000000000E+00 -0.17444644516E+04  0.17444644516E+04  0.25500000920E-02 0. -1.
    10030    2    1    2    0    0  0.00000000000E+00  0.00000000000E+00 -0.77560859888E+03  0.27133203043E+04  0.26001035316E+04 0.  0.
        5    1    3    3  502    0 -0.83479691102E+03  0.20963012946E+03  0.62893124777E+03  0.10660240514E+04  0.46999998093E+01 0.  1.
       -5    1    3    3    0  502  0.83479691102E+03 -0.20963012946E+03 -0.14045398467E+04  0.16472962529E+04  0.46999998093E+01 0. -1.
</event>
<event>
 5   0  0.4464297E-06  0.2608487E+04  0.7818609E-02  0.8365324E-01
       -1   -1    0    0    0  501  0.00000000000E+00  0.00000000000E+00  0.75014854316E+03  0.75014854318E+03  0.50400001928E-02 0.  1.
        1   -1    0    0  501    0  0.00000000000E+00  0.00000000000E+00 -0.22676191576E+04  0.22676191576E+04  0.50400001928E-02 0. -1.
    10030    2    1    2    0    0  0.00000000000E+00  0.00000000000E+00 -0.15174706144E+04  0.30177677008E+04  0.26084870769E+04 0.  0.
        4    1    3    3  502    0 -0.43919526366E+03  0.32669108380E+03  0.61083026225E+03  0.82020410023E+03  0.12699999809E+01 0.  1.
       -4    1    3    3    0  502  0.43919526366E+03 -0.32669108380E+03 -0.21283008767E+04  0.21975636005E+04  0.12699999809E+01 0. -1.
</event>
<event>
 5   0  0.4597705E-06  0.2412997E+04  0.7818609E-02  0.8434654E-01
       -1   -1    0    0    0  501  0.00000000000E+00  0.00000000000E+00  0.88836793853E+03  0.88836793855E+03  0.50400001928E-02 0. -1.
        1   -1    0    0  501    0  0.00000000000E+00  0.00000000000E+00 -0.16385539653E+04  0.16385539653E+04  0.50400001928E-02 0.  1.
    10030    2    1    2    0    0  0.00000000000E+00  0.00000000000E+00 -0.75018602674E+03  0.25269219038E+04  0.24129971474E+04 0.  0.
        5    1    3    3  502    0  0.39204796843E+01  0.12064830449E+04 -0.37498582492E+03  0.12634291301E+04  0.46999998093E+01 0.  1.
       -5    1    3    3    0  502 -0.39204796843E+01 -0.12064830449E+04 -0.37520020182E+03  0.12634927737E+04  0.46999998093E+01 0. -1.
</event>
<event>
 5   0  0.4218590E-06  0.2600384E+04  0.7818609E-02  0.8368071E-01
        1   -1    0    0  501    0  0.00000000000E+00  0.00000000000E+00  0.15248228585E+04  0.15248228585E+04  0.50400001928E-02 0.  1.
       -1   -1    0    0    0  501  0.00000000000E+00  0.00000000000E+00 -0.11086528850E+04  0.11086528850E+04  0.50400001928E-02 0. -1.
    10030    2    1    2    0    0  0.00000000000E+00  0.00000000000E+00  0.41616997355E+03  0.26334757435E+04  0.26003840187E+04 0.  0.
        1    1    3    3  502    0  0.12836257471E+04  0.13526709459E+03  0.36662432753E+03  0.13417919523E+04  0.50400001928E-02 0.  1.
       -1    1    3    3    0  502 -0.12836257471E+04 -0.13526709459E+03  0.49545646020E+02  0.12916837913E+04  0.50400001928E-02 0. -1.
</event>
<event>
 5   0  0.1116310E-05  0.2592187E+04  0.7818609E-02  0.8370860E-01
       -2   -1    0    0    0  501  0.00000000000E+00  0.00000000000E+00  0.78148863838E+03  0.78148863839E+03  0.25500000920E-02 0.  1.
        2   -1    0    0  501    0  0.00000000000E+00  0.00000000000E+00 -0.21495622130E+04  0.21495622130E+04  0.25500000920E-02 0. -1.
    10030    2    1    2    0    0  0.00000000000E+00  0.00000000000E+00 -0.13680735746E+04  0.29310508514E+04  0.25921870665E+04 0.  0.
        4    1    3    3  502    0  0.99548138998E+03  0.58316209876E+03 -0.13518307899E+04  0.17772195499E+04  0.12699999809E+01 0. -1.
       -4    1    3    3    0  502 -0.99548138998E+03 -0.58316209876E+03 -0.16242784700E+02  0.11538313014E+04  0.12699999809E+01 0.  1.
</event>
<event>
 5   0  0.1116310E-05  0.2600910E+04  0.7818609E-02  0.8367892E-01
       -2   -1    0    0    0  501  0.00000000000E+00  0.00000000000E+00  0.13247388286E+04  0.13247388286E+04  0.25500000920E-02 0.  1.
        2   -1    0    0  501    0  0.00000000000E+00  0.00000000000E+00 -0.12766164666E+04  0.12766164666E+04  0.25500000920E-02 0. -1.
    10030    2    1    2    0    0  0.00000000000E+00  0.00000000000E+00  0.48122362000E+02  0.26013552951E+04  0.26009101503E+04 0.  0.
        4    1    3    3  502    0  0.87943634388E+03  0.13844732746E+03 -0.92404928862E+03  0.12831385919E+04  0.12699999809E+01 0. -1.
       -4    1    3    3    0  502 -0.87943634388E+03 -0.13844732746E+03  0.97217165062E+03  0.13182167032E+04  0.12699999809E+01 0.  1.
</event>
<event>
 5   0  0.3705250E-06  0.2605609E+04  0.7818609E-02  0.8366298E-01
       -3   -1    0    0    0  501  0.00000000000E+00  0.00000000000E+00  0.10971532439E+04  0.10971532485E+04  0.10100000352E+00 0. -1.
        3   -1    0    0  501    0  0.00000000000E+00  0.00000000000E+00 -0.15470033101E+04  0.15470033134E+04  0.10100000352E+00 0.  1.
    10030    2    1    2    0    0  0.00000000000E+00  0.00000000000E+00 -0.44985006620E+03  0.26441565619E+04  0.26056091115E+04 0.  0.
        4    1    3    3  502    0  0.67605304520E+03 -0.11077086522E+04 -0.34165687163E+03  0.13419378558E+04  0.12699999809E+01 0.  1.
       -4    1    3    3    0  502 -0.67605304520E+03  0.11077086522E+04 -0.10819319458E+03  0.13022187060E+04  0.12699999809E+01 0. -1.
</event>
<event>
 5   0  0.1086507E-05  0.2606996E+04  0.7818609E-02  0.8365829E-01
        2   -1    0    0  501    0  0.00000000000E+00  0.00000000000E+00  0.22559132616E+04  0.22559132616E+04  0.25500000920E-02 0. -1.
       -2   -1    0    0    0  501  0.00000000000E+00  0.00000000000E+00 -0.75317925842E+03  0.75317925843E+03  0.25500000920E-02 0.  1.
    10030    2    1    2    0    0  0.00000000000E+00  0.00000000000E+00  0.15027340032E+04  0.30090925200E+04  0.26069960318E+04 0.  0.
        2    1    3    3  502    0  0.11340271829E+04  0.59161848588E+03  0.10412552844E+04  0.16493158132E+04  0.25500000920E-02 0. -1.
       -2    1    3    3    0  502 -0.11340271829E+04 -0.59161848588E+03  0.46147871879E+03  0.13597767068E+04  0.25500000920E-02 0.  1.
</event>
<event>
 5   0  0.4415080E-06  0.2596860E+04  0.7818609E-02  0.8369268E-01
       -1   -1    0    0    0  501  0.00000000000E+00  0.00000000000E+00  0.80622917430E+03  0.80622917431E+03  0.50400001928E-02 0.  1.
        1   -1    0    0  501    0  0.00000000000E+00  0.00000000000E+00 -0.20911188075E+04  0.20911188076E+04  0.50400001928E-02 0. -1.
    10030    2    1    2    0    0  0.00000000000E+00  0.00000000000E+00 -0.12848896332E+04  0.28973479819E+04  0.25968604041E+04 0.  0.
        2    1    3    3  502    0 -0.64863504593E+03  0.59952119645E+03 -0.17042883275E+04  0.19195707309E+04  0.25500000920E-02 0. -1.
       -2    1    3    3    0  502  0.64863504593E+03 -0.59952119645E+03  0.41939869421E+03  0.97777725097E+03  0.25500000920E-02 0.  1.
</event>
<event>
 5   0  0.4361864E-06  0.2600414E+04  0.7818609E-02  0.8368061E-01
       -1   -1    0    0    0  501  0.00000000000E+00  0.00000000000E+00  0.11183702673E+04  0.11183702673E+04  0.50400001928E-02 0.  1.
        1   -1    0    0  501    0  0.00000000000E+00  0.00000000000E+00 -0.15116081369E+04  0.15116081369E+04  0.50400001928E-02 0. -1.
    10030    2    1    2    0    0  0.00000000000E+00  0.00000000000E+00 -0.39323786965E+03  0.26299784042E+04  0.26004135026E+04 0.  0.
        3    1    3    3  502    0 -0.49376110845E+03 -0.60004629685E+03  0.85767329476E+03  0.11573500254E+04  0.10100000352E+00 0.  1.
       -3    1    3    3    0  502  0.49376110845E+03  0.60004629685E+03 -0.12509111644E+04  0.14726283788E+04  0.10100000352E+00 0. -1.
</event>
<event>
 5   0  0.1085255E-05  0.2617195E+04  0.7818609E-02  0.8362384E-01
        2   -1    0    0  501    0  0.00000000000E+00  0.00000000000E+00  0.19795420793E+04  0.19795420793E+04  0.25500000920E-02 0. -1.
       -2   -1    0    0    0  501  0.00000000000E+00  0.00000000000E+00 -0.86506232146E+03  0.86506232146E+03  0.25500000920E-02 0.  1.
    10030    2    1    2    0    0  0.00000000000E+00  0.00000000000E+00  0.11144797578E+04  0.28446044008E+04  0.26171948850E+04 0.  0.
        5    1    3    3  502    0  0.27209597780E+03  0.94321155513E+03  0.14977117227E+04  0.17907670852E+04  0.46999998093E+01 0. -1.
       -5    1    3    3    0  502 -0.27209597780E+03 -0.94321155513E+03 -0.38323196489E+03  0.10538373156E+04  0.46999998093E+01 0.  1.
</event>
<event>
 5   0  0.1085061E-05  0.2621810E+04  0.7818609E-02  0.8360830E-01
        2   -1    0    0  501    0  0.00000000000E+00  0.00000000000E+00  0.13329761374E+04  0.13329761374E+04  0.25500000920E-02 0. -1.
       -2   -1    0    0    0  501  0.00000000000E+00  0.00000000000E+00 -0.12891995651E+04  0.12891995651E+04  0.25500000920E-02 0.  1.
    10030    2    1    2    0    0  0.00000000000E+00  0.00000000000E+00  0.43776572334E+02  0.26221757025E+04  0.26218102576E+04 0.  0.
        1    1    3    3  502    0  0.82842393333E+03  0.77120445442E+03  0.68336518292E+03  0.13221310438E+04  0.50400001928E-02 0. -1.
       -1    1    3    3    0  502 -0.82842393333E+03 -0.77120445442E+03 -0.63958861058E+03  0.13000446587E+04  0.50400001928E-02 0.  1.
</event>
<event>
 5   0  0.4464297E-06  0.2707052E+04  0.7818609E-02  0.8332720E-01
       -1   -1    0    0    0  501  0.00000000000E+00  0.00000000000E+00  0.98781319153E+03  0.98781319154E+03  0.50400001928E-02 0. -1.
        1   -1    0    0  501    0  0.00000000000E+00  0.00000000000E+00 -0.18546346065E+04  0.18546346065E+04  0.50400001928E-02 0.  1.
    10030    2    1    2    0    0  0.00000000000E+00  0.00000000000E+00 -0.86682141499E+03  0.28424477981E+04  0.27070519240E+04 0.  0.
        4    1    3    3  502    0 -0.12884762785E+04  0.11744539420E+03 -0.85087146774E+03  0.15485310486E+04  0.12699999809E+01 0.  1.
       -4    1    3    3    0  502  0.12884762785E+04 -0.11744539420E+03 -0.15949947253E+02  0.12939167495E+04  0.12699999809E+01 0. -1.
</event>
<event>
 5   0  0.4464297E-06  0.2590127E+04  0.7818609E-02  0.8371563E-01
        1   -1    0    0  501    0  0.00000000000E+00  0.00000000000E+00  0.15595047470E+04  0.15595047470E+04  0.50400001928E-02 0.  1.
       -1   -1    0    0    0  501  0.00000000000E+00  0.00000000000E+00 -0.10754626639E+04  0.10754626639E+04  0.50400001928E-02 0. -1.
    10030    2    1    2    0    0  0.00000000000E+00  0.00000000000E+00  0.48404208311E+03  0.26349674109E+04  0.25901267379E+04 0.  0.
        4    1    3    3  502    0  0.19554318658E+03 -0.12792226955E+04  0.19075341242E+03  0.13080658698E+04  0.12699999809E+01 0.  1.
       -4    1    3    3    0  502 -0.19554318658E+03  0.12792226955E+04  0.29328867069E+03  0.13269015411E+04  0.12699999809E+01 0. -1.
</event>
<event>
 5   0  0.4597705E-06  0.2518208E+04  0.7818609E-02  0.8396528E-01
       -1   -1    0    0    0  501  0.00000000000E+00  0.00000000000E+00  0.96468538301E+03  0.96468538302E+03  0.50400001928E-02 0. -1.
        1   -1    0    0  501    0  0.00000000000E+00  0.00000000000E+00 -0.16433777502E+04  0.16433777503E+04  0.50400001928E-02 0.  1.
    10030    2    1    2    0    0  0.00000000000E+00  0.00000000000E+00 -0.67869236724E+03  0.26080631333E+04  0.25182076916E+04 0.  0.
        5    1    3    3  502    0 -0.11596309374E+04 -0.41505372124E+03 -0.61002785431E+03  0.13744706528E+04  0.46999998093E+01 0.  1.
       -5    1    3    3    0  502  0.11596309374E+04  0.41505372124E+03 -0.68664512934E+02  0.12335924804E+04  0.46999998093E+01 0. -1.
</event>
<event>
 5   0  0.1116310E-05  0.2607305E+04  0.7818609E-02  0.8365724E-01
        2   -1    0    0  501    0  0.00000000000E+00  0.00000000000E+00  0.10429402675E+04  0.10429402675E+04  0.25500000920E-02 0.  1.
       -2   -1    0    0    0  501  0.00000000000E+00  0.00000000000E+00 -0.16295372959E+04  0.16295372959E+04  0.25500000920E-02 0. -1.
    10030    2    1    2    0    0  0.00000000000E+00  0.00000000000E+00 -0.58659702844E+03  0.26724775634E+04  0.26073051707E+04 0.  0.
        4    1    3    3  502    0  0.39221857048E+03 -0.77234655507E+03 -0.12918960890E+04  0.15554265414E+04  0.12699999809E+01 0. -1.
       -4    1    3    3    0  502 -0.39221857048E+03  0.77234655507E+03  0.70529906051E+03  0.11170510220E+04  0.12699999809E+01 0.  1.
</event>
<event>
 5   0  0.4597705E-06  0.2596013E+04  0.7818609E-02  0.8369557E-01
        1   -1    0    0  501    0  0.00000000000E+00  0.00000000000E+00  0.18608907979E+04  0.18608907979E+04  0.50400001928E-02 0. -1.
       -1   -1    0    0    0  501  0.00000000000E+00  0.00000000000E+00 -0.90538378789E+03  0.90538378791E+03  0.50400001928E-02 0.  1.
    10030    2    1    2    0    0  0.00000000000E+00  0.00000000000E+00  0.95550700999E+03  0.27662745858E+04  0.25960126036E+04 0.  0.
        5    1    3    3  502    0 -0.58686662258E+03 -0.80818554561E+03 -0.40560502039E+03  0.10780138364E+04  0.46999998093E+01 0.  1.
       -5    1    3    3    0  502  0.58686662258E+03  0.80818554561E+03  0.13611120304E+04  0.16882607494E+04  0.46999998093E+01 0. -1.
</event>
<event>
 5   0  0.1136881E-05  0.2605984E+04  0.7818609E-02  0.8366172E-01
        2   -1    0    0  501    0  0.00000000000E+00  0.00000000000E+00  0.17010339363E+04  0.17010339363E+04  0.25500000920E-02 0. -1.
       -2   -1    0    0    0  501  0.00000000000E+00  0.00000000000E+00 -0.99809155314E+03  0.99809155315E+03  0.25500000920E-02 0.  1.
    10030    2    1    2    0    0  0.00000000000E+00  0.00000000000E+00  0.70294238317E+03  0.26991254895E+04  0.26059835790E+04 0.  0.
        3    1    3    3  502    0 -0.82082770901E+03  0.31268541029E+03  0.13482922945E+04  0.16091682371E+04  0.10100000352E+00 0. -1.
       -3    1    3    3    0  502  0.82082770901E+03 -0.31268541029E+03 -0.64534991135E+03  0.10899572524E+04  0.10100000352E+00 0.  1.
</event>
<event>
 5   0  0.1136881E-05  0.2613353E+04  0.7818609E-02  0.8363679E-01
       -2   -1    0    0    0  501  0.00000000000E+00  0.00000000000E+00  0.96334519784E+03  0.96334519784E+03  0.25500000920E-02 0. -1.
        2   -1    0    0  501    0  0.00000000000E+00  0.00000000000E+00 -0.17723699277E+04  0.17723699277E+04  0.25500000920E-02 0.  1.
    10030    2    1    2    0    0  0.00000000000E+00  0.00000000000E+00 -0.80902472987E+03  0.27357151256E+04  0.26133534462E+04 0.  0.
        3    1    3    3  502    0 -0.34326224640E+03  0.15488571296E+03  0.90530612150E+03  0.98050891771E+03  0.10100000352E+00 0. -1.
       -3    1    3    3    0  502  0.34326224640E+03 -0.15488571296E+03 -0.17143308514E+04  0.17552062078E+04  0.10100000352E+00 0.  1.
</event>
<event>
 5   0  0.3705250E-06  0.2598739E+04  0.7818609E-02  0.8368630E-01
        3   -1    0    0  501    0  0.00000000000E+00  0.00000000000E+00  0.82653058673E+03  0.82653059290E+03  0.10100000352E+00 0.  1.
       -3   -1    0    0    0  501  0.00000000000E+00  0.00000000000E+00 -0.20427086799E+04  0.20427086824E+04  0.10100000352E+00 0. -1.
    10030    2    1    2    0    0  0.00000000000E+00  0.00000000000E+00 -0.12161780932E+04  0.28692392753E+04  0.25987390913E+04 0.  0.
        5    1    3    3  502    0  0.11963148392E+03 -0.96929561600E+03 -0.15543219577E+04  0.18356972848E+04  0.46999998093E+01 0. -1.
       -5    1    3    3    0  502 -0.11963148392E+03  0.96929561600E+03  0.33814386450E+03  0.10335419906E+04  0.46999998093E+01 0.  1.
</event>
<event>
 5   0  0.4597705E-06  0.2592362E+04  0.7818609E-02  0.8370800E-01
        1   -1    0    0  501    0  0.00000000000E+00  0.00000000000E+00  0.20445172249E+04  0.20445172249E+04  0.50400001928E-02 0. -1.
       -1   -1    0    0    0  501  0.00000000000E+00  0.00000000000E+00 -0.82175169741E+03  0.82175169743E+03  0.50400001928E-02 0.  1.
    10030    2    1    2    0    0  0.00000000000E+00  0.00000000000E+00  0.12227655275E+04  0.28662689223E+04  0.25923622432E+04 0.  0.
        5    1    3    3  502    0 -0.43508294231E+03  0.10342554009E+04 -0.10608863081E+03  0.11270573581E+04  0.46999998093E+01 0.  1.
       -5    1    3    3    0  502  0.43508294231E+03 -0.10342554009E+04  0.13288541583E+04  0.17392115642E+04  0.46999998093E+01 0. -1.
</event>
<event>
 5   0  0.1136881E-05  0.2582013E+04  0.7818609E-02  0.8374337E-01
        2   -1    0    0  501    0  0.00000000000E+00  0.00000000000E+00  0.10995822408E+04  0.10995822408E+04  0.25500000920E-02 0.  1.
       -2   -1    0    0    0  501  0.00000000000E+00  0.00000000000E+00 -0.15157550804E+04  0.15157550804E+04  0.25500000920E-02 0. -1.
    10030    2    1    2    0    0  0.00000000000E+00  0.00000000000E+00 -0.41617283957E+03  0.26153373211E+04  0.25820126783E+04 0.  0.
        3    1    3    3  502    0 -0.10217670847E+04  0.37071980004E+03 -0.91368044180E+03  0.14199482757E+04  0.10100000352E+00 0. -1.
       -3    1    3    3    0  502  0.10217670847E+04 -0.37071980004E+03  0.49750760223E+03  0.11953890455E+04  0.10100000352E+00 0.  1.
</event>
<event>
 5   0  0.1086507E-05  0.2621700E+04  0.7818609E-02  0.8360867E-01
        2   -1    0    0  501    0  0.00000000000E+00  0.00000000000E+00  0.15458601240E+04  0.15458601240E+04  0.25500000920E-02 0.  1.
       -2   -1    0    0    0  501  0.00000000000E+00  0.00000000000E+00 -0.11115677226E+04  0.11115677226E+04  0.25500000920E-02 0. -1.
    10030    2    1    2    0    0  0.00000000000E+00  0.00000000000E+00  0.43429240146E+03  0.26574278466E+04  0.26217003776E+04 0.  0.
        2    1    3    3  502    0  0.81958523241E+03 -0.35378695918E+03  0.11901458299E+04  0.14877272136E+04  0.25500000920E-02 0. -1.
       -2    1    3    3    0  502 -0.81958523241E+03  0.35378695918E+03 -0.75585342841E+03  0.11697006330E+04  0.25500000920E-02 0.  1.
</event>
<event>
 5   0  0.1085061E-05  0.2623080E+04  0.7818609E-02  0.8360403E-01
       -2   -1    0    0    0  501  0.00000000000E+00  0.00000000000E+00  0.10691381987E+04  0.10691381987E+04  0.25500000920E-02 0. -1.
        2   -1    0    0  501    0  0.00000000000E+00  0.00000000000E+00 -0.16089007104E+04  0.16089007104E+04  0.25500000920E-02 0.  1.
    10030    2    1    2    0    0  0.00000000000E+00  0.00000000000E+00 -0.53976251164E+03  0.26780389091E+04  0.26230800273E+04 0.  0.
        1    1    3    3  502    0 -0.33016975427E+03 -0.60256260268E+03 -0.14104466609E+04  0.15689020174E+04  0.50400001928E-02 0.  1.
       -1    1    3    3    0  502  0.33016975427E+03  0.60256260268E+03  0.87068414927E+03  0.11091368917E+04  0.50400001928E-02 0. -1.
</event>
<event>
 5   0  0.4218590E-06  0.2573437E+04  0.7818609E-02  0.8377281E-01
        1   -1    0    0  501    0  0.00000000000E+00  0.00000000000E+00  0.19285331950E+04  0.19285331950E+04  0.50400001928E-02 0.  1.
       -1   -1    0    0    0  501  0.00000000000E+00  0.00000000000E+00 -0.85849911128E+03  0.85849911130E+03  0.50400001928E-02 0. -1.
    10030    2    1    2    0    0  0.00000000000E+00  0.00000000000E+00  0.10700340837E+04  0.27870323063E+04  0.25734366392E+04 0.  0.
        1    1    3    3  502    0  0.79855155685E+03  0.46026494294E+02 -0.55652732598E+03  0.97443608909E+03  0.50400001928E-02 0. -1.
       -1    1    3    3    0  502 -0.79855155685E+03 -0.46026494294E+02  0.16265614097E+04  0.18125962172E+04  0.50400001928E-02 0.  1.
</event>
<event>
 5   0  0.1116310E-05  0.2650028E+04  0.7818609E-02  0.8351404E-01
       -2   -1    0    0    0  501  0.00000000000E+00  0.00000000000E+00  0.16932699024E+04  0.16932699024E+04  0.25500000920E-02 0.  1.
        2   -1    0    0  501    0  0.00000000000E+00  0.00000000000E+00 -0.10368470299E+04  0.10368470299E+04  0.25500000920E-02 0. -1.
    10030    2    1    2    0    0  0.00000000000E+00  0.00000000000E+00  0.65642287255E+03  0.27301169323E+04  0.26500278256E+04 0.  0.
        4    1    3    3  502    0 -0.42930344329E+03  0.81184460509E+03 -0.65578116277E+03  0.11284696077E+04  0.12699999809E+01 0. -1.
       -4    1    3    3    0  502  0.42930344329E+03 -0.81184460509E+03  0.13122040353E+04  0.16016473246E+04  0.12699999809E+01 0.  1.
</event>
<event>
 5   0  0.1116310E-05  0.2603478E+04  0.7818609E-02  0.8367021E-01
        2   -1    0    0  501    0  0.00000000000E+00  0.00000000000E+00  0.13557498813E+04  0.13557498813E+04  0.25500000920E-02 0. -1.
       -2   -1    0    0    0  501  0.00000000000E+00  0.00000000000E+00 -0.12498795060E+04  0.12498795060E+04  0.25500000920E-02 0.  1.
    10030    2    1    2    0    0  0.00000000000E+00  0.00000000000E+00  0.10587037530E+03  0.26056293873E+04  0.26034776680E+04 0.  0.
        4    1    3    3  502    0  0.12174444412E+04 -0.37758624773E+03  0.31731262263E+03  0.13135567195E+04  0.12699999809E+01 0. -1.
       -4    1    3    3    0  502 -0.12174444412E+04  0.37758624773E+03 -0.21144224733E+03  0.12920726678E+04  0.12699999809E+01 0.  1.
</event>
<event>
 5   0  0.1085255E-05  0.2605278E+04  0.7818609E-02  0.8366411E-01
       -2   -1    0    0    0  501  0.00000000000E+00  0.00000000000E+00  0.69678867046E+03  0.69678867047E+03  0.25500000920E-02 0. -1.
        2   -1    0    0  501    0  0.00000000000E+00  0.00000000000E+00 -0.24352700804E+04  0.24352700804E+04  0.25500000920E-02 0.  1.
    10030    2    1    2    0    0  0.00000000000E+00  0.00000000000E+00 -0.17384814100E+04  0.31320587509E+04  0.26052781821E+04 0.  0.
        5    1    3    3  502    0 -0.12041213399E+03 -0.11424153893E+04 -0.16076233902E+04  0.19758762761E+04  0.46999998093E+01 0.  1.
       -5    1    3    3    0  502  0.12041213399E+03  0.11424153893E+04 -0.13085801976E+03  0.11561824748E+04  0.46999998093E+01 0. -1.
</event>
<event>
 5   0  0.4464297E-06  0.2563598E+04  0.7818609E-02  0.8380672E-01
        1   -1    0    0  501    0  0.00000000000E+00  0.00000000000E+00  0.20295892194E+04  0.20295892194E+04  0.50400001928E-02 0. -1.
       -1   -1    0    0    0  501  0.00000000000E+00  0.00000000000E+00 -0.80952796600E+03  0.80952796602E+03  0.50400001928E-02 0.  1.
    10030    2    1    2    0    0  0.00000000000E+00  0.00000000000E+00  0.12200612534E+04  0.28391171855E+04  0.25635984340E+04 0.  0.
        4    1    3    3  502    0  0.89430637094E+03  0.86622099608E+03  0.27250564060E+03  0.12745130977E+04  0.12699999809E+01 0. -1.
       -4    1    3    3    0  502 -0.89430637094E+03 -0.86622099608E+03  0.94755561283E+03  0.15646040878E+04  0.12699999809E+01 0.  1.
</event>
<event>
 5   0  0.4415080E-06  0.2592849E+04  0.7818609E-02  0.8370634E-01
       -1   -1    0    0    0  501  0.00000000000E+00  0.00000000000E+00  0.86373908526E+03  0.86373908528E+03  0.50400001928E-02 0. -1.
        1   -1    0    0  501    0  0.00000000000E+00  0.00000000000E+00 -0.19458613746E+04  0.19458613746E+04  0.50400001928E-02 0.  1.
    10030    2    1    2    0    0  0.00000000000E+00  0.00000000000E+00 -0.10821222893E+04  0.28096004599E+04  0.25928490305E+04 0.  0.
        2    1    3    3  502    0 -0.12362409060E+04 -0.31983884086E+01 -0.96410051401E+03  0.15677345465E+04  0.25500000920E-02 0.  1.
       -2    1    3    3    0  502  0.12362409060E+04  0.31983884086E+01 -0.11802177531E+03  0.12418659133E+04  0.25500000920E-02 0. -1.
</event>
<event>
 5   0  0.1136881E-05  0.2606096E+04  0.7818609E-02  0.8366133E-01
       -2   -1    0    0    0  501  0.00000000000E+00  0.00000000000E+00  0.59349720069E+03  0.59349720070E+03  0.25500000920E-02 0. -1.
        2   -1    0    0  501    0  0.00000000000E+00  0.00000000000E+00 -0.28608964358E+04  0.28608964358E+04  0.25500000920E-02 0.  1.
    10030    2    1    2    0    0  0.00000000000E+00  0.00000000000E+00 -0.22673992351E+04  0.34543936365E+04  0.26060959507E+04 0.  0.
        3    1    3    3  502    0  0.44922585868E+03 -0.81057228709E+03 -0.23478961427E+04  0.25241726589E+04  0.10100000352E+00 0. -1.
       -3    1    3    3    0  502 -0.44922585868E+03  0.81057228709E+03  0.80496907683E+02  0.93022097753E+03  0.10100000352E+00 0.  1.
</event>
<event>
 5   0  0.1116310E-05  0.2612853E+04  0.7818609E-02  0.8363849E-01
        2   -1    0    0  501    0  0.00000000000E+00  0.00000000000E+00  0.16045923411E+04  0.16045923411E+04  0.25500000920E-02 0. -1.
       -2   -1    0    0    0  501  0.00000000000E+00  0.00000000000E+00 -0.10636655570E+04  0.10636655570E+04  0.25500000920E-02 0.  1.
    10030    2    1    2    0    0  0.00000000000E+00  0.00000000000E+00  0.54092678407E+03  0.26682578981E+04  0.26128525456E+04 0.  0.
        4    1    3    3  502    0  0.52215538029E+03  0.38596919257E+02  0.14927616679E+04  0.15819212917E+04  0.12699999809E+01 0. -1.
       -4    1    3    3    0  502 -0.52215538029E+03 -0.38596919257E+02 -0.95183488379E+03  0.10863366063E+04  0.12699999809E+01 0.  1.
</event>
<event>
 5   0  0.1116310E-05  0.2588868E+04  0.7818609E-02  0.8371992E-01
       -2   -1    0    0    0  501  0.00000000000E+00  0.00000000000E+00  0.11372320878E+04  0.11372320878E+04  0.25500000920E-02 0.  1.
        2   -1    0    0  501    0  0.00000000000E+00  0.00000000000E+00 -0.14733660090E+04  0.14733660090E+04  0.25500000920E-02 0. -1.
    10030    2    1    2    0    0  0.00000000000E+00  0.00000000000E+00 -0.33613392120E+03  0.26105980968E+04  0.25888677854E+04 0.  0.
        4    1    3    3  502    0 -0.78233765473E+03  0.67501223425E+03  0.61813346454E+03  0.12040698963E+04  0.12699999809E+01 0.  1.
       -4    1    3    3    0  502  0.78233765473E+03 -0.67501223425E+03 -0.95426738574E+03  0.14065282005E+04  0.12699999809E+01 0. -1.
</event>
<event>
 5   0  0.4361864E-06  0.2612918E+04  0.7818609E-02  0.8363826E-01
       -1   -1    0    0    0  501  0.00000000000E+00  0.00000000000E+00  0.10242590114E+04  0.10242590114E+04  0.50400001928E-02 0. -1.
        1   -1    0    0  501    0  0.00000000000E+00  0.00000000000E+00 -0.16664102218E+04  0.16664102218E+04  0.50400001928E-02 0.  1.
    10030    2    1    2    0    0  0.00000000000E+00  0.00000000000E+00 -0.64215121033E+03  0.26906692332E+04  0.26129184345E+04 0.  0.
        3    1    3    3  502    0 -0.43706165088E+03  0.12284893542E+04 -0.23724878606E+03  0.13253286297E+04  0.10100000352E+00 0.  1.
       -3    1    3    3    0  502  0.43706165088E+03 -0.12284893542E+04 -0.40490242428E+03  0.13653406035E+04  0.10100000352E+00 0. -1.
</event>
<event>
 5   0  0.4218590E-06  0.2601012E+04  0.7818609E-02  0.8367858E-01
       -1   -1    0    0    0  501  0.00000000000E+00  0.00000000000E+00  0.11979944362E+04  0.11979944362E+04  0.50400001928E-02 0. -1.
        1   -1    0    0  501    0  0.00000000000E+00  0.00000000000E+00 -0.14117890530E+04  0.14117890530E+04  0.50400001928E-02 0.  1.
    10030    2    1    2    0    0  0.00000000000E+00  0.00000000000E+00 -0.21379461677E+03  0.26097834892E+04  0.26010116728E+04 0.  0.
        1    1    3    3  502    0 -0.41102913558E+03 -0.48808701892E+03 -0.12439186748E+04  0.13980370374E+04  0.50400001928E-02 0.  1.
       -1    1    3    3    0  502  0.41102913558E+03  0.48808701892E+03  0.10301240581E+04  0.12117464518E+04  0.50400001928E-02 0. -1.
</event>
<event>
 5   0  0.4464297E-06  0.2583234E+04  0.7818609E-02  0.8373919E-01
        1   -1    0    0  501    0  0.00000000000E+00  0.00000000000E+00  0.11877179333E+04  0.11877179333E+04  0.50400001928E-02 0. -1.
       -1   -1    0    0    0  501  0.00000000000E+00  0.00000000000E+00 -0.14046045119E+04  0.14046045119E+04  0.50400001928E-02 0.  1.
    10030    2    1    2    0    0  0.00000000000E+00  0.00000000000E+00 -0.21688657861E+03  0.25923224452E+04  0.25832336077E+04 0.  0.
        4    1    3    3  502    0  0.11445192000E+04  0.16543257909E+03  0.46888967673E+03  0.12478586776E+04  0.12699999809E+01 0. -1.
       -4    1    3    3    0  502 -0.11445192000E+04 -0.16543257909E+03 -0.68577625533E+03  0.13444637677E+04  0.12699999809E+01 0.  1.
</event>
<event>
 5   0  0.1085061E-05  0.2615023E+04  0.7818609E-02  0.8363116E-01
       -2   -1    0    0    0  501  0.00000000000E+00  0.00000000000E+00  0.66765004697E+03  0.66765004697E+03  0.25500000920E-02 0. -1.
        2   -1    0    0  501    0  0.00000000000E+00  0.00000000000E+00 -0.25606022646E+04  0.25606022646E+04  0.25500000920E-02 0.  1.
    10030    2    1    2    0    0  0.00000000000E+00  0.00000000000E+00 -0.18929522176E+04  0.32282523116E+04  0.26150229232E+04 0.  0.
        1    1    3    3  502    0 -0.66756019127E+03 -0.94605409855E+03 -0.16963093606E+04  0.20538063232E+04  0.50400001928E-02 0.  1.
       -1    1    3    3    0  502  0.66756019127E+03  0.94605409855E+03 -0.19664285704E+03  0.11744459884E+04  0.50400001928E-02 0. -1.
</event>
<event>
 5   0  0.1116310E-05  0.2625021E+04  0.7818609E-02  0.8359751E-01
        2   -1    0    0  501    0  0.00000000000E+00  0.00000000000E+00  0.20724971548E+04  0.20724971548E+04  0.25500000920E-02 0.  1.
       -2   -1    0    0    0  501  0.00000000000E+00  0.00000000000E+00 -0.83121170829E+03  0.83121170829E+03  0.25500000920E-02 0. -1.
    10030    2    1    2    0    0  0.00000000000E+00  0.00000000000E+00  0.12412854465E+04  0.29037088631E+04  0.26250210670E+04 0.  0.
        4    1    3    3  502    0 -0.11850491933E+03 -0.76560995470E+03  0.17925942115E+04  0.19528434752E+04  0.12699999809E+01 0.  1.
       -4    1    3    3    0  502  0.11850491933E+03  0.76560995470E+03 -0.55130876499E+03  0.95086538789E+03  0.12699999809E+01 0. -1.
</event>
<event>
 5   0  0.4597705E-06  0.2609122E+04  0.7818609E-02  0.8365109E-01
       -1   -1    0    0    0  501  0.00000000000E+00  0.00000000000E+00  0.22222325605E+04  0.22222325605E+04  0.50400001928E-02 0. -1.
        1   -1    0    0  501    0  0.00000000000E+00  0.00000000000E+00 -0.76584206359E+03  0.76584206361E+03  0.50400001928E-02 0.  1.
    10030    2    1    2    0    0  0.00000000000E+00  0.00000000000E+00  0.14563904969E+04  0.29880746241E+04  0.26091218216E+04 0.  0.
        5    1    3    3  502    0  0.50462633568E+03  0.58456280922E+03  0.19323314238E+04  0.20809344627E+04  0.46999998093E+01 0. -1.
       -5    1    3    3    0  502 -0.50462633568E+03 -0.58456280922E+03 -0.47594092690E+03  0.90714016143E+03  0.46999998093E+01 0.  1.
</event>
<event>
 5   0  0.1085061E-05  0.2585344E+04  0.7818609E-02  0.8373197E-01
        2   -1    0    0  501    0  0.00000000000E+00  0.00000000000E+00  0.14717235884E+04  0.14717235884E+04  0.25500000920E-02 0. -1.
       -2   -1    0    0    0  501  0.00000000000E+00  0.00000000000E+00 -0.11354041198E+04  0.11354041198E+04  0.25500000920E-02 0.  1.
    10030    2    1    2    0    0  0.00000000000E+00  0.00000000000E+00  0.33631946854E+03  0.26071277082E+04  0.25853440974E+04 0.  0.
        1    1    3    3  502    0  0.11199292422E+02 -0.97348163009E+03  0.10257422096E+04  0.14141919915E+04  0.50400001928E-02 0. -1.
       -1    1    3    3    0  502 -0.11199292422E+02  0.97348163009E+03 -0.68942274105E+03  0.11929357167E+04  0.50400001928E-02 0.  1.
</event>
<event>
 5   0  0.4361864E-06  0.2595396E+04  0.7818609E-02  0.8369767E-01
       -1   -1    0    0    0  501  0.00000000000E+00  0.00000000000E+00  0.14306100877E+04  0.14306100877E+04  0.50400001928E-02 0. -1.
        1   -1    0    0  501    0  0.00000000000E+00  0.00000000000E+00 -0.11771344225E+04  0.11771344225E+04  0.50400001928E-02 0.  1.
    10030    2    1    2    0    0  0.00000000000E+00  0.00000000000E+00  0.25347566516E+03  0.26077445103E+04  0.25953962160E+04 0.  0.
        3    1    3    3  502    0  0.99479089285E+03 -0.83095753852E+03  0.63821878270E+02  0.12977567544E+04  0.10100000352E+00 0. -1.
       -3    1    3    3    0  502 -0.99479089285E+03  0.83095753852E+03  0.18965378689E+03  0.13099877558E+04  0.10100000352E+00 0.  1.
</event>
<event>
 5   0  0.3705250E-06  0.2643740E+04  0.7818609E-02  0.8353494E-01
        3   -1    0    0  501    0  0.00000000000E+00  0.00000000000E+00  0.23319819108E+04  0.23319819130E+04  0.10100000352E+00 0. -1.
       -3   -1    0    0    0  501  0.00000000000E+00  0.00000000000E+00 -0.74929408409E+03  0.74929409090E+03  0.10100000352E+00 0.  1.
    10030    2    1    2    0    0  0.00000000000E+00  0.00000000000E+00  0.15826878267E+04  0.30812760039E+04  0.26437399750E+04 0.  0.
        2    1    3    3  502    0  0.88197413202E+03 -0.21956659740E+03 -0.32732399859E+03  0.96603771163E+03  0.25500000920E-02 0.  1.
       -2    1    3    3    0  502 -0.88197413202E+03  0.21956659740E+03  0.19100118253E+04  0.21152382923E+04  0.25500000920E-02 0. -1.
</event>
<event>
 5   0  0.4597705E-06  0.2590969E+04  0.7818609E-02  0.8371275E-01
        1   -1    0    0  501    0  0.00000000000E+00  0.00000000000E+00  0.10747255342E+04  0.10747255343E+04  0.50400001928E-02 0. -1.
       -1   -1    0    0    0  501  0.00000000000E+00  0.00000000000E+00 -0.15615892108E+04  0.15615892108E+04  0.50400001928E-02 0.  1.
    10030    2    1    2    0    0  0.00000000000E+00  0.00000000000E+00 -0.48686367656E+03  0.26363147451E+04  0.25909687755E+04 0.  0.
        5    1    3    3  502    0  0.35786268535E+03  0.75987426311E+03  0.76012757886E+03  0.11328241803E+04  0.46999998093E+01 0. -1.
       -5    1    3    3    0  502 -0.35786268535E+03 -0.75987426311E+03 -0.12469912554E+04  0.15034905648E+04  0.46999998093E+01 0.  1.
</event>
<event>
 5   0  0.3705250E-06  0.2601412E+04  0.7818609E-02  0.8367722E-01
        4   -1    0    0  501    0  0.00000000000E+00  0.00000000000E+00  0.13395035228E+04  0.13395041248E+04  0.12699999809E+01 0.  1.
       -4   -1    0    0    0  501  0.00000000000E+00  0.00000000000E+00 -0.12630313324E+04  0.12630319709E+04  0.12699999809E+01 0. -1.
    10030    2    1    2    0    0  0.00000000000E+00  0.00000000000E+00  0.76472190329E+02  0.26025360957E+04  0.26014123344E+04 0.  0.
        1    1    3    3  502    0  0.67851581047E+03 -0.21556581075E+03 -0.10508039466E+04  0.12692680009E+04  0.50400001928E-02 0. -1.
       -1    1    3    3    0  502 -0.67851581047E+03  0.21556581075E+03  0.11272761369E+04  0.13332680949E+04  0.50400001928E-02 0.  1.
</event>
<event>
 5   0  0.1085255E-05  0.2602488E+04  0.7818609E-02  0.8367356E-01
        2   -1    0    0  501    0  0.00000000000E+00  0.00000000000E+00  0.21415955416E+04  0.21415955416E+04  0.25500000920E-02 0.  1.
       -2   -1    0    0    0  501  0.00000000000E+00  0.00000000000E+00 -0.79064242627E+03  0.79064242628E+03  0.25500000920E-02 0. -1.
    10030    2    1    2    0    0  0.00000000000E+00  0.00000000000E+00  0.13509531153E+04  0.29322379679E+04  0.26024882671E+04 0.  0.
        5    1    3    3  502    0 -0.52261606889E+03  0.99585837884E+02  0.20134455913E+04  0.20825537529E+04  0.46999998093E+01 0.  1.
       -5    1    3    3    0  502  0.52261606889E+03 -0.99585837884E+02 -0.66249247594E+03  0.84968421502E+03  0.46999998093E+01 0. -1.
</event>
<event>
 5   0  0.1116310E-05  0.2604460E+04  0.7818609E-02  0.8366688E-01
       -2   -1    0    0    0  501  0.00000000000E+00  0.00000000000E+00  0.86979843831E+03  0.86979843832E+03  0.25500000920E-02 0. -1.
        2   -1    0    0  501    0  0.00000000000E+00  0.00000000000E+00 -0.19496500301E+04  0.19496500301E+04  0.25500000920E-02 0.  1.
    10030    2    1    2    0    0  0.00000000000E+00  0.00000000000E+00 -0.10798515918E+04  0.28194484684E+04  0.26044596764E+04 0.  0.
        4    1    3    3  502    0  0.90701768266E+02  0.10188804482E+04 -0.14123378232E+04  0.17438589159E+04  0.12699999809E+01 0.  1.
       -4    1    3    3    0  502 -0.90701768266E+02 -0.10188804482E+04  0.33248623145E+03  0.10755895526E+04  0.12699999809E+01 0. -1.
</event>
<event>
 5   0  0.4218590E-06  0.2582357E+04  0.7818609E-02  0.8374219E-01
        1   -1    0    0  501    0  0.00000000000E+00  0.00000000000E+00  0.12002564266E+04  0.12002564266E+04  0.50400001928E-02 0.  1.
       -1   -1    0    0    0  501  0.00000000000E+00  0.00000000000E+00 -0.13889876943E+04  0.13889876943E+04  0.50400001928E-02 0. -1.
    10030    2    1    2    0    0  0.00000000000E+00  0.00000000000E+00 -0.18873126774E+03  0.25892441209E+04  0.25823566032E+04 0.  0.
        1    1    3    3  502    0 -0.41372433995E+03  0.93399438327E+03 -0.88617313411E+03  0.13523372956E+04  0.50400001928E-02 0. -1.
       -1    1    3    3    0  502  0.41372433995E+03 -0.93399438327E+03  0.69744186637E+03  0.12369068253E+04  0.50400001928E-02 0.  1.
</event>
<event>
 5   0  0.1085255E-05  0.2604991E+04  0.7818609E-02  0.8366508E-01
       -2   -1    0    0    0  501  0.00000000000E+00  0.00000000000E+00  0.15549356523E+04  0.15549356523E+04  0.25500000920E-02 0.  1.
        2   -1    0    0  501    0  0.00000000000E+00  0.00000000000E+00 -0.10910381009E+04  0.10910381010E+04  0.25500000920E-02 0. -1.
    10030    2    1    2    0    0  0.00000000000E+00  0.00000000000E+00  0.46389755137E+03  0.26459737533E+04  0.26049906266E+04 0.  0.
        5    1    3    3  502    0 -0.82677161589E+03  0.27195882425E+03  0.12161925847E+04  0.14955465222E+04  0.46999998093E+01 0.  1.
       -5    1    3    3    0  502  0.82677161589E+03 -0.27195882425E+03 -0.75229503332E+03  0.11504272311E+04  0.46999998093E+01 0. -1.
</event>
<event>
 5   0  0.4597705E-06  0.2446310E+04  0.7818609E-02  0.8422366E-01
       -1   -1    0    0    0  501  0.00000000000E+00  0.00000000000E+00  0.14937939496E+04  0.14937939496E+04  0.50400001928E-02 0. -1.
        1   -1    0    0  501    0  0.00000000000E+00  0.00000000000E+00 -0.10015492862E+04  0.10015492862E+04  0.50400001928E-02 0.  1.
    10030    2    1    2    0    0  0.00000000000E+00  0.00000000000E+00  0.49224466347E+03  0.24953432358E+04  0.24463100899E+04 0.  0.
        5    1    3    3  502    0  0.38940219452E+03  0.43802688854E+03  0.13412258689E+04  0.14636975595E+04  0.46999998093E+01 0. -1.
       -5    1    3    3    0  502 -0.38940219452E+03 -0.43802688854E+03 -0.84898120547E+03  0.10316456763E+04  0.46999998093E+01 0.  1.
</event>
<event>
 5   0  0.1136881E-05  0.2603480E+04  0.7818609E-02  0.8367020E-01
        2   -1    0    0  501    0  0.00000000000E+00  0.00000000000E+00  0.24825662165E+04  0.24825662165E+04  0.25500000920E-02 0.  1.
       -2   -1    0    0    0  501  0.00000000000E+00  0.00000000000E+00 -0.68257065525E+03  0.68257065526E+03  0.25500000920E-02 0. -1.
    10030    2    1    2    0    0  0.00000000000E+00  0.00000000000E+00  0.17999955612E+04  0.31651368718E+04  0.26034798629E+04 0.  0.
        3    1    3    3  502    0 -0.64625952974E+03  0.11183762855E+04  0.70355266507E+03  0.14708512020E+04  0.10100000352E+00 0. -1.
       -3    1    3    3    0  502  0.64625952974E+03 -0.11183762855E+04  0.10964428962E+04  0.16942856697E+04  0.10100000352E+00 0.  1.
</event>
<event>
 5   0  0.1085255E-05  0.2591370E+04  0.7818609E-02  0.8371138E-01
        2   -1    0    0  501    0  0.00000000000E+00  0.00000000000E+00  0.17734324589E+04  0.17734324589E+04  0.25500000920E-02 0. -1.
       -2   -1    0    0    0  501  0.00000000000E+00  0.00000000000E+00 -0.94663890154E+03  0.94663890154E+03  0.25500000920E-02 0.  1.
    10030    2    1    2    0    0  0.00000000000E+00  0.00000000000E+00  0.82679355731E+03  0.27200713604E+04  0.25913704134E+04 0.  0.
        5    1    3    3  502    0 -0.56706467587E+03 -0.89638235644E+02  0.16326274029E+04  0.17306333196E+04  0.46999998093E+01 0. -1.
       -5    1    3    3    0  502  0.56706467587E+03  0.89638235644E+02 -0.80583384563E+03  0.98943804084E+03  0.46999998093E+01 0.  1.
</event>
<event>
 5   0  0.4464297E-06  0.2611009E+04  0.7818609E-02  0.8364471E-01
       -1   -1    0    0    0  501  0.00000000000E+00  0.00000000000E+00  0.12963844249E+04  0.12963844249E+04  0.50400001928E-02 0. -1.
        1   -1    0    0  501    0  0.00000000000E+00  0.00000000000E+00 -0.13146887488E+04  0.13146887488E+04  0.50400001928E-02 0.  1.
    10030    2    1    2    0    0  0.00000000000E+00  0.00000000000E+00 -0.18304323913E+02  0.26110731738E+04  0.26110090138E+04 0.  0.
        4    1    3    3  502    0 -0.56121881429E+02  0.98160619779E+03  0.84972865855E+03  0.12995156017E+04  0.12699999809E+01 0. -1.
       -4    1    3    3    0  502  0.56121881429E+02 -0.98160619779E+03 -0.86803298247E+03  0.13115575720E+04  0.12699999809E+01 0.  1.
</event>
<event>
 5   0  0.1136881E-05  0.2594107E+04  0.7818609E-02  0.8370206E-01
       -2   -1    0    0    0  501  0.00000000000E+00  0.00000000000E+00  0.94667422676E+03  0.94667422676E+03  0.25500000920E-02 0. -1.
        2   -1    0    0  501    0  0.00000000000E+00  0.00000000000E+00 -0.17771132063E+04  0.17771132063E+04  0.25500000920E-02 0.  1.
    10030    2    1    2    0    0  0.00000000000E+00  0.00000000000E+00 -0.83043897953E+03  0.27237874330E+04  0.25941066057E+04 0.  0.
        3    1    3    3  502    0  0.45503384444E+03  0.40177216013E+03 -0.16187627030E+04  0.17288346847E+04  0.10100000352E+00 0.  1.
       -3    1    3    3    0  502 -0.45503384444E+03 -0.40177216013E+03  0.78832372347E+03  0.99495274834E+03  0.10100000352E+00 0. -1.
</event>
<event>
 5   0  0.1086507E-05  0.2603131E+04  0.7818609E-02  0.8367138E-01
       -2   -1    0    0    0  501  0.00000000000E+00  0.00000000000E+00  0.97293885576E+03  0.97293885577E+03  0.25500000920E-02 0.  1.
        2   -1    0    0  501    0  0.00000000000E+00  0.00000000000E+00 -0.17411913775E+04  0.17411913775E+04  0.25500000920E-02 0. -1.
    10030    2    1    2    0    0  0.00000000000E+00  0.00000000000E+00 -0.76825252174E+03  0.27141302333E+04  0.26031309967E+04 0.  0.
        2    1    3    3  502    0 -0.45066528524E+02  0.13011041522E+03  0.96532349222E+03  0.97509443481E+03  0.25500000920E-02 0.  1.
       -2    1    3    3    0  502  0.45066528524E+02 -0.13011041522E+03 -0.17335760140E+04  0.17390357985E+04  0.25500000920E-02 0. -1.
</event>
<event>
 5   0  0.1116310E-05  0.2590908E+04  0.7818609E-02  0.8371296E-01
       -2   -1    0    0    0  501  0.00000000000E+00  0.00000000000E+00  0.69543525329E+03  0.69543525329E+03  0.25500000920E-02 0.  1.
        2   -1    0    0  501    0  0.00000000000E+00  0.00000000000E+00 -0.24131662503E+04  0.24131662503E+04  0.25500000920E-02 0. -1.
    10030    2    1    2    0    0  0.00000000000E+00  0.00000000000E+00 -0.17177309970E+04  0.31086015036E+04  0.25909078583E+04 0.  0.
        4    1    3    3  502    0  0.26443535082E+03 -0.74175123303E+03  0.37529599776E+03  0.87233574116E+03  0.12699999809E+01 0.  1.
       -4    1    3    3    0  502 -0.26443535082E+03  0.74175123303E+03 -0.20930269948E+04  0.22362657624E+04  0.12699999809E+01 0. -1.
</event>
<event>
 5   0  0.1085255E-05  0.2630668E+04  0.7818609E-02  0.8357858E-01
       -2   -1    0    0    0  501  0.00000000000E+00  0.00000000000E+00  0.15616778335E+04  0.15616778335E+04  0.25500000920E-02 0.  1.
        2   -1    0    0  501    0  0.00000000000E+00  0.00000000000E+00 -0.11078491122E+04  0.11078491122E+04  0.25500000920E-02 0. -1.
    10030    2    1    2    0    0  0.00000000000E+00  0.00000000000E+00  0.45382872130E+03  0.26695269456E+04  0.26306679010E+04 0.  0.
        5    1    3    3  502    0 -0.32124530570E+03  0.12754120373E+04  0.21231787215E+03  0.13322820198E+04  0.46999998093E+01 0.  1.
       -5    1    3    3    0  502  0.32124530570E+03 -0.12754120373E+04  0.24151084916E+03  0.13372449258E+04  0.46999998093E+01 0. -1.
</event>
<event>
 5   0  0.1085061E-05  0.2608225E+04  0.7818609E-02  0.8365413E-01
        2   -1    0    0  501    0  0.00000000000E+00  0.00000000000E+00  0.88439351603E+03  0.88439351603E+03  0.25500000920E-02 0. -1.
       -2   -1    0    0    0  501  0.00000000000E+00  0.00000000000E+00 -0.19230237440E+04  0.19230237440E+04  0.25500000920E-02 0.  1.
    10030    2    1    2    0    0  0.00000000000E+00  0.00000000000E+00 -0.10386302279E+04  0.28074172600E+04  0.26082252436E+04 0.  0.
        1    1    3    3  502    0 -0.19020135918E+03 -0.83774526865E+02  0.86645313241E+03  0.89103072846E+03  0.50400001928E-02 0. -1.
       -1    1    3    3    0  502  0.19020135918E+03  0.83774526865E+02 -0.19050833603E+04  0.19163865315E+04  0.50400001928E-02 0.  1.
</event>
<event>
 5   0  0.1085061E-05  0.2601440E+04  0.7818609E-02  0.8367712E-01
       -2   -1    0    0    0  501  0.00000000000E+00  0.00000000000E+00  0.11348537601E+04  0.11348537601E+04  0.25500000920E-02 0.  1.
        2   -1    0    0  501    0  0.00000000000E+00  0.00000000000E+00 -0.14908281368E+04  0.14908281368E+04  0.25500000920E-02 0. -1.
    10030    2    1    2    0    0  0.00000000000E+00  0.00000000000E+00 -0.35597437672E+03  0.26256818970E+04  0.26014395375E+04 0.  0.
        1    1    3    3  502    0 -0.11380471643E+04 -0.50499547839E+03  0.20195148865E+03  0.12613311164E+04  0.50400001928E-02 0.  1.
       -1    1    3    3    0  502  0.11380471643E+04  0.50499547839E+03 -0.55792586537E+03  0.13643507806E+04  0.50400001928E-02 0. -1.
</event>
<event>
 5   0  0.4218590E-06  0.2489060E+04  0.7818609E-02  0.8406893E-01
        1   -1    0    0  501    0  0.00000000000E+00  0.00000000000E+00  0.10259288561E+04  0.10259288561E+04  0.50400001928E-02 0.  1.
       -1   -1    0    0    0  501  0.00000000000E+00  0.00000000000E+00 -0.15097102348E+04  0.15097102348E+04  0.50400001928E-02 0. -1.
    10030    2    1    2    0    0  0.00000000000E+00  0.00000000000E+00 -0.48378137870E+03  0.25356390910E+04  0.24890603000E+04 0.  0.
        1    1    3    3  502    0 -0.45613127773E+03 -0.11274445869E+04 -0.51077749263E+03  0.13191211794E+04  0.50400001928E-02 0. -1.
       -1    1    3    3    0  502  0.45613127773E+03  0.11274445869E+04  0.26996113933E+02  0.12165179116E+04  0.50400001928E-02 0.  1.
</event>
<event>
 5   0  0.4415080E-06  0.2690771E+04  0.7818609E-02  0.8338006E-01
       -1   -1    0    0    0  501  0.00000000000E+00  0.00000000000E+00  0.11391115943E+04  0.11391115943E+04  0.50400001928E-02 0.  1.
        1   -1    0    0  501    0  0.00000000000E+00  0.00000000000E+00 -0.15890126791E+04  0.15890126791E+04  0.50400001928E-02 0. -1.
    10030    2    1    2    0    0  0.00000000000E+00  0.00000000000E+00 -0.44990108479E+03  0.27281242734E+04  0.26907714628E+04 0.  0.
        2    1    3    3  502    0  0.36497797600E+03  0.70497875389E+02  0.10860123337E+04  0.11478683123E+04  0.25500000920E-02 0.  1.
       -2    1    3    3    0  502 -0.36497797600E+03 -0.70497875389E+02 -0.15359134185E+04  0.15802559611E+04  0.25500000920E-02 0. -1.
</event>
<event>
 5   0  0.1085061E-05  0.2605698E+04  0.7818609E-02  0.8366268E-01
        2   -1    0    0  501    0  0.00000000000E+00  0.00000000000E+00  0.11658148978E+04  0.11658148978E+04  0.25500000920E-02 0.  1.
       -2   -1    0    0    0  501  0.00000000000E+00  0.00000000000E+00 -0.14559906323E+04  0.14559906323E+04  0.25500000920E-02 0. -1.
    10030    2    1    2    0    0  0.00000000000E+00  0.00000000000E+00 -0.29017573449E+03  0.26218055301E+04  0.26056980410E+04 0.  0.
        1    1    3    3  502    0 -0.55020781568E+03  0.42604059651E+02  0.10424076130E+04  0.11794733477E+04  0.50400001928E-02 0.  1.
       -1    1    3    3    0  502  0.55020781568E+03 -0.42604059651E+02 -0.13325833475E+04  0.14423321824E+04  0.50400001928E-02 0. -1.
</event>
<event>
 5   0  0.4597705E-06  0.2589390E+04  0.7818609E-02  0.8371814E-01
       -1   -1    0    0    0  501  0.00000000000E+00  0.00000000000E+00  0.99752700553E+03  0.99752700555E+03  0.50400001928E-02 0.  1.
        1   -1    0    0  501    0  0.00000000000E+00  0.00000000000E+00 -0.16803901097E+04  0.16803901097E+04  0.50400001928E-02 0. -1.
    10030    2    1    2    0    0  0.00000000000E+00  0.00000000000E+00 -0.68286310412E+03  0.26779171152E+04  0.25893895143E+04 0.  0.
        5    1    3    3  502    0  0.80467569684E+03 -0.99944038890E+03 -0.52004510372E+03  0.13845046291E+04  0.46999998093E+01 0. -1.
       -5    1    3    3    0  502 -0.80467569684E+03  0.99944038890E+03 -0.16281800040E+03  0.12934124861E+04  0.46999998093E+01 0.  1.
</event>
<event>
 5   0  0.1085255E-05  0.2593578E+04  0.7818609E-02  0.8370386E-01
        2   -1    0    0  501    0  0.00000000000E+00  0.00000000000E+00  0.22757507242E+04  0.22757507242E+04  0.25500000920E-02 0. -1.
       -2   -1    0    0    0  501  0.00000000000E+00  0.00000000000E+00 -0.73894789142E+03  0.73894789143E+03  0.25500000920E-02 0.  1.
    10030    2    1    2    0    0  0.00000000000E+00  0.00000000000E+00  0.15368028327E+04  0.30146986156E+04  0.25935776056E+04 0.  0.
        5    1    3    3  502    0 -0.63876814283E+03 -0.12246239945E+03  0.20724432011E+04  0.21721106535E+04  0.46999998093E+01 0. -1.
       -5    1    3    3    0  502  0.63876814283E+03  0.12246239945E+03 -0.53564036835E+03  0.84258796203E+03  0.46999998093E+01 0.  1.
</event>
<event>
 5   0  0.4361864E-06  0.2510566E+04  0.7818609E-02  0.8399231E-01
        1   -1    0    0  501    0  0.00000000000E+00  0.00000000000E+00  0.14835699846E+04  0.14835699846E+04  0.50400001928E-02 0. -1.
       -1   -1    0    0    0  501  0.00000000000E+00  0.00000000000E+00 -0.10621243949E+04  0.10621243949E+04  0.50400001928E-02 0.  1.
    10030    2    1    2    0    0  0.00000000000E+00  0.00000000000E+00  0.42144558972E+03  0.25456943795E+04  0.25105663681E+04 0.  0.
        3    1    3    3  502    0 -0.50644712804E+02  0.12367537283E+04  0.42247772369E+03  0.13079037077E+04  0.10100000352E+00 0.  1.
       -3    1    3    3    0  502  0.50644712804E+02 -0.12367537283E+04 -0.10321339739E+01  0.12377906717E+04  0.10100000352E+00 0. -1.
</event>
<event>
 5   0  0.1086507E-05  0.2618481E+04  0.7818609E-02  0.8361951E-01
        2   -1    0    0  501    0  0.00000000000E+00  0.00000000000E+00  0.16798287562E+04  0.16798287562E+04  0.25500000920E-02 0.  1.
       -2   -1    0    0    0  501  0.00000000000E+00  0.00000000000E+00 -0.10204081305E+04  0.10204081305E+04  0.25500000920E-02 0. -1.
    10030    2    1    2    0    0  0.00000000000E+00  0.00000000000E+00  0.65942062569E+03  0.27002368867E+04  0.26184811786E+04 0.  0.
        2    1    3    3  502    0 -0.26479912650E+03 -0.74140833298E+02 -0.99029303574E+03  0.10277624907E+04  0.25500000920E-02 0. -1.
       -2    1    3    3    0  502  0.26479912650E+03  0.74140833298E+02  0.16497136614E+04  0.16724743960E+04  0.25500000920E-02 0.  1.
</event>
<event>
 5   0  0.4464297E-06  0.2584535E+04  0.7818609E-02  0.8373473E-01
       -1   -1    0    0    0  501  0.00000000000E+00  0.00000000000E+00  0.13646491493E+04  0.13646491493E+04  0.50400001928E-02 0.  1.
        1   -1    0    0  501    0  0.00000000000E+00  0.00000000000E+00 -0.12237249129E+04  0.12237249129E+04  0.50400001928E-02 0. -1.
    10030    2    1    2    0    0  0.00000000000E+00  0.00000000000E+00  0.14092423641E+03  0.25883740622E+04  0.25845348992E+04 0.  0.
        4    1    3    3  502    0  0.24260253936E+03  0.10222623197E+04 -0.68303658729E+03  0.12531627328E+04  0.12699999809E+01 0. -1.
       -4    1    3    3    0  502 -0.24260253936E+03 -0.10222623197E+04  0.82396082371E+03  0.13352113294E+04  0.12699999809E+01 0.  1.
</event>
<event>
 5   0  0.4597705E-06  0.2598372E+04  0.7818609E-02  0.8368754E-01
       -1   -1    0    0    0  501  0.00000000000E+00  0.00000000000E+00  0.62364825766E+03  0.62364825768E+03  0.50400001928E-02 0.  1.
        1   -1    0    0  501    0  0.00000000000E+00  0.00000000000E+00 -0.27064683076E+04  0.27064683076E+04  0.50400001928E-02 0. -1.
    10030    2    1    2    0    0  0.00000000000E+00  0.00000000000E+00 -0.20828200500E+04  0.33301165653E+04  0.25983719861E+04 0.  0.
        5    1    3    3  502    0 -0.10467148847E+04  0.75510782702E+03 -0.85104671398E+03  0.15459956273E+04  0.46999998093E+01 0. -1.
       -5    1    3    3    0  502  0.10467148847E+04 -0.75510782702E+03 -0.12317733360E+04  0.17841209380E+04  0.46999998093E+01 0.  1.
</event>
<event>
 5   0  0.4218590E-06  0.2585944E+04  0.7818609E-02  0.8372991E-01
       -1   -1    0    0    0  501  0.00000000000E+00  0.00000000000E+00  0.13858596096E+04  0.13858596096E+04  0.50400001928E-02 0. -1.
        1   -1    0    0  501    0  0.00000000000E+00  0.00000000000E+00 -0.12063102085E+04  0.12063102085E+04  0.50400001928E-02 0.  1.
    10030    2    1    2    0    0  0.00000000000E+00  0.00000000000E+00  0.17954940113E+03  0.25921698181E+04  0.25859440014E+04 0.  0.
        1    1    3    3  502    0 -0.45343131299E+03 -0.92997374153E+03 -0.68754403684E+03  0.12422430995E+04  0.50400001928E-02 0.  1.
       -1    1    3    3    0  502  0.45343131299E+03  0.92997374153E+03  0.86709343798E+03  0.13499267187E+04  0.50400001928E-02 0. -1.
</event>
<event>
 5   0  0.4415080E-06  0.2603961E+04  0.7818609E-02  0.8366857E-01
        1   -1    0    0  501    0  0.00000000000E+00  0.00000000000E+00  0.10435650241E+04  0.10435650241E+04  0.50400001928E-02 0.  1.
       -1   -1    0    0    0  501  0.00000000000E+00  0.00000000000E+00 -0.16243872825E+04  0.16243872826E+04  0.50400001928E-02 0. -1.
    10030    2    1    2    0    0  0.00000000000E+00  0.00000000000E+00 -0.58082225845E+03  0.26679523067E+04  0.26039614081E+04 0.  0.
        2    1    3    3  502    0  0.10266379845E+04 -0.38877536738E+03 -0.10076292775E+04  0.14901169748E+04  0.25500000920E-02 0. -1.
       -2    1    3    3    0  502 -0.10266379845E+04  0.38877536738E+03  0.42680701906E+03  0.11778353319E+04  0.25500000920E-02 0.  1.
</event>
<event>
 5   0  0.1136881E-05  0.2551852E+04  0.7818609E-02  0.8384743E-01
        2   -1    0    0  501    0  0.00000000000E+00  0.00000000000E+00  0.22229327389E+04  0.22229327389E+04  0.25500000920E-02 0. -1.
       -2   -1    0    0    0  501  0.00000000000E+00  0.00000000000E+00 -0.73235980738E+03  0.73235980739E+03  0.25500000920E-02 0.  1.
    10030    2    1    2    0    0  0.00000000000E+00  0.00000000000E+00  0.14905729315E+04  0.29552925462E+04  0.25518515572E+04 0.  0.
        3    1    3    3  502    0 -0.67066846450E+03 -0.56909077690E+02  0.20006083124E+04  0.21107980629E+04  0.10100000352E+00 0. -1.
       -3    1    3    3    0  502  0.67066846450E+03  0.56909077690E+02 -0.51003538095E+03  0.84449448335E+03  0.10100000352E+00 0.  1.
</event>
<event>
 5   0  0.1085061E-05  0.2599930E+04  0.7818609E-02  0.8368225E-01
       -2   -1    0    0    0  501  0.00000000000E+00  0.00000000000E+00  0.10904707136E+04  0.10904707136E+04  0.25500000920E-02 0. -1.
        2   -1    0    0  501    0  0.00000000000E+00  0.00000000000E+00 -0.15497057897E+04  0.15497057898E+04  0.25500000920E-02 0.  1.
    10030    2    1    2    0    0  0.00000000000E+00  0.00000000000E+00 -0.45923507616E+03  0.26401765033E+04  0.25999298286E+04 0.  0.
        1    1    3    3  502    0 -0.54827680256E+03 -0.10754788416E+04  0.26018347419E+03  0.12348917488E+04  0.50400001928E-02 0. -1.
       -1    1    3    3    0  502  0.54827680256E+03  0.10754788416E+04 -0.71941855034E+03  0.14052847546E+04  0.50400001928E-02 0.  1.
</event>
<event>
 5   0  0.4415080E-06  0.2534104E+04  0.7818609E-02  0.8390935E-01
       -1   -1    0    0    0  501  0.00000000000E+00  0.00000000000E+00  0.11973300417E+04  0.11973300417E+04  0.50400001928E-02 0.  1.
        1   -1    0    0  501    0  0.00000000000E+00  0.00000000000E+00 -0.13408341929E+04  0.13408341929E+04  0.50400001928E-02 0. -1.
    10030    2    1    2    0    0  0.00000000000E+00  0.00000000000E+00 -0.14350415120E+03  0.25381642347E+04  0.25341042285E+04 0.  0.
        2    1    3    3  502    0 -0.71843300794E+02  0.96264060846E+03 -0.89378780745E+03  0.13155588340E+04  0.25500000920E-02 0. -1.
       -2    1    3    3    0  502  0.71843300794E+02 -0.96264060846E+03  0.75028365625E+03  0.12226054007E+04  0.25500000920E-02 0.  1.
</event>
<event>
 5   0  0.4464297E-06  0.2597461E+04  0.7818609E-02  0.8369064E-01
        1   -1    0    0  501    0  0.00000000000E+00  0.00000000000E+00  0.11896389798E+04  0.11896389798E+04  0.50400001928E-02 0. -1.
       -1   -1    0    0    0  501  0.00000000000E+00  0.00000000000E+00 -0.14178262376E+04  0.14178262376E+04  0.50400001928E-02 0.  1.
    10030    2    1    2    0    0  0.00000000000E+00  0.00000000000E+00 -0.22818725782E+03  0.26074652174E+04  0.25974613444E+04 0.  0.
        4    1    3    3  502    0 -0.36735647637E+03  0.57033004580E+03  0.99763389156E+03  0.12064419324E+04  0.12699999809E+01 0. -1.
       -4    1    3    3    0  502  0.36735647637E+03 -0.57033004580E+03 -0.12258211494E+04  0.14010232850E+04  0.12699999809E+01 0.  1.
</event>
<event>
 5   0  0.4361864E-06  0.2635654E+04  0.7818609E-02  0.8356190E-01
       -1   -1    0    0    0  501  0.00000000000E+00  0.00000000000E+00  0.11180192064E+04  0.11180192064E+04  0.50400001928E-02 0. -1.
        1   -1    0    0  501    0  0.00000000000E+00  0.00000000000E+00 -0.15533434411E+04  0.15533434411E+04  0.50400001928E-02 0.  1.
    10030    2    1    2    0    0  0.00000000000E+00  0.00000000000E+00 -0.43532423469E+03  0.26713626476E+04  0.26356538478E+04 0.  0.
        3    1    3    3  502    0  0.69680202465E+03 -0.99902597516E+03 -0.72755031659E+03  0.14187725096E+04  0.10100000352E+00 0. -1.
       -3    1    3    3    0  502 -0.69680202465E+03  0.99902597516E+03  0.29222608190E+03  0.12525901380E+04  0.10100000352E+00 0.  1.
</event>
<event>
 5   0  0.4464297E-06  0.2598548E+04  0.7818609E-02  0.8368695E-01
       -1   -1    0    0    0  501  0.00000000000E+00  0.00000000000E+00  0.18617235489E+04  0.18617235489E+04  0.50400001928E-02 0.  1.
        1   -1    0    0  501    0  0.00000000000E+00  0.00000000000E+00 -0.90674702241E+03  0.90674702243E+03  0.50400001928E-02 0. -1.
    10030    2    1    2    0    0  0.00000000000E+00  0.00000000000E+00  0.95497652644E+03  0.27684705713E+04  0.25985475054E+04 0.  0.
        4    1    3    3  502    0 -0.40504564805E+03 -0.77255272310E+03 -0.54839639368E+03  0.10303591143E+04  0.12699999809E+01 0. -1.
       -4    1    3    3    0  502  0.40504564805E+03  0.77255272310E+03  0.15033729201E+04  0.17381114570E+04  0.12699999809E+01 0.  1.
</event>
<event>
 5   0  0.1086507E-05  0.2589549E+04  0.7818609E-02  0.8371760E-01
        2   -1    0    0  501    0  0.00000000000E+00  0.00000000000E+00  0.14396803184E+04  0.14396803184E+04  0.25500000920E-02 0.  1.
       -2   -1    0    0    0  501  0.00000000000E+00  0.00000000000E+00 -0.11644534699E+04  0.11644534699E+04  0.25500000920E-02 0. -1.
    10030    2    1    2    0    0  0.00000000000E+00  0.00000000000E+00  0.27522684850E+03  0.26041337883E+04  0.25895487965E+04 0.  0.
        2    1    3    3  502    0 -0.39378113567E+03 -0.15381919570E+03  0.13683186542E+04  0.14321382151E+04  0.25500000920E-02 0.  1.
       -2    1    3    3    0  502  0.39378113567E+03  0.15381919570E+03 -0.10930918057E+04  0.11719955732E+04  0.25500000920E-02 0. -1.
</event>
<event>
 5   0  0.1085061E-05  0.2614110E+04  0.7818609E-02  0.8363424E-01
       -2   -1    0    0    0  501  0.00000000000E+00  0.00000000000E+00  0.16830042000E+04  0.16830042000E+04  0.25500000920E-02 0. -1.
        2   -1    0    0  501    0  0.00000000000E+00  0.00000000000E+00 -0.10150851165E+04  0.10150851165E+04  0.25500000920E-02 0.  1.
    10030    2    1    2    0    0  0.00000000000E+00  0.00000000000E+00  0.66791908350E+03  0.26980893165E+04  0.26141098022E+04 0.  0.
        1    1    3    3  502    0  0.37807865241E+02 -0.48334995288E+03 -0.91884518340E+03  0.10389095643E+04  0.50400001928E-02 0.  1.
       -1    1    3    3    0  502 -0.37807865241E+02  0.48334995288E+03  0.15867642669E+04  0.16591797523E+04  0.50400001928E-02 0. -1.
</event>
<event>
 5   0  0.4218590E-06  0.2599721E+04  0.7818609E-02  0.8368296E-01
       -1   -1    0    0    0  501  0.00000000000E+00  0.00000000000E+00  0.13286926880E+04  0.13286926880E+04  0.50400001928E-02 0. -1.
        1   -1    0    0  501    0  0.00000000000E+00  0.00000000000E+00 -0.12716540138E+04  0.12716540138E+04  0.50400001928E-02 0.  1.
    10030    2    1    2    0    0  0.00000000000E+00  0.00000000000E+00  0.57038674260E+02  0.26003467018E+04  0.25997210541E+04 0.  0.
        1    1    3    3  502    0 -0.19484774551E+03  0.33259087035E+03 -0.12131718029E+04  0.12729368226E+04  0.50400001928E-02 0.  1.
       -1    1    3    3    0  502  0.19484774551E+03 -0.33259087035E+03  0.12702104772E+04  0.13274098792E+04  0.50400001928E-02 0. -1.
</event>
<event>
 5   0  0.1086507E-05  0.2653467E+04  0.7818609E-02  0.8350263E-01
       -2   -1    0    0    0  501  0.00000000000E+00  0.00000000000E+00  0.17969972997E+04  0.17969972997E+04  0.25500000920E-02 0.  1.
        2   -1    0    0  501    0  0.00000000000E+00  0.00000000000E+00 -0.97953521623E+03  0.97953521623E+03  0.25500000920E-02 0. -1.
    10030    2    1    2    0    0  0.00000000000E+00  0.00000000000E+00  0.81746208344E+03  0.27765325159E+04  0.26534672702E+04 0.  0.
        2    1    3    3  502    0  0.22593351250E+03  0.40479294278E+03 -0.89203167754E+03  0.10052978625E+04  0.25500000920E-02 0. -1.
       -2    1    3    3    0  502 -0.22593351250E+03 -0.40479294278E+03  0.17094937610E+04  0.17712346534E+04  0.25500000920E-02 0.  1.
</event>
<event>
 5   0  0.4361864E-06  0.2586093E+04  0.7818609E-02  0.8372941E-01
       -1   -1    0    0    0  501  0.00000000000E+00  0.00000000000E+00  0.96940000381E+03  0.96940000383E+03  0.50400001928E-02 0. -1.
        1   -1    0    0  501    0  0.00000000000E+00  0.00000000000E+00 -0.17247461243E+04  0.17247461244E+04  0.50400001928E-02 0.  1.
    10030    2    1    2    0    0  0.00000000000E+00  0.00000000000E+00 -0.75534612053E+03  0.26941461282E+04  0.25860927281E+04 0.  0.
        3    1    3    3  502    0 -0.12001301486E+03 -0.70820889081E+03 -0.14977738054E+04  0.16611108750E+04  0.10100000352E+00 0.  1.
       -3    1    3    3    0  502  0.12001301486E+03  0.70820889081E+03  0.74242768488E+03  0.10330352531E+04  0.10100000352E+00 0. -1.
</event>
<event>
 5   0  0.1085061E-05  0.2627928E+04  0.7818609E-02  0.8358776E-01
        2   -1    0    0  501    0  0.00000000000E+00  0.00000000000E+00  0.81708576160E+03  0.81708576160E+03  0.25500000920E-02 0. -1.
       -2   -1    0    0    0  501  0.00000000000E+00  0.00000000000E+00 -0.21129990850E+04  0.21129990850E+04  0.25500000920E-02 0.  1.
    10030    2    1    2    0    0  0.00000000000E+00  0.00000000000E+00 -0.12959133234E+04  0.29300848466E+04  0.26279280558E+04 0.  0.
        1    1    3    3  502    0  0.11283578638E+04  0.50092998738E+03 -0.14636581342E+03  0.12431996108E+04  0.50400001928E-02 0. -1.
       -1    1    3    3    0  502 -0.11283578638E+04 -0.50092998738E+03 -0.11495475100E+04  0.16868852358E+04  0.50400001928E-02 0.  1.
</event>
<event>
 5   0  0.4361864E-06  0.2591630E+04  0.7818609E-02  0.8371050E-01
        1   -1    0    0  501    0  0.00000000000E+00  0.00000000000E+00  0.12738126148E+04  0.12738126148E+04  0.50400001928E-02 0. -1.
       -1   -1    0    0    0  501  0.00000000000E+00  0.00000000000E+00 -0.13181976449E+04  0.13181976449E+04  0.50400001928E-02 0.  1.
    10030    2    1    2    0    0  0.00000000000E+00  0.00000000000E+00 -0.44385030103E+02  0.25920102597E+04  0.25916302119E+04 0.  0.
        3    1    3    3  502    0 -0.65478373165E+03 -0.10887296975E+04 -0.27730381001E+03  0.13003736012E+04  0.10100000352E+00 0. -1.
       -3    1    3    3    0  502  0.65478373165E+03  0.10887296975E+04  0.23291877991E+03  0.12916366585E+04  0.10100000352E+00 0.  1.
</event>
<event>
 5   0  0.1085255E-05  0.2645133E+04  0.7818609E-02  0.8353030E-01
        2   -1    0    0  501    0  0.00000000000E+00  0.00000000000E+00  0.15561151644E+04  0.15561151644E+04  0.25500000920E-02 0. -1.
       -2   -1    0    0    0  501  0.00000000000E+00  0.00000000000E+00 -0.11240694717E+04  0.11240694717E+04  0.25500000920E-02 0.  1.
    10030    2    1    2    0    0  0.00000000000E+00  0.00000000000E+00  0.43204569265E+03  0.26801846361E+04  0.26451325492E+04 0.  0.
        5    1    3    3  502    0 -0.22042551842E+03 -0.86928556824E+03  0.12009714421E+04  0.14988660057E+04  0.46999998093E+01 0. -1.
       -5    1    3    3    0  502  0.22042551842E+03  0.86928556824E+03 -0.76892574946E+03  0.11813186304E+04  0.46999998093E+01 0.  1.
</event>
<event>
 5   0  0.1085061E-05  0.2617196E+04  0.7818609E-02  0.8362384E-01
        2   -1    0    0  501    0  0.00000000000E+00  0.00000000000E+00  0.21029095593E+04  0.21029095593E+04  0.25500000920E-02 0. -1.
       -2   -1    0    0    0  501  0.00000000000E+00  0.00000000000E+00 -0.81431373497E+03  0.81431373497E+03  0.25500000920E-02 0.  1.
    10030    2    1    2    0    0  0.00000000000E+00  0.00000000000E+00  0.12885958243E+04  0.29172232943E+04  0.26171955506E+04 0.  0.
        1    1    3    3  502    0 -0.56851362619E+02 -0.13043216941E+04  0.54497018363E+03  0.14147366046E+04  0.50400001928E-02 0.  1.
       -1    1    3    3    0  502  0.56851362619E+02  0.13043216941E+04  0.74362564069E+03  0.15024866897E+04  0.50400001928E-02 0. -1.
</event>
<event>
 5   0  0.4415080E-06  0.2606073E+04  0.7818609E-02  0.8366141E-01
       -1   -1    0    0    0  501  0.00000000000E+00  0.00000000000E+00  0.12430642058E+04  0.12430642058E+04  0.50400001928E-02 0. -1.
        1   -1    0    0  501    0  0.00000000000E+00  0.00000000000E+00 -0.13659020090E+04  0.13659020090E+04  0.50400001928E-02 0.  1.
    10030    2    1    2    0    0  0.00000000000E+00  0.00000000000E+00 -0.12283780318E+03  0.26089662147E+04  0.26060728278E+04 0.  0.
        2    1    3    3  502    0 -0.92154791800E+03 -0.89823905140E+03 -0.26614518193E+03  0.13141222228E+04  0.25500000920E-02 0.  1.
       -2    1    3    3    0  502  0.92154791800E+03  0.89823905140E+03  0.14330737875E+03  0.12948439919E+04  0.25500000920E-02 0. -1.
</event>
<event>
 5   0  0.1086507E-05  0.2591249E+04  0.7818609E-02  0.8371180E-01
       -2   -1    0    0    0  501  0.00000000000E+00  0.00000000000E+00  0.94460270347E+03  0.94460270347E+03  0.25500000920E-02 0. -1.
        2   -1    0    0  501    0  0.00000000000E+00  0.00000000000E+00 -0.17770892432E+04  0.17770892432E+04  0.25500000920E-02 0.  1.
    10030    2    1    2    0    0  0.00000000000E+00  0.00000000000E+00 -0.83248653971E+03  0.27216919467E+04  0.25912493538E+04 0.  0.
        2    1    3    3  502    0  0.60322939477E+03 -0.89685525701E+03  0.33414943560E+03  0.11313226331E+04  0.25500000920E-02 0. -1.
       -2    1    3    3    0  502 -0.60322939477E+03  0.89685525701E+03 -0.11666359753E+04  0.15903693136E+04  0.25500000920E-02 0.  1.
</event>
<event>
 5   0  0.1085061E-05  0.2676715E+04  0.7818609E-02  0.8342600E-01
       -2   -1    0    0    0  501  0.00000000000E+00  0.00000000000E+00  0.21385820296E+04  0.21385820296E+04  0.25500000920E-02 0.  1.
        2   -1    0    0  501    0  0.00000000000E+00  0.00000000000E+00 -0.83756472890E+03  0.83756472891E+03  0.25500000920E-02 0. -1.
    10030    2    1    2    0    0  0.00000000000E+00  0.00000000000E+00  0.13010173007E+04  0.29761467585E+04  0.26767150598E+04 0.  0.
        1    1    3    3  502    0  0.92085940118E+03  0.45292164553E+03  0.16057303108E+04  0.19056468415E+04  0.50400001928E-02 0.  1.
       -1    1    3    3    0  502 -0.92085940118E+03 -0.45292164553E+03 -0.30471301006E+03  0.10704999170E+04  0.50400001928E-02 0. -1.
</event>
<event>
 5   0  0.4415080E-06  0.2582750E+04  0.7818609E-02  0.8374084E-01
        1   -1    0    0  501    0  0.00000000000E+00  0.00000000000E+00  0.21975205242E+04  0.21975205242E+04  0.50400001928E-02 0.  1.
       -1   -1    0    0    0  501  0.00000000000E+00  0.00000000000E+00 -0.75887790888E+03  0.75887790889E+03  0.50400001928E-02 0. -1.
    10030    2    1    2    0    0  0.00000000000E+00  0.00000000000E+00  0.14386426153E+04  0.29563984331E+04  0.25827503016E+04 0.  0.
        2    1    3    3  502    0 -0.87247209577E+03  0.95108409639E+03  0.76896972371E+03  0.15023591289E+04  0.25500000920E-02 0.  1.
       -2    1    3    3    0  502  0.87247209577E+03 -0.95108409639E+03  0.66967289162E+03  0.14540393042E+04  0.25500000920E-02 0. -1.
</event>
<event>
 5   0  0.4464297E-06  0.2580878E+04  0.7818609E-02  0.8374726E-01
        1   -1    0    0  501    0  0.00000000000E+00  0.00000000000E+00  0.17198164208E+04  0.17198164208E+04  0.50400001928E-02 0.  1.
       -1   -1    0    0    0  501  0.00000000000E+00  0.00000000000E+00 -0.96826159214E+03  0.96826159215E+03  0.50400001928E-02 0. -1.
    10030    2    1    2    0    0  0.00000000000E+00  0.00000000000E+00  0.75155482867E+03  0.26880780130E+04  0.25808775142E+04 0.  0.
        4    1    3    3  502    0 -0.10079575307E+04  0.79473528285E+03  0.23741362085E+03  0.13053541258E+04  0.12699999809E+01 0. -1.
       -4    1    3    3    0  502  0.10079575307E+04 -0.79473528285E+03  0.51414120781E+03  0.13827238871E+04  0.12699999809E+01 0.  1.
</event>
<event>
 5   0  0.1085255E-05  0.2619559E+04  0.7818609E-02  0.8361588E-01
        2   -1    0    0  501    0  0.00000000000E+00  0.00000000000E+00  0.21768045603E+04  0.21768045603E+04  0.25500000920E-02 0.  1.
       -2   -1    0    0    0  501  0.00000000000E+00  0.00000000000E+00 -0.78809196065E+03  0.78809196065E+03  0.25500000920E-02 0. -1.
    10030    2    1    2    0    0  0.00000000000E+00  0.00000000000E+00  0.13887125996E+04  0.29648965210E+04  0.26195588742E+04 0.  0.
        5    1    3    3  502    0  0.28662090139E+03  0.63666892446E+03 -0.55988407420E+03  0.89498107635E+03  0.46999998093E+01 0. -1.
       -5    1    3    3    0  502 -0.28662090139E+03 -0.63666892446E+03  0.19485966738E+04  0.20699154446E+04  0.46999998093E+01 0.  1.
</event>
<event>
 5   0  0.4361864E-06  0.2592443E+04  0.7818609E-02  0.8370773E-01
        1   -1    0    0  501    0  0.00000000000E+00  0.00000000000E+00  0.15594740568E+04  0.15594740568E+04  0.50400001928E-02 0.  1.
       -1   -1    0    0    0  501  0.00000000000E+00  0.00000000000E+00 -0.10774083528E+04  0.10774083528E+04  0.50400001928E-02 0. -1.
    10030    2    1    2    0    0  0.00000000000E+00  0.00000000000E+00  0.48206570402E+03  0.26368824096E+04  0.25924431526E+04 0.  0.
        3    1    3    3  502    0 -0.10215849845E+04  0.51384185334E+03  0.86184030335E+03  0.14319350717E+04  0.10100000352E+00 0. -1.
       -3    1    3    3    0  502  0.10215849845E+04 -0.51384185334E+03 -0.37977459933E+03  0.12049473380E+04  0.10100000352E+00 0.  1.
</event>
<event>
 5   0  0.4361864E-06  0.2621996E+04  0.7818609E-02  0.8360768E-01
        1   -1    0    0  501    0  0.00000000000E+00  0.00000000000E+00  0.19203436342E+04  0.19203436342E+04  0.50400001928E-02 0. -1.
       -1   -1    0    0    0  501  0.00000000000E+00  0.00000000000E+00 -0.89500436460E+03  0.89500436461E+03  0.50400001928E-02 0.  1.
    10030    2    1    2    0    0  0.00000000000E+00  0.00000000000E+00  0.10253392696E+04  0.28153479988E+04  0.26219961359E+04 0.  0.
        3    1    3    3  502    0  0.62158101140E+02 -0.68887559357E+03 -0.68314505413E+03  0.97216273748E+03  0.10100000352E+00 0.  1.
       -3    1    3    3    0  502 -0.62158101140E+02  0.68887559357E+03  0.17084843237E+04  0.18431852613E+04  0.10100000352E+00 0. -1.
</event>
<event>
 5   0  0.1136881E-05  0.2594371E+04  0.7818609E-02  0.8370116E-01
        2   -1    0    0  501    0  0.00000000000E+00  0.00000000000E+00  0.23079420366E+04  0.23079420366E+04  0.25500000920E-02 0.  1.
       -2   -1    0    0    0  501  0.00000000000E+00  0.00000000000E+00 -0.72908674593E+03  0.72908674593E+03  0.25500000920E-02 0. -1.
    10030    2    1    2    0    0  0.00000000000E+00  0.00000000000E+00  0.15788552907E+04  0.30370287826E+04  0.25943707902E+04 0.  0.
        3    1    3    3  502    0 -0.27947305220E+03  0.51937440043E+02 -0.69217871864E+03  0.74827406298E+03  0.10100000352E+00 0. -1.
       -3    1    3    3    0  502  0.27947305220E+03 -0.51937440043E+02  0.22710340094E+04  0.22887547196E+04  0.10100000352E+00 0.  1.
</event>
<event>
 5   0  0.1085255E-05  0.2593327E+04  0.7818609E-02  0.8370472E-01
        2   -1    0    0  501    0  0.00000000000E+00  0.00000000000E+00  0.85825213286E+03  0.85825213287E+03  0.25500000920E-02 0. -1.
       -2   -1    0    0    0  501  0.00000000000E+00  0.00000000000E+00 -0.19590229354E+04  0.19590229354E+04  0.25500000920E-02 0.  1.
    10030    2    1    2    0    0  0.00000000000E+00  0.00000000000E+00 -0.11007708025E+04  0.28172750683E+04  0.25933265222E+04 0.  0.
        5    1    3    3  502    0 -0.10962661708E+04 -0.21483863012E+03 -0.12655329330E+04  0.16880612692E+04  0.46999998093E+01 0.  1.
       -5    1    3    3    0  502  0.10962661708E+04  0.21483863012E+03  0.16476213044E+03  0.11292137990E+04  0.46999998093E+01 0. -1.
</event>
<event>
 5   0  0.4597705E-06  0.2603051E+04  0.7818609E-02  0.8367165E-01
       -1   -1    0    0    0  501  0.00000000000E+00  0.00000000000E+00  0.99943033378E+03  0.99943033379E+03  0.50400001928E-02 0. -1.
        1   -1    0    0  501    0  0.00000000000E+00  0.00000000000E+00 -0.16949346405E+04  0.16949346405E+04  0.50400001928E-02 0.  1.
    10030    2    1    2    0    0  0.00000000000E+00  0.00000000000E+00 -0.69550430673E+03  0.26943649743E+04  0.26030513583E+04 0.  0.
        5    1    3    3  502    0  0.10119582973E+04  0.62991277088E+03  0.19316704770E+03  0.12075534326E+04  0.46999998093E+01 0. -1.
       -5    1    3    3    0  502 -0.10119582973E+04 -0.62991277088E+03 -0.88867135443E+03  0.14868115417E+04  0.46999998093E+01 0.  1.
</event>
<event>
 5   0  0.4415080E-06  0.2601723E+04  0.7818609E-02  0.8367616E-01
        1   -1    0    0  501    0  0.00000000000E+00  0.00000000000E+00  0.77962621650E+03  0.77962621651E+03  0.50400001928E-02 0.  1.
       -1   -1    0    0    0  501  0.00000000000E+00  0.00000000000E+00 -0.21705788074E+04  0.21705788074E+04  0.50400001928E-02 0. -1.
    10030    2    1    2    0    0  0.00000000000E+00  0.00000000000E+00 -0.13909525909E+04  0.29502050240E+04  0.26017226165E+04 0.  0.
        2    1    3    3  502    0 -0.10842558379E+04  0.28049809218E+03 -0.14458948973E+04  0.18289073120E+04  0.25500000920E-02 0. -1.
       -2    1    3    3    0  502  0.10842558379E+04 -0.28049809218E+03  0.54942306401E+02  0.11212977119E+04  0.25500000920E-02 0.  1.
</event>
<event>
 5   0  0.1116310E-05  0.2612320E+04  0.7818609E-02  0.8364029E-01
       -2   -1    0    0    0  501  0.00000000000E+00  0.00000000000E+00  0.66820471660E+03  0.66820471660E+03  0.25500000920E-02 0. -1.
        2   -1    0    0  501    0  0.00000000000E+00  0.00000000000E+00 -0.25531895445E+04  0.25531895445E+04  0.25500000920E-02 0.  1.
    10030    2    1    2    0    0  0.00000000000E+00  0.00000000000E+00 -0.18849848279E+04  0.32213942611E+04  0.26123195027E+04 0.  0.
        4    1    3    3  502    0  0.21033726451E+02  0.13058264056E+04 -0.96796426783E+03  0.16256018750E+04  0.12699999809E+01 0.  1.
       -4    1    3    3    0  502 -0.21033726451E+02 -0.13058264056E+04 -0.91702056008E+03  0.15957923862E+04  0.12699999809E+01 0. -1.
</event>
<event>
 5   0  0.1085255E-05  0.2582097E+04  0.7818609E-02  0.8374308E-01
        2   -1    0    0  501    0  0.00000000000E+00  0.00000000000E+00  0.17296139473E+04  0.17296139473E+04  0.25500000920E-02 0.  1.
       -2   -1    0    0    0  501  0.00000000000E+00  0.00000000000E+00 -0.96368668986E+03  0.96368668986E+03  0.25500000920E-02 0. -1.
    10030    2    1    2    0    0  0.00000000000E+00  0.00000000000E+00  0.76592725744E+03  0.26933006372E+04  0.25820967756E+04 0.  0.
        5    1    3    3  502    0  0.44640001692E+03  0.29746291268E+03 -0.84193078597E+03  0.99831192414E+03  0.46999998093E+01 0. -1.
       -5    1    3    3    0  502 -0.44640001692E+03 -0.29746291268E+03  0.16078580434E+04  0.16949887130E+04  0.46999998093E+01 0.  1.
</event>
<event>
 5   0  0.4218590E-06  0.2590450E+04  0.7818609E-02  0.8371452E-01
        1   -1    0    0  501    0  0.00000000000E+00  0.00000000000E+00  0.21828668135E+04  0.21828668135E+04  0.50400001928E-02 0.  1.
       -1   -1    0    0    0  501  0.00000000000E+00  0.00000000000E+00 -0.76853404932E+03  0.76853404934E+03  0.50400001928E-02 0. -1.
    10030    2    1    2    0    0  0.00000000000E+00  0.00000000000E+00  0.14143327641E+04  0.29514008628E+04  0.25904497457E+04 0.  0.
        1    1    3    3  502    0 -0.52495994770E+03 -0.11109447811E+04  0.24041788077E+03  0.12520311541E+04  0.50400001928E-02 0. -1.
       -1    1    3    3    0  502  0.52495994770E+03  0.11109447811E+04  0.11739148834E+04  0.16993697087E+04  0.50400001928E-02 0.  1.
</event>
<event>
 5   0  0.1086507E-05  0.2602216E+04  0.7818609E-02  0.8367449E-01
       -2   -1    0    0    0  501  0.00000000000E+00  0.00000000000E+00  0.81788758408E+03  0.81788758409E+03  0.25500000920E-02 0.  1.
        2   -1    0    0  501    0  0.00000000000E+00  0.00000000000E+00 -0.20698224141E+04  0.20698224141E+04  0.25500000920E-02 0. -1.
    10030    2    1    2    0    0  0.00000000000E+00  0.00000000000E+00 -0.12519348301E+04  0.28877099982E+04  0.26022160201E+04 0.  0.
        2    1    3    3  502    0  0.54816956574E+03 -0.21195365986E+03 -0.19141262977E+04  0.20023220795E+04  0.25500000920E-02 0. -1.
       -2    1    3    3    0  502 -0.54816956574E+03  0.21195365986E+03  0.66219146763E+03  0.88538791868E+03  0.25500000920E-02 0.  1.
</event>
<event>
 5   0  0.4415080E-06  0.2508102E+04  0.7818609E-02  0.8400105E-01
        1   -1    0    0  501    0  0.00000000000E+00  0.00000000000E+00  0.94837453803E+03  0.94837453804E+03  0.50400001928E-02 0. -1.
       -1   -1    0    0    0  501  0.00000000000E+00  0.00000000000E+00 -0.16582519155E+04  0.16582519155E+04  0.50400001928E-02 0.  1.
    10030    2    1    2    0    0  0.00000000000E+00  0.00000000000E+00 -0.70987737751E+03  0.26066264536E+04  0.25081019871E+04 0.  0.
        2    1    3    3  502    0  0.10779571129E+04  0.14728724130E+03  0.29322608032E+03  0.11267948362E+04  0.25500000920E-02 0. -1.
       -2    1    3    3    0  502 -0.10779571129E+04 -0.14728724130E+03 -0.10031034578E+04  0.14798316174E+04  0.25500000920E-02 0.  1.
</event>
<event>
 5   0  0.1085061E-05  0.2587945E+04  0.7818609E-02  0.8372307E-01
       -2   -1    0    0    0  501  0.00000000000E+00  0.00000000000E+00  0.78683589586E+03  0.78683589586E+03  0.25500000920E-02 0. -1.
        2   -1    0    0  501    0  0.00000000000E+00  0.00000000000E+00 -0.21279725756E+04  0.21279725756E+04  0.25500000920E-02 0.  1.
    10030    2    1    2    0    0  0.00000000000E+00  0.00000000000E+00 -0.13411366798E+04  0.29148084715E+04  0.25879452915E+04 0.  0.
        1    1    3    3  502    0 -0.58015822617E+03  0.86812826204E+03  0.19025004110E+03  0.10613318637E+04  0.50400001928E-02 0. -1.
       -1    1    3    3    0  502  0.58015822617E+03 -0.86812826204E+03 -0.15313867209E+04  0.18534766078E+04  0.50400001928E-02 0.  1.
</event>
<event>
 5   0  0.4361864E-06  0.2582895E+04  0.7818609E-02  0.8374035E-01
        1   -1    0    0  501    0  0.00000000000E+00  0.00000000000E+00  0.11427875713E+04  0.11427875713E+04  0.50400001928E-02 0. -1.
       -1   -1    0    0    0  501  0.00000000000E+00  0.00000000000E+00 -0.14594462818E+04  0.14594462818E+04  0.50400001928E-02 0.  1.
    10030    2    1    2    0    0  0.00000000000E+00  0.00000000000E+00 -0.31665871051E+03  0.26022338531E+04  0.25828953303E+04 0.  0.
        3    1    3    3  502    0  0.58826843784E+03 -0.40948833982E+03  0.92400288992E+03  0.11694108800E+04  0.10100000352E+00 0. -1.
       -3    1    3    3    0  502 -0.58826843784E+03  0.40948833982E+03 -0.12406616004E+04  0.14328229732E+04  0.10100000352E+00 0.  1.
</event>
<event>
 5   0  0.4361864E-06  0.2551966E+04  0.7818609E-02  0.8384703E-01
        1   -1    0    0  501    0  0.00000000000E+00  0.00000000000E+00  0.18539419520E+04  0.18539419520E+04  0.50400001928E-02 0. -1.
       -1   -1    0    0    0  501  0.00000000000E+00  0.00000000000E+00 -0.87820024580E+03  0.87820024582E+03  0.50400001928E-02 0.  1.
    10030    2    1    2    0    0  0.00000000000E+00  0.00000000000E+00  0.97574170615E+03  0.27321421978E+04  0.25519657348E+04 0.  0.
        3    1    3    3  502    0  0.69270037151E+03 -0.10659727286E+04  0.60515249299E+03  0.14079563959E+04  0.10100000352E+00 0.  1.
       -3    1    3    3    0  502 -0.69270037151E+03  0.10659727286E+04  0.37058921316E+03  0.13241858019E+04  0.10100000352E+00 0. -1.
</event>
<event>
 5   0  0.1116310E-05  0.2580873E+04  0.7818609E-02  0.8374727E-01
        2   -1    0    0  501    0  0.00000000000E+00  0.00000000000E+00  0.12454619956E+04  0.12454619956E+04  0.25500000920E-02 0.  1.
       -2   -1    0    0    0  501  0.00000000000E+00  0.00000000000E+00 -0.13370352181E+04  0.13370352181E+04  0.25500000920E-02 0. -1.
    10030    2    1    2    0    0  0.00000000000E+00  0.00000000000E+00 -0.91573222470E+02  0.25824972137E+04  0.25808731476E+04 0.  0.
        4    1    3    3  502    0  0.49740701250E+03  0.11787983025E+04 -0.21395713104E+03  0.12972117949E+04  0.12699999809E+01 0. -1.
       -4    1    3    3    0  502 -0.49740701250E+03 -0.11787983025E+04  0.12238390857E+03  0.12852854189E+04  0.12699999809E+01 0.  1.
</event>
<event>
 5   0  0.1085061E-05  0.2599954E+04  0.7818609E-02  0.8368217E-01
        2   -1    0    0  501    0  0.00000000000E+00  0.00000000000E+00  0.13148965796E+04  0.13148965796E+04  0.25500000920E-02 0.  1.
       -2   -1    0    0    0  501  0.00000000000E+00  0.00000000000E+00 -0.12852270653E+04  0.12852270653E+04  0.25500000920E-02 0. -1.
    10030    2    1    2    0    0  0.00000000000E+00  0.00000000000E+00  0.29669514325E+02  0.26001236449E+04  0.25999543628E+04 0.  0.
        1    1    3    3  502    0  0.74373469325E+03  0.27474356467E+03 -0.10154339263E+04  0.12883056233E+04  0.50400001928E-02 0. -1.
       -1    1    3    3    0  502 -0.74373469325E+03 -0.27474356467E+03  0.10451034406E+04  0.13118180216E+04  0.50400001928E-02 0.  1.
</event>
<event>
 5   0  0.4415080E-06  0.2606159E+04  0.7818609E-02  0.8366112E-01
       -1   -1    0    0    0  501  0.00000000000E+00  0.00000000000E+00  0.22280220333E+04  0.22280220333E+04  0.50400001928E-02 0. -1.
        1   -1    0    0  501    0  0.00000000000E+00  0.00000000000E+00 -0.76211822293E+03  0.76211822294E+03  0.50400001928E-02 0.  1.
    10030    2    1    2    0    0  0.00000000000E+00  0.00000000000E+00  0.14659038104E+04  0.29901402563E+04  0.26061590072E+04 0.  0.
        2    1    3    3  502    0 -0.50818807312E+03  0.11763010181E+04  0.46125605979E+03  0.13618723712E+04  0.25500000920E-02 0. -1.
       -2    1    3    3    0  502  0.50818807312E+03 -0.11763010181E+04  0.10046477506E+04  0.16282678851E+04  0.25500000920E-02 0.  1.
</event>
<event>
 5   0  0.4464297E-06  0.2617763E+04  0.7818609E-02  0.8362192E-01
       -1   -1    0    0    0  501  0.00000000000E+00  0.00000000000E+00  0.13340774931E+04  0.13340774931E+04  0.50400001928E-02 0. -1.
        1   -1    0    0  501    0  0.00000000000E+00  0.00000000000E+00 -0.12841614450E+04  0.12841614450E+04  0.50400001928E-02 0.  1.
    10030    2    1    2    0    0  0.00000000000E+00  0.00000000000E+00  0.49916048135E+02  0.26182389381E+04  0.26177630765E+04 0.  0.
        4    1    3    3  502    0  0.68241909426E+03  0.28455364120E+03 -0.10552858418E+04  0.12885248991E+04  0.12699999809E+01 0.  1.
       -4    1    3    3    0  502 -0.68241909426E+03 -0.28455364120E+03  0.11052018899E+04  0.13297140389E+04  0.12699999809E+01 0. -1.
</event>
<event>
 5   0  0.4597705E-06  0.2574664E+04  0.7818609E-02  0.8376859E-01
        1   -1    0    0  501    0  0.00000000000E+00  0.00000000000E+00  0.19024594052E+04  0.19024594052E+04  0.50400001928E-02 0.  1.
       -1   -1    0    0    0  501  0.00000000000E+00  0.00000000000E+00 -0.87109528048E+03  0.87109528049E+03  0.50400001928E-02 0. -1.
    10030    2    1    2    0    0  0.00000000000E+00  0.00000000000E+00  0.10313641247E+04  0.27735546857E+04  0.25746637910E+04 0.  0.
        5    1    3    3  502    0 -0.10707109493E+04 -0.32544621644E+03  0.12011243039E+04  0.16416634430E+04  0.46999998093E+01 0.  1.
       -5    1    3    3    0  502  0.10707109493E+04  0.32544621644E+03 -0.16976017916E+03  0.11318912427E+04  0.46999998093E+01 0. -1.
</event>
<event>
 5   0  0.1086507E-05  0.2601860E+04  0.7818609E-02  0.8367570E-01
        2   -1    0    0  501    0  0.00000000000E+00  0.00000000000E+00  0.11752890682E+04  0.11752890682E+04  0.25500000920E-02 0. -1.
       -2   -1    0    0    0  501  0.00000000000E+00  0.00000000000E+00 -0.14400017828E+04  0.14400017828E+04  0.25500000920E-02 0.  1.
    10030    2    1    2    0    0  0.00000000000E+00  0.00000000000E+00 -0.26471271451E+03  0.26152908510E+04  0.26018596069E+04 0.  0.
        2    1    3    3  502    0 -0.30276988071E+03  0.18123823035E+03  0.11262662188E+04  0.11802510294E+04  0.25500000920E-02 0. -1.
       -2    1    3    3    0  502  0.30276988071E+03 -0.18123823035E+03 -0.13909789333E+04  0.14350398216E+04  0.25500000920E-02 0.  1.
</event>
<event>
 5   0  0.4464297E-06  0.2563446E+04  0.7818609E-02  0.8380725E-01
       -1   -1    0    0    0  501  0.00000000000E+00  0.00000000000E+00  0.13756999419E+04  0.13756999419E+04  0.50400001928E-02 0. -1.
        1   -1    0    0  501    0  0.00000000000E+00  0.00000000000E+00 -0.11941660419E+04  0.11941660419E+04  0.50400001928E-02 0.  1.
    10030    2    1    2    0    0  0.00000000000E+00  0.00000000000E+00  0.18153390008E+03  0.25698659838E+04  0.25634462385E+04 0.  0.
        4    1    3    3  502    0 -0.41754820054E+03  0.52951824518E+03  0.11834858617E+04  0.13621220465E+04  0.12699999809E+01 0. -1.
       -4    1    3    3    0  502  0.41754820054E+03 -0.52951824518E+03 -0.10019519617E+04  0.12077439373E+04  0.12699999809E+01 0.  1.
</event>
<event>
 5   0  0.1085255E-05  0.2566622E+04  0.7818609E-02  0.8379628E-01
       -2   -1    0    0    0  501  0.00000000000E+00  0.00000000000E+00  0.13872264312E+04  0.13872264312E+04  0.25500000920E-02 0. -1.
        2   -1    0    0  501    0  0.00000000000E+00  0.00000000000E+00 -0.11871798263E+04  0.11871798263E+04  0.25500000920E-02 0.  1.
    10030    2    1    2    0    0  0.00000000000E+00  0.00000000000E+00  0.20004660489E+03  0.25744062574E+04  0.25666220864E+04 0.  0.
        5    1    3    3  502    0 -0.56477355273E+03 -0.71021804479E+03 -0.81019035182E+03  0.12164741400E+04  0.46999998093E+01 0.  1.
       -5    1    3    3    0  502  0.56477355273E+03  0.71021804479E+03  0.10102369567E+04  0.13579321175E+04  0.46999998093E+01 0. -1.
</event>
<event>
 5   0  0.4597705E-06  0.2606562E+04  0.7818609E-02  0.8365975E-01
        1   -1    0    0  501    0  0.00000000000E+00  0.00000000000E+00  0.18251203415E+04  0.18251203415E+04  0.50400001928E-02 0. -1.
       -1   -1    0    0    0  501  0.00000000000E+00  0.00000000000E+00 -0.93064657584E+03  0.93064657585E+03  0.50400001928E-02 0.  1.
    10030    2    1    2    0    0  0.00000000000E+00  0.00000000000E+00  0.89447376569E+03  0.27557669174E+04  0.26065624845E+04 0.  0.
        5    1    3    3  502    0 -0.21065968559E+03  0.61418604775E+03  0.16419285368E+04  0.17656594842E+04  0.46999998093E+01 0. -1.
       -5    1    3    3    0  502  0.21065968559E+03 -0.61418604775E+03 -0.74745477108E+03  0.99010743316E+03  0.46999998093E+01 0.  1.
</event>
<event>
 5   0  0.4218590E-06  0.2615265E+04  0.7818609E-02  0.8363034E-01
        1   -1    0    0  501    0  0.00000000000E+00  0.00000000000E+00  0.11359140060E+04  0.11359140060E+04  0.50400001928E-02 0.  1.
       -1   -1    0    0    0  501  0.00000000000E+00  0.00000000000E+00 -0.15053104406E+04  0.15053104406E+04  0.50400001928E-02 0. -1.
    10030    2    1    2    0    0  0.00000000000E+00  0.00000000000E+00 -0.36939643463E+03  0.26412244466E+04  0.26152653501E+04 0.  0.
        1    1    3    3  502    0  0.63341425983E+03 -0.21307400679E+03  0.95041953413E+03  0.11618568964E+04  0.50400001928E-02 0.  1.
       -1    1    3    3    0  502 -0.63341425983E+03  0.21307400679E+03 -0.13198159688E+04  0.14793675501E+04  0.50400001928E-02 0. -1.
</event>
<event>
 5   0  0.1086507E-05  0.2608392E+04  0.7818609E-02  0.8365356E-01
        2   -1    0    0  501    0  0.00000000000E+00  0.00000000000E+00  0.24287313040E+04  0.24287313040E+04  0.25500000920E-02 0.  1.
       -2   -1    0    0    0  501  0.00000000000E+00  0.00000000000E+00 -0.70033571142E+03  0.70033571143E+03  0.25500000920E-02 0. -1.
    10030    2    1    2    0    0  0.00000000000E+00  0.00000000000E+00  0.17283955925E+04  0.31290670154E+04  0.26083920454E+04 0.  0.
        2    1    3    3  502    0 -0.50696270302E+03  0.46033092301E+03  0.21957229732E+04  0.23000250251E+04  0.25500000920E-02 0.  1.
       -2    1    3    3    0  502  0.50696270302E+03 -0.46033092301E+03 -0.46732738068E+03  0.82904199030E+03  0.25500000920E-02 0. -1.
</event>
<event>
 5   0  0.4597705E-06  0.2597063E+04  0.7818609E-02  0.8369199E-01
        1   -1    0    0  501    0  0.00000000000E+00  0.00000000000E+00  0.10882170750E+04  0.10882170750E+04  0.50400001928E-02 0.  1.
       -1   -1    0    0    0  501  0.00000000000E+00  0.00000000000E+00 -0.15494928374E+04  0.15494928374E+04  0.50400001928E-02 0. -1.
    10030    2    1    2    0    0  0.00000000000E+00  0.00000000000E+00 -0.46127576242E+03  0.26377099123E+04  0.25970633902E+04 0.  0.
        5    1    3    3  502    0  0.34516519330E+03  0.14459639195E+03 -0.14935275969E+04  0.15397057835E+04  0.46999998093E+01 0. -1.
       -5    1    3    3    0  502 -0.34516519330E+03 -0.14459639195E+03  0.10322518344E+04  0.10980041288E+04  0.46999998093E+01 0.  1.
</event>
<event>
 5   0  0.1085061E-05  0.2594560E+04  0.7818609E-02  0.8370052E-01
        2   -1    0    0  501    0  0.00000000000E+00  0.00000000000E+00  0.23718297072E+04  0.23718297072E+04  0.25500000920E-02 0. -1.
       -2   -1    0    0    0  501  0.00000000000E+00  0.00000000000E+00 -0.70955128431E+03  0.70955128431E+03  0.25500000920E-02 0.  1.
    10030    2    1    2    0    0  0.00000000000E+00  0.00000000000E+00  0.16622784229E+04  0.30813809916E+04  0.25945595503E+04 0.  0.
        1    1    3    3  502    0 -0.67809044531E+03  0.86687290836E+03  0.16467745992E+04  0.19806922709E+04  0.50400001928E-02 0.  1.
       -1    1    3    3    0  502  0.67809044531E+03 -0.86687290836E+03  0.15503823727E+02  0.11006887207E+04  0.50400001928E-02 0. -1.
</event>
<event>
 5   0  0.4218590E-06  0.2607778E+04  0.7818609E-02  0.8365564E-01
        1   -1    0    0  501    0  0.00000000000E+00  0.00000000000E+00  0.14548406689E+04  0.14548406689E+04  0.50400001928E-02 0.  1.
       -1   -1    0    0    0  501  0.00000000000E+00  0.00000000000E+00 -0.11685997834E+04  0.11685997834E+04  0.50400001928E-02 0. -1.
    10030    2    1    2    0    0  0.00000000000E+00  0.00000000000E+00  0.28624088547E+03  0.26234404523E+04  0.26077779741E+04 0.  0.
        1    1    3    3  502    0  0.88916172719E+03  0.58687232932E+03 -0.61312502315E+03  0.12292070623E+04  0.50400001928E-02 0. -1.
       -1    1    3    3    0  502 -0.88916172719E+03 -0.58687232932E+03  0.89936590862E+03  0.13942333899E+04  0.50400001928E-02 0.  1.
</event>
<event>
 5   0  0.4415080E-06  0.2598799E+04  0.7818609E-02  0.8368609E-01
        1   -1    0    0  501    0  0.00000000000E+00  0.00000000000E+00  0.92872423180E+03  0.92872423182E+03  0.50400001928E-02 0. -1.
       -1   -1    0    0    0  501  0.00000000000E+00  0.00000000000E+00 -0.18180200067E+04  0.18180200067E+04  0.50400001928E-02 0.  1.
    10030    2    1    2    0    0  0.00000000000E+00  0.00000000000E+00 -0.88929577486E+03  0.27467442385E+04  0.25987991335E+04 0.  0.
        2    1    3    3  502    0 -0.60792990560E+03 -0.33950408843E+03  0.71489318423E+03  0.99795493939E+03  0.25500000920E-02 0. -1.
       -2    1    3    3    0  502  0.60792990560E+03  0.33950408843E+03 -0.16041889591E+04  0.17487892991E+04  0.25500000920E-02 0.  1.
</event>
<event>
 5   0  0.1116310E-05  0.2636851E+04  0.7818609E-02  0.8355791E-01
        2   -1    0    0  501    0  0.00000000000E+00  0.00000000000E+00  0.12184784772E+04  0.12184784772E+04  0.25500000920E-02 0.  1.
       -2   -1    0    0    0  501  0.00000000000E+00  0.00000000000E+00 -0.14265702581E+04  0.14265702581E+04  0.25500000920E-02 0. -1.
    10030    2    1    2    0    0  0.00000000000E+00  0.00000000000E+00 -0.20809178093E+03  0.26450487352E+04  0.26368505120E+04 0.  0.
        4    1    3    3  502    0  0.10039504478E+04  0.25363742438E+03  0.71457662459E+03  0.12581215403E+04  0.12699999809E+01 0.  1.
       -4    1    3    3    0  502 -0.10039504478E+04 -0.25363742438E+03 -0.92266840552E+03  0.13869271950E+04  0.12699999809E+01 0. -1.
</event>
<event>
 5   0  0.1086507E-05  0.2600811E+04  0.7818609E-02  0.8367926E-01
        2   -1    0    0  501    0  0.00000000000E+00  0.00000000000E+00  0.12201426989E+04  0.12201426989E+04  0.25500000920E-02 0.  1.
       -2   -1    0    0    0  501  0.00000000000E+00  0.00000000000E+00 -0.13859485480E+04  0.13859485480E+04  0.25500000920E-02 0. -1.
    10030    2    1    2    0    0  0.00000000000E+00  0.00000000000E+00 -0.16580584907E+03  0.26060912469E+04  0.26008114133E+04 0.  0.
        2    1    3    3  502    0 -0.10498893251E+04  0.44657444785E+03 -0.70815577421E+03  0.13428257270E+04  0.25500000920E-02 0. -1.
       -2    1    3    3    0  502  0.10498893251E+04 -0.44657444785E+03  0.54234992514E+03  0.12632655199E+04  0.25500000920E-02 0.  1.
</event>
<event>
 5   0  0.1116310E-05  0.2587851E+04  0.7818609E-02  0.8372340E-01
        2   -1    0    0  501    0  0.00000000000E+00  0.00000000000E+00  0.69348300551E+03  0.69348300551E+03  0.25500000920E-02 0.  1.
       -2   -1    0    0    0  501  0.00000000000E+00  0.00000000000E+00 -0.24142534349E+04  0.24142534349E+04  0.25500000920E-02 0. -1.
    10030    2    1    2    0    0  0.00000000000E+00  0.00000000000E+00 -0.17207704294E+04  0.31077364404E+04  0.25878514085E+04 0.  0.
        4    1    3    3  502    0 -0.18824483779E+03 -0.19608183384E+03  0.65880937362E+03  0.71268198251E+03  0.12699999809E+01 0.  1.
       -4    1    3    3    0  502  0.18824483779E+03  0.19608183384E+03 -0.23795798030E+04  0.23950544579E+04  0.12699999809E+01 0. -1.
</event>
<event>
 5   0  0.4415080E-06  0.2654410E+04  0.7818609E-02  0.8349951E-01
        1   -1    0    0  501    0  0.00000000000E+00  0.00000000000E+00  0.18219135425E+04  0.18219135425E+04  0.50400001928E-02 0. -1.
       -1   -1    0    0    0  501  0.00000000000E+00  0.00000000000E+00 -0.96682555341E+03  0.96682555342E+03  0.50400001928E-02 0.  1.
    10030    2    1    2    0    0  0.00000000000E+00  0.00000000000E+00  0.85508798907E+03  0.27887390959E+04  0.26544095908E+04 0.  0.
        2    1    3    3  502    0  0.67002257760E+03 -0.71773079669E+03 -0.51062132574E+03  0.11067076802E+04  0.25500000920E-02 0.  1.
       -2    1    3    3    0  502 -0.67002257760E+03  0.71773079669E+03  0.13657093148E+04  0.16820314157E+04  0.25500000920E-02 0. -1.
</event>
<event>
 5   0  0.1085061E-05  0.2591296E+04  0.7818609E-02  0.8371164E-01
        2   -1    0    0  501    0  0.00000000000E+00  0.00000000000E+00  0.17917031942E+04  0.17917031942E+04  0.25500000920E-02 0.  1.
       -2   -1    0    0    0  501  0.00000000000E+00  0.00000000000E+00 -0.93693177436E+03  0.93693177437E+03  0.25500000920E-02 0. -1.
    10030    2    1    2    0    0  0.00000000000E+00  0.00000000000E+00  0.85477141984E+03  0.27286349686E+04  0.25912959328E+04 0.  0.
        1    1    3    3  502    0 -0.78428558909E+03  0.79871402391E+03 -0.25961572061E+03  0.11491076101E+04  0.50400001928E-02 0. -1.
       -1    1    3    3    0  502  0.78428558909E+03 -0.79871402391E+03  0.11143871405E+04  0.15795273584E+04  0.50400001928E-02 0.  1.
</event>
<event>
 5   0  0.4464297E-06  0.2586271E+04  0.7818609E-02  0.8372879E-01
       -1   -1    0    0    0  501  0.00000000000E+00  0.00000000000E+00  0.16336505840E+04  0.16336505840E+04  0.50400001928E-02 0. -1.
        1   -1    0    0  501    0  0.00000000000E+00  0.00000000000E+00 -0.10235971292E+04  0.10235971293E+04  0.50400001928E-02 0.  1.
    10030    2    1    2    0    0  0.00000000000E+00  0.00000000000E+00  0.61005345474E+03  0.26572477132E+04  0.25862714846E+04 0.  0.
        4    1    3    3  502    0 -0.78944682188E+03 -0.28036847799E+03 -0.70707843868E+03  0.10962637910E+04  0.12699999809E+01 0.  1.
       -4    1    3    3    0  502  0.78944682188E+03  0.28036847799E+03  0.13171318934E+04  0.15609839223E+04  0.12699999809E+01 0. -1.
</event>
<event>
 5   0  0.4415080E-06  0.2577636E+04  0.7818609E-02  0.8375838E-01
        1   -1    0    0  501    0  0.00000000000E+00  0.00000000000E+00  0.90980924137E+03  0.90980924138E+03  0.50400001928E-02 0.  1.
       -1   -1    0    0    0  501  0.00000000000E+00  0.00000000000E+00 -0.18257145121E+04  0.18257145121E+04  0.50400001928E-02 0. -1.
    10030    2    1    2    0    0  0.00000000000E+00  0.00000000000E+00 -0.91590527077E+03  0.27355237535E+04  0.25776360761E+04 0.  0.
        2    1    3    3  502    0 -0.37262283905E+02  0.47848627844E+01 -0.18251333045E+04  0.18255199128E+04  0.25500000920E-02 0. -1.
       -2    1    3    3    0  502  0.37262283905E+02 -0.47848627844E+01  0.90922803377E+03  0.91000384071E+03  0.25500000920E-02 0.  1.
</event>
<event>
 5   0  0.4218590E-06  0.2592863E+04  0.7818609E-02  0.8370629E-01
       -1   -1    0    0    0  501  0.00000000000E+00  0.00000000000E+00  0.12404517816E+04  0.12404517816E+04  0.50400001928E-02 0. -1.
        1   -1    0    0  501    0  0.00000000000E+00  0.00000000000E+00 -0.13549375399E+04  0.13549375399E+04  0.50400001928E-02 0.  1.
    10030    2    1    2    0    0  0.00000000000E+00  0.00000000000E+00 -0.11448575827E+03  0.25953893215E+04  0.25928630395E+04 0.  0.
        1    1    3    3  502    0  0.37134485558E+03 -0.10199568457E+04 -0.76682404897E+03  0.13289951434E+04  0.50400001928E-02 0.  1.
       -1    1    3    3    0  502 -0.37134485558E+03  0.10199568457E+04  0.65233829070E+03  0.12663941782E+04  0.50400001928E-02 0. -1.
</event>
<event>
 5   0  0.1085061E-05  0.2607753E+04  0.7818609E-02  0.8365572E-01
       -2   -1    0    0    0  501  0.00000000000E+00  0.00000000000E+00  0.14375653209E+04  0.14375653209E+04  0.25500000920E-02 0. -1.
        2   -1    0    0  501    0  0.00000000000E+00  0.00000000000E+00 -0.11826203889E+04  0.11826203889E+04  0.25500000920E-02 0.  1.
    10030    2    1    2    0    0  0.00000000000E+00  0.00000000000E+00  0.25494493198E+03  0.26201857098E+04  0.26077531010E+04 0.  0.
        1    1    3    3  502    0  0.12420484370E+04 -0.39897434207E+01  0.52609279441E+03  0.13488787441E+04  0.50400001928E-02 0. -1.
       -1    1    3    3    0  502 -0.12420484370E+04  0.39897434207E+01 -0.27114786243E+03  0.12713069657E+04  0.50400001928E-02 0.  1.
</event>
<event>
 5   0  0.4361864E-06  0.2598566E+04  0.7818609E-02  0.8368689E-01
       -1   -1    0    0    0  501  0.00000000000E+00  0.00000000000E+00  0.96138566232E+03  0.96138566233E+03  0.50400001928E-02 0.  1.
        1   -1    0    0  501    0  0.00000000000E+00  0.00000000000E+00 -0.17559405810E+04  0.17559405810E+04  0.50400001928E-02 0. -1.
    10030    2    1    2    0    0  0.00000000000E+00  0.00000000000E+00 -0.79455491865E+03  0.27173262433E+04  0.25985658340E+04 0.  0.
        3    1    3    3  502    0  0.29607447586E+03  0.22337341991E+03 -0.16994099972E+04  0.17394108568E+04  0.10100000352E+00 0. -1.
       -3    1    3    3    0  502 -0.29607447586E+03 -0.22337341991E+03  0.90485507850E+03  0.97791538656E+03  0.10100000352E+00 0.  1.
</event>
<event>
 5   0  0.4597705E-06  0.2602303E+04  0.7818609E-02  0.8367419E-01
        1   -1    0    0  501    0  0.00000000000E+00  0.00000000000E+00  0.10920396335E+04  0.10920396335E+04  0.50400001928E-02 0. -1.
       -1   -1    0    0    0  501  0.00000000000E+00  0.00000000000E+00 -0.15503056313E+04  0.15503056313E+04  0.50400001928E-02 0.  1.
    10030    2    1    2    0    0  0.00000000000E+00  0.00000000000E+00 -0.45826599781E+03  0.26423452648E+04  0.26023029750E+04 0.  0.
        5    1    3    3  502    0 -0.11085705444E+04 -0.33778751146E+03 -0.82979618084E+03  0.14253465707E+04  0.46999998093E+01 0.  1.
       -5    1    3    3    0  502  0.11085705444E+04  0.33778751146E+03  0.37153018303E+03  0.12169986942E+04  0.46999998093E+01 0. -1.
</event>
<event>
 5   0  0.4361864E-06  0.2852453E+04  0.7818609E-02  0.8287166E-01
       -1   -1    0    0    0  501  0.00000000000E+00  0.00000000000E+00  0.19073804182E+04  0.19073804182E+04  0.50400001928E-02 0. -1.
        1   -1    0    0  501    0  0.00000000000E+00  0.00000000000E+00 -0.10664481227E+04  0.10664481227E+04  0.50400001928E-02 0.  1.
    10030    2    1    2    0    0  0.00000000000E+00  0.00000000000E+00  0.84093229547E+03  0.29738285408E+04  0.28524531661E+04 0.  0.
        3    1    3    3  502    0 -0.72245210244E+03  0.30809668441E+03  0.16616108569E+04  0.18378822751E+04  0.10100000352E+00 0. -1.
       -3    1    3    3    0  502  0.72245210244E+03 -0.30809668441E+03 -0.82067856141E+03  0.11359462657E+04  0.10100000352E+00 0.  1.
</event>
<event>
 5   0  0.1086507E-05  0.2618809E+04  0.7818609E-02  0.8361840E-01
       -2   -1    0    0    0  501  0.00000000000E+00  0.00000000000E+00  0.12340802415E+04  0.12340802415E+04  0.25500000920E-02 0.  1.
        2   -1    0    0  501    0  0.00000000000E+00  0.00000000000E+00 -0.13893267143E+04  0.13893267143E+04  0.25500000920E-02 0. -1.
    10030    2    1    2    0    0  0.00000000000E+00  0.00000000000E+00 -0.15524647280E+03  0.26234069558E+04  0.26188093837E+04 0.  0.
        2    1    3    3  502    0  0.64416364769E+03  0.32668567247E+03 -0.11717266992E+04  0.13764497053E+04  0.25500000920E-02 0. -1.
       -2    1    3    3    0  502 -0.64416364769E+03 -0.32668567247E+03  0.10164802264E+04  0.12469572504E+04  0.25500000920E-02 0.  1.
</event>
<event>
 5   0  0.1086507E-05  0.2586091E+04  0.7818609E-02  0.8372941E-01
       -2   -1    0    0    0  501  0.00000000000E+00  0.00000000000E+00  0.93810917528E+03  0.93810917528E+03  0.25500000920E-02 0. -1.
        2   -1    0    0  501    0  0.00000000000E+00  0.00000000000E+00 -0.17822725778E+04  0.17822725778E+04  0.25500000920E-02 0.  1.
    10030    2    1    2    0    0  0.00000000000E+00  0.00000000000E+00 -0.84416340255E+03  0.27203817531E+04  0.25860906853E+04 0.  0.
        2    1    3    3  502    0 -0.99956534117E+03  0.50200598614E+03  0.26031522752E+03  0.11484358489E+04  0.25500000920E-02 0. -1.
       -2    1    3    3    0  502  0.99956534117E+03 -0.50200598614E+03 -0.11044786301E+04  0.15719459042E+04  0.25500000920E-02 0.  1.
</event>
<event>
 5   0  0.1116310E-05  0.2601655E+04  0.7818609E-02  0.8367639E-01
        2   -1    0    0  501    0  0.00000000000E+00  0.00000000000E+00  0.16749777625E+04  0.16749777625E+04  0.25500000920E-02 0. -1.
       -2   -1    0    0    0  501  0.00000000000E+00  0.00000000000E+00 -0.10102532273E+04  0.10102532273E+04  0.25500000920E-02 0.  1.
    10030    2    1    2    0    0  0.00000000000E+00  0.00000000000E+00  0.66472453514E+03  0.26852309898E+04  0.26016546199E+04 0.  0.
        4    1    3    3  502    0 -0.43412437693E+03  0.31235421687E+03  0.15562549771E+04  0.16455881313E+04  0.12699999809E+01 0. -1.
       -4    1    3    3    0  502  0.43412437693E+03 -0.31235421687E+03 -0.89153044192E+03  0.10396428585E+04  0.12699999809E+01 0.  1.
</event>
<event>
 5   0  0.3705250E-06  0.2587796E+04  0.7818609E-02  0.8372359E-01
       -3   -1    0    0    0  501  0.00000000000E+00  0.00000000000E+00  0.17611187095E+04  0.17611187124E+04  0.10100000352E+00 0. -1.
        3   -1    0    0  501    0  0.00000000000E+00  0.00000000000E+00 -0.95062967439E+03  0.95062967976E+03  0.10100000352E+00 0.  1.
    10030    2    1    2    0    0  0.00000000000E+00  0.00000000000E+00  0.81048903514E+03  0.27117483922E+04  0.25877957544E+04 0.  0.
        3    1    3    3  502    0  0.22477813651E+03 -0.58234416348E+03 -0.78241001361E+03  0.10009072759E+04  0.10100000352E+00 0.  1.
       -3    1    3    3    0  502 -0.22477813651E+03  0.58234416348E+03  0.15928990488E+04  0.17108411163E+04  0.10100000352E+00 0. -1.
</event>
<event>
 5   0  0.4361864E-06  0.2633459E+04  0.7818609E-02  0.8356924E-01
        1   -1    0    0  501    0  0.00000000000E+00  0.00000000000E+00  0.98450262699E+03  0.98450262700E+03  0.50400001928E-02 0.  1.
       -1   -1    0    0    0  501  0.00000000000E+00  0.00000000000E+00 -0.17610679556E+04  0.17610679556E+04  0.50400001928E-02 0. -1.
    10030    2    1    2    0    0  0.00000000000E+00  0.00000000000E+00 -0.77656532861E+03  0.27455705826E+04  0.26334585842E+04 0.  0.
        3    1    3    3  502    0  0.83512480062E+03 -0.31650596462E+03  0.62046532554E+03  0.10874680173E+04  0.10100000352E+00 0.  1.
       -3    1    3    3    0  502 -0.83512480062E+03  0.31650596462E+03 -0.13970306542E+04  0.16581025653E+04  0.10100000352E+00 0. -1.
</event>
<event>
 5   0  0.4464297E-06  0.2589491E+04  0.7818609E-02  0.8371780E-01
       -1   -1    0    0    0  501  0.00000000000E+00  0.00000000000E+00  0.82920817866E+03  0.82920817867E+03  0.50400001928E-02 0. -1.
        1   -1    0    0  501    0  0.00000000000E+00  0.00000000000E+00 -0.20216465736E+04  0.20216465736E+04  0.50400001928E-02 0.  1.
    10030    2    1    2    0    0  0.00000000000E+00  0.00000000000E+00 -0.11924383950E+04  0.28508547523E+04  0.25894909718E+04 0.  0.
        4    1    3    3  502    0  0.49048677679E+03  0.87585691568E+03 -0.14964707857E+04  0.18019792008E+04  0.12699999809E+01 0.  1.
       -4    1    3    3    0  502 -0.49048677679E+03 -0.87585691568E+03  0.30403239071E+03  0.10488755515E+04  0.12699999809E+01 0. -1.
</event>
<event>
 5   0  0.1085255E-05  0.2527514E+04  0.7818609E-02  0.8393248E-01
       -2   -1    0    0    0  501  0.00000000000E+00  0.00000000000E+00  0.89077856424E+03  0.89077856424E+03  0.25500000920E-02 0. -1.
        2   -1    0    0  501    0  0.00000000000E+00  0.00000000000E+00 -0.17929061169E+04  0.17929061169E+04  0.25500000920E-02 0.  1.
    10030    2    1    2    0    0  0.00000000000E+00  0.00000000000E+00 -0.90212755265E+03  0.26836846811E+04  0.25275144602E+04 0.  0.
        5    1    3    3  502    0 -0.56080753565E+03 -0.99732318453E+03  0.11865416029E+03  0.11503301814E+04  0.46999998093E+01 0.  1.
       -5    1    3    3    0  502  0.56080753565E+03  0.99732318453E+03 -0.10207817129E+04  0.15333544998E+04  0.46999998093E+01 0. -1.
</event>
<event>
 5   0  0.4597705E-06  0.2601147E+04  0.7818609E-02  0.8367812E-01
        1   -1    0    0  501    0  0.00000000000E+00  0.00000000000E+00  0.13327921073E+04  0.13327921073E+04  0.50400001928E-02 0.  1.
       -1   -1    0    0    0  501  0.00000000000E+00  0.00000000000E+00 -0.12691334809E+04  0.12691334809E+04  0.50400001928E-02 0. -1.
    10030    2    1    2    0    0  0.00000000000E+00  0.00000000000E+00  0.63658626336E+02  0.26019255882E+04  0.26011467367E+04 0.  0.
        5    1    3    3  502    0  0.32225484825E+03 -0.83427630736E+03  0.97635981625E+03  0.13240716465E+04  0.46999998093E+01 0.  1.
       -5    1    3    3    0  502 -0.32225484825E+03  0.83427630736E+03 -0.91270118992E+03  0.12778539417E+04  0.46999998093E+01 0. -1.
</event>
<event>
 5   0  0.4415080E-06  0.2597965E+04  0.7818609E-02  0.8368893E-01
       -1   -1    0    0    0  501  0.00000000000E+00  0.00000000000E+00  0.87436545562E+03  0.87436545563E+03  0.50400001928E-02 0.  1.
        1   -1    0    0  501    0  0.00000000000E+00  0.00000000000E+00 -0.19298057483E+04  0.19298057483E+04  0.50400001928E-02 0. -1.
    10030    2    1    2    0    0  0.00000000000E+00  0.00000000000E+00 -0.10554402927E+04  0.28041712040E+04  0.25979649593E+04 0.  0.
        2    1    3    3  502    0 -0.33987640873E+03  0.15156039912E+03  0.81559704748E+03  0.89648484185E+03  0.25500000920E-02 0.  1.
       -2    1    3    3    0  502  0.33987640873E+03 -0.15156039912E+03 -0.18710373402E+04  0.19076863621E+04  0.25500000920E-02 0. -1.
</event>
<event>
 5   0  0.1136881E-05  0.2584942E+04  0.7818609E-02  0.8373334E-01
        2   -1    0    0  501    0  0.00000000000E+00  0.00000000000E+00  0.11113318391E+04  0.11113318391E+04  0.25500000920E-02 0.  1.
       -2   -1    0    0    0  501  0.00000000000E+00  0.00000000000E+00 -0.15031349488E+04  0.15031349488E+04  0.25500000920E-02 0. -1.
    10030    2    1    2    0    0  0.00000000000E+00  0.00000000000E+00 -0.39180310970E+03  0.26144667879E+04  0.25849423414E+04 0.  0.
        3    1    3    3  502    0 -0.79825832292E+03 -0.67451755414E+03  0.57323889033E+03  0.11919702666E+04  0.10100000352E+00 0.  1.
       -3    1    3    3    0  502  0.79825832292E+03  0.67451755414E+03 -0.96504200002E+03  0.14224965212E+04  0.10100000352E+00 0. -1.
</event>
<event>
 5   0  0.4361864E-06  0.2593511E+04  0.7818609E-02  0.8370409E-01
        1   -1    0    0  501    0  0.00000000000E+00  0.00000000000E+00  0.16074889146E+04  0.16074889146E+04  0.50400001928E-02 0. -1.
       -1   -1    0    0    0  501  0.00000000000E+00  0.00000000000E+00 -0.10460876009E+04  0.10460876009E+04  0.50400001928E-02 0.  1.
    10030    2    1    2    0    0  0.00000000000E+00  0.00000000000E+00  0.56140131370E+03  0.26535765155E+04  0.25935105337E+04 0.  0.
        3    1    3    3  502    0 -0.24127071014E+03 -0.12044353611E+04 -0.14449361016E+03  0.12368324496E+04  0.10100000352E+00 0.  1.
       -3    1    3    3    0  502  0.24127071014E+03  0.12044353611E+04  0.70589492385E+03  0.14167440660E+04  0.10100000352E+00 0. -1.
</event>
<event>
 5   0  0.4361864E-06  0.2654393E+04  0.7818609E-02  0.8349956E-01
       -1   -1    0    0    0  501  0.00000000000E+00  0.00000000000E+00  0.87934970003E+03  0.87934970004E+03  0.50400001928E-02 0.  1.
        1   -1    0    0  501    0  0.00000000000E+00  0.00000000000E+00 -0.20031283717E+04  0.20031283717E+04  0.50400001928E-02 0. -1.
    10030    2    1    2    0    0  0.00000000000E+00  0.00000000000E+00 -0.11237786716E+04  0.28824780717E+04  0.26543928366E+04 0.  0.
        3    1    3    3  502    0  0.94470047131E+03 -0.63142572278E+03 -0.13065956326E+04  0.17315743071E+04  0.10100000352E+00 0. -1.
       -3    1    3    3    0  502 -0.94470047131E+03  0.63142572278E+03  0.18281696095E+03  0.11509037646E+04  0.10100000352E+00 0.  1.
</event>
<event>
 5   0  0.4361864E-06  0.2624037E+04  0.7818609E-02  0.8360082E-01
        1   -1    0    0  501    0  0.00000000000E+00  0.00000000000E+00  0.13436351144E+04  0.13436351144E+04  0.50400001928E-02 0.  1.
       -1   -1    0    0    0  501  0.00000000000E+00  0.00000000000E+00 -0.12811454211E+04  0.12811454211E+04  0.50400001928E-02 0. -1.
    10030    2    1    2    0    0  0.00000000000E+00  0.00000000000E+00  0.62489693299E+02  0.26247805354E+04  0.26240365656E+04 0.  0.
        3    1    3    3  502    0  0.43334016000E+03  0.28150165368E+03  0.12375573652E+04  0.13411096590E+04  0.10100000352E+00 0.  1.
       -3    1    3    3    0  502 -0.43334016000E+03 -0.28150165368E+03 -0.11750676719E+04  0.12836708764E+04  0.10100000352E+00 0. -1.
</event>
<event>
 5   0  0.4415080E-06  0.2578689E+04  0.7818609E-02  0.8375476E-01
        1   -1    0    0  501    0  0.00000000000E+00  0.00000000000E+00  0.10430055069E+04  0.10430055069E+04  0.50400001928E-02 0. -1.
       -1   -1    0    0    0  501  0.00000000000E+00  0.00000000000E+00 -0.15938639546E+04  0.15938639546E+04  0.50400001928E-02 0.  1.
    10030    2    1    2    0    0  0.00000000000E+00  0.00000000000E+00 -0.55085844767E+03  0.26368694615E+04  0.25786887225E+04 0.  0.
        2    1    3    3  502    0  0.66687707730E+03  0.50251420619E+03  0.72916369718E+03  0.11085690150E+04  0.25500000920E-02 0. -1.
       -2    1    3    3    0  502 -0.66687707730E+03 -0.50251420619E+03 -0.12800221448E+04  0.15283004466E+04  0.25500000920E-02 0.  1.
</event>
<event>
 5   0  0.4464297E-06  0.2586296E+04  0.7818609E-02  0.8372871E-01
       -1   -1    0    0    0  501  0.00000000000E+00  0.00000000000E+00  0.10571889733E+04  0.10571889734E+04  0.50400001928E-02 0. -1.
        1   -1    0    0  501    0  0.00000000000E+00  0.00000000000E+00 -0.15817716444E+04  0.15817716444E+04  0.50400001928E-02 0.  1.
    10030    2    1    2    0    0  0.00000000000E+00  0.00000000000E+00 -0.52458267106E+03  0.26389606178E+04  0.25862958383E+04 0.  0.
        4    1    3    3  502    0 -0.35239973962E+02 -0.27913129019E+03  0.10255805277E+04  0.10634722209E+04  0.12699999809E+01 0. -1.
       -4    1    3    3    0  502  0.35239973962E+02  0.27913129019E+03 -0.15501631988E+04  0.15754883969E+04  0.12699999809E+01 0.  1.
</event>
<event>
 5   0  0.4464297E-06  0.2600615E+04  0.7818609E-02  0.8367992E-01
       -1   -1    0    0    0  501  0.00000000000E+00  0.00000000000E+00  0.81393436621E+03  0.81393436622E+03  0.50400001928E-02 0. -1.
        1   -1    0    0  501    0  0.00000000000E+00  0.00000000000E+00 -0.20773163043E+04  0.20773163043E+04  0.50400001928E-02 0.  1.
    10030    2    1    2    0    0  0.00000000000E+00  0.00000000000E+00 -0.12633819381E+04  0.28912506705E+04  0.26006146424E+04 0.  0.
        4    1    3    3  502    0 -0.21049983207E+02  0.34177604413E+03  0.76290731557E+03  0.83623151769E+03  0.12699999809E+01 0. -1.
       -4    1    3    3    0  502  0.21049983207E+02 -0.34177604413E+03 -0.20262892536E+04  0.20550191528E+04  0.12699999809E+01 0.  1.
</event>
<event>
 5   0  0.1136881E-05  0.2601032E+04  0.7818609E-02  0.8367851E-01
       -2   -1    0    0    0  501  0.00000000000E+00  0.00000000000E+00  0.14377222931E+04  0.14377222931E+04  0.25500000920E-02 0. -1.
        2   -1    0    0  501    0  0.00000000000E+00  0.00000000000E+00 -0.11764032987E+04  0.11764032987E+04  0.25500000920E-02 0.  1.
    10030    2    1    2    0    0  0.00000000000E+00  0.00000000000E+00  0.26131899442E+03  0.26141255919E+04  0.26010315249E+04 0.  0.
        3    1    3    3  502    0 -0.27489445900E+03 -0.11736644400E+04  0.62126243913E+03  0.13561055305E+04  0.10100000352E+00 0. -1.
       -3    1    3    3    0  502  0.27489445900E+03  0.11736644400E+04 -0.35994344471E+03  0.12580200614E+04  0.10100000352E+00 0.  1.
</event>
<event>
 5   0  0.1116310E-05  0.2597043E+04  0.7818609E-02  0.8369206E-01
        2   -1    0    0  501    0  0.00000000000E+00  0.00000000000E+00  0.13547282673E+04  0.13547282673E+04  0.25500000920E-02 0.  1.
       -2   -1    0    0    0  501  0.00000000000E+00  0.00000000000E+00 -0.12446464230E+04  0.12446464230E+04  0.25500000920E-02 0. -1.
    10030    2    1    2    0    0  0.00000000000E+00  0.00000000000E+00  0.11008184426E+03  0.25993746903E+04  0.25970426966E+04 0.  0.
        4    1    3    3  502    0 -0.12225489908E+04 -0.24341885939E+03  0.41906697135E+03  0.13151036139E+04  0.12699999809E+01 0.  1.
       -4    1    3    3    0  502  0.12225489908E+04  0.24341885939E+03 -0.30898512709E+03  0.12842710764E+04  0.12699999809E+01 0. -1.
</event>
<event>
 5   0  0.1116310E-05  0.2613717E+04  0.7818609E-02  0.8363557E-01
       -2   -1    0    0    0  501  0.00000000000E+00  0.00000000000E+00  0.17988798564E+04  0.17988798564E+04  0.25500000920E-02 0. -1.
        2   -1    0    0  501    0  0.00000000000E+00  0.00000000000E+00 -0.94941247443E+03  0.94941247443E+03  0.25500000920E-02 0.  1.
    10030    2    1    2    0    0  0.00000000000E+00  0.00000000000E+00  0.84946738196E+03  0.27482923308E+04  0.26137168750E+04 0.  0.
        4    1    3    3  502    0  0.20124599842E+03  0.12827388063E+04  0.58054765236E+03  0.14223065726E+04  0.12699999809E+01 0.  1.
       -4    1    3    3    0  502 -0.20124599842E+03 -0.12827388063E+04  0.26891972960E+03  0.13259857582E+04  0.12699999809E+01 0. -1.
</event>
<event>
 5   0  0.4597705E-06  0.2606221E+04  0.7818609E-02  0.8366091E-01
       -1   -1    0    0    0  501  0.00000000000E+00  0.00000000000E+00  0.17726910948E+04  0.17726910948E+04  0.50400001928E-02 0.  1.
        1   -1    0    0  501    0  0.00000000000E+00  0.00000000000E+00 -0.95792068534E+03  0.95792068536E+03  0.50400001928E-02 0. -1.
    10030    2    1    2    0    0  0.00000000000E+00  0.00000000000E+00  0.81477040950E+03  0.27306117802E+04  0.26062213785E+04 0.  0.
        5    1    3    3  502    0  0.61065685551E+03 -0.47913591326E+02  0.16124448202E+04  0.17248761972E+04  0.46999998093E+01 0.  1.
       -5    1    3    3    0  502 -0.61065685551E+03  0.47913591326E+02 -0.79767441072E+03  0.10057355830E+04  0.46999998093E+01 0. -1.
</event>
<event>
 5   0  0.4361864E-06  0.2622215E+04  0.7818609E-02  0.8360694E-01
        1   -1    0    0  501    0  0.00000000000E+00  0.00000000000E+00  0.13094572211E+04  0.13094572211E+04  0.50400001928E-02 0.  1.
       -1   -1    0    0    0  501  0.00000000000E+00  0.00000000000E+00 -0.13127595629E+04  0.13127595629E+04  0.50400001928E-02 0. -1.
    10030    2    1    2    0    0  0.00000000000E+00  0.00000000000E+00 -0.33023417884E+01  0.26222167840E+04  0.26222147045E+04 0.  0.
        3    1    3    3  502    0 -0.70574327705E+03  0.90736122531E+03 -0.63222641881E+03  0.13119025197E+04  0.10100000352E+00 0. -1.
       -3    1    3    3    0  502  0.70574327705E+03 -0.90736122531E+03  0.62892407702E+03  0.13103142643E+04  0.10100000352E+00 0.  1.
</event>
<event>
 5   0  0.1116310E-05  0.2600264E+04  0.7818609E-02  0.8368111E-01
       -2   -1    0    0    0  501  0.00000000000E+00  0.00000000000E+00  0.11867705229E+04  0.11867705229E+04  0.25500000920E-02 0. -1.
        2   -1    0    0  501    0  0.00000000000E+00  0.00000000000E+00 -0.14243221582E+04  0.14243221582E+04  0.25500000920E-02 0.  1.
    10030    2    1    2    0    0  0.00000000000E+00  0.00000000000E+00 -0.23755163528E+03  0.26110926810E+04  0.26002642576E+04 0.  0.
        4    1    3    3  502    0 -0.25747763895E+03 -0.14623446163E+03 -0.13900108836E+04  0.14212005917E+04  0.12699999809E+01 0.  1.
       -4    1    3    3    0  502  0.25747763895E+03  0.14623446163E+03  0.11524592483E+04  0.11898920894E+04  0.12699999809E+01 0. -1.
</event>
<event>
 5   0  0.1085255E-05  0.2602230E+04  0.7818609E-02  0.8367444E-01
       -2   -1    0    0    0  501  0.00000000000E+00  0.00000000000E+00  0.85658438392E+03  0.85658438392E+03  0.25500000920E-02 0.  1.
        2   -1    0    0  501    0  0.00000000000E+00  0.00000000000E+00 -0.19763379475E+04  0.19763379475E+04  0.25500000920E-02 0. -1.
    10030    2    1    2    0    0  0.00000000000E+00  0.00000000000E+00 -0.11197535636E+04  0.28329223314E+04  0.26022299846E+04 0.  0.
        5    1    3    3  502    0  0.10723470682E+04  0.69567082197E+03 -0.29546209551E+03  0.13119474330E+04  0.46999998093E+01 0.  1.
       -5    1    3    3    0  502 -0.10723470682E+04 -0.69567082197E+03 -0.82429146804E+03  0.15209748984E+04  0.46999998093E+01 0. -1.
</event>
<event>
 5   0  0.4597705E-06  0.2644694E+04  0.7818609E-02  0.8353176E-01
       -1   -1    0    0    0  501  0.00000000000E+00  0.00000000000E+00  0.12335778161E+04  0.12335778162E+04  0.50400001928E-02 0.  1.
        1   -1    0    0  501    0  0.00000000000E+00  0.00000000000E+00 -0.14175041204E+04  0.14175041204E+04  0.50400001928E-02 0. -1.
    10030    2    1    2    0    0  0.00000000000E+00  0.00000000000E+00 -0.18392630424E+03  0.26510819366E+04  0.26446940369E+04 0.  0.
        5    1    3    3  502    0 -0.46257502616E+03 -0.25965649217E+03  0.11222355623E+04  0.12413024998E+04  0.46999998093E+01 0.  1.
       -5    1    3    3    0  502  0.46257502616E+03  0.25965649217E+03 -0.13061618665E+04  0.14097794368E+04  0.46999998093E+01 0. -1.
</event>
<event>
 5   0  0.4361864E-06  0.2617169E+04  0.7818609E-02  0.8362393E-01
       -1   -1    0    0    0  501  0.00000000000E+00  0.00000000000E+00  0.13369229506E+04  0.13369229506E+04  0.50400001928E-02 0.  1.
        1   -1    0    0  501    0  0.00000000000E+00  0.00000000000E+00 -0.12808464903E+04  0.12808464903E+04  0.50400001928E-02 0. -1.
    10030    2    1    2    0    0  0.00000000000E+00  0.00000000000E+00  0.56076460282E+02  0.26177694410E+04  0.26171687521E+04 0.  0.
        3    1    3    3  502    0  0.14712291554E+03  0.66276303564E+03 -0.10909200412E+04  0.12849149934E+04  0.10100000352E+00 0. -1.
       -3    1    3    3    0  502 -0.14712291554E+03 -0.66276303564E+03  0.11469965015E+04  0.13328544476E+04  0.10100000352E+00 0.  1.
</event>
<event>
 5   0  0.1086507E-05  0.2594262E+04  0.7818609E-02  0.8370153E-01
        2   -1    0    0  501    0  0.00000000000E+00  0.00000000000E+00  0.13767247358E+04  0.13767247358E+04  0.25500000920E-02 0. -1.
       -2   -1    0    0    0  501  0.00000000000E+00  0.00000000000E+00 -0.12221389003E+04  0.12221389003E+04  0.25500000920E-02 0.  1.
    10030    2    1    2    0    0  0.00000000000E+00  0.00000000000E+00  0.15458583555E+03  0.25988636361E+04  0.25942620181E+04 0.  0.
        2    1    3    3  502    0 -0.67136843534E+03  0.63558944064E+03  0.98876356211E+03  0.13536479952E+04  0.25500000920E-02 0. -1.
       -2    1    3    3    0  502  0.67136843534E+03 -0.63558944064E+03 -0.83417772657E+03  0.12452156410E+04  0.25500000920E-02 0.  1.
</event>
<event>
 5   0  0.1085255E-05  0.2608266E+04  0.7818609E-02  0.8365399E-01
       -2   -1    0    0    0  501  0.00000000000E+00  0.00000000000E+00  0.86487381516E+03  0.86487381516E+03  0.25500000920E-02 0.  1.
        2   -1    0    0  501    0  0.00000000000E+00  0.00000000000E+00 -0.19664871005E+04  0.19664871005E+04  0.25500000920E-02 0. -1.
    10030    2    1    2    0    0  0.00000000000E+00  0.00000000000E+00 -0.11016132853E+04  0.28313609156E+04  0.26082662449E+04 0.  0.
        5    1    3    3  502    0 -0.47628162969E+03  0.22221933513E+03 -0.18464244230E+04  0.19197736491E+04  0.46999998093E+01 0. -1.
       -5    1    3    3    0  502  0.47628162969E+03 -0.22221933513E+03  0.74481113772E+03  0.91158726656E+03  0.46999998093E+01 0.  1.
</event>
<event>
 5   0  0.1085061E-05  0.2582002E+04  0.7818609E-02  0.8374340E-01
       -2   -1    0    0    0  501  0.00000000000E+00  0.00000000000E+00  0.11095248965E+04  0.11095248965E+04  0.25500000920E-02 0. -1.
        2   -1    0    0  501    0  0.00000000000E+00  0.00000000000E+00 -0.15021598033E+04  0.15021598033E+04  0.25500000920E-02 0.  1.
    10030    2    1    2    0    0  0.00000000000E+00  0.00000000000E+00 -0.39263490678E+03  0.26116846997E+04  0.25820020916E+04 0.  0.
        1    1    3    3  502    0 -0.35115796682E+02  0.91783415105E+02 -0.14983710666E+04  0.15015902130E+04  0.50400001928E-02 0.  1.
       -1    1    3    3    0  502  0.35115796682E+02 -0.91783415105E+02  0.11057361598E+04  0.11100944868E+04  0.50400001928E-02 0. -1.
</event>
<event>
 5   0  0.1116310E-05  0.2605802E+04  0.7818609E-02  0.8366233E-01
       -2   -1    0    0    0  501  0.00000000000E+00  0.00000000000E+00  0.79105850258E+03  0.79105850259E+03  0.25500000920E-02 0.  1.
        2   -1    0    0  501    0  0.00000000000E+00  0.00000000000E+00 -0.21459236323E+04  0.21459236323E+04  0.25500000920E-02 0. -1.
    10030    2    1    2    0    0  0.00000000000E+00  0.00000000000E+00 -0.13548651297E+04  0.29369821349E+04  0.26058020917E+04 0.  0.
        4    1    3    3  502    0  0.89642594469E+03 -0.64283022903E+03 -0.14589068826E+04  0.18289945551E+04  0.12699999809E+01 0. -1.
       -4    1    3    3    0  502 -0.89642594469E+03  0.64283022903E+03  0.10404175289E+03  0.11079875798E+04  0.12699999809E+01 0.  1.
</event>
<event>
 5   0  0.1085255E-05  0.2608992E+04  0.7818609E-02  0.8365153E-01
       -2   -1    0    0    0  501  0.00000000000E+00  0.00000000000E+00  0.75165296560E+03  0.75165296560E+03  0.25500000920E-02 0.  1.
        2   -1    0    0  501    0  0.00000000000E+00  0.00000000000E+00 -0.22639566342E+04  0.22639566342E+04  0.25500000920E-02 0. -1.
    10030    2    1    2    0    0  0.00000000000E+00  0.00000000000E+00 -0.15123036686E+04  0.30156095998E+04  0.26089919265E+04 0.  0.
        5    1    3    3  502    0  0.14509386433E+03 -0.12917415053E+04 -0.62932747516E+03  0.14442034161E+04  0.46999998093E+01 0.  1.
       -5    1    3    3    0  502 -0.14509386433E+03  0.12917415053E+04 -0.88297619344E+03  0.15714061837E+04  0.46999998093E+01 0. -1.
</event>
<event>
 5   0  0.1136881E-05  0.2573396E+04  0.7818609E-02  0.8377294E-01
        2   -1    0    0  501    0  0.00000000000E+00  0.00000000000E+00  0.14223072881E+04  0.14223072881E+04  0.25500000920E-02 0.  1.
       -2   -1    0    0    0  501  0.00000000000E+00  0.00000000000E+00 -0.11640187142E+04  0.11640187142E+04  0.25500000920E-02 0. -1.
    10030    2    1    2    0    0  0.00000000000E+00  0.00000000000E+00  0.25828857390E+03  0.25863260023E+04  0.25733964333E+04 0.  0.
        3    1    3    3  502    0  0.10478258016E+04  0.30260060965E+03 -0.55699094060E+03  0.12246407463E+04  0.10100000352E+00 0. -1.
       -3    1    3    3    0  502 -0.10478258016E+04 -0.30260060965E+03  0.81527951450E+03  0.13616852560E+04  0.10100000352E+00 0.  1.
</event>
<event>
 5   0  0.4464297E-06  0.2617288E+04  0.7818609E-02  0.8362352E-01
        1   -1    0    0  501    0  0.00000000000E+00  0.00000000000E+00  0.20388081532E+04  0.20388081532E+04  0.50400001928E-02 0. -1.
       -1   -1    0    0    0  501  0.00000000000E+00  0.00000000000E+00 -0.83997562059E+03  0.83997562061E+03  0.50400001928E-02 0.  1.
    10030    2    1    2    0    0  0.00000000000E+00  0.00000000000E+00  0.11988325326E+04  0.28787837738E+04  0.26172880191E+04 0.  0.
        4    1    3    3  502    0 -0.64241207122E+03  0.63896056609E+03  0.16379929742E+04  0.18718938192E+04  0.12699999809E+01 0. -1.
       -4    1    3    3    0  502  0.64241207122E+03 -0.63896056609E+03 -0.43916044155E+03  0.10068899546E+04  0.12699999809E+01 0.  1.
</event>
<event>
 5   0  0.1085255E-05  0.2601647E+04  0.7818609E-02  0.8367642E-01
       -2   -1    0    0    0  501  0.00000000000E+00  0.00000000000E+00  0.10876548930E+04  0.10876548930E+04  0.25500000920E-02 0. -1.
        2   -1    0    0  501    0  0.00000000000E+00  0.00000000000E+00 -0.15557711112E+04  0.15557711112E+04  0.25500000920E-02 0.  1.
    10030    2    1    2    0    0  0.00000000000E+00  0.00000000000E+00 -0.46811621817E+03  0.26434260042E+04  0.26016472178E+04 0.  0.
        5    1    3    3  502    0 -0.12842758583E+04  0.15472539400E+01 -0.44414673600E+03  0.13589169538E+04  0.46999998093E+01 0. -1.
       -5    1    3    3    0  502  0.12842758583E+04 -0.15472539400E+01 -0.23969482169E+02  0.12845090503E+04  0.46999998093E+01 0.  1.
</event>
<event>
 5   0  0.4597705E-06  0.2600878E+04  0.7818609E-02  0.8367903E-01
        1   -1    0    0  501    0  0.00000000000E+00  0.00000000000E+00  0.13518687659E+04  0.13518687659E+04  0.50400001928E-02 0. -1.
       -1   -1    0    0    0  501  0.00000000000E+00  0.00000000000E+00 -0.12509655306E+04  0.12509655306E+04  0.50400001928E-02 0.  1.
    10030    2    1    2    0    0  0.00000000000E+00  0.00000000000E+00  0.10090323528E+03  0.26028342965E+04  0.26008777195E+04 0.  0.
        5    1    3    3  502    0  0.21890198201E+03 -0.10150425805E+04  0.83391322539E+03  0.13317893510E+04  0.46999998093E+01 0. -1.
       -5    1    3    3    0  502 -0.21890198201E+03  0.10150425805E+04 -0.73300999011E+03  0.12710449455E+04  0.46999998093E+01 0.  1.
</event>
<event>
 5   0  0.4597705E-06  0.2589582E+04  0.7818609E-02  0.8371749E-01
       -1   -1    0    0    0  501  0.00000000000E+00  0.00000000000E+00  0.18024686689E+04  0.18024686689E+04  0.50400001928E-02 0.  1.
        1   -1    0    0  501    0  0.00000000000E+00  0.00000000000E+00 -0.93010400427E+03  0.93010400429E+03  0.50400001928E-02 0. -1.
    10030    2    1    2    0    0  0.00000000000E+00  0.00000000000E+00  0.87236466459E+03  0.27325726732E+04  0.25895816855E+04 0.  0.
        5    1    3    3  502    0 -0.78096678940E+03  0.43018266782E+03 -0.55454017250E+03  0.10500014985E+04  0.46999998093E+01 0. -1.
       -5    1    3    3    0  502  0.78096678940E+03 -0.43018266782E+03  0.14269048371E+04  0.16825711747E+04  0.46999998093E+01 0.  1.
</event>
<event>
 5   0  0.4597705E-06  0.2592532E+04  0.7818609E-02  0.8370742E-01
       -1   -1    0    0    0  501  0.00000000000E+00  0.00000000000E+00  0.10307333091E+04  0.10307333091E+04  0.50400001928E-02 0. -1.
        1   -1    0    0  501    0  0.00000000000E+00  0.00000000000E+00 -0.16302035145E+04  0.16302035145E+04  0.50400001928E-02 0.  1.
    10030    2    1    2    0    0  0.00000000000E+00  0.00000000000E+00 -0.59947020545E+03  0.26609368236E+04  0.25925316299E+04 0.  0.
        5    1    3    3  502    0 -0.12397512597E+04  0.34713085741E+03 -0.14475444719E+03  0.12955535335E+04  0.46999998093E+01 0. -1.
       -5    1    3    3    0  502  0.12397512597E+04 -0.34713085741E+03 -0.45471575826E+03  0.13653832901E+04  0.46999998093E+01 0.  1.
</event>
<event>
 5   0  0.4218590E-06  0.2594397E+04  0.7818609E-02  0.8370107E-01
       -1   -1    0    0    0  501  0.00000000000E+00  0.00000000000E+00  0.95298963141E+03  0.95298963142E+03  0.50400001928E-02 0.  1.
        1   -1    0    0  501    0  0.00000000000E+00  0.00000000000E+00 -0.17657317417E+04  0.17657317417E+04  0.50400001928E-02 0. -1.
    10030    2    1    2    0    0  0.00000000000E+00  0.00000000000E+00 -0.81274211027E+03  0.27187213731E+04  0.25943970719E+04 0.  0.
        1    1    3    3  502    0  0.42774575619E+03 -0.19948655429E+03  0.85981970407E+03  0.98084210799E+03  0.50400001928E-02 0.  1.
       -1    1    3    3    0  502 -0.42774575619E+03  0.19948655429E+03 -0.16725618143E+04  0.17378792651E+04  0.50400001928E-02 0. -1.
</event>
<event>
 5   0  0.1136881E-05  0.2605017E+04  0.7818609E-02  0.8366499E-01
       -2   -1    0    0    0  501  0.00000000000E+00  0.00000000000E+00  0.19461783576E+04  0.19461783576E+04  0.25500000920E-02 0.  1.
        2   -1    0    0  501    0  0.00000000000E+00  0.00000000000E+00 -0.87172301362E+03  0.87172301362E+03  0.25500000920E-02 0. -1.
    10030    2    1    2    0    0  0.00000000000E+00  0.00000000000E+00  0.10744553440E+04  0.28179013712E+04  0.26050170540E+04 0.  0.
        3    1    3    3  502    0 -0.37568607229E+03 -0.40233274845E+03 -0.73971476444E+03  0.92205726954E+03  0.10100000352E+00 0. -1.
       -3    1    3    3    0  502  0.37568607229E+03  0.40233274845E+03  0.18141701084E+04  0.18958441017E+04  0.10100000352E+00 0.  1.
</event>
<event>
 5   0  0.3705250E-06  0.2606712E+04  0.7818609E-02  0.8365925E-01
        4   -1    0    0  501    0  0.00000000000E+00  0.00000000000E+00  0.13132233596E+04  0.13132239737E+04  0.12699999809E+01 0. -1.
       -4   -1    0    0    0  501  0.00000000000E+00  0.00000000000E+00 -0.12935615077E+04  0.12935621311E+04  0.12699999809E+01 0.  1.
    10030    2    1    2    0    0  0.00000000000E+00  0.00000000000E+00  0.19661851880E+02  0.26067861048E+04  0.26067119533E+04 0.  0.
        5    1    3    3  502    0  0.11601962706E+04 -0.55585917842E+03 -0.19917238623E+03  0.13018166315E+04  0.46999998093E+01 0.  1.
       -5    1    3    3    0  502 -0.11601962706E+04  0.55585917842E+03  0.21883423811E+03  0.13049694733E+04  0.46999998093E+01 0. -1.
</event>
<event>
 5   0  0.4464297E-06  0.2597642E+04  0.7818609E-02  0.8369003E-01
       -1   -1    0    0    0  501  0.00000000000E+00  0.00000000000E+00  0.10790234914E+04  0.10790234914E+04  0.50400001928E-02 0. -1.
        1   -1    0    0  501    0  0.00000000000E+00  0.00000000000E+00 -0.15633915780E+04  0.15633915780E+04  0.50400001928E-02 0.  1.
    10030    2    1    2    0    0  0.00000000000E+00  0.00000000000E+00 -0.48436808662E+03  0.26424150694E+04  0.25976421916E+04 0.  0.
        4    1    3    3  502    0 -0.85039825702E+03  0.27630410929E+03 -0.12004470352E+04  0.14968620022E+04  0.12699999809E+01 0.  1.
       -4    1    3    3    0  502  0.85039825702E+03 -0.27630410929E+03  0.71607894856E+03  0.11455530672E+04  0.12699999809E+01 0. -1.
</event>
<event>
 5   0  0.1086507E-05  0.2589417E+04  0.7818609E-02  0.8371805E-01
       -2   -1    0    0    0  501  0.00000000000E+00  0.00000000000E+00  0.14285555833E+04  0.14285555833E+04  0.25500000920E-02 0.  1.
        2   -1    0    0  501    0  0.00000000000E+00  0.00000000000E+00 -0.11734022312E+04  0.11734022312E+04  0.25500000920E-02 0. -1.
    10030    2    1    2    0    0  0.00000000000E+00  0.00000000000E+00  0.25515335211E+03  0.26019578145E+04  0.25894171613E+04 0.  0.
        2    1    3    3  502    0  0.52414504130E+03 -0.11836977073E+04  0.10742907761E+03  0.12990031922E+04  0.25500000920E-02 0. -1.
       -2    1    3    3    0  502 -0.52414504130E+03  0.11836977073E+04  0.14772427450E+03  0.13029546223E+04  0.25500000920E-02 0.  1.
</event>
<event>
 5   0  0.1086507E-05  0.2587943E+04  0.7818609E-02  0.8372308E-01
       -2   -1    0    0    0  501  0.00000000000E+00  0.00000000000E+00  0.12528712801E+04  0.12528712801E+04  0.25500000920E-02 0. -1.
        2   -1    0    0  501    0  0.00000000000E+00  0.00000000000E+00 -0.13364204591E+04  0.13364204591E+04  0.25500000920E-02 0.  1.
    10030    2    1    2    0    0  0.00000000000E+00  0.00000000000E+00 -0.83549178985E+02  0.25892917393E+04  0.25879434394E+04 0.  0.
        2    1    3    3  502    0  0.37621221548E+03  0.54105149364E+03 -0.11559482539E+04  0.13305971275E+04  0.25500000920E-02 0.  1.
       -2    1    3    3    0  502 -0.37621221548E+03 -0.54105149364E+03  0.10723990749E+04  0.12586946118E+04  0.25500000920E-02 0. -1.
</event>
<event>
 5   0  0.4218590E-06  0.2605002E+04  0.7818609E-02  0.8366504E-01
       -1   -1    0    0    0  501  0.00000000000E+00  0.00000000000E+00  0.15696284886E+04  0.15696284886E+04  0.50400001928E-02 0. -1.
        1   -1    0    0  501    0  0.00000000000E+00  0.00000000000E+00 -0.10808348331E+04  0.10808348331E+04  0.50400001928E-02 0.  1.
    10030    2    1    2    0    0  0.00000000000E+00  0.00000000000E+00  0.48879365556E+03  0.26504633217E+04  0.26050022230E+04 0.  0.
        1    1    3    3  502    0  0.97137459904E+03  0.73352819649E+03  0.71603460540E+03  0.14122102474E+04  0.50400001928E-02 0. -1.
       -1    1    3    3    0  502 -0.97137459904E+03 -0.73352819649E+03 -0.22724094985E+03  0.12382530743E+04  0.50400001928E-02 0.  1.
</event>
<event>
 5   0  0.1085255E-05  0.2410975E+04  0.7818609E-02  0.8435406E-01
        2   -1    0    0  501    0  0.00000000000E+00  0.00000000000E+00  0.60492185514E+03  0.60492185514E+03  0.25500000920E-02 0. -1.
       -2   -1    0    0    0  501  0.00000000000E+00  0.00000000000E+00 -0.24022943928E+04  0.24022943928E+04  0.25500000920E-02 0.  1.
    10030    2    1    2    0    0  0.00000000000E+00  0.00000000000E+00 -0.17973725377E+04  0.30072162479E+04  0.24109752223E+04 0.  0.
        5    1    3    3  502    0  0.71955489642E+03  0.16965416120E+03 -0.20863363791E+04  0.22134505552E+04  0.46999998093E+01 0.  1.
       -5    1    3    3    0  502 -0.71955489642E+03 -0.16965416120E+03  0.28896384145E+03  0.79376569278E+03  0.46999998093E+01 0. -1.
</event>
<event>
 5   0  0.4361864E-06  0.2599042E+04  0.7818609E-02  0.8368527E-01
        1   -1    0    0  501    0  0.00000000000E+00  0.00000000000E+00  0.16544774746E+04  0.16544774746E+04  0.50400001928E-02 0. -1.
       -1   -1    0    0    0  501  0.00000000000E+00  0.00000000000E+00 -0.10207182008E+04  0.10207182009E+04  0.50400001928E-02 0.  1.
    10030    2    1    2    0    0  0.00000000000E+00  0.00000000000E+00  0.63375927375E+03  0.26751956755E+04  0.25990423400E+04 0.  0.
        3    1    3    3  502    0  0.37796593165E+03 -0.88140761411E+03 -0.58575157811E+03  0.11237626747E+04  0.10100000352E+00 0.  1.
       -3    1    3    3    0  502 -0.37796593165E+03  0.88140761411E+03  0.12195108519E+04  0.15514330007E+04  0.10100000352E+00 0. -1.
</event>
<event>
 5   0  0.1116310E-05  0.2585569E+04  0.7818609E-02  0.8373120E-01
       -2   -1    0    0    0  501  0.00000000000E+00  0.00000000000E+00  0.79945621090E+03  0.79945621090E+03  0.25500000920E-02 0.  1.
        2   -1    0    0  501    0  0.00000000000E+00  0.00000000000E+00 -0.20905358489E+04  0.20905358489E+04  0.25500000920E-02 0. -1.
    10030    2    1    2    0    0  0.00000000000E+00  0.00000000000E+00 -0.12910796380E+04  0.28899920598E+04  0.25855690813E+04 0.  0.
        4    1    3    3  502    0  0.63678313071E+03 -0.91653707178E+02  0.60782277901E+03  0.88506683430E+03  0.12699999809E+01 0.  1.
       -4    1    3    3    0  502 -0.63678313071E+03  0.91653707178E+02 -0.18989024170E+04  0.20049252255E+04  0.12699999809E+01 0. -1.
</event>
<event>
 5   0  0.3705250E-06  0.2619280E+04  0.7818609E-02  0.8361681E-01
       -4   -1    0    0    0  501  0.00000000000E+00  0.00000000000E+00  0.12701777074E+04  0.12701783423E+04  0.12699999809E+01 0.  1.
        4   -1    0    0  501    0  0.00000000000E+00  0.00000000000E+00 -0.13503273273E+04  0.13503279245E+04  0.12699999809E+01 0. -1.
    10030    2    1    2    0    0  0.00000000000E+00  0.00000000000E+00 -0.80149619854E+02  0.26205062668E+04  0.26192802700E+04 0.  0.
        5    1    3    3  502    0  0.40793601484E+02  0.13078831545E+04 -0.94069779549E+02  0.13119045991E+04  0.46999998093E+01 0. -1.
       -5    1    3    3    0  502 -0.40793601484E+02 -0.13078831545E+04  0.13920159694E+02  0.13086016677E+04  0.46999998093E+01 0.  1.
</event>
<event>
 5   0  0.4218590E-06  0.2568116E+04  0.7818609E-02  0.8379113E-01
        1   -1    0    0  501    0  0.00000000000E+00  0.00000000000E+00  0.21087656317E+04  0.21087656317E+04  0.50400001928E-02 0. -1.
       -1   -1    0    0    0  501  0.00000000000E+00  0.00000000000E+00 -0.78188166017E+03  0.78188166018E+03  0.50400001928E-02 0.  1.
    10030    2    1    2    0    0  0.00000000000E+00  0.00000000000E+00  0.13268839716E+04  0.28906472919E+04  0.25681161758E+04 0.  0.
        1    1    3    3  502    0 -0.23344061547E+03 -0.63909261501E+03  0.18891843971E+04  0.20079720062E+04  0.50400001928E-02 0. -1.
       -1    1    3    3    0  502  0.23344061547E+03  0.63909261501E+03 -0.56230042549E+03  0.88267528574E+03  0.50400001928E-02 0.  1.
</event>
<event>
 5   0  0.4218590E-06  0.2607032E+04  0.7818609E-02  0.8365817E-01
       -1   -1    0    0    0  501  0.00000000000E+00  0.00000000000E+00  0.66141052553E+03  0.66141052555E+03  0.50400001928E-02 0. -1.
        1   -1    0    0  501    0  0.00000000000E+00  0.00000000000E+00 -0.25689850818E+04  0.25689850818E+04  0.50400001928E-02 0.  1.
    10030    2    1    2    0    0  0.00000000000E+00  0.00000000000E+00 -0.19075745563E+04  0.32303956073E+04  0.26070318549E+04 0.  0.
        1    1    3    3  502    0 -0.30027128152E+03  0.12669731709E+04 -0.10298680908E+04  0.16601241347E+04  0.50400001928E-02 0. -1.
       -1    1    3    3    0  502  0.30027128152E+03 -0.12669731709E+04 -0.87770646547E+03  0.15702714726E+04  0.50400001928E-02 0.  1.
</event>
<event>
 5   0  0.4361864E-06  0.2624109E+04  0.7818609E-02  0.8360058E-01
        1   -1    0    0  501    0  0.00000000000E+00  0.00000000000E+00  0.26660139843E+04  0.26660139843E+04  0.50400001928E-02 0. -1.
       -1   -1    0    0    0  501  0.00000000000E+00  0.00000000000E+00 -0.64571586089E+03  0.64571586091E+03  0.50400001928E-02 0.  1.
    10030    2    1    2    0    0  0.00000000000E+00  0.00000000000E+00  0.20202981234E+04  0.33117298453E+04  0.26241093842E+04 0.  0.
        3    1    3    3  502    0  0.66816887445E+03  0.11881468193E+02  0.24351346251E+04  0.25251676116E+04  0.10100000352E+00 0. -1.
       -3    1    3    3    0  502 -0.66816887445E+03 -0.11881468193E+02 -0.41483650168E+03  0.78656223364E+03  0.10100000352E+00 0.  1.
</event>
<event>
 5   0  0.1116310E-05  0.2587343E+04  0.7818609E-02  0.8372513E-01
       -2   -1    0    0    0  501  0.00000000000E+00  0.00000000000E+00  0.95029188646E+03  0.95029188646E+03  0.25500000920E-02 0. -1.
        2   -1    0    0  501    0  0.00000000000E+00  0.00000000000E+00 -0.17611278567E+04  0.17611278567E+04  0.25500000920E-02 0.  1.
    10030    2    1    2    0    0  0.00000000000E+00  0.00000000000E+00 -0.81083597029E+03  0.27114197432E+04  0.25873426625E+04 0.  0.
        4    1    3    3  502    0 -0.85852529062E+03  0.56106225495E+03 -0.12317275850E+04  0.16028134593E+04  0.12699999809E+01 0.  1.
       -4    1    3    3    0  502  0.85852529062E+03 -0.56106225495E+03  0.42089161474E+03  0.11086062840E+04  0.12699999809E+01 0. -1.
</event>
<event>
 5   0  0.1085061E-05  0.2584792E+04  0.7818609E-02  0.8373385E-01
       -2   -1    0    0    0  501  0.00000000000E+00  0.00000000000E+00  0.56121378309E+03  0.56121378310E+03  0.25500000920E-02 0. -1.
        2   -1    0    0  501    0  0.00000000000E+00  0.00000000000E+00 -0.29762052808E+04  0.29762052808E+04  0.25500000920E-02 0.  1.
    10030    2    1    2    0    0  0.00000000000E+00  0.00000000000E+00 -0.24149914977E+04  0.35374190639E+04  0.25847920031E+04 0.  0.
        1    1    3    3  502    0  0.79611863132E+03 -0.61515146267E+02  0.18324977349E+03  0.81924933193E+03  0.50400001928E-02 0.  1.
       -1    1    3    3    0  502 -0.79611863132E+03  0.61515146267E+02 -0.25982412712E+04  0.27181697319E+04  0.50400001928E-02 0. -1.
</event>
<event>
 5   0  0.4415080E-06  0.2361405E+04  0.7818609E-02  0.8454096E-01
       -1   -1    0    0    0  501  0.00000000000E+00  0.00000000000E+00  0.65568739426E+03  0.65568739428E+03  0.50400001928E-02 0. -1.
        1   -1    0    0  501    0  0.00000000000E+00  0.00000000000E+00 -0.21261024137E+04  0.21261024137E+04  0.50400001928E-02 0.  1.
    10030    2    1    2    0    0  0.00000000000E+00  0.00000000000E+00 -0.14704150194E+04  0.27817898080E+04  0.23614051339E+04 0.  0.
        2    1    3    3  502    0 -0.35443818045E+03  0.74549428043E+03  0.25927733888E+03  0.86522418157E+03  0.25500000920E-02 0. -1.
       -2    1    3    3    0  502  0.35443818045E+03 -0.74549428043E+03 -0.17296923583E+04  0.19165656264E+04  0.25500000920E-02 0.  1.
</event>
<event>
 5   0  0.4415080E-06  0.2587241E+04  0.7818609E-02  0.8372548E-01
        1   -1    0    0  501    0  0.00000000000E+00  0.00000000000E+00  0.13311715540E+04  0.13311715540E+04  0.50400001928E-02 0.  1.
       -1   -1    0    0    0  501  0.00000000000E+00  0.00000000000E+00 -0.12571284103E+04  0.12571284103E+04  0.50400001928E-02 0. -1.
    10030    2    1    2    0    0  0.00000000000E+00  0.00000000000E+00  0.74043143696E+02  0.25882999643E+04  0.25872406765E+04 0.  0.
        2    1    3    3  502    0  0.40602499773E+03  0.32107698658E+03 -0.11490045627E+04  0.12602214945E+04  0.25500000920E-02 0. -1.
       -2    1    3    3    0  502 -0.40602499773E+03 -0.32107698658E+03  0.12230477064E+04  0.13280784699E+04  0.25500000920E-02 0.  1.
</event>
<event>
 5   0  0.3705250E-06  0.2706494E+04  0.7818609E-02  0.8332901E-01
       -3   -1    0    0    0  501  0.00000000000E+00  0.00000000000E+00  0.13692934140E+04  0.13692934177E+04  0.10100000352E+00 0.  1.
        3   -1    0    0  501    0  0.00000000000E+00  0.00000000000E+00 -0.13373890062E+04  0.13373890101E+04  0.10100000352E+00 0. -1.
    10030    2    1    2    0    0  0.00000000000E+00  0.00000000000E+00  0.31904407757E+02  0.27066824278E+04  0.27064943882E+04 0.  0.
        4    1    3    3  502    0 -0.10725565949E+04  0.12960576750E+03  0.83093277671E+03  0.13629476133E+04  0.12699999809E+01 0.  1.
       -4    1    3    3    0  502  0.10725565949E+04 -0.12960576750E+03 -0.79902836895E+03  0.13437348145E+04  0.12699999809E+01 0. -1.
</event>
<event>
 5   0  0.1116310E-05  0.2594481E+04  0.7818609E-02  0.8370078E-01
        2   -1    0    0  501    0  0.00000000000E+00  0.00000000000E+00  0.11472148364E+04  0.11472148364E+04  0.25500000920E-02 0. -1.
       -2   -1    0    0    0  501  0.00000000000E+00  0.00000000000E+00 -0.14668857509E+04  0.14668857509E+04  0.25500000920E-02 0.  1.
    10030    2    1    2    0    0  0.00000000000E+00  0.00000000000E+00 -0.31967091446E+03  0.26141005873E+04  0.25944811402E+04 0.  0.
        4    1    3    3  502    0  0.22934369722E+03  0.35428029900E+03  0.10761102562E+04  0.11559100130E+04  0.12699999809E+01 0. -1.
       -4    1    3    3    0  502 -0.22934369722E+03 -0.35428029900E+03 -0.13957811707E+04  0.14581905743E+04  0.12699999809E+01 0.  1.
</event>
<event>
 5   0  0.4361864E-06  0.2609086E+04  0.7818609E-02  0.8365121E-01
       -1   -1    0    0    0  501  0.00000000000E+00  0.00000000000E+00  0.85577062770E+03  0.85577062772E+03  0.50400001928E-02 0. -1.
        1   -1    0    0  501    0  0.00000000000E+00  0.00000000000E+00 -0.19886555621E+04  0.19886555621E+04  0.50400001928E-02 0.  1.
    10030    2    1    2    0    0  0.00000000000E+00  0.00000000000E+00 -0.11328849344E+04  0.28444261898E+04  0.26090864445E+04 0.  0.
        3    1    3    3  502    0 -0.83813136830E+03 -0.86193411077E+03 -0.14367906949E+02  0.12023315054E+04  0.10100000352E+00 0. -1.
       -3    1    3    3    0  502  0.83813136830E+03  0.86193411077E+03 -0.11185170274E+04  0.16420946845E+04  0.10100000352E+00 0.  1.
</event>
<event>
 5   0  0.1116310E-05  0.2611526E+04  0.7818609E-02  0.8364297E-01
       -2   -1    0    0    0  501  0.00000000000E+00  0.00000000000E+00  0.72916690845E+03  0.72916690846E+03  0.25500000920E-02 0. -1.
        2   -1    0    0  501    0  0.00000000000E+00  0.00000000000E+00 -0.23383076402E+04  0.23383076402E+04  0.25500000920E-02 0.  1.
    10030    2    1    2    0    0  0.00000000000E+00  0.00000000000E+00 -0.16091407317E+04  0.30674745486E+04  0.26115256484E+04 0.  0.
        4    1    3    3  502    0 -0.90638325454E+03  0.46912998300E+03 -0.17612683585E+04  0.20356034458E+04  0.12699999809E+01 0.  1.
       -4    1    3    3    0  502  0.90638325454E+03 -0.46912998300E+03  0.15212762679E+03  0.10318711028E+04  0.12699999809E+01 0. -1.
</event>
<event>
 5   0  0.4361864E-06  0.2603346E+04  0.7818609E-02  0.8367066E-01
        1   -1    0    0  501    0  0.00000000000E+00  0.00000000000E+00  0.18316705841E+04  0.18316705841E+04  0.50400001928E-02 0. -1.
       -1   -1    0    0    0  501  0.00000000000E+00  0.00000000000E+00 -0.92503101033E+03  0.92503101034E+03  0.50400001928E-02 0.  1.
    10030    2    1    2    0    0  0.00000000000E+00  0.00000000000E+00  0.90663957381E+03  0.27567015945E+04  0.26033456098E+04 0.  0.
        3    1    3    3  502    0  0.61001766530E+03  0.67778741820E+03  0.14369270858E+04  0.17018451152E+04  0.10100000352E+00 0. -1.
       -3    1    3    3    0  502 -0.61001766530E+03 -0.67778741820E+03 -0.53028751197E+03  0.10548564792E+04  0.10100000352E+00 0.  1.
</event>
<event>
 5   0  0.4361864E-06  0.2775245E+04  0.7818609E-02  0.8310995E-01
        1   -1    0    0  501    0  0.00000000000E+00  0.00000000000E+00  0.26035078815E+04  0.26035078815E+04  0.50400001928E-02 0. -1.
       -1   -1    0    0    0  501  0.00000000000E+00  0.00000000000E+00 -0.73957772761E+03  0.73957772762E+03  0.50400001928E-02 0.  1.
    10030    2    1    2    0    0  0.00000000000E+00  0.00000000000E+00  0.18639301539E+04  0.33430856091E+04  0.27752451732E+04 0.  0.
        3    1    3    3  502    0 -0.13644066210E+04  0.16881518883E+03  0.11585867163E+04  0.17978952097E+04  0.10100000352E+00 0. -1.
       -3    1    3    3    0  502  0.13644066210E+04 -0.16881518883E+03  0.70534343755E+03  0.15451903995E+04  0.10100000352E+00 0.  1.
</event>
<event>
 5   0  0.1116310E-05  0.2590533E+04  0.7818609E-02  0.8371424E-01
        2   -1    0    0  501    0  0.00000000000E+00  0.00000000000E+00  0.26800825831E+04  0.26800825831E+04  0.25500000920E-02 0. -1.
       -2   -1    0    0    0  501  0.00000000000E+00  0.00000000000E+00 -0.62599407932E+03  0.62599407933E+03  0.25500000920E-02 0.  1.
    10030    2    1    2    0    0  0.00000000000E+00  0.00000000000E+00  0.20540885038E+04  0.33060766624E+04  0.25905334039E+04 0.  0.
        4    1    3    3  502    0 -0.48840113326E+03  0.73495520451E+03  0.22371080108E+04  0.24048593898E+04  0.12699999809E+01 0. -1.
       -4    1    3    3    0  502  0.48840113326E+03 -0.73495520451E+03 -0.18301950707E+03  0.90121727263E+03  0.12699999809E+01 0.  1.
</event>
<event>
 5   0  0.1085061E-05  0.2543413E+04  0.7818609E-02  0.8387680E-01
       -2   -1    0    0    0  501  0.00000000000E+00  0.00000000000E+00  0.17535102649E+04  0.17535102649E+04  0.25500000920E-02 0.  1.
        2   -1    0    0  501    0  0.00000000000E+00  0.00000000000E+00 -0.92228603114E+03  0.92228603115E+03  0.25500000920E-02 0. -1.
    10030    2    1    2    0    0  0.00000000000E+00  0.00000000000E+00  0.83122423376E+03  0.26757962960E+04  0.25434134723E+04 0.  0.
        1    1    3    3  502    0 -0.31172588581E+03  0.10126504206E+04  0.11554983488E+04  0.15677405195E+04  0.50400001928E-02 0.  1.
       -1    1    3    3    0  502  0.31172588581E+03 -0.10126504206E+04 -0.32427411508E+03  0.11080557766E+04  0.50400001928E-02 0. -1.
</event>
<event>
 5   0  0.1086507E-05  0.2598261E+04  0.7818609E-02  0.8368792E-01
       -2   -1    0    0    0  501  0.00000000000E+00  0.00000000000E+00  0.12129526276E+04  0.12129526277E+04  0.25500000920E-02 0.  1.
        2   -1    0    0  501    0  0.00000000000E+00  0.00000000000E+00 -0.13914309470E+04  0.13914309470E+04  0.25500000920E-02 0. -1.
    10030    2    1    2    0    0  0.00000000000E+00  0.00000000000E+00 -0.17847831937E+03  0.26043835747E+04  0.25982608209E+04 0.  0.
        2    1    3    3  502    0  0.20200181645E+03  0.84078282777E+03  0.88259149554E+03  0.12355922650E+04  0.25500000920E-02 0.  1.
       -2    1    3    3    0  502 -0.20200181645E+03 -0.84078282777E+03 -0.10610698149E+04  0.13687913097E+04  0.25500000920E-02 0. -1.
</event>
<event>
 5   0  0.1116310E-05  0.2601653E+04  0.7818609E-02  0.8367640E-01
       -2   -1    0    0    0  501  0.00000000000E+00  0.00000000000E+00  0.24518332713E+04  0.24518332713E+04  0.25500000920E-02 0. -1.
        2   -1    0    0  501    0  0.00000000000E+00  0.00000000000E+00 -0.69015666623E+03  0.69015666623E+03  0.25500000920E-02 0.  1.
    10030    2    1    2    0    0  0.00000000000E+00  0.00000000000E+00  0.17616766051E+04  0.31419899375E+04  0.26016526107E+04 0.  0.
        4    1    3    3  502    0  0.17009617836E+03  0.11799036229E+04  0.15095824216E+04  0.19235243617E+04  0.12699999809E+01 0.  1.
       -4    1    3    3    0  502 -0.17009617836E+03 -0.11799036229E+04  0.25209418343E+03  0.12184655759E+04  0.12699999809E+01 0. -1.
</event>
<event>
 5   0  0.4218590E-06  0.2602468E+04  0.7818609E-02  0.8367363E-01
        1   -1    0    0  501    0  0.00000000000E+00  0.00000000000E+00  0.15463270606E+04  0.15463270606E+04  0.50400001928E-02 0.  1.
       -1   -1    0    0    0  501  0.00000000000E+00  0.00000000000E+00 -0.10949886117E+04  0.10949886117E+04  0.50400001928E-02 0. -1.
    10030    2    1    2    0    0  0.00000000000E+00  0.00000000000E+00  0.45133844884E+03  0.26413156723E+04  0.26024684600E+04 0.  0.
        1    1    3    3  502    0 -0.88451823572E+03  0.79260196239E+03 -0.31388660358E+03  0.12284604918E+04  0.50400001928E-02 0. -1.
       -1    1    3    3    0  502  0.88451823572E+03 -0.79260196239E+03  0.76522505242E+03  0.14128551805E+04  0.50400001928E-02 0.  1.
</event>
<event>
 5   0  0.4361864E-06  0.2601700E+04  0.7818609E-02  0.8367624E-01
        1   -1    0    0  501    0  0.00000000000E+00  0.00000000000E+00  0.16928667128E+04  0.16928667128E+04  0.50400001928E-02 0.  1.
       -1   -1    0    0    0  501  0.00000000000E+00  0.00000000000E+00 -0.99961266063E+03  0.99961266064E+03  0.50400001928E-02 0. -1.
    10030    2    1    2    0    0  0.00000000000E+00  0.00000000000E+00  0.69325405218E+03  0.26924793735E+04  0.26017002125E+04 0.  0.
        3    1    3    3  502    0  0.70804274779E+03  0.10610879917E+04  0.61043064025E+03  0.14141632988E+04  0.10100000352E+00 0.  1.
       -3    1    3    3    0  502 -0.70804274779E+03 -0.10610879917E+04  0.82823411923E+02  0.12783160746E+04  0.10100000352E+00 0. -1.
</event>
<event>
 5   0  0.1086507E-05  0.2593980E+04  0.7818609E-02  0.8370249E-01
       -2   -1    0    0    0  501  0.00000000000E+00  0.00000000000E+00  0.14854596777E+04  0.14854596777E+04  0.25500000920E-02 0.  1.
        2   -1    0    0  501    0  0.00000000000E+00  0.00000000000E+00 -0.11324323431E+04  0.11324323431E+04  0.25500000920E-02 0. -1.
    10030    2    1    2    0    0  0.00000000000E+00  0.00000000000E+00  0.35302733454E+03  0.26178920208E+04  0.25939796325E+04 0.  0.
        2    1    3    3  502    0 -0.61673918412E+03  0.33423426236E+02  0.13275086842E+04  0.14641597089E+04  0.25500000920E-02 0.  1.
       -2    1    3    3    0  502  0.61673918412E+03 -0.33423426236E+02 -0.97448134964E+03  0.11537323119E+04  0.25500000920E-02 0. -1.
</event>
<event>
 5   0  0.4415080E-06  0.2599851E+04  0.7818609E-02  0.8368252E-01
       -1   -1    0    0    0  501  0.00000000000E+00  0.00000000000E+00  0.10555813942E+04  0.10555813942E+04  0.50400001928E-02 0.  1.
        1   -1    0    0  501    0  0.00000000000E+00  0.00000000000E+00 -0.16008300532E+04  0.16008300532E+04  0.50400001928E-02 0. -1.
    10030    2    1    2    0    0  0.00000000000E+00  0.00000000000E+00 -0.54524865901E+03  0.26564114473E+04  0.25998510875E+04 0.  0.
        2    1    3    3  502    0 -0.53059815643E+02  0.64812642275E+02  0.10528211921E+04  0.10561479466E+04  0.25500000920E-02 0.  1.
       -2    1    3    3    0  502  0.53059815643E+02 -0.64812642275E+02 -0.15980698511E+04  0.16002635007E+04  0.25500000920E-02 0. -1.
</event>
<event>
 5   0  0.4464297E-06  0.2627360E+04  0.7818609E-02  0.8358967E-01
        1   -1    0    0  501    0  0.00000000000E+00  0.00000000000E+00  0.22710977544E+04  0.22710977544E+04  0.50400001928E-02 0. -1.
       -1   -1    0    0    0  501  0.00000000000E+00  0.00000000000E+00 -0.75987704326E+03  0.75987704327E+03  0.50400001928E-02 0.  1.
    10030    2    1    2    0    0  0.00000000000E+00  0.00000000000E+00  0.15112207111E+04  0.30309747977E+04  0.26273599271E+04 0.  0.
        4    1    3    3  502    0 -0.18765622895E+03 -0.12833230024E+04  0.51467041727E+03  0.13953565996E+04  0.12699999809E+01 0.  1.
       -4    1    3    3    0  502  0.18765622895E+03  0.12833230024E+04  0.99655029386E+03  0.16356181981E+04  0.12699999809E+01 0. -1.
</event>
<event>
 5   0  0.4464297E-06  0.2555151E+04  0.7818609E-02  0.8383597E-01
       -1   -1    0    0    0  501  0.00000000000E+00  0.00000000000E+00  0.20019814371E+04  0.20019814371E+04  0.50400001928E-02 0. -1.
        1   -1    0    0  501    0  0.00000000000E+00  0.00000000000E+00 -0.81529173263E+03  0.81529173265E+03  0.50400001928E-02 0.  1.
    10030    2    1    2    0    0  0.00000000000E+00  0.00000000000E+00  0.11866897045E+04  0.28172731698E+04  0.25551508093E+04 0.  0.
        4    1    3    3  502    0  0.80455880093E+03 -0.98814466640E+03  0.49197555280E+03  0.13659378841E+04  0.12699999809E+01 0.  1.
       -4    1    3    3    0  502 -0.80455880093E+03  0.98814466640E+03  0.69471415169E+03  0.14513352856E+04  0.12699999809E+01 0. -1.
</event>
<event>
 5   0  0.1086507E-05  0.2599848E+04  0.7818609E-02  0.8368253E-01
       -2   -1    0    0    0  501  0.00000000000E+00  0.00000000000E+00  0.84135218455E+03  0.84135218456E+03  0.25500000920E-02 0.  1.
        2   -1    0    0  501    0  0.00000000000E+00  0.00000000000E+00 -0.20084358203E+04  0.20084358203E+04  0.25500000920E-02 0. -1.
    10030    2    1    2    0    0  0.00000000000E+00  0.00000000000E+00 -0.11670836357E+04  0.28497880048E+04  0.25998475840E+04 0.  0.
        2    1    3    3  502    0  0.81282866831E+03 -0.91876898607E+03 -0.11210754730E+03  0.12318258789E+04  0.25500000920E-02 0.  1.
       -2    1    3    3    0  502 -0.81282866831E+03  0.91876898607E+03 -0.10549760884E+04  0.16179621259E+04  0.25500000920E-02 0. -1.
</event>
<event>
 5   0  0.4218590E-06  0.2582958E+04  0.7818609E-02  0.8374013E-01
       -1   -1    0    0    0  501  0.00000000000E+00  0.00000000000E+00  0.15055499136E+04  0.15055499137E+04  0.50400001928E-02 0.  1.
        1   -1    0    0  501    0  0.00000000000E+00  0.00000000000E+00 -0.11078459625E+04  0.11078459625E+04  0.50400001928E-02 0. -1.
    10030    2    1    2    0    0  0.00000000000E+00  0.00000000000E+00  0.39770395114E+03  0.26133958762E+04  0.25829575244E+04 0.  0.
        1    1    3    3  502    0 -0.89519022995E+03  0.30247531184E+03 -0.69189785378E+03  0.11711445266E+04  0.50400001928E-02 0. -1.
       -1    1    3    3    0  502  0.89519022995E+03 -0.30247531184E+03  0.10896018049E+04  0.14422513496E+04  0.50400001928E-02 0.  1.
</event>
<event>
 5   0  0.1086507E-05  0.2574444E+04  0.7818609E-02  0.8376934E-01
        2   -1    0    0  501    0  0.00000000000E+00  0.00000000000E+00  0.16927359082E+04  0.16927359082E+04  0.25500000920E-02 0. -1.
       -2   -1    0    0    0  501  0.00000000000E+00  0.00000000000E+00 -0.97885315424E+03  0.97885315424E+03  0.25500000920E-02 0.  1.
    10030    2    1    2    0    0  0.00000000000E+00  0.00000000000E+00  0.71388275396E+03  0.26715890624E+04  0.25744435384E+04 0.  0.
        2    1    3    3  502    0  0.36574653506E+03 -0.12264872313E+04  0.49960035536E+03  0.13739148342E+04  0.25500000920E-02 0. -1.
       -2    1    3    3    0  502 -0.36574653506E+03  0.12264872313E+04  0.21428239860E+03  0.12976742283E+04  0.25500000920E-02 0.  1.
</event>
<event>
 5   0  0.1086507E-05  0.2600265E+04  0.7818609E-02  0.8368111E-01
       -2   -1    0    0    0  501  0.00000000000E+00  0.00000000000E+00  0.22206025255E+04  0.22206025255E+04  0.25500000920E-02 0.  1.
        2   -1    0    0  501    0  0.00000000000E+00  0.00000000000E+00 -0.76120973341E+03  0.76120973341E+03  0.25500000920E-02 0. -1.
    10030    2    1    2    0    0  0.00000000000E+00  0.00000000000E+00  0.14593927921E+04  0.29818122590E+04  0.26002647992E+04 0.  0.
        2    1    3    3  502    0  0.99263505071E+03 -0.52760109406E+03  0.14787314727E+04  0.18575074769E+04  0.25500000920E-02 0.  1.
       -2    1    3    3    0  502 -0.99263505071E+03  0.52760109406E+03 -0.19338680592E+02  0.11243047820E+04  0.25500000920E-02 0. -1.
</event>
<event>
 5   0  0.1086507E-05  0.2606792E+04  0.7818609E-02  0.8365898E-01
        2   -1    0    0  501    0  0.00000000000E+00  0.00000000000E+00  0.18668111714E+04  0.18668111714E+04  0.25500000920E-02 0.  1.
       -2   -1    0    0    0  501  0.00000000000E+00  0.00000000000E+00 -0.91002292850E+03  0.91002292850E+03  0.25500000920E-02 0. -1.
    10030    2    1    2    0    0  0.00000000000E+00  0.00000000000E+00  0.95678824287E+03  0.27768340999E+04  0.26067918744E+04 0.  0.
        2    1    3    3  502    0 -0.12563248223E+04  0.34684174637E+03  0.49306621791E+03  0.13934724796E+04  0.25500000920E-02 0. -1.
       -2    1    3    3    0  502  0.12563248223E+04 -0.34684174637E+03  0.46372202496E+03  0.13833616203E+04  0.25500000920E-02 0.  1.
</event>
<event>
 5   0  0.1085061E-05  0.2605665E+04  0.7818609E-02  0.8366279E-01
       -2   -1    0    0    0  501  0.00000000000E+00  0.00000000000E+00  0.10708570222E+04  0.10708570222E+04  0.25500000920E-02 0.  1.
        2   -1    0    0  501    0  0.00000000000E+00  0.00000000000E+00 -0.15850599364E+04  0.15850599364E+04  0.25500000920E-02 0. -1.
    10030    2    1    2    0    0  0.00000000000E+00  0.00000000000E+00 -0.51420291421E+03  0.26559169586E+04  0.26056650310E+04 0.  0.
        1    1    3    3  502    0 -0.82692033900E+03 -0.97440975555E+03 -0.51516587175E+03  0.13779214398E+04  0.50400001928E-02 0. -1.
       -1    1    3    3    0  502  0.82692033900E+03  0.97440975555E+03  0.96295754064E+00  0.12779955188E+04  0.50400001928E-02 0.  1.
</event>
<event>
 5   0  0.4415080E-06  0.2606874E+04  0.7818609E-02  0.8365870E-01
       -1   -1    0    0    0  501  0.00000000000E+00  0.00000000000E+00  0.10164724090E+04  0.10164724090E+04  0.50400001928E-02 0.  1.
        1   -1    0    0  501    0  0.00000000000E+00  0.00000000000E+00 -0.16714152061E+04  0.16714152061E+04  0.50400001928E-02 0. -1.
    10030    2    1    2    0    0  0.00000000000E+00  0.00000000000E+00 -0.65494279714E+03  0.26878876152E+04  0.26068735612E+04 0.  0.
        2    1    3    3  502    0  0.94031011277E+03 -0.67092185622E+03 -0.95008164394E+03  0.14956518229E+04  0.25500000920E-02 0. -1.
       -2    1    3    3    0  502 -0.94031011277E+03  0.67092185622E+03  0.29513884679E+03  0.11922357922E+04  0.25500000920E-02 0.  1.
</event>
<event>
 5   0  0.1116310E-05  0.2620896E+04  0.7818609E-02  0.8361138E-01
        2   -1    0    0  501    0  0.00000000000E+00  0.00000000000E+00  0.14344347854E+04  0.14344347854E+04  0.25500000920E-02 0.  1.
       -2   -1    0    0    0  501  0.00000000000E+00  0.00000000000E+00 -0.11971781581E+04  0.11971781581E+04  0.25500000920E-02 0. -1.
    10030    2    1    2    0    0  0.00000000000E+00  0.00000000000E+00  0.23725662737E+03  0.26316129435E+04  0.26208960256E+04 0.  0.
        4    1    3    3  502    0 -0.21480518137E+03  0.11918062527E+04 -0.38414761997E+03  0.12704780268E+04  0.12699999809E+01 0. -1.
       -4    1    3    3    0  502  0.21480518137E+03 -0.11918062527E+04  0.62140424734E+03  0.13611349167E+04  0.12699999809E+01 0.  1.
</event>
<event>
 5   0  0.1085255E-05  0.2588843E+04  0.7818609E-02  0.8372001E-01
       -2   -1    0    0    0  501  0.00000000000E+00  0.00000000000E+00  0.16314035110E+04  0.16314035110E+04  0.25500000920E-02 0. -1.
        2   -1    0    0  501    0  0.00000000000E+00  0.00000000000E+00 -0.10270460759E+04  0.10270460759E+04  0.25500000920E-02 0.  1.
    10030    2    1    2    0    0  0.00000000000E+00  0.00000000000E+00  0.60435743509E+03  0.26584495869E+04  0.25888426558E+04 0.  0.
        5    1    3    3  502    0  0.89244450811E+03  0.25218247942E+03  0.12294819698E+04  0.15400328591E+04  0.46999998093E+01 0. -1.
       -5    1    3    3    0  502 -0.89244450811E+03 -0.25218247942E+03 -0.62512453474E+03  0.11184167278E+04  0.46999998093E+01 0.  1.
</event>
<event>
 5   0  0.4361864E-06  0.2576075E+04  0.7818609E-02  0.8376374E-01
       -1   -1    0    0    0  501  0.00000000000E+00  0.00000000000E+00  0.16816287082E+04  0.16816287082E+04  0.50400001928E-02 0.  1.
        1   -1    0    0  501    0  0.00000000000E+00  0.00000000000E+00 -0.98656753242E+03  0.98656753244E+03  0.50400001928E-02 0. -1.
    10030    2    1    2    0    0  0.00000000000E+00  0.00000000000E+00  0.69506117573E+03  0.26681962406E+04  0.25760747544E+04 0.  0.
        3    1    3    3  502    0  0.28786278297E+03 -0.49744797130E+02 -0.95180215301E+03  0.99562386237E+03  0.10100000352E+00 0. -1.
       -3    1    3    3    0  502 -0.28786278297E+03  0.49744797130E+02  0.16468633287E+04  0.16725723782E+04  0.10100000352E+00 0.  1.
</event>
<event>
 5   0  0.1085255E-05  0.2608894E+04  0.7818609E-02  0.8365186E-01
        2   -1    0    0  501    0  0.00000000000E+00  0.00000000000E+00  0.82020032167E+03  0.82020032168E+03  0.25500000920E-02 0.  1.
       -2   -1    0    0    0  501  0.00000000000E+00  0.00000000000E+00 -0.20745934686E+04  0.20745934686E+04  0.25500000920E-02 0. -1.
    10030    2    1    2    0    0  0.00000000000E+00  0.00000000000E+00 -0.12543931470E+04  0.28947937903E+04  0.26088941951E+04 0.  0.
        5    1    3    3  502    0 -0.93333745508E+03 -0.86417146089E+03 -0.94811274191E+03  0.15864586286E+04  0.46999998093E+01 0. -1.
       -5    1    3    3    0  502  0.93333745508E+03  0.86417146089E+03 -0.30628040504E+03  0.13083351617E+04  0.46999998093E+01 0.  1.
</event>
<event>
 5   0  0.4597705E-06  0.2595851E+04  0.7818609E-02  0.8369612E-01
        1   -1    0    0  501    0  0.00000000000E+00  0.00000000000E+00  0.15941709648E+04  0.15941709648E+04  0.50400001928E-02 0. -1.
       -1   -1    0    0    0  501  0.00000000000E+00  0.00000000000E+00 -0.10567315538E+04  0.10567315538E+04  0.50400001928E-02 0.  1.
    10030    2    1    2    0    0  0.00000000000E+00  0.00000000000E+00  0.53743941095E+03  0.26509025186E+04  0.25958511211E+04 0.  0.
        5    1    3    3  502    0 -0.63982097302E+03  0.98805022882E+03  0.82710127996E+03  0.14386565780E+04  0.46999998093E+01 0. -1.
       -5    1    3    3    0  502  0.63982097302E+03 -0.98805022882E+03 -0.28966186901E+03  0.12122459406E+04  0.46999998093E+01 0.  1.
</event>
<event>
 5   0  0.1085255E-05  0.2608065E+04  0.7818609E-02  0.8365467E-01
        2   -1    0    0  501    0  0.00000000000E+00  0.00000000000E+00  0.15199002912E+04  0.15199002912E+04  0.25500000920E-02 0. -1.
       -2   -1    0    0    0  501  0.00000000000E+00  0.00000000000E+00 -0.11188235720E+04  0.11188235720E+04  0.25500000920E-02 0.  1.
    10030    2    1    2    0    0  0.00000000000E+00  0.00000000000E+00  0.40107671926E+03  0.26387238632E+04  0.26080646257E+04 0.  0.
        5    1    3    3  502    0 -0.11698994781E+04  0.18203296150E+03  0.75347678750E+03  0.14034066222E+04  0.46999998093E+01 0. -1.
       -5    1    3    3    0  502  0.11698994781E+04 -0.18203296150E+03 -0.35240006824E+03  0.12353172410E+04  0.46999998093E+01 0.  1.
</event>
<event>
 5   0  0.1086507E-05  0.2603763E+04  0.7818609E-02  0.8366924E-01
       -2   -1    0    0    0  501  0.00000000000E+00  0.00000000000E+00  0.11930790807E+04  0.11930790807E+04  0.25500000920E-02 0.  1.
        2   -1    0    0  501    0  0.00000000000E+00  0.00000000000E+00 -0.14206062196E+04  0.14206062196E+04  0.25500000920E-02 0. -1.
    10030    2    1    2    0    0  0.00000000000E+00  0.00000000000E+00 -0.22752713888E+03  0.26136853004E+04  0.26037630942E+04 0.  0.
        2    1    3    3  502    0 -0.53998707817E+03 -0.71968181279E+03  0.83076183275E+03  0.12246196058E+04  0.25500000920E-02 0.  1.
       -2    1    3    3    0  502  0.53998707817E+03  0.71968181279E+03 -0.10582889716E+04  0.13890656945E+04  0.25500000920E-02 0. -1.
</event>
<event>
 5   0  0.4218590E-06  0.2609248E+04  0.7818609E-02  0.8365067E-01
        1   -1    0    0  501    0  0.00000000000E+00  0.00000000000E+00  0.11999437715E+04  0.11999437715E+04  0.50400001928E-02 0.  1.
       -1   -1    0    0    0  501  0.00000000000E+00  0.00000000000E+00 -0.14184367318E+04  0.14184367318E+04  0.50400001928E-02 0. -1.
    10030    2    1    2    0    0  0.00000000000E+00  0.00000000000E+00 -0.21849296039E+03  0.26183805033E+04  0.26092484141E+04 0.  0.
        1    1    3    3  502    0 -0.46637231034E+03 -0.60506422951E+03 -0.11705103479E+04  0.13977483065E+04  0.50400001928E-02 0. -1.
       -1    1    3    3    0  502  0.46637231034E+03  0.60506422951E+03  0.95201738755E+03  0.12206321968E+04  0.50400001928E-02 0.  1.
</event>
<event>
 5   0  0.4361864E-06  0.2608200E+04  0.7818609E-02  0.8365421E-01
        1   -1    0    0  501    0  0.00000000000E+00  0.00000000000E+00  0.15187032670E+04  0.15187032670E+04  0.50400001928E-02 0.  1.
       -1   -1    0    0    0  501  0.00000000000E+00  0.00000000000E+00 -0.11198214794E+04  0.11198214794E+04  0.50400001928E-02 0. -1.
    10030    2    1    2    0    0  0.00000000000E+00  0.00000000000E+00  0.39888178765E+03  0.26385247464E+04  0.26081997924E+04 0.  0.
        3    1    3    3  502    0 -0.94297132641E+03  0.56459502942E+03 -0.51065629470E+03  0.12119126747E+04  0.10100000352E+00 0. -1.
       -3    1    3    3    0  502  0.94297132641E+03 -0.56459502942E+03  0.90953808234E+03  0.14266120717E+04  0.10100000352E+00 0.  1.
</event>
<event>
 5   0  0.1116310E-05  0.2482292E+04  0.7818609E-02  0.8409321E-01
       -2   -1    0    0    0  501  0.00000000000E+00  0.00000000000E+00  0.84452977605E+03  0.84452977605E+03  0.25500000920E-02 0.  1.
        2   -1    0    0  501    0  0.00000000000E+00  0.00000000000E+00 -0.18240249771E+04  0.18240249771E+04  0.25500000920E-02 0. -1.
    10030    2    1    2    0    0  0.00000000000E+00  0.00000000000E+00 -0.97949520103E+03  0.26685547531E+04  0.24822920097E+04 0.  0.
        4    1    3    3  502    0  0.10745560172E+04 -0.16055952682E+03  0.15526700827E+03  0.10975242378E+04  0.12699999809E+01 0.  1.
       -4    1    3    3    0  502 -0.10745560172E+04  0.16055952682E+03 -0.11347622093E+04  0.15710305154E+04  0.12699999809E+01 0. -1.
</event>
<event>
 5   0  0.1116310E-05  0.2395075E+04  0.7818609E-02  0.8441350E-01
       -2   -1    0    0    0  501  0.00000000000E+00  0.00000000000E+00  0.90757200129E+03  0.90757200130E+03  0.25500000920E-02 0. -1.
        2   -1    0    0  501    0  0.00000000000E+00  0.00000000000E+00 -0.15801457194E+04  0.15801457194E+04  0.25500000920E-02 0.  1.
    10030    2    1    2    0    0  0.00000000000E+00  0.00000000000E+00 -0.67257371809E+03  0.24877177207E+04  0.23950749574E+04 0.  0.
        4    1    3    3  502    0  0.77599859563E+03  0.88830281317E+03 -0.55126786429E+03  0.13019806371E+04  0.12699999809E+01 0.  1.
       -4    1    3    3    0  502 -0.77599859563E+03 -0.88830281317E+03 -0.12130585380E+03  0.11857370836E+04  0.12699999809E+01 0. -1.
</event>
<event>
 5   0  0.1085061E-05  0.2607215E+04  0.7818609E-02  0.8365755E-01
        2   -1    0    0  501    0  0.00000000000E+00  0.00000000000E+00  0.17113815474E+04  0.17113815474E+04  0.25500000920E-02 0.  1.
       -2   -1    0    0    0  501  0.00000000000E+00  0.00000000000E+00 -0.99299415170E+03  0.99299415170E+03  0.25500000920E-02 0. -1.
    10030    2    1    2    0    0  0.00000000000E+00  0.00000000000E+00  0.71838739567E+03  0.27043756991E+04  0.26072145043E+04 0.  0.
        1    1    3    3  502    0 -0.12907969800E+04  0.14113284303E+03  0.23949593319E+03  0.13203914666E+04  0.50400001928E-02 0. -1.
       -1    1    3    3    0  502  0.12907969800E+04 -0.14113284303E+03  0.47889146248E+03  0.13839842325E+04  0.50400001928E-02 0.  1.
</event>
<event>
 5   0  0.1085255E-05  0.2598924E+04  0.7818609E-02  0.8368567E-01
       -2   -1    0    0    0  501  0.00000000000E+00  0.00000000000E+00  0.16229969667E+04  0.16229969667E+04  0.25500000920E-02 0. -1.
        2   -1    0    0  501    0  0.00000000000E+00  0.00000000000E+00 -0.10404221227E+04  0.10404221227E+04  0.25500000920E-02 0.  1.
    10030    2    1    2    0    0  0.00000000000E+00  0.00000000000E+00  0.58257484402E+03  0.26634190893E+04  0.25989243538E+04 0.  0.
        5    1    3    3  502    0  0.85094166497E+03 -0.81162908382E+02  0.12942941662E+04  0.15510991630E+04  0.46999998093E+01 0. -1.
       -5    1    3    3    0  502 -0.85094166497E+03  0.81162908382E+02 -0.71171932218E+03  0.11123199263E+04  0.46999998093E+01 0.  1.
</event>
<event>
 5   0  0.4361864E-06  0.2611671E+04  0.7818609E-02  0.8364248E-01
       -1   -1    0    0    0  501  0.00000000000E+00  0.00000000000E+00  0.64149526746E+03  0.64149526748E+03  0.50400001928E-02 0. -1.
        1   -1    0    0  501    0  0.00000000000E+00  0.00000000000E+00 -0.26581747060E+04  0.26581747060E+04  0.50400001928E-02 0.  1.
    10030    2    1    2    0    0  0.00000000000E+00  0.00000000000E+00 -0.20166794385E+04  0.32996699735E+04  0.26116711080E+04 0.  0.
        3    1    3    3  502    0  0.12885288543E+04 -0.15496389455E+03 -0.82574830500E+03  0.15382394776E+04  0.10100000352E+00 0.  1.
       -3    1    3    3    0  502 -0.12885288543E+04  0.15496389455E+03 -0.11909311335E+04  0.17614304959E+04  0.10100000352E+00 0. -1.
</event>
<event>
 5   0  0.4218590E-06  0.2599858E+04  0.7818609E-02  0.8368249E-01
        1   -1    0    0  501    0  0.00000000000E+00  0.00000000000E+00  0.12832723110E+04  0.12832723110E+04  0.50400001928E-02 0. -1.
       -1   -1    0    0    0  501  0.00000000000E+00  0.00000000000E+00 -0.13168020176E+04  0.13168020176E+04  0.50400001928E-02 0.  1.
    10030    2    1    2    0    0  0.00000000000E+00  0.00000000000E+00 -0.33529706614E+02  0.26000743286E+04  0.25998581256E+04 0.  0.
        1    1    3    3  502    0 -0.75878829081E+03  0.31704633112E+03  0.99006487389E+03  0.12870534180E+04  0.50400001928E-02 0. -1.
       -1    1    3    3    0  502  0.75878829081E+03 -0.31704633112E+03 -0.10235945805E+04  0.13130209106E+04  0.50400001928E-02 0.  1.
</event>
<event>
 5   0  0.1086507E-05  0.2569188E+04  0.7818609E-02  0.8378743E-01
       -2   -1    0    0    0  501  0.00000000000E+00  0.00000000000E+00  0.11256353258E+04  0.11256353258E+04  0.25500000920E-02 0. -1.
        2   -1    0    0  501    0  0.00000000000E+00  0.00000000000E+00 -0.14660005753E+04  0.14660005753E+04  0.25500000920E-02 0.  1.
    10030    2    1    2    0    0  0.00000000000E+00  0.00000000000E+00 -0.34036524943E+03  0.25916359011E+04  0.25691882261E+04 0.  0.
        2    1    3    3  502    0 -0.29072538725E+03 -0.20645008199E+03  0.10747148835E+04  0.11323228197E+04  0.25500000920E-02 0. -1.
       -2    1    3    3    0  502  0.29072538725E+03  0.20645008199E+03 -0.14150801329E+04  0.14593130815E+04  0.25500000920E-02 0.  1.
</event>
<event>
 5   0  0.4597705E-06  0.2610390E+04  0.7818609E-02  0.8364680E-01
        1   -1    0    0  501    0  0.00000000000E+00  0.00000000000E+00  0.14153508417E+04  0.14153508417E+04  0.50400001928E-02 0.  1.
       -1   -1    0    0    0  501  0.00000000000E+00  0.00000000000E+00 -0.12036128210E+04  0.12036128210E+04  0.50400001928E-02 0. -1.
    10030    2    1    2    0    0  0.00000000000E+00  0.00000000000E+00  0.21173802070E+03  0.26189636627E+04  0.26103903304E+04 0.  0.
        5    1    3    3  502    0 -0.12275324209E+04 -0.62387713298E+02 -0.33464508069E+03  0.12738671403E+04  0.46999998093E+01 0.  1.
       -5    1    3    3    0  502  0.12275324209E+04  0.62387713298E+02  0.54638310139E+03  0.13450965224E+04  0.46999998093E+01 0. -1.
</event>
<event>
 5   0  0.4361864E-06  0.2586956E+04  0.7818609E-02  0.8372645E-01
        1   -1    0    0  501    0  0.00000000000E+00  0.00000000000E+00  0.15404424658E+04  0.15404424658E+04  0.50400001928E-02 0. -1.
       -1   -1    0    0    0  501  0.00000000000E+00  0.00000000000E+00 -0.10861073207E+04  0.10861073207E+04  0.50400001928E-02 0.  1.
    10030    2    1    2    0    0  0.00000000000E+00  0.00000000000E+00  0.45433514502E+03  0.26265497865E+04  0.25869563887E+04 0.  0.
        3    1    3    3  502    0  0.12099778439E+04  0.24219047995E+03 -0.16656035113E+03  0.12451686521E+04  0.10100000352E+00 0.  1.
       -3    1    3    3    0  502 -0.12099778439E+04 -0.24219047995E+03  0.62089549615E+03  0.13813811345E+04  0.10100000352E+00 0. -1.
</event>
<event>
 5   0  0.4415080E-06  0.2598759E+04  0.7818609E-02  0.8368623E-01
        1   -1    0    0  501    0  0.00000000000E+00  0.00000000000E+00  0.17021130644E+04  0.17021130644E+04  0.50400001928E-02 0. -1.
       -1   -1    0    0    0  501  0.00000000000E+00  0.00000000000E+00 -0.99193554000E+03  0.99193554001E+03  0.50400001928E-02 0.  1.
    10030    2    1    2    0    0  0.00000000000E+00  0.00000000000E+00  0.71017752444E+03  0.26940486045E+04  0.25987585049E+04 0.  0.
        2    1    3    3  502    0 -0.97627097477E+03  0.99293869759E+01  0.12439565785E+04  0.15813385400E+04  0.25500000920E-02 0. -1.
       -2    1    3    3    0  502  0.97627097477E+03 -0.99293869759E+01 -0.53377905409E+03  0.11127100644E+04  0.25500000920E-02 0.  1.
</event>
<event>
 5   0  0.1086507E-05  0.2605934E+04  0.7818609E-02  0.8366188E-01
        2   -1    0    0  501    0  0.00000000000E+00  0.00000000000E+00  0.17683800595E+04  0.17683800595E+04  0.25500000920E-02 0. -1.
       -2   -1    0    0    0  501  0.00000000000E+00  0.00000000000E+00 -0.96004403680E+03  0.96004403680E+03  0.25500000920E-02 0.  1.
    10030    2    1    2    0    0  0.00000000000E+00  0.00000000000E+00  0.80833602266E+03  0.27284240963E+04  0.26059337911E+04 0.  0.
        2    1    3    3  502    0  0.42647928600E+03  0.11498455682E+04  0.86496095435E+03  0.15007287778E+04  0.25500000920E-02 0. -1.
       -2    1    3    3    0  502 -0.42647928600E+03 -0.11498455682E+04 -0.56624931686E+02  0.12276953184E+04  0.25500000920E-02 0.  1.
</event>
<event>
 5   0  0.1136881E-05  0.2612490E+04  0.7818609E-02  0.8363971E-01
        2   -1    0    0  501    0  0.00000000000E+00  0.00000000000E+00  0.18439959767E+04  0.18439959767E+04  0.25500000920E-02 0.  1.
       -2   -1    0    0    0  501  0.00000000000E+00  0.00000000000E+00 -0.92531461911E+03  0.92531461911E+03  0.25500000920E-02 0. -1.
    10030    2    1    2    0    0  0.00000000000E+00  0.00000000000E+00  0.91868135759E+03  0.27693105958E+04  0.26124903329E+04 0.  0.
        3    1    3    3  502    0 -0.15430235255E+03  0.31903335503E+03 -0.87338151871E+03  0.94254272320E+03  0.10100000352E+00 0. -1.
       -3    1    3    3    0  502  0.15430235255E+03 -0.31903335503E+03  0.17920628763E+04  0.18267678726E+04  0.10100000352E+00 0.  1.
</event>
<event>
 5   0  0.4597705E-06  0.2578002E+04  0.7818609E-02  0.8375712E-01
        1   -1    0    0  501    0  0.00000000000E+00  0.00000000000E+00  0.11950903217E+04  0.11950903217E+04  0.50400001928E-02 0.  1.
       -1   -1    0    0    0  501  0.00000000000E+00  0.00000000000E+00 -0.13902909083E+04  0.13902909083E+04  0.50400001928E-02 0. -1.
    10030    2    1    2    0    0  0.00000000000E+00  0.00000000000E+00 -0.19520058663E+03  0.25853812301E+04  0.25780017137E+04 0.  0.
        5    1    3    3  502    0 -0.20161071262E+03  0.12226307787E+04  0.25842043821E+03  0.12658104572E+04  0.46999998093E+01 0.  1.
       -5    1    3    3    0  502  0.20161071262E+03 -0.12226307787E+04 -0.45362102485E+03  0.13195707729E+04  0.46999998093E+01 0. -1.
</event>
<event>
 5   0  0.4218590E-06  0.2556872E+04  0.7818609E-02  0.8383000E-01
       -1   -1    0    0    0  501  0.00000000000E+00  0.00000000000E+00  0.63156576078E+03  0.63156576080E+03  0.50400001928E-02 0.  1.
        1   -1    0    0  501    0  0.00000000000E+00  0.00000000000E+00 -0.25878520535E+04  0.25878520535E+04  0.50400001928E-02 0. -1.
    10030    2    1    2    0    0  0.00000000000E+00  0.00000000000E+00 -0.19562862928E+04  0.32194178144E+04  0.25568721134E+04 0.  0.
        1    1    3    3  502    0 -0.44930933136E+03  0.11406893956E+04 -0.52181277818E+03  0.13324187585E+04  0.50400001928E-02 0.  1.
       -1    1    3    3    0  502  0.44930933136E+03 -0.11406893956E+04 -0.14344735146E+04  0.18869990558E+04  0.50400001928E-02 0. -1.
</event>
<event>
 5   0  0.4361864E-06  0.2588426E+04  0.7818609E-02  0.8372143E-01
       -1   -1    0    0    0  501  0.00000000000E+00  0.00000000000E+00  0.13345925897E+04  0.13345925897E+04  0.50400001928E-02 0. -1.
        1   -1    0    0  501    0  0.00000000000E+00  0.00000000000E+00 -0.12550553551E+04  0.12550553551E+04  0.50400001928E-02 0.  1.
    10030    2    1    2    0    0  0.00000000000E+00  0.00000000000E+00  0.79537234600E+02  0.25896479448E+04  0.25884262220E+04 0.  0.
        3    1    3    3  502    0 -0.37833662133E+03 -0.10826000752E+04  0.63990676520E+03  0.13132563345E+04  0.10100000352E+00 0. -1.
       -3    1    3    3    0  502  0.37833662133E+03  0.10826000752E+04 -0.56036953060E+03  0.12763916103E+04  0.10100000352E+00 0.  1.
</event>
<event>
 5   0  0.1085255E-05  0.2605984E+04  0.7818609E-02  0.8366172E-01
       -2   -1    0    0    0  501  0.00000000000E+00  0.00000000000E+00  0.92679302357E+03  0.92679302357E+03  0.25500000920E-02 0. -1.
        2   -1    0    0  501    0  0.00000000000E+00  0.00000000000E+00 -0.18318951692E+04  0.18318951692E+04  0.25500000920E-02 0.  1.
    10030    2    1    2    0    0  0.00000000000E+00  0.00000000000E+00 -0.90510214560E+03  0.27586881927E+04  0.26059836244E+04 0.  0.
        5    1    3    3  502    0 -0.66044067945E+03  0.64391249445E+03 -0.14267832770E+04  0.16989814010E+04  0.46999998093E+01 0.  1.
       -5    1    3    3    0  502  0.66044067945E+03 -0.64391249445E+03  0.52168113138E+03  0.10597067917E+04  0.46999998093E+01 0. -1.
</event>
<event>
 5   0  0.3705250E-06  0.2491060E+04  0.7818609E-02  0.8406177E-01
        3   -1    0    0  501    0  0.00000000000E+00  0.00000000000E+00  0.19025673137E+04  0.19025673164E+04  0.10100000352E+00 0.  1.
       -3   -1    0    0    0  501  0.00000000000E+00  0.00000000000E+00 -0.81539536766E+03  0.81539537392E+03  0.10100000352E+00 0. -1.
    10030    2    1    2    0    0  0.00000000000E+00  0.00000000000E+00  0.10871719460E+04  0.27179626903E+04  0.24910596833E+04 0.  0.
        5    1    3    3  502    0 -0.11241163031E+04  0.33379069765E+03  0.10016720439E+04  0.15422135606E+04  0.46999998093E+01 0. -1.
       -5    1    3    3    0  502  0.11241163031E+04 -0.33379069765E+03  0.85499902140E+02  0.11757491297E+04  0.46999998093E+01 0.  1.
</event>
<event>
 5   0  0.1086507E-05  0.2611264E+04  0.7818609E-02  0.8364385E-01
        2   -1    0    0  501    0  0.00000000000E+00  0.00000000000E+00  0.15867556422E+04  0.15867556422E+04  0.25500000920E-02 0.  1.
       -2   -1    0    0    0  501  0.00000000000E+00  0.00000000000E+00 -0.10743144452E+04  0.10743144452E+04  0.25500000920E-02 0. -1.
    10030    2    1    2    0    0  0.00000000000E+00  0.00000000000E+00  0.51244119702E+03  0.26610700873E+04  0.26112636844E+04 0.  0.
        2    1    3    3  502    0 -0.10776966438E+04  0.71570262401E+03  0.43568813990E+03  0.13650950360E+04  0.25500000920E-02 0.  1.
       -2    1    3    3    0  502  0.10776966438E+04 -0.71570262401E+03  0.76753057122E+02  0.12959750514E+04  0.25500000920E-02 0. -1.
</event>
<event>
 5   0  0.1086507E-05  0.2598413E+04  0.7818609E-02  0.8368740E-01
        2   -1    0    0  501    0  0.00000000000E+00  0.00000000000E+00  0.20713032514E+04  0.20713032514E+04  0.25500000920E-02 0.  1.
       -2   -1    0    0    0  501  0.00000000000E+00  0.00000000000E+00 -0.81491568281E+03  0.81491568281E+03  0.25500000920E-02 0. -1.
    10030    2    1    2    0    0  0.00000000000E+00  0.00000000000E+00  0.12563875686E+04  0.28862189342E+04  0.25984129798E+04 0.  0.
        2    1    3    3  502    0  0.77721890638E+03  0.30994061899E+03  0.17321623913E+04  0.19236733001E+04  0.25500000920E-02 0.  1.
       -2    1    3    3    0  502 -0.77721890638E+03 -0.30994061899E+03 -0.47577482273E+03  0.96254563408E+03  0.25500000920E-02 0. -1.
</event>
<event>
 5   0  0.1085255E-05  0.2654189E+04  0.7818609E-02  0.8350024E-01
       -2   -1    0    0    0  501  0.00000000000E+00  0.00000000000E+00  0.12174640294E+04  0.12174640294E+04  0.25500000920E-02 0.  1.
        2   -1    0    0  501    0  0.00000000000E+00  0.00000000000E+00 -0.14465972834E+04  0.14465972834E+04  0.25500000920E-02 0. -1.
    10030    2    1    2    0    0  0.00000000000E+00  0.00000000000E+00 -0.22913325405E+03  0.26640613128E+04  0.26541892604E+04 0.  0.
        5    1    3    3  502    0  0.47689488252E+03  0.16669796153E+03  0.11171656594E+04  0.12260905920E+04  0.46999998093E+01 0.  1.
       -5    1    3    3    0  502 -0.47689488252E+03 -0.16669796153E+03 -0.13462989135E+04  0.14379707208E+04  0.46999998093E+01 0. -1.
</event>
<event>
 5   0  0.1085061E-05  0.2623333E+04  0.7818609E-02  0.8360318E-01
       -2   -1    0    0    0  501  0.00000000000E+00  0.00000000000E+00  0.10779381629E+04  0.10779381629E+04  0.25500000920E-02 0. -1.
        2   -1    0    0  501    0  0.00000000000E+00  0.00000000000E+00 -0.15960742735E+04  0.15960742735E+04  0.25500000920E-02 0.  1.
    10030    2    1    2    0    0  0.00000000000E+00  0.00000000000E+00 -0.51813611054E+03  0.26740124364E+04  0.26233332768E+04 0.  0.
        1    1    3    3  502    0  0.15915143836E+03  0.35755306401E+03 -0.15351702823E+04  0.15842730729E+04  0.50400001928E-02 0.  1.
       -1    1    3    3    0  502 -0.15915143836E+03 -0.35755306401E+03  0.10170341717E+04  0.10897393635E+04  0.50400001928E-02 0. -1.
</event>
<event>
 5   0  0.1086507E-05  0.2617611E+04  0.7818609E-02  0.8362244E-01
       -2   -1    0    0    0  501  0.00000000000E+00  0.00000000000E+00  0.15227002012E+04  0.15227002012E+04  0.25500000920E-02 0.  1.
        2   -1    0    0  501    0  0.00000000000E+00  0.00000000000E+00 -0.11249568831E+04  0.11249568831E+04  0.25500000920E-02 0. -1.
    10030    2    1    2    0    0  0.00000000000E+00  0.00000000000E+00  0.39774331810E+03  0.26476570842E+04  0.26176111798E+04 0.  0.
        2    1    3    3  502    0 -0.84022629048E+03 -0.95121156102E+02  0.12093096004E+04  0.14756212127E+04  0.25500000920E-02 0.  1.
       -2    1    3    3    0  502  0.84022629048E+03  0.95121156102E+02 -0.81156628235E+03  0.11720358716E+04  0.25500000920E-02 0. -1.
</event>
<event>
 5   0  0.1085061E-05  0.2613609E+04  0.7818609E-02  0.8363593E-01
       -2   -1    0    0    0  501  0.00000000000E+00  0.00000000000E+00  0.14132431575E+04  0.14132431575E+04  0.25500000920E-02 0.  1.
        2   -1    0    0  501    0  0.00000000000E+00  0.00000000000E+00 -0.12083822379E+04  0.12083822379E+04  0.25500000920E-02 0. -1.
    10030    2    1    2    0    0  0.00000000000E+00  0.00000000000E+00  0.20486091966E+03  0.26216253954E+04  0.26136089450E+04 0.  0.
        1    1    3    3  502    0 -0.32928411245E+02 -0.29284980664E+02 -0.12076367550E+04  0.12084404919E+04  0.50400001928E-02 0. -1.
       -1    1    3    3    0  502  0.32928411245E+02  0.29284980664E+02  0.14124976747E+04  0.14131849035E+04  0.50400001928E-02 0.  1.
</event>
<event>
 5   0  0.4464297E-06  0.2596177E+04  0.7818609E-02  0.8369501E-01
        1   -1    0    0  501    0  0.00000000000E+00  0.00000000000E+00  0.10853947610E+04  0.10853947610E+04  0.50400001928E-02 0. -1.
       -1   -1    0    0    0  501  0.00000000000E+00  0.00000000000E+00 -0.15524620151E+04  0.15524620151E+04  0.50400001928E-02 0.  1.
    10030    2    1    2    0    0  0.00000000000E+00  0.00000000000E+00 -0.46706725413E+03  0.26378567762E+04  0.25961772959E+04 0.  0.
        4    1    3    3  502    0 -0.55799257631E+03 -0.36268858853E+03  0.89886948283E+03  0.11184215160E+04  0.12699999809E+01 0. -1.
       -4    1    3    3    0  502  0.55799257631E+03  0.36268858853E+03 -0.13659367370E+04  0.15194352601E+04  0.12699999809E+01 0.  1.
</event>
<event>
 5   0  0.4464297E-06  0.2611920E+04  0.7818609E-02  0.8364163E-01
        1   -1    0    0  501    0  0.00000000000E+00  0.00000000000E+00  0.15702110162E+04  0.15702110162E+04  0.50400001928E-02 0. -1.
       -1   -1    0    0    0  501  0.00000000000E+00  0.00000000000E+00 -0.10861800917E+04  0.10861800917E+04  0.50400001928E-02 0.  1.
    10030    2    1    2    0    0  0.00000000000E+00  0.00000000000E+00  0.48403092448E+03  0.26563911079E+04  0.26119203247E+04 0.  0.
        4    1    3    3  502    0 -0.10732049064E+04 -0.45931710822E+03 -0.35343516466E+03  0.12196962759E+04  0.12699999809E+01 0. -1.
       -4    1    3    3    0  502  0.10732049064E+04  0.45931710822E+03  0.83746608914E+03  0.14366948320E+04  0.12699999809E+01 0.  1.
</event>
<event>
 5   0  0.4464297E-06  0.2592181E+04  0.7818609E-02  0.8370862E-01
        1   -1    0    0  501    0  0.00000000000E+00  0.00000000000E+00  0.13787222533E+04  0.13787222533E+04  0.50400001928E-02 0.  1.
       -1   -1    0    0    0  501  0.00000000000E+00  0.00000000000E+00 -0.12184108930E+04  0.12184108930E+04  0.50400001928E-02 0. -1.
    10030    2    1    2    0    0  0.00000000000E+00  0.00000000000E+00  0.16031136033E+03  0.25971331463E+04  0.25921807127E+04 0.  0.
        4    1    3    3  502    0 -0.92337028621E+03  0.18353987035E+03 -0.81235993379E+03  0.12434749070E+04  0.12699999809E+01 0. -1.
       -4    1    3    3    0  502  0.92337028621E+03 -0.18353987035E+03  0.97267129412E+03  0.13536582393E+04  0.12699999809E+01 0.  1.
</event>
<event>
 5   0  0.1116310E-05  0.2600333E+04  0.7818609E-02  0.8368088E-01
       -2   -1    0    0    0  501  0.00000000000E+00  0.00000000000E+00  0.18583667184E+04  0.18583667184E+04  0.25500000920E-02 0. -1.
        2   -1    0    0  501    0  0.00000000000E+00  0.00000000000E+00 -0.90963343554E+03  0.90963343555E+03  0.25500000920E-02 0.  1.
    10030    2    1    2    0    0  0.00000000000E+00  0.00000000000E+00  0.94873328286E+03  0.27680001540E+04  0.26003326730E+04 0.  0.
        4    1    3    3  502    0  0.20522528379E+03 -0.48268697958E+03 -0.79201776699E+03  0.94994625821E+03  0.12699999809E+01 0.  1.
       -4    1    3    3    0  502 -0.20522528379E+03  0.48268697958E+03  0.17407510499E+04  0.18180538957E+04  0.12699999809E+01 0. -1.
</event>
<event>
 5   0  0.4597705E-06  0.2572254E+04  0.7818609E-02  0.8377688E-01
       -1   -1    0    0    0  501  0.00000000000E+00  0.00000000000E+00  0.11582130328E+04  0.11582130328E+04  0.50400001928E-02 0. -1.
        1   -1    0    0  501    0  0.00000000000E+00  0.00000000000E+00 -0.14281673562E+04  0.14281673562E+04  0.50400001928E-02 0.  1.
    10030    2    1    2    0    0  0.00000000000E+00  0.00000000000E+00 -0.26995432341E+03  0.25863803890E+04  0.25722535217E+04 0.  0.
        5    1    3    3  502    0  0.12105080569E+03 -0.42831556908E+03  0.10782948710E+04  0.11665545178E+04  0.46999998093E+01 0. -1.
       -5    1    3    3    0  502 -0.12105080569E+03  0.42831556908E+03 -0.13482491944E+04  0.14198258712E+04  0.46999998093E+01 0.  1.
</event>
<event>
 5   0  0.4415080E-06  0.2572967E+04  0.7818609E-02  0.8377442E-01
        1   -1    0    0  501    0  0.00000000000E+00  0.00000000000E+00  0.22490091112E+04  0.22490091112E+04  0.50400001928E-02 0. -1.
       -1   -1    0    0    0  501  0.00000000000E+00  0.00000000000E+00 -0.73589760623E+03  0.73589760625E+03  0.50400001928E-02 0.  1.
    10030    2    1    2    0    0  0.00000000000E+00  0.00000000000E+00  0.15131115049E+04  0.29849067174E+04  0.25729674863E+04 0.  0.
        2    1    3    3  502    0 -0.34689342992E+03  0.74302013167E+03  0.19065368214E+04  0.20754027607E+04  0.25500000920E-02 0. -1.
       -2    1    3    3    0  502  0.34689342992E+03 -0.74302013167E+03 -0.39342531641E+03  0.90950395677E+03  0.25500000920E-02 0.  1.
</event>
<event>
 5   0  0.4464297E-06  0.2615654E+04  0.7818609E-02  0.8362903E-01
       -1   -1    0    0    0  501  0.00000000000E+00  0.00000000000E+00  0.97083435741E+03  0.97083435742E+03  0.50400001928E-02 0.  1.
        1   -1    0    0  501    0  0.00000000000E+00  0.00000000000E+00 -0.17617957111E+04  0.17617957111E+04  0.50400001928E-02 0. -1.
    10030    2    1    2    0    0  0.00000000000E+00  0.00000000000E+00 -0.79096135366E+03  0.27326300685E+04  0.26156542639E+04 0.  0.
        4    1    3    3  502    0 -0.42965331423E+03  0.20532429475E+03  0.87704413129E+03  0.99798199261E+03  0.12699999809E+01 0.  1.
       -4    1    3    3    0  502  0.42965331423E+03 -0.20532429475E+03 -0.16680054849E+04  0.17346480759E+04  0.12699999809E+01 0. -1.
</event>
<event>
 5   0  0.4464297E-06  0.2603327E+04  0.7818609E-02  0.8367072E-01
       -1   -1    0    0    0  501  0.00000000000E+00  0.00000000000E+00  0.17974685170E+04  0.17974685170E+04  0.50400001928E-02 0. -1.
        1   -1    0    0  501    0  0.00000000000E+00  0.00000000000E+00 -0.94261908293E+03  0.94261908294E+03  0.50400001928E-02 0.  1.
    10030    2    1    2    0    0  0.00000000000E+00  0.00000000000E+00  0.85484943407E+03  0.27400876000E+04  0.26033271981E+04 0.  0.
        4    1    3    3  502    0 -0.74532069362E+03 -0.32521910540E+03 -0.64236309784E+03  0.10362926060E+04  0.12699999809E+01 0.  1.
       -4    1    3    3    0  502  0.74532069362E+03  0.32521910540E+03  0.14972125319E+04  0.17037949940E+04  0.12699999809E+01 0. -1.
</event>
<event>
 5   0  0.1136881E-05  0.2607087E+04  0.7818609E-02  0.8365798E-01
       -2   -1    0    0    0  501  0.00000000000E+00  0.00000000000E+00  0.19216142769E+04  0.19216142769E+04  0.25500000920E-02 0.  1.
        2   -1    0    0  501    0  0.00000000000E+00  0.00000000000E+00 -0.88427012864E+03  0.88427012865E+03  0.25500000920E-02 0. -1.
    10030    2    1    2    0    0  0.00000000000E+00  0.00000000000E+00  0.10373441483E+04  0.28058844056E+04  0.26070873433E+04 0.  0.
        3    1    3    3  502    0  0.10961985309E+04  0.40875413575E+03  0.11373955515E+04  0.16316861872E+04  0.10100000352E+00 0.  1.
       -3    1    3    3    0  502 -0.10961985309E+04 -0.40875413575E+03 -0.10005140320E+03  0.11741982184E+04  0.10100000352E+00 0. -1.
</event>
<event>
 5   0  0.4415080E-06  0.2590610E+04  0.7818609E-02  0.8371398E-01
       -1   -1    0    0    0  501  0.00000000000E+00  0.00000000000E+00  0.77809723550E+03  0.77809723551E+03  0.50400001928E-02 0. -1.
        1   -1    0    0  501    0  0.00000000000E+00  0.00000000000E+00 -0.21563046466E+04  0.21563046466E+04  0.50400001928E-02 0.  1.
    10030    2    1    2    0    0  0.00000000000E+00  0.00000000000E+00 -0.13782074111E+04  0.29344018821E+04  0.25906097232E+04 0.  0.
        2    1    3    3  502    0 -0.57810141606E+03  0.11271591374E+04 -0.38279970613E+03  0.13233384236E+04  0.25500000920E-02 0. -1.
       -2    1    3    3    0  502  0.57810141606E+03 -0.11271591374E+04 -0.99540770498E+03  0.16110634585E+04  0.25500000920E-02 0.  1.
</event>
<event>
 5   0  0.1136881E-05  0.2591762E+04  0.7818609E-02  0.8371005E-01
       -2   -1    0    0    0  501  0.00000000000E+00  0.00000000000E+00  0.16177211156E+04  0.16177211156E+04  0.25500000920E-02 0. -1.
        2   -1    0    0  501    0  0.00000000000E+00  0.00000000000E+00 -0.10380698817E+04  0.10380698817E+04  0.25500000920E-02 0.  1.
    10030    2    1    2    0    0  0.00000000000E+00  0.00000000000E+00  0.57965123384E+03  0.26557909973E+04  0.25917620007E+04 0.  0.
        3    1    3    3  502    0  0.81721603801E+02 -0.12270391668E+04 -0.12893153566E+03  0.12364978320E+04  0.10100000352E+00 0. -1.
       -3    1    3    3    0  502 -0.81721603801E+02  0.12270391668E+04  0.70858276950E+03  0.14192931653E+04  0.10100000352E+00 0.  1.
</event>
<event>
 5   0  0.4597705E-06  0.2600017E+04  0.7818609E-02  0.8368196E-01
        1   -1    0    0  501    0  0.00000000000E+00  0.00000000000E+00  0.10737419959E+04  0.10737419959E+04  0.50400001928E-02 0. -1.
       -1   -1    0    0    0  501  0.00000000000E+00  0.00000000000E+00 -0.15739548939E+04  0.15739548939E+04  0.50400001928E-02 0.  1.
    10030    2    1    2    0    0  0.00000000000E+00  0.00000000000E+00 -0.50021289801E+03  0.26476968898E+04  0.26000165147E+04 0.  0.
        5    1    3    3  502    0 -0.64155512345E+03 -0.40040616703E+01  0.90128739738E+03  0.11063227701E+04  0.46999998093E+01 0. -1.
       -5    1    3    3    0  502  0.64155512345E+03  0.40040616703E+01 -0.14015002954E+04  0.15413741197E+04  0.46999998093E+01 0.  1.
</event>
<event>
 5   0  0.1136881E-05  0.2606234E+04  0.7818609E-02  0.8366087E-01
        2   -1    0    0  501    0  0.00000000000E+00  0.00000000000E+00  0.13386750933E+04  0.13386750933E+04  0.25500000920E-02 0. -1.
       -2   -1    0    0    0  501  0.00000000000E+00  0.00000000000E+00 -0.12685034461E+04  0.12685034461E+04  0.25500000920E-02 0.  1.
    10030    2    1    2    0    0  0.00000000000E+00  0.00000000000E+00  0.70171647230E+02  0.26071785394E+04  0.26062340410E+04 0.  0.
        3    1    3    3  502    0 -0.10264966545E+04  0.89706276164E+02  0.83310379737E+03  0.13250677511E+04  0.10100000352E+00 0. -1.
       -3    1    3    3    0  502  0.10264966545E+04 -0.89706276164E+02 -0.76293215014E+03  0.12821107883E+04  0.10100000352E+00 0.  1.
</event>
<event>
 5   0  0.4361864E-06  0.2632227E+04  0.7818609E-02  0.8357336E-01
       -1   -1    0    0    0  501  0.00000000000E+00  0.00000000000E+00  0.18148693554E+04  0.18148693554E+04  0.50400001928E-02 0.  1.
        1   -1    0    0  501    0  0.00000000000E+00  0.00000000000E+00 -0.95442358747E+03  0.95442358748E+03  0.50400001928E-02 0. -1.
    10030    2    1    2    0    0  0.00000000000E+00  0.00000000000E+00  0.86044576791E+03  0.27692929429E+04  0.26322265259E+04 0.  0.
        3    1    3    3  502    0 -0.35177365158E+03  0.44544056426E+03  0.16794861766E+04  0.17728045086E+04  0.10100000352E+00 0.  1.
       -3    1    3    3    0  502  0.35177365158E+03 -0.44544056426E+03 -0.81904040871E+03  0.99648843422E+03  0.10100000352E+00 0. -1.
</event>
<event>
 5   0  0.4597705E-06  0.2511663E+04  0.7818609E-02  0.8398842E-01
        1   -1    0    0  501    0  0.00000000000E+00  0.00000000000E+00  0.18127151263E+04  0.18127151263E+04  0.50400001928E-02 0.  1.
       -1   -1    0    0    0  501  0.00000000000E+00  0.00000000000E+00 -0.87002773728E+03  0.87002773730E+03  0.50400001928E-02 0. -1.
    10030    2    1    2    0    0  0.00000000000E+00  0.00000000000E+00  0.94268738906E+03  0.26827428636E+04  0.25116627479E+04 0.  0.
        5    1    3    3  502    0  0.62581058803E+02 -0.33029695204E+03 -0.82106483080E+03  0.88723278333E+03  0.46999998093E+01 0. -1.
       -5    1    3    3    0  502 -0.62581058803E+02  0.33029695204E+03  0.17637522199E+04  0.17955100803E+04  0.46999998093E+01 0.  1.
</event>
<event>
 5   0  0.1085255E-05  0.2597547E+04  0.7818609E-02  0.8369035E-01
       -2   -1    0    0    0  501  0.00000000000E+00  0.00000000000E+00  0.88802525832E+03  0.88802525833E+03  0.25500000920E-02 0.  1.
        2   -1    0    0  501    0  0.00000000000E+00  0.00000000000E+00 -0.18995098601E+04  0.18995098601E+04  0.25500000920E-02 0. -1.
    10030    2    1    2    0    0  0.00000000000E+00  0.00000000000E+00 -0.10114846018E+04  0.27875351184E+04  0.25975471000E+04 0.  0.
        5    1    3    3  502    0 -0.19826299637E+03  0.98547987498E+03  0.37678960058E+03  0.10735321573E+04  0.46999998093E+01 0.  1.
       -5    1    3    3    0  502  0.19826299637E+03 -0.98547987498E+03 -0.13882742024E+04  0.17140029611E+04  0.46999998093E+01 0. -1.
</event>
<event>
 5   0  0.4361864E-06  0.2601464E+04  0.7818609E-02  0.8367704E-01
        1   -1    0    0  501    0  0.00000000000E+00  0.00000000000E+00  0.16208701040E+04  0.16208701040E+04  0.50400001928E-02 0.  1.
       -1   -1    0    0    0  501  0.00000000000E+00  0.00000000000E+00 -0.10438247178E+04  0.10438247179E+04  0.50400001928E-02 0. -1.
    10030    2    1    2    0    0  0.00000000000E+00  0.00000000000E+00  0.57704538620E+03  0.26646948219E+04  0.26014644176E+04 0.  0.
        3    1    3    3  502    0 -0.10201270703E+04 -0.80691412552E+03  0.30040743400E+03  0.13349210771E+04  0.10100000352E+00 0. -1.
       -3    1    3    3    0  502  0.10201270703E+04  0.80691412552E+03  0.27663795220E+03  0.13297737448E+04  0.10100000352E+00 0.  1.
</event>
<event>
 5   0  0.4415080E-06  0.2614972E+04  0.7818609E-02  0.8363133E-01
        1   -1    0    0  501    0  0.00000000000E+00  0.00000000000E+00  0.12438148001E+04  0.12438148001E+04  0.50400001928E-02 0. -1.
       -1   -1    0    0    0  501  0.00000000000E+00  0.00000000000E+00 -0.13744162099E+04  0.13744162099E+04  0.50400001928E-02 0.  1.
    10030    2    1    2    0    0  0.00000000000E+00  0.00000000000E+00 -0.13060140974E+03  0.26182310100E+04  0.26149716812E+04 0.  0.
        2    1    3    3  502    0  0.69043930858E+03  0.33954928483E+03  0.99314465478E+03  0.12563186144E+04  0.25500000920E-02 0. -1.
       -2    1    3    3    0  502 -0.69043930858E+03 -0.33954928483E+03 -0.11237460645E+04  0.13619123956E+04  0.25500000920E-02 0.  1.
</event>
<event>
 5   0  0.1086507E-05  0.2648821E+04  0.7818609E-02  0.8351804E-01
       -2   -1    0    0    0  501  0.00000000000E+00  0.00000000000E+00  0.20253893198E+04  0.20253893198E+04  0.25500000920E-02 0. -1.
        2   -1    0    0  501    0  0.00000000000E+00  0.00000000000E+00 -0.86603745507E+03  0.86603745508E+03  0.25500000920E-02 0.  1.
    10030    2    1    2    0    0  0.00000000000E+00  0.00000000000E+00  0.11593518647E+04  0.28914267749E+04  0.26488208789E+04 0.  0.
        2    1    3    3  502    0 -0.39466889675E+03  0.37471683458E+03 -0.73834256236E+03  0.91723823708E+03  0.25500000920E-02 0.  1.
       -2    1    3    3    0  502  0.39466889675E+03 -0.37471683458E+03  0.18976944271E+04  0.19741885378E+04  0.25500000920E-02 0. -1.
</event>
<event>
 5   0  0.1086507E-05  0.2601550E+04  0.7818609E-02  0.8367675E-01
        2   -1    0    0  501    0  0.00000000000E+00  0.00000000000E+00  0.13143662686E+04  0.13143662686E+04  0.25500000920E-02 0. -1.
       -2   -1    0    0    0  501  0.00000000000E+00  0.00000000000E+00 -0.12873242761E+04  0.12873242761E+04  0.25500000920E-02 0.  1.
    10030    2    1    2    0    0  0.00000000000E+00  0.00000000000E+00  0.27041992475E+02  0.26016905447E+04  0.26015500036E+04 0.  0.
        2    1    3    3  502    0 -0.73510998521E+03  0.52382808065E+03  0.95017879889E+03  0.13105809011E+04  0.25500000920E-02 0. -1.
       -2    1    3    3    0  502  0.73510998521E+03 -0.52382808065E+03 -0.92313680642E+03  0.12911096436E+04  0.25500000920E-02 0.  1.
</event>
<event>
 5   0  0.1116310E-05  0.2597644E+04  0.7818609E-02  0.8369002E-01
        2   -1    0    0  501    0  0.00000000000E+00  0.00000000000E+00  0.21385575557E+04  0.21385575557E+04  0.25500000920E-02 0. -1.
       -2   -1    0    0    0  501  0.00000000000E+00  0.00000000000E+00 -0.78882048733E+03  0.78882048734E+03  0.25500000920E-02 0.  1.
    10030    2    1    2    0    0  0.00000000000E+00  0.00000000000E+00  0.13497370684E+04  0.29273780431E+04  0.25976435578E+04 0.  0.
        4    1    3    3  502    0 -0.45620731162E+03 -0.40738749968E+03  0.19661064313E+04  0.20590448752E+04  0.12699999809E+01 0. -1.
       -4    1    3    3    0  502  0.45620731162E+03  0.40738749968E+03 -0.61636936287E+03  0.86833316789E+03  0.12699999809E+01 0.  1.
</event>
<event>
 5   0  0.1085061E-05  0.2533172E+04  0.7818609E-02  0.8391262E-01
       -2   -1    0    0    0  501  0.00000000000E+00  0.00000000000E+00  0.72123317479E+03  0.72123317479E+03  0.25500000920E-02 0.  1.
        2   -1    0    0  501    0  0.00000000000E+00  0.00000000000E+00 -0.22243018080E+04  0.22243018080E+04  0.25500000920E-02 0. -1.
    10030    2    1    2    0    0  0.00000000000E+00  0.00000000000E+00 -0.15030686332E+04  0.29455349828E+04  0.25331721258E+04 0.  0.
        1    1    3    3  502    0  0.92894878407E+03 -0.46343499899E+03  0.92204279390E+02  0.10422185332E+04  0.50400001928E-02 0.  1.
       -1    1    3    3    0  502 -0.92894878407E+03  0.46343499899E+03 -0.15952729126E+04  0.19033164496E+04  0.50400001928E-02 0. -1.
</event>
<event>
 5   0  0.4415080E-06  0.2617247E+04  0.7818609E-02  0.8362366E-01
        1   -1    0    0  501    0  0.00000000000E+00  0.00000000000E+00  0.16655921067E+04  0.16655921067E+04  0.50400001928E-02 0. -1.
       -1   -1    0    0    0  501  0.00000000000E+00  0.00000000000E+00 -0.10281599504E+04  0.10281599504E+04  0.50400001928E-02 0.  1.
    10030    2    1    2    0    0  0.00000000000E+00  0.00000000000E+00  0.63743215628E+03  0.26937520572E+04  0.26172467197E+04 0.  0.
        2    1    3    3  502    0 -0.12516294571E+04 -0.23647802993E+03  0.99519563311E+01  0.12738120733E+04  0.25500000920E-02 0. -1.
       -2    1    3    3    0  502  0.12516294571E+04  0.23647802993E+03  0.62748019995E+03  0.14199399839E+04  0.25500000920E-02 0.  1.
</event>
<event>
 5   0  0.1116310E-05  0.2625165E+04  0.7818609E-02  0.8359703E-01
       -2   -1    0    0    0  501  0.00000000000E+00  0.00000000000E+00  0.14264836489E+04  0.14264836489E+04  0.25500000920E-02 0. -1.
        2   -1    0    0  501    0  0.00000000000E+00  0.00000000000E+00 -0.12077759503E+04  0.12077759503E+04  0.25500000920E-02 0.  1.
    10030    2    1    2    0    0  0.00000000000E+00  0.00000000000E+00  0.21870769859E+03  0.26342595992E+04  0.26251648670E+04 0.  0.
        4    1    3    3  502    0  0.13373995955E+03 -0.12709130582E+04  0.40999932125E+03  0.13420906954E+04  0.12699999809E+01 0.  1.
       -4    1    3    3    0  502 -0.13373995955E+03  0.12709130582E+04 -0.19129162266E+03  0.12921689039E+04  0.12699999809E+01 0. -1.
</event>
<event>
 5   0  0.1136881E-05  0.2569930E+04  0.7818609E-02  0.8378488E-01
       -2   -1    0    0    0  501  0.00000000000E+00  0.00000000000E+00  0.16090281355E+04  0.16090281355E+04  0.25500000920E-02 0. -1.
        2   -1    0    0  501    0  0.00000000000E+00  0.00000000000E+00 -0.10261693096E+04  0.10261693096E+04  0.25500000920E-02 0.  1.
    10030    2    1    2    0    0  0.00000000000E+00  0.00000000000E+00  0.58285882585E+03  0.26351974451E+04  0.25699301865E+04 0.  0.
        3    1    3    3  502    0 -0.38175867159E+03 -0.16460533767E+03 -0.95530292227E+03  0.10418436946E+04  0.10100000352E+00 0.  1.
       -3    1    3    3    0  502  0.38175867159E+03  0.16460533767E+03  0.15381617481E+04  0.15933537505E+04  0.10100000352E+00 0. -1.
</event>
<event>
 5   0  0.4361864E-06  0.2606425E+04  0.7818609E-02  0.8366022E-01
       -1   -1    0    0    0  501  0.00000000000E+00  0.00000000000E+00  0.11751740218E+04  0.11751740218E+04  0.50400001928E-02 0. -1.
        1   -1    0    0  501    0  0.00000000000E+00  0.00000000000E+00 -0.14452012786E+04  0.14452012786E+04  0.50400001928E-02 0.  1.
    10030    2    1    2    0    0  0.00000000000E+00  0.00000000000E+00 -0.27002725677E+03  0.26203753005E+04  0.26064251372E+04 0.  0.
        3    1    3    3  502    0 -0.31763865110E+03 -0.60531818730E+03 -0.12504828697E+04  0.14251357263E+04  0.10100000352E+00 0.  1.
       -3    1    3    3    0  502  0.31763865110E+03  0.60531818730E+03  0.98045561297E+03  0.11952395742E+04  0.10100000352E+00 0. -1.
</event>
<event>
 5   0  0.1085255E-05  0.2518902E+04  0.7818609E-02  0.8396282E-01
        2   -1    0    0  501    0  0.00000000000E+00  0.00000000000E+00  0.19813167682E+04  0.19813167682E+04  0.25500000920E-02 0.  1.
       -2   -1    0    0    0  501  0.00000000000E+00  0.00000000000E+00 -0.80058704159E+03  0.80058704160E+03  0.25500000920E-02 0. -1.
    10030    2    1    2    0    0  0.00000000000E+00  0.00000000000E+00  0.11807297267E+04  0.27819038098E+04  0.25189017686E+04 0.  0.
        5    1    3    3  502    0 -0.17263285908E+03 -0.12238691044E+04  0.32315949079E+03  0.12775413242E+04  0.46999998093E+01 0.  1.
       -5    1    3    3    0  502  0.17263285908E+03  0.12238691044E+04  0.85757023587E+03  0.15043624856E+04  0.46999998093E+01 0. -1.
</event>
<event>
 5   0  0.4464297E-06  0.2597758E+04  0.7818609E-02  0.8368963E-01
        1   -1    0    0  501    0  0.00000000000E+00  0.00000000000E+00  0.10040108489E+04  0.10040108490E+04  0.50400001928E-02 0. -1.
       -1   -1    0    0    0  501  0.00000000000E+00  0.00000000000E+00 -0.16803474405E+04  0.16803474405E+04  0.50400001928E-02 0.  1.
    10030    2    1    2    0    0  0.00000000000E+00  0.00000000000E+00 -0.67633659154E+03  0.26843582895E+04  0.25977583108E+04 0.  0.
        4    1    3    3  502    0  0.53152332871E+03  0.57218317048E+03 -0.14106375116E+04  0.16123927659E+04  0.12699999809E+01 0.  1.
       -4    1    3    3    0  502 -0.53152332871E+03 -0.57218317048E+03  0.73430092007E+03  0.10719655235E+04  0.12699999809E+01 0. -1.
</event>
<event>
 5   0  0.1085061E-05  0.2612825E+04  0.7818609E-02  0.8363858E-01
        2   -1    0    0  501    0  0.00000000000E+00  0.00000000000E+00  0.20450873719E+04  0.20450873719E+04  0.25500000920E-02 0. -1.
       -2   -1    0    0    0  501  0.00000000000E+00  0.00000000000E+00 -0.83454320375E+03  0.83454320375E+03  0.25500000920E-02 0.  1.
    10030    2    1    2    0    0  0.00000000000E+00  0.00000000000E+00  0.12105441682E+04  0.28796305757E+04  0.26128251126E+04 0.  0.
        1    1    3    3  502    0  0.86553376571E+03 -0.81871078846E+03  0.14557896540E+02  0.11914898183E+04  0.50400001928E-02 0. -1.
       -1    1    3    3    0  502 -0.86553376571E+03  0.81871078846E+03  0.11959862716E+04  0.16881407574E+04  0.50400001928E-02 0.  1.
</event>
<event>
 5   0  0.1086507E-05  0.2609721E+04  0.7818609E-02  0.8364907E-01
        2   -1    0    0  501    0  0.00000000000E+00  0.00000000000E+00  0.18975387018E+04  0.18975387018E+04  0.25500000920E-02 0. -1.
       -2   -1    0    0    0  501  0.00000000000E+00  0.00000000000E+00 -0.89729975967E+03  0.89729975968E+03  0.25500000920E-02 0.  1.
    10030    2    1    2    0    0  0.00000000000E+00  0.00000000000E+00  0.10002389422E+04  0.27948384615E+04  0.26097210741E+04 0.  0.
        2    1    3    3  502    0 -0.90778250165E+03  0.92420948642E+03  0.33273565202E+03  0.13375145828E+04  0.25500000920E-02 0. -1.
       -2    1    3    3    0  502  0.90778250165E+03 -0.92420948642E+03  0.66750329013E+03  0.14573238787E+04  0.25500000920E-02 0.  1.
</event>
<event>
 5   0  0.4597705E-06  0.2586177E+04  0.7818609E-02  0.8372912E-01
       -1   -1    0    0    0  501  0.00000000000E+00  0.00000000000E+00  0.10362683882E+04  0.10362683882E+04  0.50400001928E-02 0.  1.
        1   -1    0    0  501    0  0.00000000000E+00  0.00000000000E+00 -0.16135572156E+04  0.16135572156E+04  0.50400001928E-02 0. -1.
    10030    2    1    2    0    0  0.00000000000E+00  0.00000000000E+00 -0.57728882740E+03  0.26498256038E+04  0.25861773606E+04 0.  0.
        5    1    3    3  502    0 -0.12923424638E+04  0.30710827010E+02 -0.32045765767E+03  0.13318436091E+04  0.46999998093E+01 0. -1.
       -5    1    3    3    0  502  0.12923424638E+04 -0.30710827010E+02 -0.25683116973E+03  0.13179819947E+04  0.46999998093E+01 0.  1.
</event>
<event>
 5   0  0.1116310E-05  0.2603471E+04  0.7818609E-02  0.8367023E-01
       -2   -1    0    0    0  501  0.00000000000E+00  0.00000000000E+00  0.96849158882E+03  0.96849158882E+03  0.25500000920E-02 0. -1.
        2   -1    0    0  501    0  0.00000000000E+00  0.00000000000E+00 -0.17496439542E+04  0.17496439542E+04  0.25500000920E-02 0.  1.
    10030    2    1    2    0    0  0.00000000000E+00  0.00000000000E+00 -0.78115236541E+03  0.27181355431E+04  0.26034711084E+04 0.  0.
        4    1    3    3  502    0 -0.84334670253E+02 -0.23526073281E+02  0.96541331484E+03  0.96937623970E+03  0.12699999809E+01 0. -1.
       -4    1    3    3    0  502  0.84334670253E+02  0.23526073281E+02 -0.17465656802E+04  0.17487593033E+04  0.12699999809E+01 0.  1.
</event>
<event>
 5   0  0.1085255E-05  0.2632919E+04  0.7818609E-02  0.8357105E-01
        2   -1    0    0  501    0  0.00000000000E+00  0.00000000000E+00  0.67812347654E+03  0.67812347655E+03  0.25500000920E-02 0.  1.
       -2   -1    0    0    0  501  0.00000000000E+00  0.00000000000E+00 -0.25556785929E+04  0.25556785929E+04  0.25500000920E-02 0. -1.
    10030    2    1    2    0    0  0.00000000000E+00  0.00000000000E+00 -0.18775551164E+04  0.32338020695E+04  0.26329190283E+04 0.  0.
        5    1    3    3  502    0  0.12882636329E+03  0.10654562797E+04 -0.23859640111E+01  0.10732292853E+04  0.46999998093E+01 0.  1.
       -5    1    3    3    0  502 -0.12882636329E+03 -0.10654562797E+04 -0.18751691524E+04  0.21605727842E+04  0.46999998093E+01 0. -1.
</event>
<event>
 5   0  0.4464297E-06  0.2380293E+04  0.7818609E-02  0.8446919E-01
       -1   -1    0    0    0  501  0.00000000000E+00  0.00000000000E+00  0.15471440876E+04  0.15471440876E+04  0.50400001928E-02 0.  1.
        1   -1    0    0  501    0  0.00000000000E+00  0.00000000000E+00 -0.91552458728E+03  0.91552458729E+03  0.50400001928E-02 0. -1.
    10030    2    1    2    0    0  0.00000000000E+00  0.00000000000E+00  0.63161950034E+03  0.24626686749E+04  0.23802927991E+04 0.  0.
        4    1    3    3  502    0 -0.11865125878E+04  0.14346460911E+02  0.41079605426E+03  0.12556962025E+04  0.12699999809E+01 0. -1.
       -4    1    3    3    0  502  0.11865125878E+04 -0.14346460911E+02  0.22082344608E+03  0.12069724724E+04  0.12699999809E+01 0.  1.
</event>
<event>
 5   0  0.1136881E-05  0.2614766E+04  0.7818609E-02  0.8363203E-01
        2   -1    0    0  501    0  0.00000000000E+00  0.00000000000E+00  0.14908706355E+04  0.14908706355E+04  0.25500000920E-02 0.  1.
       -2   -1    0    0    0  501  0.00000000000E+00  0.00000000000E+00 -0.11464779775E+04  0.11464779775E+04  0.25500000920E-02 0. -1.
    10030    2    1    2    0    0  0.00000000000E+00  0.00000000000E+00  0.34439265797E+03  0.26373486131E+04  0.26147660324E+04 0.  0.
        3    1    3    3  502    0 -0.15042122735E+03  0.10479165257E+04  0.94595584281E+03  0.14197140759E+04  0.10100000352E+00 0. -1.
       -3    1    3    3    0  502  0.15042122735E+03 -0.10479165257E+04 -0.60156318484E+03  0.12176345372E+04  0.10100000352E+00 0.  1.
</event>
<event>
 5   0  0.3705250E-06  0.2517060E+04  0.7818609E-02  0.8396933E-01
        3   -1    0    0  501    0  0.00000000000E+00  0.00000000000E+00  0.15380902475E+04  0.15380902508E+04  0.10100000352E+00 0. -1.
       -3   -1    0    0    0  501  0.00000000000E+00  0.00000000000E+00 -0.10297820059E+04  0.10297820109E+04  0.10100000352E+00 0.  1.
    10030    2    1    2    0    0  0.00000000000E+00  0.00000000000E+00  0.50830824158E+03  0.25678722617E+04  0.25170599285E+04 0.  0.
        2    1    3    3  502    0 -0.56132492240E+03 -0.78729305434E+03 -0.56770251975E+03  0.11212502722E+04  0.25500000920E-02 0.  1.
       -2    1    3    3    0  502  0.56132492240E+03  0.78729305434E+03  0.10760107613E+04  0.14466219895E+04  0.25500000920E-02 0. -1.
</event>
<event>
 5   0  0.4361864E-06  0.2566946E+04  0.7818609E-02  0.8379516E-01
        1   -1    0    0  501    0  0.00000000000E+00  0.00000000000E+00  0.19608976784E+04  0.19608976784E+04  0.50400001928E-02 0. -1.
       -1   -1    0    0    0  501  0.00000000000E+00  0.00000000000E+00 -0.84007573344E+03  0.84007573345E+03  0.50400001928E-02 0.  1.
    10030    2    1    2    0    0  0.00000000000E+00  0.00000000000E+00  0.11208219449E+04  0.28009734118E+04  0.25669456990E+04 0.  0.
        3    1    3    3  502    0 -0.42019550752E+02 -0.11825137242E+04  0.17891973210E+02  0.11833953200E+04  0.10100000352E+00 0.  1.
       -3    1    3    3    0  502  0.42019550752E+02  0.11825137242E+04  0.11029299717E+04  0.16175780918E+04  0.10100000352E+00 0. -1.
</event>
<event>
 5   0  0.4361864E-06  0.2577306E+04  0.7818609E-02  0.8375951E-01
        1   -1    0    0  501    0  0.00000000000E+00  0.00000000000E+00  0.70124204479E+03  0.70124204481E+03  0.50400001928E-02 0. -1.
       -1   -1    0    0    0  501  0.00000000000E+00  0.00000000000E+00 -0.23681219729E+04  0.23681219729E+04  0.50400001928E-02 0.  1.
    10030    2    1    2    0    0  0.00000000000E+00  0.00000000000E+00 -0.16668799281E+04  0.30693640177E+04  0.25773061088E+04 0.  0.
        3    1    3    3  502    0  0.65222515683E+03  0.88052515847E+03 -0.16410769733E+04  0.19732855476E+04  0.10100000352E+00 0.  1.
       -3    1    3    3    0  502 -0.65222515683E+03 -0.88052515847E+03 -0.25802954775E+02  0.10960784701E+04  0.10100000352E+00 0. -1.
</event>
<event>
 5   0  0.4218590E-06  0.2578992E+04  0.7818609E-02  0.8375372E-01
       -1   -1    0    0    0  501  0.00000000000E+00  0.00000000000E+00  0.90592181040E+03  0.90592181041E+03  0.50400001928E-02 0.  1.
        1   -1    0    0  501    0  0.00000000000E+00  0.00000000000E+00 -0.18354786680E+04  0.18354786680E+04  0.50400001928E-02 0. -1.
    10030    2    1    2    0    0  0.00000000000E+00  0.00000000000E+00 -0.92955685763E+03  0.27414004784E+04  0.25789921736E+04 0.  0.
        1    1    3    3  502    0  0.33033888448E+03  0.93978491073E+03 -0.13351718521E+04  0.16658341249E+04  0.50400001928E-02 0. -1.
       -1    1    3    3    0  502 -0.33033888448E+03 -0.93978491073E+03  0.40561499449E+03  0.10755663535E+04  0.50400001928E-02 0.  1.
</event>
<event>
 5   0  0.1136881E-05  0.2593414E+04  0.7818609E-02  0.8370442E-01
       -2   -1    0    0    0  501  0.00000000000E+00  0.00000000000E+00  0.11671023429E+04  0.11671023429E+04  0.25500000920E-02 0. -1.
        2   -1    0    0  501    0  0.00000000000E+00  0.00000000000E+00 -0.14407039054E+04  0.14407039054E+04  0.25500000920E-02 0.  1.
    10030    2    1    2    0    0  0.00000000000E+00  0.00000000000E+00 -0.27360156247E+03  0.26078062483E+04  0.25934138917E+04 0.  0.
        3    1    3    3  502    0  0.28217489639E+03 -0.82255733037E+03 -0.11040253575E+04  0.14053808146E+04  0.10100000352E+00 0.  1.
       -3    1    3    3    0  502 -0.28217489639E+03  0.82255733037E+03  0.83042379503E+03  0.12024254336E+04  0.10100000352E+00 0. -1.
</event>
<event>
 5   0  0.3705250E-06  0.2619984E+04  0.7818609E-02  0.8361445E-01
       -3   -1    0    0    0  501  0.00000000000E+00  0.00000000000E+00  0.14467420422E+04  0.14467420458E+04  0.10100000352E+00 0. -1.
        3   -1    0    0  501    0  0.00000000000E+00  0.00000000000E+00 -0.11861677585E+04  0.11861677628E+04  0.10100000352E+00 0.  1.
    10030    2    1    2    0    0  0.00000000000E+00  0.00000000000E+00  0.26057428371E+03  0.26329098086E+04  0.26199837982E+04 0.  0.
        3    1    3    3  502    0  0.60945717008E+03  0.87047344147E+03 -0.63959742587E+03  0.12402608322E+04  0.10100000352E+00 0.  1.
       -3    1    3    3    0  502 -0.60945717008E+03 -0.87047344147E+03  0.90017170958E+03  0.13926489764E+04  0.10100000352E+00 0. -1.
</event>
<event>
 5   0  0.1136881E-05  0.2526155E+04  0.7818609E-02  0.8393727E-01
       -2   -1    0    0    0  501  0.00000000000E+00  0.00000000000E+00  0.16531936217E+04  0.16531936217E+04  0.25500000920E-02 0.  1.
        2   -1    0    0  501    0  0.00000000000E+00  0.00000000000E+00 -0.96501992469E+03  0.96501992470E+03  0.25500000920E-02 0. -1.
    10030    2    1    2    0    0  0.00000000000E+00  0.00000000000E+00  0.68817369699E+03  0.26182135464E+04  0.25261550105E+04 0.  0.
        3    1    3    3  502    0 -0.49309700428E+03 -0.11601779081E+04  0.42574467931E+03  0.13305697938E+04  0.10100000352E+00 0.  1.
       -3    1    3    3    0  502  0.49309700428E+03  0.11601779081E+04  0.26242901768E+03  0.12876437526E+04  0.10100000352E+00 0. -1.
</event>
<event>
 5   0  0.1085255E-05  0.2522085E+04  0.7818609E-02  0.8395160E-01
       -2   -1    0    0    0  501  0.00000000000E+00  0.00000000000E+00  0.81861781849E+03  0.81861781850E+03  0.25500000920E-02 0.  1.
        2   -1    0    0  501    0  0.00000000000E+00  0.00000000000E+00 -0.19425775429E+04  0.19425775429E+04  0.25500000920E-02 0. -1.
    10030    2    1    2    0    0  0.00000000000E+00  0.00000000000E+00 -0.11239597244E+04  0.27611953614E+04  0.25220853201E+04 0.  0.
        5    1    3    3  502    0 -0.98969105417E+03  0.60834697170E+03 -0.24930601415E+02  0.11619888319E+04  0.46999998093E+01 0.  1.
       -5    1    3    3    0  502  0.98969105417E+03 -0.60834697170E+03 -0.10990291230E+04  0.15992065295E+04  0.46999998093E+01 0. -1.
</event>
<event>
 5   0  0.4415080E-06  0.2637852E+04  0.7818609E-02  0.8355456E-01
        1   -1    0    0  501    0  0.00000000000E+00  0.00000000000E+00  0.16537018285E+04  0.16537018285E+04  0.50400001928E-02 0.  1.
       -1   -1    0    0    0  501  0.00000000000E+00  0.00000000000E+00 -0.10519219172E+04  0.10519219172E+04  0.50400001928E-02 0. -1.
    10030    2    1    2    0    0  0.00000000000E+00  0.00000000000E+00  0.60177991131E+03  0.27056237458E+04  0.26378515485E+04 0.  0.
        2    1    3    3  502    0 -0.10118441277E+04  0.71905954382E+03  0.75808876463E+03  0.14545012002E+04  0.25500000920E-02 0.  1.
       -2    1    3    3    0  502  0.10118441277E+04 -0.71905954382E+03 -0.15630885333E+03  0.12511225456E+04  0.25500000920E-02 0. -1.
</event>
<event>
 5   0  0.4464297E-06  0.2595882E+04  0.7818609E-02  0.8369601E-01
        1   -1    0    0  501    0  0.00000000000E+00  0.00000000000E+00  0.20674185013E+04  0.20674185013E+04  0.50400001928E-02 0. -1.
       -1   -1    0    0    0  501  0.00000000000E+00  0.00000000000E+00 -0.81485690311E+03  0.81485690312E+03  0.50400001928E-02 0.  1.
    10030    2    1    2    0    0  0.00000000000E+00  0.00000000000E+00  0.12525615982E+04  0.28822754045E+04  0.25958815362E+04 0.  0.
        4    1    3    3  502    0  0.27939143101E+03  0.11224267202E+04  0.12800992269E+04  0.17252701115E+04  0.12699999809E+01 0.  1.
       -4    1    3    3    0  502 -0.27939143101E+03 -0.11224267202E+04 -0.27537628679E+02  0.11570052930E+04  0.12699999809E+01 0. -1.
</event>
<event>
 5   0  0.1086507E-05  0.2606932E+04  0.7818609E-02  0.8365850E-01
        2   -1    0    0  501    0  0.00000000000E+00  0.00000000000E+00  0.22910181797E+04  0.22910181797E+04  0.25500000920E-02 0. -1.
       -2   -1    0    0    0  501  0.00000000000E+00  0.00000000000E+00 -0.74160188018E+03  0.74160188018E+03  0.25500000920E-02 0.  1.
    10030    2    1    2    0    0  0.00000000000E+00  0.00000000000E+00  0.15494162995E+04  0.30326200598E+04  0.26069318285E+04 0.  0.
        2    1    3    3  502    0  0.54953121132E+03  0.11485465778E+04  0.45006953695E+03  0.13504467341E+04  0.25500000920E-02 0. -1.
       -2    1    3    3    0  502 -0.54953121132E+03 -0.11485465778E+04  0.10993467625E+04  0.16821733257E+04  0.25500000920E-02 0.  1.
</event>
<event>
 5   0  0.1136881E-05  0.2590386E+04  0.7818609E-02  0.8371474E-01
        2   -1    0    0  501    0  0.00000000000E+00  0.00000000000E+00  0.12678988683E+04  0.12678988683E+04  0.25500000920E-02 0. -1.
       -2   -1    0    0    0  501  0.00000000000E+00  0.00000000000E+00 -0.13230748652E+04  0.13230748652E+04  0.25500000920E-02 0.  1.
    10030    2    1    2    0    0  0.00000000000E+00  0.00000000000E+00 -0.55175996891E+02  0.25909737336E+04  0.25903861676E+04 0.  0.
        3    1    3    3  502    0  0.73753690295E+03 -0.28426078070E+02  0.10369637023E+04  0.12728167407E+04  0.10100000352E+00 0. -1.
       -3    1    3    3    0  502 -0.73753690295E+03  0.28426078070E+02 -0.10921396992E+04  0.13181569929E+04  0.10100000352E+00 0.  1.
</event>
<event>
 5   0  0.4218590E-06  0.2601225E+04  0.7818609E-02  0.8367785E-01
       -1   -1    0    0    0  501  0.00000000000E+00  0.00000000000E+00  0.15560099509E+04  0.15560099509E+04  0.50400001928E-02 0. -1.
        1   -1    0    0  501    0  0.00000000000E+00  0.00000000000E+00 -0.10871352828E+04  0.10871352828E+04  0.50400001928E-02 0.  1.
    10030    2    1    2    0    0  0.00000000000E+00  0.00000000000E+00  0.46887466817E+03  0.26431452337E+04  0.26012253405E+04 0.  0.
        1    1    3    3  502    0 -0.24952692248E+02 -0.74993185264E+03  0.13139005784E+04  0.15130615158E+04  0.50400001928E-02 0. -1.
       -1    1    3    3    0  502  0.24952692248E+02  0.74993185264E+03 -0.84502591028E+03  0.11300837179E+04  0.50400001928E-02 0.  1.
</event>
<event>
 5   0  0.1085255E-05  0.2592862E+04  0.7818609E-02  0.8370630E-01
       -2   -1    0    0    0  501  0.00000000000E+00  0.00000000000E+00  0.60480372490E+03  0.60480372491E+03  0.25500000920E-02 0.  1.
        2   -1    0    0  501    0  0.00000000000E+00  0.00000000000E+00 -0.27789738159E+04  0.27789738159E+04  0.25500000920E-02 0. -1.
    10030    2    1    2    0    0  0.00000000000E+00  0.00000000000E+00 -0.21741700910E+04  0.33837775408E+04  0.25928622912E+04 0.  0.
        5    1    3    3  502    0  0.10530090417E+04 -0.51023564405E+01 -0.10020065163E+03  0.10577884176E+04  0.46999998093E+01 0.  1.
       -5    1    3    3    0  502 -0.10530090417E+04  0.51023564405E+01 -0.20739694394E+04  0.23259891232E+04  0.46999998093E+01 0. -1.
</event>
<event>
 5   0  0.4464297E-06  0.2615865E+04  0.7818609E-02  0.8362832E-01
        1   -1    0    0  501    0  0.00000000000E+00  0.00000000000E+00  0.19186514030E+04  0.19186514030E+04  0.50400001928E-02 0. -1.
       -1   -1    0    0    0  501  0.00000000000E+00  0.00000000000E+00 -0.89160900419E+03  0.89160900420E+03  0.50400001928E-02 0.  1.
    10030    2    1    2    0    0  0.00000000000E+00  0.00000000000E+00  0.10270423988E+04  0.28102604072E+04  0.26158645736E+04 0.  0.
        4    1    3    3  502    0 -0.36347303676E+03 -0.48475460584E+03  0.17587924886E+04  0.18602291007E+04  0.12699999809E+01 0. -1.
       -4    1    3    3    0  502  0.36347303676E+03  0.48475460584E+03 -0.73175008983E+03  0.95003130644E+03  0.12699999809E+01 0.  1.
</event>
<event>
 5   0  0.4597705E-06  0.2594304E+04  0.7818609E-02  0.8370138E-01
        1   -1    0    0  501    0  0.00000000000E+00  0.00000000000E+00  0.12159284614E+04  0.12159284614E+04  0.50400001928E-02 0. -1.
       -1   -1    0    0    0  501  0.00000000000E+00  0.00000000000E+00 -0.13838017518E+04  0.13838017518E+04  0.50400001928E-02 0.  1.
    10030    2    1    2    0    0  0.00000000000E+00  0.00000000000E+00 -0.16787329035E+03  0.25997302132E+04  0.25943044809E+04 0.  0.
        5    1    3    3  502    0  0.12076443732E+04 -0.36742600422E+03  0.21530980149E+03  0.12805417609E+04  0.46999998093E+01 0. -1.
       -5    1    3    3    0  502 -0.12076443732E+04  0.36742600422E+03 -0.38318309184E+03  0.13191884523E+04  0.46999998093E+01 0.  1.
</event>
<event>
 5   0  0.1086507E-05  0.2610070E+04  0.7818609E-02  0.8364789E-01
        2   -1    0    0  501    0  0.00000000000E+00  0.00000000000E+00  0.15700093253E+04  0.15700093253E+04  0.25500000920E-02 0.  1.
       -2   -1    0    0    0  501  0.00000000000E+00  0.00000000000E+00 -0.10847812130E+04  0.10847812130E+04  0.25500000920E-02 0. -1.
    10030    2    1    2    0    0  0.00000000000E+00  0.00000000000E+00  0.48522811231E+03  0.26547905383E+04  0.26100702062E+04 0.  0.
        2    1    3    3  502    0 -0.80921197365E+03 -0.66987142478E+03 -0.54496863580E+03  0.11834452070E+04  0.25500000920E-02 0. -1.
       -2    1    3    3    0  502  0.80921197365E+03  0.66987142478E+03  0.10301967481E+04  0.14713453313E+04  0.25500000920E-02 0.  1.
</event>
<event>
 5   0  0.4218590E-06  0.2608426E+04  0.7818609E-02  0.8365345E-01
        1   -1    0    0  501    0  0.00000000000E+00  0.00000000000E+00  0.87814173731E+03  0.87814173733E+03  0.50400001928E-02 0.  1.
       -1   -1    0    0    0  501  0.00000000000E+00  0.00000000000E+00 -0.19370120348E+04  0.19370120348E+04  0.50400001928E-02 0. -1.
    10030    2    1    2    0    0  0.00000000000E+00  0.00000000000E+00 -0.10588702975E+04  0.28151537721E+04  0.26084256658E+04 0.  0.
        1    1    3    3  502    0 -0.54490837203E+03  0.43502254875E+03  0.66009729732E+03  0.96015529670E+03  0.50400001928E-02 0.  1.
       -1    1    3    3    0  502  0.54490837203E+03 -0.43502254875E+03 -0.17189675948E+04  0.18549984754E+04  0.50400001928E-02 0. -1.
</event>
<event>
 5   0  0.4415080E-06  0.2598729E+04  0.7818609E-02  0.8368633E-01
        1   -1    0    0  501    0  0.00000000000E+00  0.00000000000E+00  0.56050545608E+03  0.56050545611E+03  0.50400001928E-02 0. -1.
       -1   -1    0    0    0  501  0.00000000000E+00  0.00000000000E+00 -0.30121874412E+04  0.30121874412E+04  0.50400001928E-02 0.  1.
    10030    2    1    2    0    0  0.00000000000E+00  0.00000000000E+00 -0.24516819852E+04  0.35726928973E+04  0.25987285319E+04 0.  0.
        2    1    3    3  502    0 -0.23498078797E+03  0.95194077043E+03 -0.23979935602E+04  0.25907103883E+04  0.25500000920E-02 0. -1.
       -2    1    3    3    0  502  0.23498078797E+03 -0.95194077043E+03 -0.53688424932E+02  0.98198250906E+03  0.25500000920E-02 0.  1.
</event>
<event>
 5   0  0.1085255E-05  0.2616149E+04  0.7818609E-02  0.8362736E-01
       -2   -1    0    0    0  501  0.00000000000E+00  0.00000000000E+00  0.16891136503E+04  0.16891136503E+04  0.25500000920E-02 0.  1.
        2   -1    0    0  501    0  0.00000000000E+00  0.00000000000E+00 -0.10129924860E+04  0.10129924860E+04  0.25500000920E-02 0. -1.
    10030    2    1    2    0    0  0.00000000000E+00  0.00000000000E+00  0.67612116434E+03  0.27021061363E+04  0.26161494114E+04 0.  0.
        5    1    3    3  502    0 -0.99568957141E+03 -0.82489701030E+03  0.54251536164E+03  0.14022117557E+04  0.46999998093E+01 0.  1.
       -5    1    3    3    0  502  0.99568957141E+03  0.82489701030E+03  0.13360580270E+03  0.12998943806E+04  0.46999998093E+01 0. -1.
</event>
<event>
 5   0  0.1116310E-05  0.2542849E+04  0.7818609E-02  0.8387877E-01
       -2   -1    0    0    0  501  0.00000000000E+00  0.00000000000E+00  0.80361227967E+03  0.80361227967E+03  0.25500000920E-02 0. -1.
        2   -1    0    0  501    0  0.00000000000E+00  0.00000000000E+00 -0.20115672524E+04  0.20115672524E+04  0.25500000920E-02 0.  1.
    10030    2    1    2    0    0  0.00000000000E+00  0.00000000000E+00 -0.12079549727E+04  0.28151795320E+04  0.25428489105E+04 0.  0.
        4    1    3    3  502    0  0.50970341631E+03 -0.10148280582E+04  0.28953625981E+02  0.11360076961E+04  0.12699999809E+01 0. -1.
       -4    1    3    3    0  502 -0.50970341631E+03  0.10148280582E+04 -0.12369085987E+04  0.16791718359E+04  0.12699999809E+01 0.  1.
</event>
<event>
 5   0  0.4415080E-06  0.2599617E+04  0.7818609E-02  0.8368331E-01
        1   -1    0    0  501    0  0.00000000000E+00  0.00000000000E+00  0.16552103238E+04  0.16552103238E+04  0.50400001928E-02 0. -1.
       -1   -1    0    0    0  501  0.00000000000E+00  0.00000000000E+00 -0.10207174866E+04  0.10207174866E+04  0.50400001928E-02 0.  1.
    10030    2    1    2    0    0  0.00000000000E+00  0.00000000000E+00  0.63449283723E+03  0.26759278104E+04  0.25996169883E+04 0.  0.
        2    1    3    3  502    0 -0.61843784937E+03 -0.11407125937E+04  0.23877524764E+03  0.13193575004E+04  0.25500000920E-02 0. -1.
       -2    1    3    3    0  502  0.61843784937E+03  0.11407125937E+04  0.39571758960E+03  0.13565703099E+04  0.25500000920E-02 0.  1.
</event>
<event>
 5   0  0.4361864E-06  0.2590425E+04  0.7818609E-02  0.8371461E-01
        1   -1    0    0  501    0  0.00000000000E+00  0.00000000000E+00  0.17359555375E+04  0.17359555376E+04  0.50400001928E-02 0.  1.
       -1   -1    0    0    0  501  0.00000000000E+00  0.00000000000E+00 -0.96637026049E+03  0.96637026050E+03  0.50400001928E-02 0. -1.
    10030    2    1    2    0    0  0.00000000000E+00  0.00000000000E+00  0.76958527706E+03  0.27023257981E+04  0.25904252972E+04 0.  0.
        3    1    3    3  502    0 -0.12390075845E+04  0.15915982706E+03  0.27805329310E+02  0.12494978158E+04  0.10100000352E+00 0.  1.
       -3    1    3    3    0  502  0.12390075845E+04 -0.15915982706E+03  0.74177994775E+03  0.14528279823E+04  0.10100000352E+00 0. -1.
</event>
<event>
 5   0  0.4415080E-06  0.2598620E+04  0.7818609E-02  0.8368670E-01
        1   -1    0    0  501    0  0.00000000000E+00  0.00000000000E+00  0.17355012517E+04  0.17355012517E+04  0.50400001928E-02 0.  1.
       -1   -1    0    0    0  501  0.00000000000E+00  0.00000000000E+00 -0.97274888061E+03  0.97274888062E+03  0.50400001928E-02 0. -1.
    10030    2    1    2    0    0  0.00000000000E+00  0.00000000000E+00  0.76275237108E+03  0.27082501323E+04  0.25986203262E+04 0.  0.
        2    1    3    3  502    0  0.43503576015E+03  0.71151012845E+03 -0.65700271542E+03  0.10616757243E+04  0.25500000920E-02 0. -1.
       -2    1    3    3    0  502 -0.43503576015E+03 -0.71151012845E+03  0.14197550865E+04  0.16465744080E+04  0.25500000920E-02 0.  1.
</event>
<event>
 5   0  0.1136881E-05  0.2599460E+04  0.7818609E-02  0.8368385E-01
       -2   -1    0    0    0  501  0.00000000000E+00  0.00000000000E+00  0.69379617193E+03  0.69379617193E+03  0.25500000920E-02 0.  1.
        2   -1    0    0  501    0  0.00000000000E+00  0.00000000000E+00 -0.24348614910E+04  0.24348614910E+04  0.25500000920E-02 0. -1.
    10030    2    1    2    0    0  0.00000000000E+00  0.00000000000E+00 -0.17410653191E+04  0.31286576630E+04  0.25994596220E+04 0.  0.
        3    1    3    3  502    0 -0.12112086164E+03  0.27960023277E+03 -0.23912649534E+04  0.24106004731E+04  0.10100000352E+00 0. -1.
       -3    1    3    3    0  502  0.12112086164E+03 -0.27960023277E+03  0.65019963430E+03  0.71805718988E+03  0.10100000352E+00 0.  1.
</event>
<event>
 5   0  0.3705250E-06  0.2616646E+04  0.7818609E-02  0.8362569E-01
       -3   -1    0    0    0  501  0.00000000000E+00  0.00000000000E+00  0.15943770425E+04  0.15943770457E+04  0.10100000352E+00 0.  1.
        3   -1    0    0  501    0  0.00000000000E+00  0.00000000000E+00 -0.10735911270E+04  0.10735911318E+04  0.10100000352E+00 0. -1.
    10030    2    1    2    0    0  0.00000000000E+00  0.00000000000E+00  0.52078591548E+03  0.26679681775E+04  0.26166459880E+04 0.  0.
        4    1    3    3  502    0 -0.12125457844E+03  0.36743045410E+03 -0.10139201165E+04  0.10852388801E+04  0.12699999809E+01 0. -1.
       -4    1    3    3    0  502  0.12125457844E+03 -0.36743045410E+03  0.15347060320E+04  0.15827292974E+04  0.12699999809E+01 0.  1.
</event>
<event>
 5   0  0.4464297E-06  0.2592343E+04  0.7818609E-02  0.8370807E-01
        1   -1    0    0  501    0  0.00000000000E+00  0.00000000000E+00  0.70555813781E+03  0.70555813783E+03  0.50400001928E-02 0.  1.
       -1   -1    0    0    0  501  0.00000000000E+00  0.00000000000E+00 -0.23811789720E+04  0.23811789720E+04  0.50400001928E-02 0. -1.
    10030    2    1    2    0    0  0.00000000000E+00  0.00000000000E+00 -0.16756208342E+04  0.30867371098E+04  0.25923427253E+04 0.  0.
        4    1    3    3  502    0  0.52887755271E+03 -0.11725048579E+04 -0.64737264641E+03  0.14399902999E+04  0.12699999809E+01 0. -1.
       -4    1    3    3    0  502 -0.52887755271E+03  0.11725048579E+04 -0.10282481878E+04  0.16467468099E+04  0.12699999809E+01 0.  1.
</event>
<event>
 5   0  0.4361864E-06  0.2599853E+04  0.7818609E-02  0.8368251E-01
        1   -1    0    0  501    0  0.00000000000E+00  0.00000000000E+00  0.12247253513E+04  0.12247253513E+04  0.50400001928E-02 0.  1.
       -1   -1    0    0    0  501  0.00000000000E+00  0.00000000000E+00 -0.13797450089E+04  0.13797450089E+04  0.50400001928E-02 0. -1.
    10030    2    1    2    0    0  0.00000000000E+00  0.00000000000E+00 -0.15501965754E+03  0.26044703602E+04  0.25998528349E+04 0.  0.
        3    1    3    3  502    0  0.92003065032E+03  0.52566737808E+03  0.67683892175E+03  0.12573358844E+04  0.10100000352E+00 0.  1.
       -3    1    3    3    0  502 -0.92003065032E+03 -0.52566737808E+03 -0.83185857929E+03  0.13471344759E+04  0.10100000352E+00 0. -1.
</event>
<event>
 5   0  0.1085061E-05  0.2615959E+04  0.7818609E-02  0.8362800E-01
       -2   -1    0    0    0  501  0.00000000000E+00  0.00000000000E+00  0.10233373293E+04  0.10233373293E+04  0.25500000920E-02 0.  1.
        2   -1    0    0  501    0  0.00000000000E+00  0.00000000000E+00 -0.16717953560E+04  0.16717953561E+04  0.25500000920E-02 0. -1.
    10030    2    1    2    0    0  0.00000000000E+00  0.00000000000E+00 -0.64845802676E+03  0.26951326853E+04  0.26159591700E+04 0.  0.
        1    1    3    3  502    0  0.47374612630E+03  0.38614091455E+03  0.86717430427E+03  0.10609106805E+04  0.50400001928E-02 0.  1.
       -1    1    3    3    0  502 -0.47374612630E+03 -0.38614091455E+03 -0.15156323310E+04  0.16342220048E+04  0.50400001928E-02 0. -1.
</event>
<event>
 5   0  0.4218590E-06  0.2611148E+04  0.7818609E-02  0.8364424E-01
        1   -1    0    0  501    0  0.00000000000E+00  0.00000000000E+00  0.81991777376E+03  0.81991777377E+03  0.50400001928E-02 0.  1.
       -1   -1    0    0    0  501  0.00000000000E+00  0.00000000000E+00 -0.20788953245E+04  0.20788953245E+04  0.50400001928E-02 0. -1.
    10030    2    1    2    0    0  0.00000000000E+00  0.00000000000E+00 -0.12589775508E+04  0.28988130983E+04  0.26111478138E+04 0.  0.
        1    1    3    3  502    0  0.53903272524E+03 -0.89349348013E+03  0.24157686759E+03  0.10710958225E+04  0.50400001928E-02 0.  1.
       -1    1    3    3    0  502 -0.53903272524E+03  0.89349348013E+03 -0.15005544183E+04  0.18277172758E+04  0.50400001928E-02 0. -1.
</event>
<event>
 5   0  0.1136881E-05  0.2511579E+04  0.7818609E-02  0.8398872E-01
       -2   -1    0    0    0  501  0.00000000000E+00  0.00000000000E+00  0.77896625273E+03  0.77896625273E+03  0.25500000920E-02 0.  1.
        2   -1    0    0  501    0  0.00000000000E+00  0.00000000000E+00 -0.20244872827E+04  0.20244872827E+04  0.25500000920E-02 0. -1.
    10030    2    1    2    0    0  0.00000000000E+00  0.00000000000E+00 -0.12455210299E+04  0.28034535354E+04  0.25115790032E+04 0.  0.
        3    1    3    3  502    0  0.24998008036E+03  0.24385116370E+03  0.72367652130E+03  0.80353042773E+03  0.10100000352E+00 0.  1.
       -3    1    3    3    0  502 -0.24998008036E+03 -0.24385116370E+03 -0.19691975512E+04  0.19999231077E+04  0.10100000352E+00 0. -1.
</event>
<event>
 5   0  0.1136881E-05  0.2557405E+04  0.7818609E-02  0.8382815E-01
       -2   -1    0    0    0  501  0.00000000000E+00  0.00000000000E+00  0.10361849042E+04  0.10361849042E+04  0.25500000920E-02 0.  1.
        2   -1    0    0  501    0  0.00000000000E+00  0.00000000000E+00 -0.15779809257E+04  0.15779809257E+04  0.25500000920E-02 0. -1.
    10030    2    1    2    0    0  0.00000000000E+00  0.00000000000E+00 -0.54179602151E+03  0.26141658299E+04  0.25574049459E+04 0.  0.
        3    1    3    3  502    0  0.24770439691E+03 -0.85261966777E+03 -0.12115183686E+04  0.15020301374E+04  0.10100000352E+00 0. -1.
       -3    1    3    3    0  502 -0.24770439691E+03  0.85261966777E+03  0.66972234704E+03  0.11121356925E+04  0.10100000352E+00 0.  1.
</event>
<event>
 5   0  0.1116310E-05  0.2624196E+04  0.7818609E-02  0.8360028E-01
        2   -1    0    0  501    0  0.00000000000E+00  0.00000000000E+00  0.12954779472E+04  0.12954779472E+04  0.25500000920E-02 0. -1.
       -2   -1    0    0    0  501  0.00000000000E+00  0.00000000000E+00 -0.13289316607E+04  0.13289316607E+04  0.25500000920E-02 0.  1.
    10030    2    1    2    0    0  0.00000000000E+00  0.00000000000E+00 -0.33453713467E+02  0.26244096079E+04  0.26241963797E+04 0.  0.
        4    1    3    3  502    0  0.61409457482E+03 -0.43478213645E+03 -0.10917339141E+04  0.13259080681E+04  0.12699999809E+01 0.  1.
       -4    1    3    3    0  502 -0.61409457482E+03  0.43478213645E+03  0.10582802006E+04  0.12985015398E+04  0.12699999809E+01 0. -1.
</event>
<event>
 5   0  0.4361864E-06  0.2295445E+04  0.7818609E-02  0.8479719E-01
       -1   -1    0    0    0  501  0.00000000000E+00  0.00000000000E+00  0.13344379862E+04  0.13344379862E+04  0.50400001928E-02 0.  1.
        1   -1    0    0  501    0  0.00000000000E+00  0.00000000000E+00 -0.98713265260E+03  0.98713265262E+03  0.50400001928E-02 0. -1.
    10030    2    1    2    0    0  0.00000000000E+00  0.00000000000E+00  0.34730533363E+03  0.23215706389E+04  0.22954453242E+04 0.  0.
        3    1    3    3  502    0 -0.53802860468E+03 -0.49696503837E+03 -0.72004357831E+03  0.10270889901E+04  0.10100000352E+00 0. -1.
       -3    1    3    3    0  502  0.53802860468E+03  0.49696503837E+03  0.10673489119E+04  0.12944816487E+04  0.10100000352E+00 0.  1.
</event>
<event>
 5   0  0.1116310E-05  0.2539954E+04  0.7818609E-02  0.8388888E-01
       -2   -1    0    0    0  501  0.00000000000E+00  0.00000000000E+00  0.89183854698E+03  0.89183854699E+03  0.25500000920E-02 0. -1.
        2   -1    0    0  501    0  0.00000000000E+00  0.00000000000E+00 -0.18084453028E+04  0.18084453028E+04  0.25500000920E-02 0.  1.
    10030    2    1    2    0    0  0.00000000000E+00  0.00000000000E+00 -0.91660675584E+03  0.27002838498E+04  0.25399537249E+04 0.  0.
        4    1    3    3  502    0  0.64874290853E+03  0.13280376687E+03 -0.16103755699E+04  0.17412108692E+04  0.12699999809E+01 0.  1.
       -4    1    3    3    0  502 -0.64874290853E+03 -0.13280376687E+03  0.69376881409E+03  0.95907298062E+03  0.12699999809E+01 0. -1.
</event>
<event>
 5   0  0.4597705E-06  0.2592547E+04  0.7818609E-02  0.8370737E-01
        1   -1    0    0  501    0  0.00000000000E+00  0.00000000000E+00  0.16258654472E+04  0.16258654472E+04  0.50400001928E-02 0.  1.
       -1   -1    0    0    0  501  0.00000000000E+00  0.00000000000E+00 -0.10334956570E+04  0.10334956570E+04  0.50400001928E-02 0. -1.
    10030    2    1    2    0    0  0.00000000000E+00  0.00000000000E+00  0.59236979019E+03  0.26593611042E+04  0.25925469165E+04 0.  0.
        5    1    3    3  502    0 -0.50826025368E+03  0.21266250344E+03 -0.90740370887E+03  0.10615825011E+04  0.46999998093E+01 0. -1.
       -5    1    3    3    0  502  0.50826025368E+03 -0.21266250344E+03  0.14997734991E+04  0.15977786030E+04  0.46999998093E+01 0.  1.
</event>
<event>
 5   0  0.1085061E-05  0.2440035E+04  0.7818609E-02  0.8424665E-01
       -2   -1    0    0    0  501  0.00000000000E+00  0.00000000000E+00  0.79549692458E+03  0.79549692459E+03  0.25500000920E-02 0. -1.
        2   -1    0    0  501    0  0.00000000000E+00  0.00000000000E+00 -0.18710854859E+04  0.18710854859E+04  0.25500000920E-02 0.  1.
    10030    2    1    2    0    0  0.00000000000E+00  0.00000000000E+00 -0.10755885613E+04  0.26665824105E+04  0.24400350404E+04 0.  0.
        1    1    3    3  502    0  0.10914308762E+04  0.43607908210E+03 -0.18022078687E+03  0.11890609132E+04  0.50400001928E-02 0. -1.
       -1    1    3    3    0  502 -0.10914308762E+04 -0.43607908210E+03 -0.89536777442E+03  0.14775214972E+04  0.50400001928E-02 0.  1.
</event>
<event>
 5   0  0.4415080E-06  0.2601581E+04  0.7818609E-02  0.8367665E-01
       -1   -1    0    0    0  501  0.00000000000E+00  0.00000000000E+00  0.10446328401E+04  0.10446328401E+04  0.50400001928E-02 0.  1.
        1   -1    0    0  501    0  0.00000000000E+00  0.00000000000E+00 -0.16197607520E+04  0.16197607520E+04  0.50400001928E-02 0. -1.
    10030    2    1    2    0    0  0.00000000000E+00  0.00000000000E+00 -0.57512791189E+03  0.26643935921E+04  0.26015805001E+04 0.  0.
        2    1    3    3  502    0  0.32437153570E+03 -0.11711270713E+04 -0.76277102116E+03  0.14347735505E+04  0.25500000920E-02 0. -1.
       -2    1    3    3    0  502 -0.32437153570E+03  0.11711270713E+04  0.18764310927E+03  0.12296200416E+04  0.25500000920E-02 0.  1.
</event>
<event>
 5   0  0.1085255E-05  0.2614343E+04  0.7818609E-02  0.8363345E-01
       -2   -1    0    0    0  501  0.00000000000E+00  0.00000000000E+00  0.10542738801E+04  0.10542738801E+04  0.25500000920E-02 0.  1.
        2   -1    0    0  501    0  0.00000000000E+00  0.00000000000E+00 -0.16207339968E+04  0.16207339968E+04  0.25500000920E-02 0. -1.
    10030    2    1    2    0    0  0.00000000000E+00  0.00000000000E+00 -0.56646011667E+03  0.26750078769E+04  0.26143431446E+04 0.  0.
        5    1    3    3  502    0 -0.88579964078E+03 -0.19819041669E+03 -0.12456707667E+04  0.15413105443E+04  0.46999998093E+01 0. -1.
       -5    1    3    3    0  502  0.88579964078E+03  0.19819041669E+03  0.67921065001E+03  0.11336973326E+04  0.46999998093E+01 0.  1.
</event>
<event>
 5   0  0.4361864E-06  0.2599390E+04  0.7818609E-02  0.8368408E-01
       -1   -1    0    0    0  501  0.00000000000E+00  0.00000000000E+00  0.90379649963E+03  0.90379649965E+03  0.50400001928E-02 0. -1.
        1   -1    0    0  501    0  0.00000000000E+00  0.00000000000E+00 -0.18690125986E+04  0.18690125987E+04  0.50400001928E-02 0.  1.
    10030    2    1    2    0    0  0.00000000000E+00  0.00000000000E+00 -0.96521609901E+03  0.27728090983E+04  0.25993899626E+04 0.  0.
        3    1    3    3  502    0  0.47490132620E+03 -0.12084509821E+04 -0.42112610588E+03  0.13650026568E+04  0.10100000352E+00 0. -1.
       -3    1    3    3    0  502 -0.47490132620E+03  0.12084509821E+04 -0.54408999314E+03  0.14078064415E+04  0.10100000352E+00 0.  1.
</event>
<event>
 5   0  0.4361864E-06  0.2566043E+04  0.7818609E-02  0.8379828E-01
        1   -1    0    0  501    0  0.00000000000E+00  0.00000000000E+00  0.28150339293E+04  0.28150339293E+04  0.50400001928E-02 0. -1.
       -1   -1    0    0    0  501  0.00000000000E+00  0.00000000000E+00 -0.58476867574E+03  0.58476867576E+03  0.50400001928E-02 0.  1.
    10030    2    1    2    0    0  0.00000000000E+00  0.00000000000E+00  0.22302652536E+04  0.33998026051E+04  0.25660426053E+04 0.  0.
        3    1    3    3  502    0  0.62427951314E+03 -0.10069838663E+04  0.46281644850E+03  0.12719828979E+04  0.10100000352E+00 0.  1.
       -3    1    3    3    0  502 -0.62427951314E+03  0.10069838663E+04  0.17674488051E+04  0.21278197072E+04  0.10100000352E+00 0. -1.
</event>
<event>
 5   0  0.3705250E-06  0.2599093E+04  0.7818609E-02  0.8368509E-01
       -3   -1    0    0    0  501  0.00000000000E+00  0.00000000000E+00  0.11273064798E+04  0.11273064844E+04  0.10100000352E+00 0. -1.
        3   -1    0    0  501    0  0.00000000000E+00  0.00000000000E+00 -0.14981027596E+04  0.14981027630E+04  0.10100000352E+00 0.  1.
    10030    2    1    2    0    0  0.00000000000E+00  0.00000000000E+00 -0.37079627979E+03  0.26254092474E+04  0.25990928870E+04 0.  0.
        5    1    3    3  502    0 -0.60881745028E+03 -0.10805482818E+04  0.20654553024E+03  0.12573489663E+04  0.46999998093E+01 0. -1.
       -5    1    3    3    0  502  0.60881745028E+03  0.10805482818E+04 -0.57734181003E+03  0.13680602811E+04  0.46999998093E+01 0.  1.
</event>
<event>
 5   0  0.4361864E-06  0.2596177E+04  0.7818609E-02  0.8369501E-01
       -1   -1    0    0    0  501  0.00000000000E+00  0.00000000000E+00  0.20519930902E+04  0.20519930902E+04  0.50400001928E-02 0. -1.
        1   -1    0    0  501    0  0.00000000000E+00  0.00000000000E+00 -0.82116938086E+03  0.82116938088E+03  0.50400001928E-02 0.  1.
    10030    2    1    2    0    0  0.00000000000E+00  0.00000000000E+00  0.12308237093E+04  0.28731624710E+04  0.25961771091E+04 0.  0.
        3    1    3    3  502    0  0.68329642214E+03  0.20498416116E+02 -0.60582396703E+03  0.91342042609E+03  0.10100000352E+00 0.  1.
       -3    1    3    3    0  502 -0.68329642214E+03 -0.20498416116E+02  0.18366476763E+04  0.19597420449E+04  0.10100000352E+00 0. -1.
</event>
<event>
 5   0  0.4415080E-06  0.2481458E+04  0.7818609E-02  0.8409621E-01
        1   -1    0    0  501    0  0.00000000000E+00  0.00000000000E+00  0.13975107530E+04  0.13975107530E+04  0.50400001928E-02 0.  1.
       -1   -1    0    0    0  501  0.00000000000E+00  0.00000000000E+00 -0.11015356724E+04  0.11015356724E+04  0.50400001928E-02 0. -1.
    10030    2    1    2    0    0  0.00000000000E+00  0.00000000000E+00  0.29597508060E+03  0.24990464254E+04  0.24814575935E+04 0.  0.
        2    1    3    3  502    0  0.42962377897E+03 -0.39619753849E+03  0.12502126293E+04  0.13800654693E+04  0.25500000920E-02 0.  1.
       -2    1    3    3    0  502 -0.42962377897E+03  0.39619753849E+03 -0.95423754870E+03  0.11189809562E+04  0.25500000920E-02 0. -1.
</event>
<event>
 5   0  0.4597705E-06  0.2599799E+04  0.7818609E-02  0.8368269E-01
       -1   -1    0    0    0  501  0.00000000000E+00  0.00000000000E+00  0.13125738305E+04  0.13125738305E+04  0.50400001928E-02 0.  1.
        1   -1    0    0  501    0  0.00000000000E+00  0.00000000000E+00 -0.12873474917E+04  0.12873474917E+04  0.50400001928E-02 0. -1.
    10030    2    1    2    0    0  0.00000000000E+00  0.00000000000E+00  0.25226338848E+02  0.25999213222E+04  0.25997989371E+04 0.  0.
        5    1    3    3  502    0 -0.35909040435E+03 -0.12365262194E+04 -0.16564652910E+03  0.12982310551E+04  0.46999998093E+01 0. -1.
       -5    1    3    3    0  502  0.35909040435E+03  0.12365262194E+04  0.19087286794E+03  0.13016902671E+04  0.46999998093E+01 0.  1.
</event>
<event>
 5   0  0.1085255E-05  0.2497903E+04  0.7818609E-02  0.8403733E-01
       -2   -1    0    0    0  501  0.00000000000E+00  0.00000000000E+00  0.12307262733E+04  0.12307262733E+04  0.25500000920E-02 0. -1.
        2   -1    0    0  501    0  0.00000000000E+00  0.00000000000E+00 -0.12674465427E+04  0.12674465427E+04  0.25500000920E-02 0.  1.
    10030    2    1    2    0    0  0.00000000000E+00  0.00000000000E+00 -0.36720269433E+02  0.24981728160E+04  0.24979029285E+04 0.  0.
        5    1    3    3  502    0  0.58280296444E+02 -0.85206961139E+03 -0.92974255425E+03  0.12624826822E+04  0.46999998093E+01 0.  1.
       -5    1    3    3    0  502 -0.58280296444E+02  0.85206961139E+03  0.89302228481E+03  0.12356901338E+04  0.46999998093E+01 0. -1.
</event>
<event>
 5   0  0.3705250E-06  0.2603377E+04  0.7818609E-02  0.8367055E-01
        3   -1    0    0  501    0  0.00000000000E+00  0.00000000000E+00  0.16802154428E+04  0.16802154458E+04  0.10100000352E+00 0.  1.
       -3   -1    0    0    0  501  0.00000000000E+00  0.00000000000E+00 -0.10084381962E+04  0.10084382013E+04  0.10100000352E+00 0. -1.
    10030    2    1    2    0    0  0.00000000000E+00  0.00000000000E+00  0.67177724657E+03  0.26886536472E+04  0.26033773767E+04 0.  0.
        2    1    3    3  502    0 -0.21986845033E+03 -0.79834471504E+02  0.16583316986E+04  0.16747476529E+04  0.25500000920E-02 0.  1.
       -2    1    3    3    0  502  0.21986845033E+03  0.79834471504E+02 -0.98655445205E+03  0.10139059942E+04  0.25500000920E-02 0. -1.
</event>
<event>
 5   0  0.1085061E-05  0.2589339E+04  0.7818609E-02  0.8371832E-01
        2   -1    0    0  501    0  0.00000000000E+00  0.00000000000E+00  0.25937718902E+04  0.25937718902E+04  0.25500000920E-02 0.  1.
       -2   -1    0    0    0  501  0.00000000000E+00  0.00000000000E+00 -0.64622834813E+03  0.64622834814E+03  0.25500000920E-02 0. -1.
    10030    2    1    2    0    0  0.00000000000E+00  0.00000000000E+00  0.19475435421E+04  0.32400002384E+04  0.25893388531E+04 0.  0.
        1    1    3    3  502    0 -0.10191114828E+04  0.57910470504E+03  0.28588550081E+03  0.12065160560E+04  0.50400001928E-02 0. -1.
       -1    1    3    3    0  502  0.10191114828E+04 -0.57910470504E+03  0.16616580413E+04  0.20334841824E+04  0.50400001928E-02 0.  1.
</event>
<event>
 5   0  0.4218590E-06  0.2555372E+04  0.7818609E-02  0.8383520E-01
       -1   -1    0    0    0  501  0.00000000000E+00  0.00000000000E+00  0.15164744768E+04  0.15164744768E+04  0.50400001928E-02 0. -1.
        1   -1    0    0  501    0  0.00000000000E+00  0.00000000000E+00 -0.10764981752E+04  0.10764981753E+04  0.50400001928E-02 0.  1.
    10030    2    1    2    0    0  0.00000000000E+00  0.00000000000E+00  0.43997630151E+03  0.25929726520E+04  0.25553723854E+04 0.  0.
        1    1    3    3  502    0 -0.67187378651E+03 -0.26018017599E+02 -0.88245607165E+03  0.11094232919E+04  0.50400001928E-02 0.  1.
       -1    1    3    3    0  502  0.67187378651E+03  0.26018017599E+02  0.13224323732E+04  0.14835493601E+04  0.50400001928E-02 0. -1.
</event>
<event>
 5   0  0.1116310E-05  0.2585033E+04  0.7818609E-02  0.8373303E-01
        2   -1    0    0  501    0  0.00000000000E+00  0.00000000000E+00  0.21157118315E+04  0.21157118315E+04  0.25500000920E-02 0.  1.
       -2   -1    0    0    0  501  0.00000000000E+00  0.00000000000E+00 -0.78961556541E+03  0.78961556542E+03  0.25500000920E-02 0. -1.
    10030    2    1    2    0    0  0.00000000000E+00  0.00000000000E+00  0.13260962661E+04  0.29053273969E+04  0.25850330707E+04 0.  0.
        4    1    3    3  502    0 -0.91475760982E+03  0.90548318534E+03  0.79563109231E+03  0.15131793455E+04  0.12699999809E+01 0. -1.
       -4    1    3    3    0  502  0.91475760982E+03 -0.90548318534E+03  0.53046517380E+03  0.13921480515E+04  0.12699999809E+01 0.  1.
</event>
<event>
 5   0  0.1136881E-05  0.2566132E+04  0.7818609E-02  0.8379797E-01
       -2   -1    0    0    0  501  0.00000000000E+00  0.00000000000E+00  0.13638127246E+04  0.13638127246E+04  0.25500000920E-02 0.  1.
        2   -1    0    0  501    0  0.00000000000E+00  0.00000000000E+00 -0.12071004697E+04  0.12071004697E+04  0.25500000920E-02 0. -1.
    10030    2    1    2    0    0  0.00000000000E+00  0.00000000000E+00  0.15671225494E+03  0.25709131943E+04  0.25661324833E+04 0.  0.
        3    1    3    3  502    0  0.61169578102E+03  0.15509958002E+03 -0.10408783719E+04  0.12172326825E+04  0.10100000352E+00 0. -1.
       -3    1    3    3    0  502 -0.61169578102E+03 -0.15509958002E+03  0.11975906268E+04  0.13536805117E+04  0.10100000352E+00 0.  1.
</event>
<event>
 5   0  0.4361864E-06  0.2612949E+04  0.7818609E-02  0.8363816E-01
       -1   -1    0    0    0  501  0.00000000000E+00  0.00000000000E+00  0.73860519305E+03  0.73860519307E+03  0.50400001928E-02 0. -1.
        1   -1    0    0  501    0  0.00000000000E+00  0.00000000000E+00 -0.23109440353E+04  0.23109440353E+04  0.50400001928E-02 0.  1.
    10030    2    1    2    0    0  0.00000000000E+00  0.00000000000E+00 -0.15723388423E+04  0.30495492284E+04  0.26129487292E+04 0.  0.
        3    1    3    3  502    0 -0.96828712088E+03 -0.21139470567E+03  0.20730387545E+03  0.10125426297E+04  0.10100000352E+00 0. -1.
       -3    1    3    3    0  502  0.96828712088E+03  0.21139470567E+03 -0.17796427177E+04  0.20370065987E+04  0.10100000352E+00 0.  1.
</event>
<event>
 5   0  0.4597705E-06  0.2608463E+04  0.7818609E-02  0.8365332E-01
       -1   -1    0    0    0  501  0.00000000000E+00  0.00000000000E+00  0.18338094583E+04  0.18338094583E+04  0.50400001928E-02 0.  1.
        1   -1    0    0  501    0  0.00000000000E+00  0.00000000000E+00 -0.92758839026E+03  0.92758839028E+03  0.50400001928E-02 0. -1.
    10030    2    1    2    0    0  0.00000000000E+00  0.00000000000E+00  0.90622106805E+03  0.27613978486E+04  0.26084634278E+04 0.  0.
        5    1    3    3  502    0 -0.81750495351E+03 -0.57768192289E+03  0.13381705635E+04  0.16711532844E+04  0.46999998093E+01 0.  1.
       -5    1    3    3    0  502  0.81750495351E+03  0.57768192289E+03 -0.43194949546E+03  0.10902445642E+04  0.46999998093E+01 0. -1.
</event>
<event>
 5   0  0.4464297E-06  0.2588461E+04  0.7818609E-02  0.8372131E-01
        1   -1    0    0  501    0  0.00000000000E+00  0.00000000000E+00  0.10320666705E+04  0.10320666705E+04  0.50400001928E-02 0. -1.
       -1   -1    0    0    0  501  0.00000000000E+00  0.00000000000E+00 -0.16229883798E+04  0.16229883798E+04  0.50400001928E-02 0.  1.
    10030    2    1    2    0    0  0.00000000000E+00  0.00000000000E+00 -0.59092170930E+03  0.26550550502E+04  0.25884607112E+04 0.  0.
        4    1    3    3  502    0 -0.28163562929E+03  0.12452310140E+04 -0.51332036466E+03  0.13760153763E+04  0.12699999809E+01 0. -1.
       -4    1    3    3    0  502  0.28163562929E+03 -0.12452310140E+04 -0.77601344637E+02  0.12790396740E+04  0.12699999809E+01 0.  1.
</event>
<event>
 5   0  0.1085255E-05  0.2607866E+04  0.7818609E-02  0.8365534E-01
        2   -1    0    0  501    0  0.00000000000E+00  0.00000000000E+00  0.19324071691E+04  0.19324071691E+04  0.25500000920E-02 0. -1.
       -2   -1    0    0    0  501  0.00000000000E+00  0.00000000000E+00 -0.87985672968E+03  0.87985672968E+03  0.25500000920E-02 0.  1.
    10030    2    1    2    0    0  0.00000000000E+00  0.00000000000E+00  0.10525504394E+04  0.28122638987E+04  0.26078661409E+04 0.  0.
        5    1    3    3  502    0  0.93411178454E+03 -0.41380559149E+02  0.15063192787E+04  0.17729345832E+04  0.46999998093E+01 0. -1.
       -5    1    3    3    0  502 -0.93411178454E+03  0.41380559149E+02 -0.45376883933E+03  0.10393293156E+04  0.46999998093E+01 0.  1.
</event>
<event>
 5   0  0.1086507E-05  0.2598561E+04  0.7818609E-02  0.8368690E-01
        2   -1    0    0  501    0  0.00000000000E+00  0.00000000000E+00  0.16642978401E+04  0.16642978401E+04  0.25500000920E-02 0.  1.
       -2   -1    0    0    0  501  0.00000000000E+00  0.00000000000E+00 -0.10143191875E+04  0.10143191875E+04  0.25500000920E-02 0. -1.
    10030    2    1    2    0    0  0.00000000000E+00  0.00000000000E+00  0.64997865256E+03  0.26786170276E+04  0.25985605499E+04 0.  0.
        2    1    3    3  502    0  0.19326945717E+03 -0.66250404832E+03  0.14597514268E+04  0.16146637189E+04  0.25500000920E-02 0.  1.
       -2    1    3    3    0  502 -0.19326945717E+03  0.66250404832E+03 -0.80977277425E+03  0.10639533087E+04  0.25500000920E-02 0. -1.
</event>
<event>
 5   0  0.1136881E-05  0.2545928E+04  0.7818609E-02  0.8386804E-01
        2   -1    0    0  501    0  0.00000000000E+00  0.00000000000E+00  0.22998324029E+04  0.22998324029E+04  0.25500000920E-02 0. -1.
       -2   -1    0    0    0  501  0.00000000000E+00  0.00000000000E+00 -0.70458946235E+03  0.70458946235E+03  0.25500000920E-02 0.  1.
    10030    2    1    2    0    0  0.00000000000E+00  0.00000000000E+00  0.15952429405E+04  0.30044218652E+04  0.25459282600E+04 0.  0.
        3    1    3    3  502    0  0.39047841828E+02  0.31407603493E+03 -0.65741874674E+03  0.72963546270E+03  0.10100000352E+00 0.  1.
       -3    1    3    3    0  502 -0.39047841828E+02 -0.31407603493E+03  0.22526616873E+04  0.22747864025E+04  0.10100000352E+00 0. -1.
</event>
<event>
 5   0  0.1086507E-05  0.2585606E+04  0.7818609E-02  0.8373107E-01
        2   -1    0    0  501    0  0.00000000000E+00  0.00000000000E+00  0.12741778868E+04  0.12741778868E+04  0.25500000920E-02 0. -1.
       -2   -1    0    0    0  501  0.00000000000E+00  0.00000000000E+00 -0.13116999687E+04  0.13116999687E+04  0.25500000920E-02 0.  1.
    10030    2    1    2    0    0  0.00000000000E+00  0.00000000000E+00 -0.37522081935E+02  0.25858778556E+04  0.25856056113E+04 0.  0.
        2    1    3    3  502    0  0.10238220021E+04  0.29265360954E+03  0.71444742760E+03  0.12822997910E+04  0.25500000920E-02 0. -1.
       -2    1    3    3    0  502 -0.10238220021E+04 -0.29265360954E+03 -0.75196950953E+03  0.13035780646E+04  0.25500000920E-02 0.  1.
</event>
<event>
 5   0  0.1136881E-05  0.2576013E+04  0.7818609E-02  0.8376395E-01
       -2   -1    0    0    0  501  0.00000000000E+00  0.00000000000E+00  0.91899367396E+03  0.91899367397E+03  0.25500000920E-02 0.  1.
        2   -1    0    0  501    0  0.00000000000E+00  0.00000000000E+00 -0.18051931126E+04  0.18051931126E+04  0.25500000920E-02 0. -1.
    10030    2    1    2    0    0  0.00000000000E+00  0.00000000000E+00 -0.88619943867E+03  0.27241867866E+04  0.25760132382E+04 0.  0.
        3    1    3    3  502    0 -0.10470353746E+04 -0.42866822563E+03  0.20787395435E+03  0.11503265251E+04  0.10100000352E+00 0. -1.
       -3    1    3    3    0  502  0.10470353746E+04  0.42866822563E+03 -0.10940733930E+04  0.15738602615E+04  0.10100000352E+00 0.  1.
</event>
<event>
 5   0  0.1085255E-05  0.2318507E+04  0.7818609E-02  0.8470660E-01
       -2   -1    0    0    0  501  0.00000000000E+00  0.00000000000E+00  0.10101088281E+04  0.10101088281E+04  0.25500000920E-02 0. -1.
        2   -1    0    0  501    0  0.00000000000E+00  0.00000000000E+00 -0.13304194753E+04  0.13304194753E+04  0.25500000920E-02 0.  1.
    10030    2    1    2    0    0  0.00000000000E+00  0.00000000000E+00 -0.32031064714E+03  0.23405283034E+04  0.23185068101E+04 0.  0.
        5    1    3    3  502    0  0.75138071494E+03  0.61969945453E+03  0.47450193155E+03  0.10834087713E+04  0.46999998093E+01 0. -1.
       -5    1    3    3    0  502 -0.75138071494E+03 -0.61969945453E+03 -0.79481257869E+03  0.12571195321E+04  0.46999998093E+01 0.  1.
</event>
<event>
 5   0  0.1116310E-05  0.2599768E+04  0.7818609E-02  0.8368280E-01
        2   -1    0    0  501    0  0.00000000000E+00  0.00000000000E+00  0.10791039939E+04  0.10791039939E+04  0.25500000920E-02 0. -1.
       -2   -1    0    0    0  501  0.00000000000E+00  0.00000000000E+00 -0.15658344783E+04  0.15658344783E+04  0.25500000920E-02 0.  1.
    10030    2    1    2    0    0  0.00000000000E+00  0.00000000000E+00 -0.48673048434E+03  0.26449384722E+04  0.25997678661E+04 0.  0.
        4    1    3    3  502    0 -0.11460647621E+04  0.35828000072E+03  0.26314812169E+03  0.12292589412E+04  0.12699999809E+01 0. -1.
       -4    1    3    3    0  502  0.11460647621E+04 -0.35828000072E+03 -0.74987860603E+03  0.14156795310E+04  0.12699999809E+01 0.  1.
</event>
<event>
 5   0  0.1116310E-05  0.2596575E+04  0.7818609E-02  0.8369366E-01
       -2   -1    0    0    0  501  0.00000000000E+00  0.00000000000E+00  0.75732225351E+03  0.75732225351E+03  0.25500000920E-02 0. -1.
        2   -1    0    0  501    0  0.00000000000E+00  0.00000000000E+00 -0.22256710003E+04  0.22256710003E+04  0.25500000920E-02 0.  1.
    10030    2    1    2    0    0  0.00000000000E+00  0.00000000000E+00 -0.14683487468E+04  0.29829932538E+04  0.25965748035E+04 0.  0.
        4    1    3    3  502    0  0.56454150378E+03 -0.89367142682E+03 -0.16001373200E+04  0.19177582706E+04  0.12699999809E+01 0.  1.
       -4    1    3    3    0  502 -0.56454150378E+03  0.89367142682E+03  0.13178857320E+03  0.10652349832E+04  0.12699999809E+01 0. -1.
</event>
<event>
 5   0  0.4218590E-06  0.2642278E+04  0.7818609E-02  0.8353981E-01
        1   -1    0    0  501    0  0.00000000000E+00  0.00000000000E+00  0.14987105567E+04  0.14987105567E+04  0.50400001928E-02 0. -1.
       -1   -1    0    0    0  501  0.00000000000E+00  0.00000000000E+00 -0.11646066085E+04  0.11646066085E+04  0.50400001928E-02 0.  1.
    10030    2    1    2    0    0  0.00000000000E+00  0.00000000000E+00  0.33410394816E+03  0.26633171652E+04  0.26422779706E+04 0.  0.
        1    1    3    3  502    0 -0.27764596606E+02 -0.12601118543E+04  0.56612807733E+03  0.13817213027E+04  0.50400001928E-02 0.  1.
       -1    1    3    3    0  502  0.27764596606E+02  0.12601118543E+04 -0.23202412917E+03  0.12815958625E+04  0.50400001928E-02 0. -1.
</event>
<event>
 5   0  0.1086507E-05  0.2593419E+04  0.7818609E-02  0.8370440E-01
       -2   -1    0    0    0  501  0.00000000000E+00  0.00000000000E+00  0.12078467076E+04  0.12078467076E+04  0.25500000920E-02 0.  1.
        2   -1    0    0  501    0  0.00000000000E+00  0.00000000000E+00 -0.13921098241E+04  0.13921098241E+04  0.25500000920E-02 0. -1.
    10030    2    1    2    0    0  0.00000000000E+00  0.00000000000E+00 -0.18426311656E+03  0.25999565317E+04  0.25934187997E+04 0.  0.
        2    1    3    3  502    0 -0.38670284777E+03  0.30358262819E+03 -0.12950537684E+04  0.13852313048E+04  0.25500000920E-02 0. -1.
       -2    1    3    3    0  502  0.38670284777E+03 -0.30358262819E+03  0.11107906519E+04  0.12147252269E+04  0.25500000920E-02 0.  1.
</event>
<event>
 5   0  0.4597705E-06  0.2601092E+04  0.7818609E-02  0.8367831E-01
        1   -1    0    0  501    0  0.00000000000E+00  0.00000000000E+00  0.20356717745E+04  0.20356717745E+04  0.50400001928E-02 0.  1.
       -1   -1    0    0    0  501  0.00000000000E+00  0.00000000000E+00 -0.83088997147E+03  0.83088997148E+03  0.50400001928E-02 0. -1.
    10030    2    1    2    0    0  0.00000000000E+00  0.00000000000E+00  0.12047818030E+04  0.28665617460E+04  0.26010915114E+04 0.  0.
        5    1    3    3  502    0 -0.11932922837E+03 -0.12084505808E+04  0.11155360386E+04  0.16489496701E+04  0.46999998093E+01 0.  1.
       -5    1    3    3    0  502  0.11932922837E+03  0.12084505808E+04  0.89245764431E+02  0.12176120759E+04  0.46999998093E+01 0. -1.
</event>
<event>
 5   0  0.4218590E-06  0.2571840E+04  0.7818609E-02  0.8377830E-01
       -1   -1    0    0    0  501  0.00000000000E+00  0.00000000000E+00  0.10381300494E+04  0.10381300494E+04  0.50400001928E-02 0.  1.
        1   -1    0    0  501    0  0.00000000000E+00  0.00000000000E+00 -0.15928549658E+04  0.15928549658E+04  0.50400001928E-02 0. -1.
    10030    2    1    2    0    0  0.00000000000E+00  0.00000000000E+00 -0.55472491641E+03  0.26309850152E+04  0.25718402784E+04 0.  0.
        1    1    3    3  502    0 -0.13456764167E+03 -0.70694552657E+03 -0.13675673831E+04  0.15453546438E+04  0.50400001928E-02 0. -1.
       -1    1    3    3    0  502  0.13456764167E+03  0.70694552657E+03  0.81284246671E+03  0.10856303715E+04  0.50400001928E-02 0.  1.
</event>
<event>
 5   0  0.4597705E-06  0.2596247E+04  0.7818609E-02  0.8369477E-01
        1   -1    0    0  501    0  0.00000000000E+00  0.00000000000E+00  0.17828890760E+04  0.17828890760E+04  0.50400001928E-02 0. -1.
       -1   -1    0    0    0  501  0.00000000000E+00  0.00000000000E+00 -0.94516538157E+03  0.94516538158E+03  0.50400001928E-02 0.  1.
    10030    2    1    2    0    0  0.00000000000E+00  0.00000000000E+00  0.83772369440E+03  0.27280544576E+04  0.25962473178E+04 0.  0.
        5    1    3    3  502    0 -0.40783446943E+02 -0.12181868624E+04 -0.50421714586E+02  0.12199208829E+04  0.46999998093E+01 0.  1.
       -5    1    3    3    0  502  0.40783446943E+02  0.12181868624E+04  0.88814540899E+03  0.15081335746E+04  0.46999998093E+01 0. -1.
</event>
<event>
 5   0  0.1085061E-05  0.2620243E+04  0.7818609E-02  0.8361358E-01
        2   -1    0    0  501    0  0.00000000000E+00  0.00000000000E+00  0.15453586066E+04  0.15453586066E+04  0.25500000920E-02 0. -1.
       -2   -1    0    0    0  501  0.00000000000E+00  0.00000000000E+00 -0.11106921816E+04  0.11106921816E+04  0.25500000920E-02 0.  1.
    10030    2    1    2    0    0  0.00000000000E+00  0.00000000000E+00  0.43466642495E+03  0.26560507882E+04  0.26202425247E+04 0.  0.
        1    1    3    3  502    0  0.69285862054E+03  0.58699125410E+03 -0.73992711493E+03  0.11713684031E+04  0.50400001928E-02 0.  1.
       -1    1    3    3    0  502 -0.69285862054E+03 -0.58699125410E+03  0.11745935399E+04  0.14846823850E+04  0.50400001928E-02 0. -1.
</event>
<event>
 5   0  0.1136881E-05  0.2658282E+04  0.7818609E-02  0.8348669E-01
       -2   -1    0    0    0  501  0.00000000000E+00  0.00000000000E+00  0.99029085373E+03  0.99029085374E+03  0.25500000920E-02 0. -1.
        2   -1    0    0  501    0  0.00000000000E+00  0.00000000000E+00 -0.17839362487E+04  0.17839362487E+04  0.25500000920E-02 0.  1.
    10030    2    1    2    0    0  0.00000000000E+00  0.00000000000E+00 -0.79364539496E+03  0.27742271024E+04  0.26582819645E+04 0.  0.
        3    1    3    3  502    0  0.52392943971E+03  0.94330668178E+03  0.41309784974E+03  0.11554130852E+04  0.10100000352E+00 0. -1.
       -3    1    3    3    0  502 -0.52392943971E+03 -0.94330668178E+03 -0.12067432447E+04  0.16188140173E+04  0.10100000352E+00 0.  1.
</event>
<event>
 5   0  0.1085255E-05  0.2596704E+04  0.7818609E-02  0.8369322E-01
        2   -1    0    0  501    0  0.00000000000E+00  0.00000000000E+00  0.24819215258E+04  0.24819215258E+04  0.25500000920E-02 0. -1.
       -2   -1    0    0    0  501  0.00000000000E+00  0.00000000000E+00 -0.67919889513E+03  0.67919889513E+03  0.25500000920E-02 0.  1.
    10030    2    1    2    0    0  0.00000000000E+00  0.00000000000E+00  0.18027226307E+04  0.31611204210E+04  0.25967043406E+04 0.  0.
        5    1    3    3  502    0  0.60137506199E+03  0.48563924361E+03  0.21712704974E+04  0.23047635677E+04  0.46999998093E+01 0. -1.
       -5    1    3    3    0  502 -0.60137506199E+03 -0.48563924361E+03 -0.36854786668E+03  0.85635685328E+03  0.46999998093E+01 0.  1.
</event>
<event>
 5   0  0.4597705E-06  0.2606015E+04  0.7818609E-02  0.8366161E-01
       -1   -1    0    0    0  501  0.00000000000E+00  0.00000000000E+00  0.70098322886E+03  0.70098322887E+03  0.50400001928E-02 0. -1.
        1   -1    0    0  501    0  0.00000000000E+00  0.00000000000E+00 -0.24220668483E+04  0.24220668483E+04  0.50400001928E-02 0.  1.
    10030    2    1    2    0    0  0.00000000000E+00  0.00000000000E+00 -0.17210836195E+04  0.31230500772E+04  0.26060147658E+04 0.  0.
        5    1    3    3  502    0 -0.52378071026E+03 -0.11930740535E+04 -0.85353138235E+03  0.15576616578E+04  0.46999998093E+01 0.  1.
       -5    1    3    3    0  502  0.52378071026E+03  0.11930740535E+04 -0.86755223712E+03  0.15653884194E+04  0.46999998093E+01 0. -1.
</event>
<event>
 5   0  0.1136881E-05  0.2613762E+04  0.7818609E-02  0.8363542E-01
        2   -1    0    0  501    0  0.00000000000E+00  0.00000000000E+00  0.16716988074E+04  0.16716988074E+04  0.25500000920E-02 0.  1.
       -2   -1    0    0    0  501  0.00000000000E+00  0.00000000000E+00 -0.10216777049E+04  0.10216777049E+04  0.25500000920E-02 0. -1.
    10030    2    1    2    0    0  0.00000000000E+00  0.00000000000E+00  0.65002110251E+03  0.26933765122E+04  0.26137615811E+04 0.  0.
        3    1    3    3  502    0  0.11066597013E+04  0.55814277934E+02  0.10390281562E+04  0.15190096930E+04  0.10100000352E+00 0.  1.
       -3    1    3    3    0  502 -0.11066597013E+04 -0.55814277934E+02 -0.38900705366E+03  0.11743668192E+04  0.10100000352E+00 0. -1.
</event>
<event>
 5   0  0.1116310E-05  0.2600536E+04  0.7818609E-02  0.8368019E-01
       -2   -1    0    0    0  501  0.00000000000E+00  0.00000000000E+00  0.79508098709E+03  0.79508098709E+03  0.25500000920E-02 0. -1.
        2   -1    0    0  501    0  0.00000000000E+00  0.00000000000E+00 -0.21264464406E+04  0.21264464406E+04  0.25500000920E-02 0.  1.
    10030    2    1    2    0    0  0.00000000000E+00  0.00000000000E+00 -0.13313654535E+04  0.29215274277E+04  0.26005362024E+04 0.  0.
        4    1    3    3  502    0 -0.53675572339E+03  0.11793843417E+04 -0.78689580568E+03  0.15160015679E+04  0.12699999809E+01 0.  1.
       -4    1    3    3    0  502  0.53675572339E+03 -0.11793843417E+04 -0.54446964779E+03  0.14055258597E+04  0.12699999809E+01 0. -1.
</event>
<event>
 5   0  0.1085255E-05  0.2609545E+04  0.7818609E-02  0.8364966E-01
       -2   -1    0    0    0  501  0.00000000000E+00  0.00000000000E+00  0.53190390888E+03  0.53190390889E+03  0.25500000920E-02 0.  1.
        2   -1    0    0  501    0  0.00000000000E+00  0.00000000000E+00 -0.32006369685E+04  0.32006369685E+04  0.25500000920E-02 0. -1.
    10030    2    1    2    0    0  0.00000000000E+00  0.00000000000E+00 -0.26687330596E+04  0.37325408774E+04  0.26095450289E+04 0.  0.
        5    1    3    3  502    0  0.38686096774E+03  0.12296034827E+04 -0.16233631222E+04  0.20729003955E+04  0.46999998093E+01 0. -1.
       -5    1    3    3    0  502 -0.38686096774E+03 -0.12296034827E+04 -0.10453699375E+04  0.16596404819E+04  0.46999998093E+01 0.  1.
</event>
<event>
 5   0  0.4597705E-06  0.2607807E+04  0.7818609E-02  0.8365554E-01
       -1   -1    0    0    0  501  0.00000000000E+00  0.00000000000E+00  0.16592585765E+04  0.16592585765E+04  0.50400001928E-02 0.  1.
        1   -1    0    0  501    0  0.00000000000E+00  0.00000000000E+00 -0.10246533460E+04  0.10246533461E+04  0.50400001928E-02 0. -1.
    10030    2    1    2    0    0  0.00000000000E+00  0.00000000000E+00  0.63460523049E+03  0.26839119226E+04  0.26078073950E+04 0.  0.
        5    1    3    3  502    0 -0.87833248665E+03  0.22995566619E+03 -0.64584760121E+03  0.11142211538E+04  0.46999998093E+01 0. -1.
       -5    1    3    3    0  502  0.87833248665E+03 -0.22995566619E+03  0.12804528317E+04  0.15696907688E+04  0.46999998093E+01 0.  1.
</event>
<event>
 5   0  0.1136881E-05  0.2482370E+04  0.7818609E-02  0.8409293E-01
        2   -1    0    0  501    0  0.00000000000E+00  0.00000000000E+00  0.83981574102E+03  0.83981574102E+03  0.25500000920E-02 0.  1.
       -2   -1    0    0    0  501  0.00000000000E+00  0.00000000000E+00 -0.18343783254E+04  0.18343783254E+04  0.25500000920E-02 0. -1.
    10030    2    1    2    0    0  0.00000000000E+00  0.00000000000E+00 -0.99456258438E+03  0.26741940664E+04  0.24823696684E+04 0.  0.
        3    1    3    3  502    0  0.71885979764E+03 -0.97782817328E+03 -0.21712267562E+03  0.12329029206E+04  0.10100000352E+00 0.  1.
       -3    1    3    3    0  502 -0.71885979764E+03  0.97782817328E+03 -0.77743990876E+03  0.14412911458E+04  0.10100000352E+00 0. -1.
</event>
<event>
 5   0  0.1085061E-05  0.2552146E+04  0.7818609E-02  0.8384640E-01
       -2   -1    0    0    0  501  0.00000000000E+00  0.00000000000E+00  0.12286575954E+04  0.12286575955E+04  0.25500000920E-02 0.  1.
        2   -1    0    0  501    0  0.00000000000E+00  0.00000000000E+00 -0.13253183258E+04  0.13253183258E+04  0.25500000920E-02 0. -1.
    10030    2    1    2    0    0  0.00000000000E+00  0.00000000000E+00 -0.96660730349E+02  0.25539759212E+04  0.25521460988E+04 0.  0.
        1    1    3    3  502    0  0.11122239635E+04 -0.36269244580E+03  0.46171581782E+03  0.12576841621E+04  0.50400001928E-02 0.  1.
       -1    1    3    3    0  502 -0.11122239635E+04  0.36269244580E+03 -0.55837654817E+03  0.12962917591E+04  0.50400001928E-02 0. -1.
</event>
<event>
 5   0  0.1116310E-05  0.2596711E+04  0.7818609E-02  0.8369319E-01
        2   -1    0    0  501    0  0.00000000000E+00  0.00000000000E+00  0.19364783839E+04  0.19364783839E+04  0.25500000920E-02 0. -1.
       -2   -1    0    0    0  501  0.00000000000E+00  0.00000000000E+00 -0.87051152403E+03  0.87051152403E+03  0.25500000920E-02 0.  1.
    10030    2    1    2    0    0  0.00000000000E+00  0.00000000000E+00  0.10659668599E+04  0.28069899080E+04  0.25967108035E+04 0.  0.
        4    1    3    3  502    0 -0.80174515821E+03  0.11676874128E+03  0.16296817459E+04  0.18199710007E+04  0.12699999809E+01 0. -1.
       -4    1    3    3    0  502  0.80174515821E+03 -0.11676874128E+03 -0.56371488600E+03  0.98701890724E+03  0.12699999809E+01 0.  1.
</event>
<event>
 5   0  0.1085061E-05  0.2520834E+04  0.7818609E-02  0.8395601E-01
       -2   -1    0    0    0  501  0.00000000000E+00  0.00000000000E+00  0.70952300502E+03  0.70952300502E+03  0.25500000920E-02 0.  1.
        2   -1    0    0  501    0  0.00000000000E+00  0.00000000000E+00 -0.22390407206E+04  0.22390407206E+04  0.25500000920E-02 0. -1.
    10030    2    1    2    0    0  0.00000000000E+00  0.00000000000E+00 -0.15295177156E+04  0.29485637257E+04  0.25208339100E+04 0.  0.
        1    1    3    3  502    0 -0.49511328577E+03 -0.81349885911E+03 -0.17305285076E+04  0.19752585844E+04  0.50400001928E-02 0. -1.
       -1    1    3    3    0  502  0.49511328577E+03  0.81349885911E+03  0.20101079198E+03  0.97330514128E+03  0.50400001928E-02 0.  1.
</event>
<event>
 5   0  0.1136881E-05  0.2632243E+04  0.7818609E-02  0.8357331E-01
        2   -1    0    0  501    0  0.00000000000E+00  0.00000000000E+00  0.11323473607E+04  0.11323473607E+04  0.25500000920E-02 0. -1.
       -2   -1    0    0    0  501  0.00000000000E+00  0.00000000000E+00 -0.15297207362E+04  0.15297207362E+04  0.25500000920E-02 0.  1.
    10030    2    1    2    0    0  0.00000000000E+00  0.00000000000E+00 -0.39737337544E+03  0.26620680969E+04  0.26322425711E+04 0.  0.
        3    1    3    3  502    0  0.12278699613E+03 -0.10801843374E+04 -0.94891449614E+03  0.14430223770E+04  0.10100000352E+00 0.  1.
       -3    1    3    3    0  502 -0.12278699613E+03  0.10801843374E+04  0.55154112070E+03  0.12190457199E+04  0.10100000352E+00 0. -1.
</event>
<event>
 5   0  0.1086507E-05  0.2571964E+04  0.7818609E-02  0.8377787E-01
       -2   -1    0    0    0  501  0.00000000000E+00  0.00000000000E+00  0.97106721990E+03  0.97106721990E+03  0.25500000920E-02 0. -1.
        2   -1    0    0  501    0  0.00000000000E+00  0.00000000000E+00 -0.17030233980E+04  0.17030233980E+04  0.25500000920E-02 0.  1.
    10030    2    1    2    0    0  0.00000000000E+00  0.00000000000E+00 -0.73195617813E+03  0.26740906179E+04  0.25719643828E+04 0.  0.
        2    1    3    3  502    0  0.12211352471E+04 -0.33297346634E+03 -0.60240029118E+03  0.14017591561E+04  0.25500000920E-02 0.  1.
       -2    1    3    3    0  502 -0.12211352471E+04  0.33297346634E+03 -0.12955588695E+03  0.12723314618E+04  0.25500000920E-02 0. -1.
</event>
<event>
 5   0  0.1085061E-05  0.2610923E+04  0.7818609E-02  0.8364500E-01
        2   -1    0    0  501    0  0.00000000000E+00  0.00000000000E+00  0.12241602309E+04  0.12241602309E+04  0.25500000920E-02 0.  1.
       -2   -1    0    0    0  501  0.00000000000E+00  0.00000000000E+00 -0.13921624975E+04  0.13921624975E+04  0.25500000920E-02 0. -1.
    10030    2    1    2    0    0  0.00000000000E+00  0.00000000000E+00 -0.16800226656E+03  0.26163227284E+04  0.26109231811E+04 0.  0.
        1    1    3    3  502    0  0.25217345625E+03  0.87421793412E+03 -0.10220896602E+04  0.13683989629E+04  0.50400001928E-02 0. -1.
       -1    1    3    3    0  502 -0.25217345625E+03 -0.87421793412E+03  0.85408739360E+03  0.12479237654E+04  0.50400001928E-02 0.  1.
</event>
<event>
 5   0  0.1086507E-05  0.2604081E+04  0.7818609E-02  0.8366816E-01
        2   -1    0    0  501    0  0.00000000000E+00  0.00000000000E+00  0.28747031733E+04  0.28747031733E+04  0.25500000920E-02 0. -1.
       -2   -1    0    0    0  501  0.00000000000E+00  0.00000000000E+00 -0.58973353427E+03  0.58973353427E+03  0.25500000920E-02 0.  1.
    10030    2    1    2    0    0  0.00000000000E+00  0.00000000000E+00  0.22849696391E+04  0.34644367076E+04  0.26040805382E+04 0.  0.
        2    1    3    3  502    0 -0.86424400581E+03 -0.83611016421E+03  0.18067613369E+04  0.21703420092E+04  0.25500000920E-02 0. -1.
       -2    1    3    3    0  502  0.86424400581E+03  0.83611016421E+03  0.47820830218E+03  0.12940946984E+04  0.25500000920E-02 0.  1.
</event>
<event>
 5   0  0.4218590E-06  0.2611399E+04  0.7818609E-02  0.8364340E-01
        1   -1    0    0  501    0  0.00000000000E+00  0.00000000000E+00  0.91548163354E+03  0.91548163355E+03  0.50400001928E-02 0.  1.
       -1   -1    0    0    0  501  0.00000000000E+00  0.00000000000E+00 -0.18622450981E+04  0.18622450981E+04  0.50400001928E-02 0. -1.
    10030    2    1    2    0    0  0.00000000000E+00  0.00000000000E+00 -0.94676346455E+03  0.27777267316E+04  0.26113990001E+04 0.  0.
        1    1    3    3  502    0  0.22010106871E+01  0.34673750353E+03 -0.18123761766E+04  0.18452477195E+04  0.50400001928E-02 0. -1.
       -1    1    3    3    0  502 -0.22010106871E+01 -0.34673750353E+03  0.86561271205E+03  0.93247901214E+03  0.50400001928E-02 0.  1.
</event>
<event>
 5   0  0.4415080E-06  0.2589830E+04  0.7818609E-02  0.8371664E-01
       -1   -1    0    0    0  501  0.00000000000E+00  0.00000000000E+00  0.16055535214E+04  0.16055535214E+04  0.50400001928E-02 0. -1.
        1   -1    0    0  501    0  0.00000000000E+00  0.00000000000E+00 -0.10443778223E+04  0.10443778223E+04  0.50400001928E-02 0.  1.
    10030    2    1    2    0    0  0.00000000000E+00  0.00000000000E+00  0.56117569904E+03  0.26499313437E+04  0.25898297166E+04 0.  0.
        2    1    3    3  502    0  0.98745828679E+03  0.81701632242E+03  0.91322385587E+02  0.12848849432E+04  0.25500000920E-02 0.  1.
       -2    1    3    3    0  502 -0.98745828679E+03 -0.81701632242E+03  0.46985331345E+03  0.13650464005E+04  0.25500000920E-02 0. -1.
</event>
<event>
 5   0  0.4464297E-06  0.2561296E+04  0.7818609E-02  0.8381468E-01
        1   -1    0    0  501    0  0.00000000000E+00  0.00000000000E+00  0.14386182434E+04  0.14386182434E+04  0.50400001928E-02 0.  1.
       -1   -1    0    0    0  501  0.00000000000E+00  0.00000000000E+00 -0.11400239338E+04  0.11400239338E+04  0.50400001928E-02 0. -1.
    10030    2    1    2    0    0  0.00000000000E+00  0.00000000000E+00  0.29859430965E+03  0.25786421772E+04  0.25612959447E+04 0.  0.
        4    1    3    3  502    0 -0.10368500053E+04  0.59008042279E+03  0.61807355947E+03  0.13436031321E+04  0.12699999809E+01 0. -1.
       -4    1    3    3    0  502  0.10368500053E+04 -0.59008042279E+03 -0.31947924982E+03  0.12350390451E+04  0.12699999809E+01 0.  1.
</event>
<event>
 5   0  0.4597705E-06  0.2602980E+04  0.7818609E-02  0.8367190E-01
       -1   -1    0    0    0  501  0.00000000000E+00  0.00000000000E+00  0.67919933910E+03  0.67919933911E+03  0.50400001928E-02 0.  1.
        1   -1    0    0  501    0  0.00000000000E+00  0.00000000000E+00 -0.24939306719E+04  0.24939306720E+04  0.50400001928E-02 0. -1.
    10030    2    1    2    0    0  0.00000000000E+00  0.00000000000E+00 -0.18147313329E+04  0.31731300111E+04  0.26029798802E+04 0.  0.
        5    1    3    3  502    0 -0.47912490279E+03 -0.57509130631E+03 -0.22052618102E+04  0.23288392870E+04  0.46999998093E+01 0. -1.
       -5    1    3    3    0  502  0.47912490279E+03  0.57509130631E+03  0.39053047733E+03  0.84429072410E+03  0.46999998093E+01 0.  1.
</event>
<event>
 5   0  0.1136881E-05  0.2595205E+04  0.7818609E-02  0.8369832E-01
        2   -1    0    0  501    0  0.00000000000E+00  0.00000000000E+00  0.10578622201E+04  0.10578622201E+04  0.25500000920E-02 0.  1.
       -2   -1    0    0    0  501  0.00000000000E+00  0.00000000000E+00 -0.15916746631E+04  0.15916746631E+04  0.25500000920E-02 0. -1.
    10030    2    1    2    0    0  0.00000000000E+00  0.00000000000E+00 -0.53381244305E+03  0.26495368832E+04  0.25952051886E+04 0.  0.
        3    1    3    3  502    0 -0.34748403522E+03  0.99019432391E+03 -0.10461298031E+04  0.14817616302E+04  0.10100000352E+00 0. -1.
       -3    1    3    3    0  502  0.34748403522E+03 -0.99019432391E+03  0.51231736001E+03  0.11677752529E+04  0.10100000352E+00 0.  1.
</event>
<event>
 5   0  0.1136881E-05  0.2593943E+04  0.7818609E-02  0.8370262E-01
        2   -1    0    0  501    0  0.00000000000E+00  0.00000000000E+00  0.22377785709E+04  0.22377785709E+04  0.25500000920E-02 0. -1.
       -2   -1    0    0    0  501  0.00000000000E+00  0.00000000000E+00 -0.75169834803E+03  0.75169834803E+03  0.25500000920E-02 0.  1.
    10030    2    1    2    0    0  0.00000000000E+00  0.00000000000E+00  0.14860802228E+04  0.29894769189E+04  0.25939425244E+04 0.  0.
        3    1    3    3  502    0 -0.10783110582E+04 -0.19950788027E+03 -0.55071662496E+02  0.10979940941E+04  0.10100000352E+00 0.  1.
       -3    1    3    3    0  502  0.10783110582E+04  0.19950788027E+03  0.15411518853E+04  0.18914828248E+04  0.10100000352E+00 0. -1.
</event>
<event>
 5   0  0.4361864E-06  0.2625014E+04  0.7818609E-02  0.8359754E-01
       -1   -1    0    0    0  501  0.00000000000E+00  0.00000000000E+00  0.13153884692E+04  0.13153884693E+04  0.50400001928E-02 0.  1.
        1   -1    0    0  501    0  0.00000000000E+00  0.00000000000E+00 -0.13096319437E+04  0.13096319437E+04  0.50400001928E-02 0. -1.
    10030    2    1    2    0    0  0.00000000000E+00  0.00000000000E+00  0.57565255875E+01  0.26250204129E+04  0.26250141011E+04 0.  0.
        3    1    3    3  502    0 -0.55804088766E+03 -0.16936186237E+03 -0.11729568973E+04  0.13099316645E+04  0.10100000352E+00 0. -1.
       -3    1    3    3    0  502  0.55804088766E+03  0.16936186237E+03  0.11787134228E+04  0.13150887484E+04  0.10100000352E+00 0.  1.
</event>
<event>
 5   0  0.4464297E-06  0.2569157E+04  0.7818609E-02  0.8378754E-01
        1   -1    0    0  501    0  0.00000000000E+00  0.00000000000E+00  0.14776241341E+04  0.14776241341E+04  0.50400001928E-02 0. -1.
       -1   -1    0    0    0  501  0.00000000000E+00  0.00000000000E+00 -0.11167538244E+04  0.11167538244E+04  0.50400001928E-02 0.  1.
    10030    2    1    2    0    0  0.00000000000E+00  0.00000000000E+00  0.36087030973E+03  0.25943779586E+04  0.25691573738E+04 0.  0.
        4    1    3    3  502    0 -0.51223394911E+03  0.11011420085E+04  0.60316550901E+03  0.13559895227E+04  0.12699999809E+01 0. -1.
       -4    1    3    3    0  502  0.51223394911E+03 -0.11011420085E+04 -0.24229519928E+03  0.12383884359E+04  0.12699999809E+01 0.  1.
</event>
<event>
 5   0  0.4597705E-06  0.2593948E+04  0.7818609E-02  0.8370260E-01
        1   -1    0    0  501    0  0.00000000000E+00  0.00000000000E+00  0.11660785931E+04  0.11660785931E+04  0.50400001928E-02 0.  1.
       -1   -1    0    0    0  501  0.00000000000E+00  0.00000000000E+00 -0.14425630367E+04  0.14425630367E+04  0.50400001928E-02 0. -1.
    10030    2    1    2    0    0  0.00000000000E+00  0.00000000000E+00 -0.27648444354E+03  0.26086416298E+04  0.25939482464E+04 0.  0.
        5    1    3    3  502    0  0.11366438405E+04  0.59400603885E+03 -0.33251357098E+03  0.13249112269E+04  0.46999998093E+01 0.  1.
       -5    1    3    3    0  502 -0.11366438405E+04 -0.59400603885E+03  0.56029127436E+02  0.12837304029E+04  0.46999998093E+01 0. -1.
</event>
<event>
 5   0  0.1116310E-05  0.2598359E+04  0.7818609E-02  0.8368759E-01
        2   -1    0    0  501    0  0.00000000000E+00  0.00000000000E+00  0.18285255910E+04  0.18285255910E+04  0.25500000920E-02 0. -1.
       -2   -1    0    0    0  501  0.00000000000E+00  0.00000000000E+00 -0.92307537218E+03  0.92307537218E+03  0.25500000920E-02 0.  1.
    10030    2    1    2    0    0  0.00000000000E+00  0.00000000000E+00  0.90545021878E+03  0.27516009631E+04  0.25983586669E+04 0.  0.
        4    1    3    3  502    0  0.54413932442E+03  0.45717510687E+03  0.16044168575E+04  0.17547796865E+04  0.12699999809E+01 0. -1.
       -4    1    3    3    0  502 -0.54413932442E+03 -0.45717510687E+03 -0.69896663868E+03  0.99682127666E+03  0.12699999809E+01 0.  1.
</event>
<event>
 5   0  0.1116310E-05  0.2916735E+04  0.7818609E-02  0.8267916E-01
       -2   -1    0    0    0  501  0.00000000000E+00  0.00000000000E+00  0.10578141009E+04  0.10578141009E+04  0.25500000920E-02 0.  1.
        2   -1    0    0  501    0  0.00000000000E+00  0.00000000000E+00 -0.20105945280E+04  0.20105945280E+04  0.25500000920E-02 0. -1.
    10030    2    1    2    0    0  0.00000000000E+00  0.00000000000E+00 -0.95278042713E+03  0.30684086289E+04  0.29167346419E+04 0.  0.
        4    1    3    3  502    0 -0.24655771411E+03  0.14319318252E+04 -0.34493562523E+03  0.14933859705E+04  0.12699999809E+01 0.  1.
       -4    1    3    3    0  502  0.24655771411E+03 -0.14319318252E+04 -0.60784480190E+03  0.15750226584E+04  0.12699999809E+01 0. -1.
</event>
<event>
 5   0  0.1136881E-05  0.2553194E+04  0.7818609E-02  0.8384276E-01
       -2   -1    0    0    0  501  0.00000000000E+00  0.00000000000E+00  0.15021847835E+04  0.15021847835E+04  0.25500000920E-02 0. -1.
        2   -1    0    0  501    0  0.00000000000E+00  0.00000000000E+00 -0.10848861911E+04  0.10848861911E+04  0.25500000920E-02 0.  1.
    10030    2    1    2    0    0  0.00000000000E+00  0.00000000000E+00  0.41729859245E+03  0.25870709746E+04  0.25531937084E+04 0.  0.
        3    1    3    3  502    0  0.34761008715E+03 -0.10965912416E+04  0.76948626689E+03  0.13839993674E+04  0.10100000352E+00 0. -1.
       -3    1    3    3    0  502 -0.34761008715E+03  0.10965912416E+04 -0.35218767443E+03  0.12030716072E+04  0.10100000352E+00 0.  1.
</event>
<event>
 5   0  0.4218590E-06  0.2596736E+04  0.7818609E-02  0.8369311E-01
       -1   -1    0    0    0  501  0.00000000000E+00  0.00000000000E+00  0.13458117180E+04  0.13458117180E+04  0.50400001928E-02 0. -1.
        1   -1    0    0  501    0  0.00000000000E+00  0.00000000000E+00 -0.12525969914E+04  0.12525969914E+04  0.50400001928E-02 0.  1.
    10030    2    1    2    0    0  0.00000000000E+00  0.00000000000E+00  0.93214726539E+02  0.25984087094E+04  0.25967361891E+04 0.  0.
        1    1    3    3  502    0  0.94798743807E+03  0.62167874146E+03 -0.58672609535E+03  0.12764842934E+04  0.50400001928E-02 0.  1.
       -1    1    3    3    0  502 -0.94798743807E+03 -0.62167874146E+03  0.67994082189E+03  0.13219244160E+04  0.50400001928E-02 0. -1.
</event>
<event>
 5   0  0.1116310E-05  0.2440819E+04  0.7818609E-02  0.8424378E-01
        2   -1    0    0  501    0  0.00000000000E+00  0.00000000000E+00  0.16897569147E+04  0.16897569147E+04  0.25500000920E-02 0.  1.
       -2   -1    0    0    0  501  0.00000000000E+00  0.00000000000E+00 -0.88142810700E+03  0.88142810700E+03  0.25500000920E-02 0. -1.
    10030    2    1    2    0    0  0.00000000000E+00  0.00000000000E+00  0.80832880768E+03  0.25711850217E+04  0.24408189106E+04 0.  0.
        4    1    3    3  502    0  0.90368113424E+03  0.18882735828E+03 -0.43665426066E+03  0.10212560501E+04  0.12699999809E+01 0. -1.
       -4    1    3    3    0  502 -0.90368113424E+03 -0.18882735828E+03  0.12449830683E+04  0.15499289716E+04  0.12699999809E+01 0.  1.
</event>
<event>
 5   0  0.4464297E-06  0.2605980E+04  0.7818609E-02  0.8366173E-01
        1   -1    0    0  501    0  0.00000000000E+00  0.00000000000E+00  0.20149689066E+04  0.20149689066E+04  0.50400001928E-02 0.  1.
       -1   -1    0    0    0  501  0.00000000000E+00  0.00000000000E+00 -0.84258514953E+03  0.84258514955E+03  0.50400001928E-02 0. -1.
    10030    2    1    2    0    0  0.00000000000E+00  0.00000000000E+00  0.11723837571E+04  0.28575540562E+04  0.26059799520E+04 0.  0.
        4    1    3    3  502    0 -0.42270732700E+03  0.44978130202E+03 -0.67210386094E+03  0.91252940596E+03  0.12699999809E+01 0. -1.
       -4    1    3    3    0  502  0.42270732700E+03 -0.44978130202E+03  0.18444876180E+04  0.19450246502E+04  0.12699999809E+01 0.  1.
</event>
<event>
 5   0  0.1085061E-05  0.2615960E+04  0.7818609E-02  0.8362800E-01
        2   -1    0    0  501    0  0.00000000000E+00  0.00000000000E+00  0.15148007450E+04  0.15148007450E+04  0.25500000920E-02 0. -1.
       -2   -1    0    0    0  501  0.00000000000E+00  0.00000000000E+00 -0.11293972405E+04  0.11293972405E+04  0.25500000920E-02 0.  1.
    10030    2    1    2    0    0  0.00000000000E+00  0.00000000000E+00  0.38540350451E+03  0.26441979855E+04  0.26159600772E+04 0.  0.
        1    1    3    3  502    0 -0.83021827373E+03  0.16659192282E+03  0.12003561307E+04  0.14689690573E+04  0.50400001928E-02 0. -1.
       -1    1    3    3    0  502  0.83021827373E+03 -0.16659192282E+03 -0.81495262619E+03  0.11752289282E+04  0.50400001928E-02 0.  1.
</event>
<event>
 5   0  0.1085255E-05  0.2587372E+04  0.7818609E-02  0.8372503E-01
        2   -1    0    0  501    0  0.00000000000E+00  0.00000000000E+00  0.26898296274E+04  0.26898296274E+04  0.25500000920E-02 0.  1.
       -2   -1    0    0    0  501  0.00000000000E+00  0.00000000000E+00 -0.62220435603E+03  0.62220435604E+03  0.25500000920E-02 0. -1.
    10030    2    1    2    0    0  0.00000000000E+00  0.00000000000E+00  0.20676252714E+04  0.33120339834E+04  0.25873721890E+04 0.  0.
        5    1    3    3  502    0 -0.81466306379E+03 -0.13322573564E+03 -0.24124663232E+03  0.86002734361E+03  0.46999998093E+01 0. -1.
       -5    1    3    3    0  502  0.81466306379E+03  0.13322573564E+03  0.23088719037E+04  0.24520066398E+04  0.46999998093E+01 0.  1.
</event>
<event>
 5   0  0.4218590E-06  0.2623485E+04  0.7818609E-02  0.8360267E-01
       -1   -1    0    0    0  501  0.00000000000E+00  0.00000000000E+00  0.87873926348E+03  0.87873926350E+03  0.50400001928E-02 0. -1.
        1   -1    0    0  501    0  0.00000000000E+00  0.00000000000E+00 -0.19581110140E+04  0.19581110140E+04  0.50400001928E-02 0.  1.
    10030    2    1    2    0    0  0.00000000000E+00  0.00000000000E+00 -0.10793717505E+04  0.28368502775E+04  0.26234854910E+04 0.  0.
        1    1    3    3  502    0 -0.14445418776E+01  0.12370483224E+04 -0.10114952601E+04  0.15979403305E+04  0.50400001928E-02 0.  1.
       -1    1    3    3    0  502  0.14445418776E+01 -0.12370483224E+04 -0.67876490446E+02  0.12389099470E+04  0.50400001928E-02 0. -1.
</event>
<event>
 5   0  0.4218590E-06  0.2624465E+04  0.7818609E-02  0.8359938E-01
       -1   -1    0    0    0  501  0.00000000000E+00  0.00000000000E+00  0.13020240860E+04  0.13020240860E+04  0.50400001928E-02 0.  1.
        1   -1    0    0  501    0  0.00000000000E+00  0.00000000000E+00 -0.13225207168E+04  0.13225207168E+04  0.50400001928E-02 0. -1.
    10030    2    1    2    0    0  0.00000000000E+00  0.00000000000E+00 -0.20496630853E+02  0.26245448028E+04  0.26244647664E+04 0.  0.
        1    1    3    3  502    0  0.10507255860E+04 -0.33883582554E+03  0.69908273616E+03  0.13067328135E+04  0.50400001928E-02 0.  1.
       -1    1    3    3    0  502 -0.10507255860E+04  0.33883582554E+03 -0.71957936701E+03  0.13178119893E+04  0.50400001928E-02 0. -1.
</event>
<event>
 5   0  0.4464297E-06  0.2606951E+04  0.7818609E-02  0.8365844E-01
       -1   -1    0    0    0  501  0.00000000000E+00  0.00000000000E+00  0.97180772415E+03  0.97180772417E+03  0.50400001928E-02 0. -1.
        1   -1    0    0  501    0  0.00000000000E+00  0.00000000000E+00 -0.17483383622E+04  0.17483383622E+04  0.50400001928E-02 0.  1.
    10030    2    1    2    0    0  0.00000000000E+00  0.00000000000E+00 -0.77653063805E+03  0.27201460864E+04  0.26069512652E+04 0.  0.
        4    1    3    3  502    0 -0.75582617939E+02 -0.87767352930E+03 -0.13907222164E+04  0.16462482961E+04  0.12699999809E+01 0.  1.
       -4    1    3    3    0  502  0.75582617939E+02  0.87767352930E+03  0.61419157837E+03  0.10738977903E+04  0.12699999809E+01 0. -1.
</event>
<event>
 5   0  0.1116310E-05  0.2623045E+04  0.7818609E-02  0.8360415E-01
       -2   -1    0    0    0  501  0.00000000000E+00  0.00000000000E+00  0.99051952022E+03  0.99051952023E+03  0.25500000920E-02 0. -1.
        2   -1    0    0  501    0  0.00000000000E+00  0.00000000000E+00 -0.17365547629E+04  0.17365547629E+04  0.25500000920E-02 0.  1.
    10030    2    1    2    0    0  0.00000000000E+00  0.00000000000E+00 -0.74603524272E+03  0.27270742832E+04  0.26230450935E+04 0.  0.
        4    1    3    3  502    0 -0.12138412961E+04 -0.18400637213E+03 -0.85263861714E+03  0.14947452162E+04  0.12699999809E+01 0.  1.
       -4    1    3    3    0  502  0.12138412961E+04  0.18400637213E+03  0.10660337442E+03  0.12323290670E+04  0.12699999809E+01 0. -1.
</event>
<event>
 5   0  0.4218590E-06  0.2728022E+04  0.7818609E-02  0.8325970E-01
        1   -1    0    0  501    0  0.00000000000E+00  0.00000000000E+00  0.14602046347E+04  0.14602046347E+04  0.50400001928E-02 0. -1.
       -1   -1    0    0    0  501  0.00000000000E+00  0.00000000000E+00 -0.12741546869E+04  0.12741546869E+04  0.50400001928E-02 0.  1.
    10030    2    1    2    0    0  0.00000000000E+00  0.00000000000E+00  0.18604994784E+03  0.27343593216E+04  0.27280224187E+04 0.  0.
        1    1    3    3  502    0 -0.48488155695E+03 -0.33418794115E+03  0.13262222532E+04  0.14510882707E+04  0.50400001928E-02 0. -1.
       -1    1    3    3    0  502  0.48488155695E+03  0.33418794115E+03 -0.11401723054E+04  0.12832710510E+04  0.50400001928E-02 0.  1.
</event>
<event>
 5   0  0.1085061E-05  0.2591781E+04  0.7818609E-02  0.8370998E-01
       -2   -1    0    0    0  501  0.00000000000E+00  0.00000000000E+00  0.10620639914E+04  0.10620639914E+04  0.25500000920E-02 0.  1.
        2   -1    0    0  501    0  0.00000000000E+00  0.00000000000E+00 -0.15811968687E+04  0.15811968687E+04  0.25500000920E-02 0. -1.
    10030    2    1    2    0    0  0.00000000000E+00  0.00000000000E+00 -0.51913287729E+03  0.26432608602E+04  0.25917810538E+04 0.  0.
        1    1    3    3  502    0 -0.10347923934E+03  0.11654779603E+04  0.30853044263E+03  0.12100569668E+04  0.50400001928E-02 0. -1.
       -1    1    3    3    0  502  0.10347923934E+03 -0.11654779603E+04 -0.82766331992E+03  0.14332038934E+04  0.50400001928E-02 0.  1.
</event>
<event>
 5   0  0.4597705E-06  0.2525286E+04  0.7818609E-02  0.8394032E-01
        1   -1    0    0  501    0  0.00000000000E+00  0.00000000000E+00  0.12504477076E+04  0.12504477077E+04  0.50400001928E-02 0.  1.
       -1   -1    0    0    0  501  0.00000000000E+00  0.00000000000E+00 -0.12749576825E+04  0.12749576825E+04  0.50400001928E-02 0. -1.
    10030    2    1    2    0    0  0.00000000000E+00  0.00000000000E+00 -0.24509974887E+02  0.25254053902E+04  0.25252864483E+04 0.  0.
        5    1    3    3  502    0  0.48327143443E+02 -0.98113863200E+03 -0.80556235112E+03  0.12704020307E+04  0.46999998093E+01 0.  1.
       -5    1    3    3    0  502 -0.48327143443E+02  0.98113863200E+03  0.78105237623E+03  0.12550033595E+04  0.46999998093E+01 0. -1.
</event>
<event>
 5   0  0.1136881E-05  0.2595699E+04  0.7818609E-02  0.8369663E-01
       -2   -1    0    0    0  501  0.00000000000E+00  0.00000000000E+00  0.11806489256E+04  0.11806489256E+04  0.25500000920E-02 0. -1.
        2   -1    0    0  501    0  0.00000000000E+00  0.00000000000E+00 -0.14266847286E+04  0.14266847286E+04  0.25500000920E-02 0.  1.
    10030    2    1    2    0    0  0.00000000000E+00  0.00000000000E+00 -0.24603580301E+03  0.26073336542E+04  0.25956993601E+04 0.  0.
        3    1    3    3  502    0 -0.18001535962E+02 -0.96106917029E+03 -0.99895615052E+03  0.13863229805E+04  0.10100000352E+00 0.  1.
       -3    1    3    3    0  502  0.18001535962E+02  0.96106917029E+03  0.75292034752E+03  0.12210106737E+04  0.10100000352E+00 0. -1.
</event>
<event>
 5   0  0.4218590E-06  0.2538082E+04  0.7818609E-02  0.8389543E-01
        1   -1    0    0  501    0  0.00000000000E+00  0.00000000000E+00  0.12937728455E+04  0.12937728455E+04  0.50400001928E-02 0. -1.
       -1   -1    0    0    0  501  0.00000000000E+00  0.00000000000E+00 -0.12447815347E+04  0.12447815347E+04  0.50400001928E-02 0.  1.
    10030    2    1    2    0    0  0.00000000000E+00  0.00000000000E+00  0.48991310792E+02  0.25385543802E+04  0.25380815969E+04 0.  0.
        1    1    3    3  502    0  0.19813381421E+03 -0.67826120011E+03  0.10788121595E+04  0.12896243404E+04  0.50400001928E-02 0. -1.
       -1    1    3    3    0  502 -0.19813381421E+03  0.67826120011E+03 -0.10298208487E+04  0.12489300398E+04  0.50400001928E-02 0.  1.
</event>
<event>
 5   0  0.4597705E-06  0.2591086E+04  0.7818609E-02  0.8371235E-01
       -1   -1    0    0    0  501  0.00000000000E+00  0.00000000000E+00  0.90590813162E+03  0.90590813164E+03  0.50400001928E-02 0. -1.
        1   -1    0    0  501    0  0.00000000000E+00  0.00000000000E+00 -0.18527612344E+04  0.18527612344E+04  0.50400001928E-02 0.  1.
    10030    2    1    2    0    0  0.00000000000E+00  0.00000000000E+00 -0.94685310275E+03  0.27586693660E+04  0.25910858482E+04 0.  0.
        5    1    3    3  502    0  0.85449891360E+01  0.86783211307E+03  0.55065973445E+03  0.10278393972E+04  0.46999998093E+01 0. -1.
       -5    1    3    3    0  502 -0.85449891360E+01 -0.86783211307E+03 -0.14975128372E+04  0.17308299688E+04  0.46999998093E+01 0.  1.
</event>
<event>
 5   0  0.1085255E-05  0.2610172E+04  0.7818609E-02  0.8364754E-01
        2   -1    0    0  501    0  0.00000000000E+00  0.00000000000E+00  0.15348086734E+04  0.15348086734E+04  0.25500000920E-02 0.  1.
       -2   -1    0    0    0  501  0.00000000000E+00  0.00000000000E+00 -0.11097474732E+04  0.11097474732E+04  0.25500000920E-02 0. -1.
    10030    2    1    2    0    0  0.00000000000E+00  0.00000000000E+00  0.42506120016E+03  0.26445561466E+04  0.26101724442E+04 0.  0.
        5    1    3    3  502    0  0.94918774244E+03 -0.75541318497E+03 -0.27507988163E+03  0.12439041288E+04  0.46999998093E+01 0.  1.
       -5    1    3    3    0  502 -0.94918774244E+03  0.75541318497E+03  0.70014108178E+03  0.14006520177E+04  0.46999998093E+01 0. -1.
</event>
<event>
 5   0  0.4218590E-06  0.2599981E+04  0.7818609E-02  0.8368208E-01
        1   -1    0    0  501    0  0.00000000000E+00  0.00000000000E+00  0.85579385653E+03  0.85579385655E+03  0.50400001928E-02 0. -1.
       -1   -1    0    0    0  501  0.00000000000E+00  0.00000000000E+00 -0.19747453140E+04  0.19747453140E+04  0.50400001928E-02 0.  1.
    10030    2    1    2    0    0  0.00000000000E+00  0.00000000000E+00 -0.11189514575E+04  0.28305391706E+04  0.25999806984E+04 0.  0.
        1    1    3    3  502    0 -0.10052216514E+04 -0.54893822120E+03  0.11001297461E+03  0.11506114000E+04  0.50400001928E-02 0. -1.
       -1    1    3    3    0  502  0.10052216514E+04  0.54893822120E+03 -0.12289644321E+04  0.16799277706E+04  0.50400001928E-02 0.  1.
</event>
<event>
 5   0  0.4597705E-06  0.2594480E+04  0.7818609E-02  0.8370079E-01
       -1   -1    0    0    0  501  0.00000000000E+00  0.00000000000E+00  0.11123477084E+04  0.11123477084E+04  0.50400001928E-02 0. -1.
        1   -1    0    0  501    0  0.00000000000E+00  0.00000000000E+00 -0.15128647284E+04  0.15128647284E+04  0.50400001928E-02 0.  1.
    10030    2    1    2    0    0  0.00000000000E+00  0.00000000000E+00 -0.40051702003E+03  0.26252124369E+04  0.25944799971E+04 0.  0.
        5    1    3    3  502    0 -0.32903021458E+03 -0.16816695769E+03 -0.14584785063E+04  0.15045672637E+04  0.46999998093E+01 0.  1.
       -5    1    3    3    0  502  0.32903021458E+03  0.16816695769E+03  0.10579614862E+04  0.11206451732E+04  0.46999998093E+01 0. -1.
</event>
<event>
 5   0  0.4361864E-06  0.2593625E+04  0.7818609E-02  0.8370370E-01
        1   -1    0    0  501    0  0.00000000000E+00  0.00000000000E+00  0.86121716744E+03  0.86121716745E+03  0.50400001928E-02 0.  1.
       -1   -1    0    0    0  501  0.00000000000E+00  0.00000000000E+00 -0.19527271684E+04  0.19527271684E+04  0.50400001928E-02 0. -1.
    10030    2    1    2    0    0  0.00000000000E+00  0.00000000000E+00 -0.10915100009E+04  0.28139443358E+04  0.25936246149E+04 0.  0.
        3    1    3    3  502    0  0.25244585271E+03  0.68957434969E+03  0.61391059569E+03  0.95714571618E+03  0.10100000352E+00 0.  1.
       -3    1    3    3    0  502 -0.25244585271E+03 -0.68957434969E+03 -0.17054205966E+04  0.18567986196E+04  0.10100000352E+00 0. -1.
</event>
<event>
 5   0  0.1116310E-05  0.2613503E+04  0.7818609E-02  0.8363629E-01
        2   -1    0    0  501    0  0.00000000000E+00  0.00000000000E+00  0.28524034685E+04  0.28524034685E+04  0.25500000920E-02 0. -1.
       -2   -1    0    0    0  501  0.00000000000E+00  0.00000000000E+00 -0.59865300800E+03  0.59865300801E+03  0.25500000920E-02 0.  1.
    10030    2    1    2    0    0  0.00000000000E+00  0.00000000000E+00  0.22537504605E+04  0.34510564765E+04  0.26135033319E+04 0.  0.
        4    1    3    3  502    0 -0.54888339370E+03 -0.38195466706E+03  0.26093571324E+04  0.26936793805E+04  0.12699999809E+01 0. -1.
       -4    1    3    3    0  502  0.54888339370E+03  0.38195466706E+03 -0.35560667191E+03  0.75737709602E+03  0.12699999809E+01 0.  1.
</event>
<event>
 5   0  0.4415080E-06  0.2565244E+04  0.7818609E-02  0.8380104E-01
        1   -1    0    0  501    0  0.00000000000E+00  0.00000000000E+00  0.12880840928E+04  0.12880840928E+04  0.50400001928E-02 0.  1.
       -1   -1    0    0    0  501  0.00000000000E+00  0.00000000000E+00 -0.12771831921E+04  0.12771831921E+04  0.50400001928E-02 0. -1.
    10030    2    1    2    0    0  0.00000000000E+00  0.00000000000E+00  0.10900900712E+02  0.25652672849E+04  0.25652441236E+04 0.  0.
        2    1    3    3  502    0  0.29849048917E+03  0.11490560237E+04 -0.48003620421E+03  0.12805706053E+04  0.25500000920E-02 0.  1.
       -2    1    3    3    0  502 -0.29849048917E+03 -0.11490560237E+04  0.49093710492E+03  0.12846966797E+04  0.25500000920E-02 0. -1.
</event>
<event>
 5   0  0.3705250E-06  0.2558717E+04  0.7818609E-02  0.8382361E-01
        3   -1    0    0  501    0  0.00000000000E+00  0.00000000000E+00  0.17899458266E+04  0.17899458295E+04  0.10100000352E+00 0.  1.
       -3   -1    0    0    0  501  0.00000000000E+00  0.00000000000E+00 -0.91441766244E+03  0.91441766802E+03  0.10100000352E+00 0. -1.
    10030    2    1    2    0    0  0.00000000000E+00  0.00000000000E+00  0.87552816420E+03  0.27043634975E+04  0.25587169363E+04 0.  0.
        5    1    3    3  502    0  0.59474133045E+03  0.52142889559E+03 -0.62502347378E+03  0.10081080181E+04  0.46999998093E+01 0. -1.
       -5    1    3    3    0  502 -0.59474133045E+03 -0.52142889559E+03  0.15005516380E+04  0.16962554794E+04  0.46999998093E+01 0.  1.
</event>
<event>
 5   0  0.1085061E-05  0.2615630E+04  0.7818609E-02  0.8362911E-01
        2   -1    0    0  501    0  0.00000000000E+00  0.00000000000E+00  0.10727578722E+04  0.10727578722E+04  0.25500000920E-02 0. -1.
       -2   -1    0    0    0  501  0.00000000000E+00  0.00000000000E+00 -0.15943765380E+04  0.15943765380E+04  0.25500000920E-02 0.  1.
    10030    2    1    2    0    0  0.00000000000E+00  0.00000000000E+00 -0.52161866584E+03  0.26671344102E+04  0.26156299298E+04 0.  0.
        1    1    3    3  502    0  0.73830447779E+03  0.92632955637E+03 -0.82597950574E+03  0.14440990592E+04  0.50400001928E-02 0.  1.
       -1    1    3    3    0  502 -0.73830447779E+03 -0.92632955637E+03  0.30436083991E+03  0.12230353510E+04  0.50400001928E-02 0. -1.
</event>
<event>
 5   0  0.1116310E-05  0.2596490E+04  0.7818609E-02  0.8369394E-01
        2   -1    0    0  501    0  0.00000000000E+00  0.00000000000E+00  0.18468003649E+04  0.18468003649E+04  0.25500000920E-02 0.  1.
       -2   -1    0    0    0  501  0.00000000000E+00  0.00000000000E+00 -0.91262735833E+03  0.91262735833E+03  0.25500000920E-02 0. -1.
    10030    2    1    2    0    0  0.00000000000E+00  0.00000000000E+00  0.93417300662E+03  0.27594277233E+04  0.25964903531E+04 0.  0.
        4    1    3    3  502    0 -0.49580427431E+03  0.55520115636E+03  0.15974923473E+04  0.17623999589E+04  0.12699999809E+01 0.  1.
       -4    1    3    3    0  502  0.49580427431E+03 -0.55520115636E+03 -0.66331934066E+03  0.99702776443E+03  0.12699999809E+01 0. -1.
</event>
<event>
 5   0  0.1116310E-05  0.2589065E+04  0.7818609E-02  0.8371925E-01
        2   -1    0    0  501    0  0.00000000000E+00  0.00000000000E+00  0.14419483846E+04  0.14419483846E+04  0.25500000920E-02 0. -1.
       -2   -1    0    0    0  501  0.00000000000E+00  0.00000000000E+00 -0.11621874555E+04  0.11621874555E+04  0.25500000920E-02 0.  1.
    10030    2    1    2    0    0  0.00000000000E+00  0.00000000000E+00  0.27976092906E+03  0.26041358402E+04  0.25890649464E+04 0.  0.
        4    1    3    3  502    0 -0.33086989873E+03 -0.59099282487E+03 -0.96974810633E+03  0.11828611125E+04  0.12699999809E+01 0.  1.
       -4    1    3    3    0  502  0.33086989873E+03  0.59099282487E+03  0.12495090354E+04  0.14212747276E+04  0.12699999809E+01 0. -1.
</event>
<event>
 5   0  0.1086507E-05  0.2596712E+04  0.7818609E-02  0.8369319E-01
        2   -1    0    0  501    0  0.00000000000E+00  0.00000000000E+00  0.12969436860E+04  0.12969436860E+04  0.25500000920E-02 0.  1.
       -2   -1    0    0    0  501  0.00000000000E+00  0.00000000000E+00 -0.12997701464E+04  0.12997701464E+04  0.25500000920E-02 0. -1.
    10030    2    1    2    0    0  0.00000000000E+00  0.00000000000E+00 -0.28264603255E+01  0.25967138324E+04  0.25967122941E+04 0.  0.
        2    1    3    3  502    0 -0.10446943736E+04 -0.44289344538E+02 -0.77107647223E+03  0.12991946761E+04  0.25500000920E-02 0. -1.
       -2    1    3    3    0  502  0.10446943736E+04  0.44289344538E+02  0.76825001191E+03  0.12975191563E+04  0.25500000920E-02 0.  1.
</event>
<event>
 5   0  0.1136881E-05  0.2605840E+04  0.7818609E-02  0.8366220E-01
       -2   -1    0    0    0  501  0.00000000000E+00  0.00000000000E+00  0.82745608468E+03  0.82745608468E+03  0.25500000920E-02 0.  1.
        2   -1    0    0  501    0  0.00000000000E+00  0.00000000000E+00 -0.20515891203E+04  0.20515891203E+04  0.25500000920E-02 0. -1.
    10030    2    1    2    0    0  0.00000000000E+00  0.00000000000E+00 -0.12241330356E+04  0.28790452050E+04  0.26058395199E+04 0.  0.
        3    1    3    3  502    0 -0.10963240322E+03 -0.51455848106E+03  0.70488215897E+03  0.87957294325E+03  0.10100000352E+00 0.  1.
       -3    1    3    3    0  502  0.10963240322E+03  0.51455848106E+03 -0.19290151946E+04  0.19994722618E+04  0.10100000352E+00 0. -1.
</event>
<event>
 5   0  0.4361864E-06  0.2490278E+04  0.7818609E-02  0.8406457E-01
       -1   -1    0    0    0  501  0.00000000000E+00  0.00000000000E+00  0.83867263451E+03  0.83867263452E+03  0.50400001928E-02 0.  1.
        1   -1    0    0  501    0  0.00000000000E+00  0.00000000000E+00 -0.18486011256E+04  0.18486011256E+04  0.50400001928E-02 0. -1.
    10030    2    1    2    0    0  0.00000000000E+00  0.00000000000E+00 -0.10099284910E+04  0.26872737601E+04  0.24902780376E+04 0.  0.
        3    1    3    3  502    0 -0.88242729415E+03  0.86601494541E+03 -0.66396804259E+03  0.14033935253E+04  0.10100000352E+00 0.  1.
       -3    1    3    3    0  502  0.88242729415E+03 -0.86601494541E+03 -0.34596044845E+03  0.12838802348E+04  0.10100000352E+00 0. -1.
</event>
<event>
 5   0  0.4464297E-06  0.2574082E+04  0.7818609E-02  0.8377058E-01
       -1   -1    0    0    0  501  0.00000000000E+00  0.00000000000E+00  0.10761899398E+04  0.10761899398E+04  0.50400001928E-02 0.  1.
        1   -1    0    0  501    0  0.00000000000E+00  0.00000000000E+00 -0.15392031712E+04  0.15392031712E+04  0.50400001928E-02 0. -1.
    10030    2    1    2    0    0  0.00000000000E+00  0.00000000000E+00 -0.46301323138E+03  0.26153931111E+04  0.25740823361E+04 0.  0.
        4    1    3    3  502    0 -0.21285009351E+03  0.30986226258E+03 -0.14821770059E+04  0.15291076070E+04  0.12699999809E+01 0. -1.
       -4    1    3    3    0  502  0.21285009351E+03 -0.30986226258E+03  0.10191637745E+04  0.10862855041E+04  0.12699999809E+01 0.  1.
</event>
<event>
 5   0  0.1136881E-05  0.2628708E+04  0.7818609E-02  0.8358515E-01
       -2   -1    0    0    0  501  0.00000000000E+00  0.00000000000E+00  0.87225072861E+03  0.87225072862E+03  0.25500000920E-02 0. -1.
        2   -1    0    0  501    0  0.00000000000E+00  0.00000000000E+00 -0.19805387669E+04  0.19805387669E+04  0.25500000920E-02 0.  1.
    10030    2    1    2    0    0  0.00000000000E+00  0.00000000000E+00 -0.11082880383E+04  0.28527894956E+04  0.26287079583E+04 0.  0.
        3    1    3    3  502    0 -0.97517752249E+03  0.18297949875E+03  0.38135497439E+03  0.10629601705E+04  0.10100000352E+00 0. -1.
       -3    1    3    3    0  502  0.97517752249E+03 -0.18297949875E+03 -0.14896430127E+04  0.17898293251E+04  0.10100000352E+00 0.  1.
</event>
<event>
 5   0  0.1086507E-05  0.2605651E+04  0.7818609E-02  0.8366284E-01
       -2   -1    0    0    0  501  0.00000000000E+00  0.00000000000E+00  0.10355501833E+04  0.10355501833E+04  0.25500000920E-02 0. -1.
        2   -1    0    0  501    0  0.00000000000E+00  0.00000000000E+00 -0.16390839624E+04  0.16390839624E+04  0.25500000920E-02 0.  1.
    10030    2    1    2    0    0  0.00000000000E+00  0.00000000000E+00 -0.60353377909E+03  0.26746341457E+04  0.26056505504E+04 0.  0.
        2    1    3    3  502    0  0.84818752541E+02  0.49362709419E+03  0.93277604123E+03  0.10587412677E+04  0.25500000920E-02 0. -1.
       -2    1    3    3    0  502 -0.84818752541E+02 -0.49362709419E+03 -0.15363098203E+04  0.16158928779E+04  0.25500000920E-02 0.  1.
</event>
<event>
 5   0  0.4218590E-06  0.2601239E+04  0.7818609E-02  0.8367780E-01
       -1   -1    0    0    0  501  0.00000000000E+00  0.00000000000E+00  0.14018939744E+04  0.14018939744E+04  0.50400001928E-02 0. -1.
        1   -1    0    0  501    0  0.00000000000E+00  0.00000000000E+00 -0.12066611576E+04  0.12066611576E+04  0.50400001928E-02 0.  1.
    10030    2    1    2    0    0  0.00000000000E+00  0.00000000000E+00  0.19523281681E+03  0.26085551321E+04  0.26012389402E+04 0.  0.
        1    1    3    3  502    0  0.51221439120E+03 -0.96372634590E+03  0.80705152642E+03  0.13573740158E+04  0.50400001928E-02 0. -1.
       -1    1    3    3    0  502 -0.51221439120E+03  0.96372634590E+03 -0.61181870961E+03  0.12511811163E+04  0.50400001928E-02 0.  1.
</event>
<event>
 5   0  0.1085061E-05  0.2589764E+04  0.7818609E-02  0.8371687E-01
        2   -1    0    0  501    0  0.00000000000E+00  0.00000000000E+00  0.21435002447E+04  0.21435002447E+04  0.25500000920E-02 0.  1.
       -2   -1    0    0    0  501  0.00000000000E+00  0.00000000000E+00 -0.78223418571E+03  0.78223418572E+03  0.25500000920E-02 0. -1.
    10030    2    1    2    0    0  0.00000000000E+00  0.00000000000E+00  0.13612660590E+04  0.29257344304E+04  0.25897638259E+04 0.  0.
        1    1    3    3  502    0  0.36356828603E+03  0.49835027367E+03  0.19668318778E+04  0.20613011739E+04  0.50400001928E-02 0.  1.
       -1    1    3    3    0  502 -0.36356828603E+03 -0.49835027367E+03 -0.60556581888E+03  0.86443325647E+03  0.50400001928E-02 0. -1.
</event>
<event>
 5   0  0.4415080E-06  0.2616901E+04  0.7818609E-02  0.8362483E-01
        1   -1    0    0  501    0  0.00000000000E+00  0.00000000000E+00  0.11554620914E+04  0.11554620915E+04  0.50400001928E-02 0. -1.
       -1   -1    0    0    0  501  0.00000000000E+00  0.00000000000E+00 -0.14816954373E+04  0.14816954373E+04  0.50400001928E-02 0.  1.
    10030    2    1    2    0    0  0.00000000000E+00  0.00000000000E+00 -0.32623334583E+03  0.26371575287E+04  0.26169011513E+04 0.  0.
        2    1    3    3  502    0  0.77120202112E+03 -0.23801138844E+03 -0.12009627448E+04  0.14469669978E+04  0.25500000920E-02 0.  1.
       -2    1    3    3    0  502 -0.77120202112E+03  0.23801138844E+03  0.87472939899E+03  0.11901905309E+04  0.25500000920E-02 0. -1.
</event>
<event>
 5   0  0.1085255E-05  0.2593578E+04  0.7818609E-02  0.8370386E-01
       -2   -1    0    0    0  501  0.00000000000E+00  0.00000000000E+00  0.88149088356E+03  0.88149088357E+03  0.25500000920E-02 0. -1.
        2   -1    0    0  501    0  0.00000000000E+00  0.00000000000E+00 -0.19077472086E+04  0.19077472086E+04  0.25500000920E-02 0.  1.
    10030    2    1    2    0    0  0.00000000000E+00  0.00000000000E+00 -0.10262563251E+04  0.27892380922E+04  0.25935780478E+04 0.  0.
        5    1    3    3  502    0 -0.86759454192E+03  0.96316446430E+03 -0.55090058783E+03  0.14085168164E+04  0.46999998093E+01 0. -1.
       -5    1    3    3    0  502  0.86759454192E+03 -0.96316446430E+03 -0.47535573723E+03  0.13807212758E+04  0.46999998093E+01 0.  1.
</event>
<event>
 5   0  0.4415080E-06  0.2597053E+04  0.7818609E-02  0.8369203E-01
        1   -1    0    0  501    0  0.00000000000E+00  0.00000000000E+00  0.19158576710E+04  0.19158576710E+04  0.50400001928E-02 0.  1.
       -1   -1    0    0    0  501  0.00000000000E+00  0.00000000000E+00 -0.88011308899E+03  0.88011308901E+03  0.50400001928E-02 0. -1.
    10030    2    1    2    0    0  0.00000000000E+00  0.00000000000E+00  0.10357445820E+04  0.27959707600E+04  0.25970532631E+04 0.  0.
        2    1    3    3  502    0  0.65843057433E+03  0.35070402298E+03  0.16621282928E+04  0.18218656906E+04  0.25500000920E-02 0.  1.
       -2    1    3    3    0  502 -0.65843057433E+03 -0.35070402298E+03 -0.62638371083E+03  0.97410506935E+03  0.25500000920E-02 0. -1.
</event>
<event>
 5   0  0.4361864E-06  0.2439696E+04  0.7818609E-02  0.8424790E-01
        1   -1    0    0  501    0  0.00000000000E+00  0.00000000000E+00  0.15235149461E+04  0.15235149461E+04  0.50400001928E-02 0. -1.
       -1   -1    0    0    0  501  0.00000000000E+00  0.00000000000E+00 -0.97670817258E+03  0.97670817259E+03  0.50400001928E-02 0.  1.
    10030    2    1    2    0    0  0.00000000000E+00  0.00000000000E+00  0.54680677349E+03  0.25002231187E+04  0.24396962917E+04 0.  0.
        3    1    3    3  502    0 -0.11990225374E+03  0.10363434845E+04 -0.37445525762E+03  0.11084228067E+04  0.10100000352E+00 0.  1.
       -3    1    3    3    0  502  0.11990225374E+03 -0.10363434845E+04  0.92126203110E+03  0.13918003120E+04  0.10100000352E+00 0. -1.
</event>
<event>
 5   0  0.4597705E-06  0.2589443E+04  0.7818609E-02  0.8371796E-01
       -1   -1    0    0    0  501  0.00000000000E+00  0.00000000000E+00  0.10220209556E+04  0.10220209556E+04  0.50400001928E-02 0. -1.
        1   -1    0    0  501    0  0.00000000000E+00  0.00000000000E+00 -0.16401848928E+04  0.16401848929E+04  0.50400001928E-02 0.  1.
    10030    2    1    2    0    0  0.00000000000E+00  0.00000000000E+00 -0.61816393727E+03  0.26622058484E+04  0.25894426671E+04 0.  0.
        5    1    3    3  502    0 -0.58034958507E+03  0.76762412878E+03  0.58141449417E+03  0.11243297328E+04  0.46999998093E+01 0. -1.
       -5    1    3    3    0  502  0.58034958507E+03 -0.76762412878E+03 -0.11995784314E+04  0.15378761157E+04  0.46999998093E+01 0.  1.
</event>
<event>
 5   0  0.1085061E-05  0.2602725E+04  0.7818609E-02  0.8367276E-01
       -2   -1    0    0    0  501  0.00000000000E+00  0.00000000000E+00  0.16116356479E+04  0.16116356479E+04  0.25500000920E-02 0.  1.
        2   -1    0    0  501    0  0.00000000000E+00  0.00000000000E+00 -0.10508231652E+04  0.10508231652E+04  0.25500000920E-02 0. -1.
    10030    2    1    2    0    0  0.00000000000E+00  0.00000000000E+00  0.56081248267E+03  0.26624588131E+04  0.26027247819E+04 0.  0.
        1    1    3    3  502    0 -0.10633324119E+04  0.64030555146E+03 -0.11956227321E+03  0.12469812166E+04  0.50400001928E-02 0. -1.
       -1    1    3    3    0  502  0.10633324119E+04 -0.64030555146E+03  0.68037475588E+03  0.14154775964E+04  0.50400001928E-02 0.  1.
</event>
<event>
 5   0  0.4361864E-06  0.2593334E+04  0.7818609E-02  0.8370469E-01
       -1   -1    0    0    0  501  0.00000000000E+00  0.00000000000E+00  0.13470288556E+04  0.13470288556E+04  0.50400001928E-02 0. -1.
        1   -1    0    0  501    0  0.00000000000E+00  0.00000000000E+00 -0.12481880681E+04  0.12481880681E+04  0.50400001928E-02 0.  1.
    10030    2    1    2    0    0  0.00000000000E+00  0.00000000000E+00  0.98840787520E+02  0.25952169237E+04  0.25933340278E+04 0.  0.
        3    1    3    3  502    0  0.11604900662E+04 -0.18426491829E+03 -0.49929749483E+03  0.12767101286E+04  0.10100000352E+00 0.  1.
       -3    1    3    3    0  502 -0.11604900662E+04  0.18426491829E+03  0.59813828235E+03  0.13185067951E+04  0.10100000352E+00 0. -1.
</event>
<event>
 5   0  0.1086507E-05  0.2617451E+04  0.7818609E-02  0.8362297E-01
       -2   -1    0    0    0  501  0.00000000000E+00  0.00000000000E+00  0.11071266287E+04  0.11071266287E+04  0.25500000920E-02 0. -1.
        2   -1    0    0  501    0  0.00000000000E+00  0.00000000000E+00 -0.15470344470E+04  0.15470344470E+04  0.25500000920E-02 0.  1.
    10030    2    1    2    0    0  0.00000000000E+00  0.00000000000E+00 -0.43990781828E+03  0.26541610757E+04  0.26174514565E+04 0.  0.
        2    1    3    3  502    0  0.34452764307E+03 -0.11839548483E+04 -0.66464131160E+03  0.14007842278E+04  0.25500000920E-02 0.  1.
       -2    1    3    3    0  502 -0.34452764307E+03  0.11839548483E+04  0.22473349332E+03  0.12533768479E+04  0.25500000920E-02 0. -1.
</event>
<event>
 5   0  0.4464297E-06  0.2741333E+04  0.7818609E-02  0.8321717E-01
       -1   -1    0    0    0  501  0.00000000000E+00  0.00000000000E+00  0.10247925363E+04  0.10247925363E+04  0.50400001928E-02 0. -1.
        1   -1    0    0  501    0  0.00000000000E+00  0.00000000000E+00 -0.18332746751E+04  0.18332746751E+04  0.50400001928E-02 0.  1.
    10030    2    1    2    0    0  0.00000000000E+00  0.00000000000E+00 -0.80848213883E+03  0.28580672114E+04  0.27413326715E+04 0.  0.
        4    1    3    3  502    0  0.11471684956E+03 -0.13422445714E+04 -0.14060119796E+03  0.13544558889E+04  0.12699999809E+01 0. -1.
       -4    1    3    3    0  502 -0.11471684956E+03  0.13422445714E+04 -0.66788094087E+03  0.15036113225E+04  0.12699999809E+01 0.  1.
</event>
<event>
 5   0  0.4597705E-06  0.2604724E+04  0.7818609E-02  0.8366598E-01
        1   -1    0    0  501    0  0.00000000000E+00  0.00000000000E+00  0.10320873287E+04  0.10320873287E+04  0.50400001928E-02 0.  1.
       -1   -1    0    0    0  501  0.00000000000E+00  0.00000000000E+00 -0.16434137368E+04  0.16434137368E+04  0.50400001928E-02 0. -1.
    10030    2    1    2    0    0  0.00000000000E+00  0.00000000000E+00 -0.61132640816E+03  0.26755010655E+04  0.26047237808E+04 0.  0.
        5    1    3    3  502    0 -0.98093866971E+03 -0.79925310604E+03 -0.62238936305E+03  0.14101194313E+04  0.46999998093E+01 0. -1.
       -5    1    3    3    0  502  0.98093866971E+03  0.79925310604E+03  0.11062954887E+02  0.12653816342E+04  0.46999998093E+01 0.  1.
</event>
<event>
 5   0  0.1085255E-05  0.2559581E+04  0.7818609E-02  0.8382062E-01
       -2   -1    0    0    0  501  0.00000000000E+00  0.00000000000E+00  0.71834971550E+03  0.71834971550E+03  0.25500000920E-02 0.  1.
        2   -1    0    0  501    0  0.00000000000E+00  0.00000000000E+00 -0.22800372681E+04  0.22800372681E+04  0.25500000920E-02 0. -1.
    10030    2    1    2    0    0  0.00000000000E+00  0.00000000000E+00 -0.15616875526E+04  0.29983869836E+04  0.25595813117E+04 0.  0.
        5    1    3    3  502    0 -0.63072097062E+03  0.65129619210E+03  0.27724703637E+03  0.94809476415E+03  0.46999998093E+01 0.  1.
       -5    1    3    3    0  502  0.63072097062E+03 -0.65129619210E+03 -0.18389345890E+04  0.20502922194E+04  0.46999998093E+01 0. -1.
</event>
<event>
 5   0  0.4597705E-06  0.2598404E+04  0.7818609E-02  0.8368743E-01
       -1   -1    0    0    0  501  0.00000000000E+00  0.00000000000E+00  0.78494374203E+03  0.78494374204E+03  0.50400001928E-02 0.  1.
        1   -1    0    0  501    0  0.00000000000E+00  0.00000000000E+00 -0.21503784459E+04  0.21503784459E+04  0.50400001928E-02 0. -1.
    10030    2    1    2    0    0  0.00000000000E+00  0.00000000000E+00 -0.13654347039E+04  0.29353221880E+04  0.25984042058E+04 0.  0.
        5    1    3    3  502    0 -0.18630597792E+03  0.12748710841E+04 -0.49403374590E+03  0.13798904415E+04  0.46999998093E+01 0.  1.
       -5    1    3    3    0  502  0.18630597792E+03 -0.12748710841E+04 -0.87140095799E+03  0.15554317465E+04  0.46999998093E+01 0. -1.
</event>
<event>
 5   0  0.4415080E-06  0.2586042E+04  0.7818609E-02  0.8372958E-01
        1   -1    0    0  501    0  0.00000000000E+00  0.00000000000E+00  0.12535452235E+04  0.12535452235E+04  0.50400001928E-02 0.  1.
       -1   -1    0    0    0  501  0.00000000000E+00  0.00000000000E+00 -0.13337402395E+04  0.13337402395E+04  0.50400001928E-02 0. -1.
    10030    2    1    2    0    0  0.00000000000E+00  0.00000000000E+00 -0.80195016042E+02  0.25872854630E+04  0.25860423095E+04 0.  0.
        2    1    3    3  502    0  0.29570273988E+03  0.94657054908E+03  0.79004095441E+03  0.12679119151E+04  0.25500000920E-02 0.  1.
       -2    1    3    3    0  502 -0.29570273988E+03 -0.94657054908E+03 -0.87023597045E+03  0.13193735479E+04  0.25500000920E-02 0. -1.
</event>
<event>
 5   0  0.1085061E-05  0.2624138E+04  0.7818609E-02  0.8360048E-01
        2   -1    0    0  501    0  0.00000000000E+00  0.00000000000E+00  0.14514232098E+04  0.14514232098E+04  0.25500000920E-02 0.  1.
       -2   -1    0    0    0  501  0.00000000000E+00  0.00000000000E+00 -0.11860946076E+04  0.11860946076E+04  0.25500000920E-02 0. -1.
    10030    2    1    2    0    0  0.00000000000E+00  0.00000000000E+00  0.26532860227E+03  0.26375178174E+04  0.26241381385E+04 0.  0.
        1    1    3    3  502    0 -0.11277911779E+03 -0.32549032575E+03  0.14051613892E+04  0.14467693705E+04  0.50400001928E-02 0.  1.
       -1    1    3    3    0  502  0.11277911779E+03  0.32549032575E+03 -0.11398327870E+04  0.11907484469E+04  0.50400001928E-02 0. -1.
</event>
<event>
 5   0  0.4464297E-06  0.2601263E+04  0.7818609E-02  0.8367772E-01
       -1   -1    0    0    0  501  0.00000000000E+00  0.00000000000E+00  0.14275015029E+04  0.14275015029E+04  0.50400001928E-02 0. -1.
        1   -1    0    0  501    0  0.00000000000E+00  0.00000000000E+00 -0.11850371791E+04  0.11850371791E+04  0.50400001928E-02 0.  1.
    10030    2    1    2    0    0  0.00000000000E+00  0.00000000000E+00  0.24246432383E+03  0.26125386820E+04  0.26012630426E+04 0.  0.
        4    1    3    3  502    0  0.91464685771E+03  0.54976857878E+02  0.10482931392E+04  0.13923079572E+04  0.12699999809E+01 0. -1.
       -4    1    3    3    0  502 -0.91464685771E+03 -0.54976857878E+02 -0.80582881535E+03  0.12202307248E+04  0.12699999809E+01 0.  1.
</event>
<event>
 5   0  0.1085061E-05  0.2594916E+04  0.7818609E-02  0.8369930E-01
       -2   -1    0    0    0  501  0.00000000000E+00  0.00000000000E+00  0.83276627778E+03  0.83276627778E+03  0.25500000920E-02 0. -1.
        2   -1    0    0  501    0  0.00000000000E+00  0.00000000000E+00 -0.20214519546E+04  0.20214519546E+04  0.25500000920E-02 0.  1.
    10030    2    1    2    0    0  0.00000000000E+00  0.00000000000E+00 -0.11886856768E+04  0.28542182324E+04  0.25949158136E+04 0.  0.
        1    1    3    3  502    0  0.78341536462E+03  0.54945916502E+03 -0.15581150166E+04  0.18284877392E+04  0.50400001928E-02 0.  1.
       -1    1    3    3    0  502 -0.78341536462E+03 -0.54945916502E+03  0.36942933975E+03  0.10257304932E+04  0.50400001928E-02 0. -1.
</event>
<event>
 5   0  0.1085061E-05  0.2603690E+04  0.7818609E-02  0.8366949E-01
        2   -1    0    0  501    0  0.00000000000E+00  0.00000000000E+00  0.18978376547E+04  0.18978376547E+04  0.25500000920E-02 0. -1.
       -2   -1    0    0    0  501  0.00000000000E+00  0.00000000000E+00 -0.89301639406E+03  0.89301639407E+03  0.25500000920E-02 0.  1.
    10030    2    1    2    0    0  0.00000000000E+00  0.00000000000E+00  0.10048212606E+04  0.27908540488E+04  0.26036897964E+04 0.  0.
        1    1    3    3  502    0 -0.28822426792E+03  0.29863778664E+03 -0.82020173718E+03  0.91923263972E+03  0.50400001928E-02 0.  1.
       -1    1    3    3    0  502  0.28822426792E+03 -0.29863778664E+03  0.18250229978E+04  0.18716214091E+04  0.50400001928E-02 0. -1.
</event>
<event>
 5   0  0.4464297E-06  0.2599613E+04  0.7818609E-02  0.8368333E-01
       -1   -1    0    0    0  501  0.00000000000E+00  0.00000000000E+00  0.15111644102E+04  0.15111644102E+04  0.50400001928E-02 0.  1.
        1   -1    0    0  501    0  0.00000000000E+00  0.00000000000E+00 -0.11180098922E+04  0.11180098922E+04  0.50400001928E-02 0. -1.
    10030    2    1    2    0    0  0.00000000000E+00  0.00000000000E+00  0.39315451807E+03  0.26291743024E+04  0.25996128630E+04 0.  0.
        4    1    3    3  502    0  0.12587656372E+04 -0.21740540233E+02  0.52356722774E+03  0.13634837129E+04  0.12699999809E+01 0. -1.
       -4    1    3    3    0  502 -0.12587656372E+04  0.21740540233E+02 -0.13041270967E+03  0.12656905895E+04  0.12699999809E+01 0.  1.
</event>
<event>
 5   0  0.4361864E-06  0.2599671E+04  0.7818609E-02  0.8368313E-01
        1   -1    0    0  501    0  0.00000000000E+00  0.00000000000E+00  0.18047816637E+04  0.18047816637E+04  0.50400001928E-02 0. -1.
       -1   -1    0    0    0  501  0.00000000000E+00  0.00000000000E+00 -0.93616461019E+03  0.93616461020E+03  0.50400001928E-02 0.  1.
    10030    2    1    2    0    0  0.00000000000E+00  0.00000000000E+00  0.86861705353E+03  0.27409462739E+04  0.25996713044E+04 0.  0.
        3    1    3    3  502    0 -0.56482090196E+03 -0.28166760206E+03 -0.76375845297E+03  0.99080082460E+03  0.10100000352E+00 0.  1.
       -3    1    3    3    0  502  0.56482090196E+03  0.28166760206E+03  0.16323755065E+04  0.17501454493E+04  0.10100000352E+00 0. -1.
</event>
<event>
 5   0  0.1116310E-05  0.2605968E+04  0.7818609E-02  0.8366177E-01
       -2   -1    0    0    0  501  0.00000000000E+00  0.00000000000E+00  0.80510590950E+03  0.80510590950E+03  0.25500000920E-02 0.  1.
        2   -1    0    0  501    0  0.00000000000E+00  0.00000000000E+00 -0.21087502612E+04  0.21087502612E+04  0.25500000920E-02 0. -1.
    10030    2    1    2    0    0  0.00000000000E+00  0.00000000000E+00 -0.13036443517E+04  0.29138561707E+04  0.26059679944E+04 0.  0.
        4    1    3    3  502    0  0.69238714171E+03 -0.10723497882E+04 -0.94432332498E+03  0.15877916039E+04  0.12699999809E+01 0. -1.
       -4    1    3    3    0  502 -0.69238714171E+03  0.10723497882E+04 -0.35932102677E+03  0.13260645669E+04  0.12699999809E+01 0.  1.
</event>
<event>
 5   0  0.4464297E-06  0.2622321E+04  0.7818609E-02  0.8360658E-01
        1   -1    0    0  501    0  0.00000000000E+00  0.00000000000E+00  0.11952059162E+04  0.11952059162E+04  0.50400001928E-02 0. -1.
       -1   -1    0    0    0  501  0.00000000000E+00  0.00000000000E+00 -0.14383648908E+04  0.14383648908E+04  0.50400001928E-02 0.  1.
    10030    2    1    2    0    0  0.00000000000E+00  0.00000000000E+00 -0.24315897459E+03  0.26335708070E+04  0.26223212824E+04 0.  0.
        4    1    3    3  502    0  0.56934808841E+03  0.40302748749E+03 -0.12365458428E+04  0.14197308322E+04  0.12699999809E+01 0.  1.
       -4    1    3    3    0  502 -0.56934808841E+03 -0.40302748749E+03  0.99338686826E+03  0.12138399748E+04  0.12699999809E+01 0. -1.
</event>
<event>
 5   0  0.4218590E-06  0.2593192E+04  0.7818609E-02  0.8370517E-01
        1   -1    0    0  501    0  0.00000000000E+00  0.00000000000E+00  0.24851944541E+04  0.24851944541E+04  0.50400001928E-02 0.  1.
       -1   -1    0    0    0  501  0.00000000000E+00  0.00000000000E+00 -0.67647079773E+03  0.67647079775E+03  0.50400001928E-02 0. -1.
    10030    2    1    2    0    0  0.00000000000E+00  0.00000000000E+00  0.18087236564E+04  0.31616652519E+04  0.25931922219E+04 0.  0.
        1    1    3    3  502    0 -0.61346496719E+02  0.10731512064E+04  0.20328630789E+02  0.10750954179E+04  0.50400001928E-02 0. -1.
       -1    1    3    3    0  502  0.61346496719E+02 -0.10731512064E+04  0.17883950256E+04  0.20865698340E+04  0.50400001928E-02 0.  1.
</event>
<event>
 5   0  0.4597705E-06  0.2780166E+04  0.7818609E-02  0.8309453E-01
       -1   -1    0    0    0  501  0.00000000000E+00  0.00000000000E+00  0.17972186460E+04  0.17972186460E+04  0.50400001928E-02 0. -1.
        1   -1    0    0  501    0  0.00000000000E+00  0.00000000000E+00 -0.10751783897E+04  0.10751783897E+04  0.50400001928E-02 0.  1.
    10030    2    1    2    0    0  0.00000000000E+00  0.00000000000E+00  0.72204025628E+03  0.28723970357E+04  0.27801659302E+04 0.  0.
        5    1    3    3  502    0 -0.43987410129E+03  0.70100265005E+03  0.15149493401E+04  0.17262640393E+04  0.46999998093E+01 0. -1.
       -5    1    3    3    0  502  0.43987410129E+03 -0.70100265005E+03 -0.79290908381E+03  0.11461329964E+04  0.46999998093E+01 0.  1.
</event>
<event>
 5   0  0.1116310E-05  0.2594172E+04  0.7818609E-02  0.8370184E-01
       -2   -1    0    0    0  501  0.00000000000E+00  0.00000000000E+00  0.62674689637E+03  0.62674689637E+03  0.25500000920E-02 0.  1.
        2   -1    0    0  501    0  0.00000000000E+00  0.00000000000E+00 -0.26843875630E+04  0.26843875630E+04  0.25500000920E-02 0. -1.
    10030    2    1    2    0    0  0.00000000000E+00  0.00000000000E+00 -0.20576406667E+04  0.33111344594E+04  0.25941716009E+04 0.  0.
        4    1    3    3  502    0  0.41651827434E+03  0.10967241624E+04 -0.32260496874E+03  0.12167033082E+04  0.12699999809E+01 0.  1.
       -4    1    3    3    0  502 -0.41651827434E+03 -0.10967241624E+04 -0.17350356979E+04  0.20944311512E+04  0.12699999809E+01 0. -1.
</event>
<event>
 5   0  0.1086507E-05  0.2566390E+04  0.7818609E-02  0.8379708E-01
        2   -1    0    0  501    0  0.00000000000E+00  0.00000000000E+00  0.22827950791E+04  0.22827950791E+04  0.25500000920E-02 0. -1.
       -2   -1    0    0    0  501  0.00000000000E+00  0.00000000000E+00 -0.72130434467E+03  0.72130434468E+03  0.25500000920E-02 0.  1.
    10030    2    1    2    0    0  0.00000000000E+00  0.00000000000E+00  0.15614907345E+04  0.30040994238E+04  0.25663904680E+04 0.  0.
        2    1    3    3  502    0 -0.83708741108E+03  0.56414676630E+03  0.17080823257E+04  0.19840670702E+04  0.25500000920E-02 0. -1.
       -2    1    3    3    0  502  0.83708741108E+03 -0.56414676630E+03 -0.14659159127E+03  0.10200323536E+04  0.25500000920E-02 0.  1.
</event>
<event>
 5   0  0.4597705E-06  0.2638274E+04  0.7818609E-02  0.8355316E-01
        1   -1    0    0  501    0  0.00000000000E+00  0.00000000000E+00  0.15461669357E+04  0.15461669357E+04  0.50400001928E-02 0.  1.
       -1   -1    0    0    0  501  0.00000000000E+00  0.00000000000E+00 -0.11254423978E+04  0.11254423978E+04  0.50400001928E-02 0. -1.
    10030    2    1    2    0    0  0.00000000000E+00  0.00000000000E+00  0.42072453787E+03  0.26716093335E+04  0.26382735442E+04 0.  0.
        5    1    3    3  502    0 -0.12394051019E+04 -0.40591225753E+03  0.41087934461E+03  0.13673820583E+04  0.46999998093E+01 0. -1.
       -5    1    3    3    0  502  0.12394051019E+04  0.40591225753E+03  0.98451932690E+01  0.13042272752E+04  0.46999998093E+01 0.  1.
</event>
<event>
 5   0  0.4218590E-06  0.2612178E+04  0.7818609E-02  0.8364076E-01
       -1   -1    0    0    0  501  0.00000000000E+00  0.00000000000E+00  0.18290613717E+04  0.18290613717E+04  0.50400001928E-02 0.  1.
        1   -1    0    0  501    0  0.00000000000E+00  0.00000000000E+00 -0.93264723045E+03  0.93264723046E+03  0.50400001928E-02 0. -1.
    10030    2    1    2    0    0  0.00000000000E+00  0.00000000000E+00  0.89641414129E+03  0.27617086022E+04  0.26121784186E+04 0.  0.
        1    1    3    3  502    0 -0.18021898719E+03 -0.17523572977E+03 -0.90683207352E+03  0.94102648949E+03  0.50400001928E-02 0. -1.
       -1    1    3    3    0  502  0.18021898719E+03  0.17523572977E+03  0.18032462148E+04  0.18206821127E+04  0.50400001928E-02 0.  1.
</event>
<event>
 5   0  0.1136881E-05  0.2608848E+04  0.7818609E-02  0.8365202E-01
       -2   -1    0    0    0  501  0.00000000000E+00  0.00000000000E+00  0.73247114574E+03  0.73247114574E+03  0.25500000920E-02 0. -1.
        2   -1    0    0  501    0  0.00000000000E+00  0.00000000000E+00 -0.23229889385E+04  0.23229889385E+04  0.25500000920E-02 0.  1.
    10030    2    1    2    0    0  0.00000000000E+00  0.00000000000E+00 -0.15905177928E+04  0.30554600843E+04  0.26088483048E+04 0.  0.
        3    1    3    3  502    0 -0.79106997819E+03 -0.85157517552E+02 -0.20058870004E+04  0.21579217274E+04  0.10100000352E+00 0.  1.
       -3    1    3    3    0  502  0.79106997819E+03  0.85157517552E+02  0.41536920759E+03  0.89753835685E+03  0.10100000352E+00 0. -1.
</event>
<event>
 5   0  0.1116310E-05  0.2587722E+04  0.7818609E-02  0.8372384E-01
       -2   -1    0    0    0  501  0.00000000000E+00  0.00000000000E+00  0.61032403125E+03  0.61032403125E+03  0.25500000920E-02 0. -1.
        2   -1    0    0  501    0  0.00000000000E+00  0.00000000000E+00 -0.27429313468E+04  0.27429313468E+04  0.25500000920E-02 0.  1.
    10030    2    1    2    0    0  0.00000000000E+00  0.00000000000E+00 -0.21326073155E+04  0.33532553780E+04  0.25877224867E+04 0.  0.
        4    1    3    3  502    0  0.35310597289E+03  0.12220638327E+04 -0.13728207243E+04  0.18715667750E+04  0.12699999809E+01 0.  1.
       -4    1    3    3    0  502 -0.35310597289E+03 -0.12220638327E+04 -0.75978659126E+03  0.14816886031E+04  0.12699999809E+01 0. -1.
</event>
<event>
 5   0  0.1116310E-05  0.2596580E+04  0.7818609E-02  0.8369364E-01
        2   -1    0    0  501    0  0.00000000000E+00  0.00000000000E+00  0.92567673018E+03  0.92567673018E+03  0.25500000920E-02 0. -1.
       -2   -1    0    0    0  501  0.00000000000E+00  0.00000000000E+00 -0.18208913429E+04  0.18208913429E+04  0.25500000920E-02 0.  1.
    10030    2    1    2    0    0  0.00000000000E+00  0.00000000000E+00 -0.89521461268E+03  0.27465680730E+04  0.25965798615E+04 0.  0.
        4    1    3    3  502    0  0.93656266134E+03 -0.88619490330E+03 -0.60824852741E+03  0.14256433317E+04  0.12699999809E+01 0. -1.
       -4    1    3    3    0  502 -0.93656266134E+03  0.88619490330E+03 -0.28696608527E+03  0.13209247413E+04  0.12699999809E+01 0.  1.
</event>
<event>
 5   0  0.4361864E-06  0.2620702E+04  0.7818609E-02  0.8361203E-01
       -1   -1    0    0    0  501  0.00000000000E+00  0.00000000000E+00  0.10690446775E+04  0.10690446775E+04  0.50400001928E-02 0.  1.
        1   -1    0    0  501    0  0.00000000000E+00  0.00000000000E+00 -0.16061248085E+04  0.16061248085E+04  0.50400001928E-02 0. -1.
    10030    2    1    2    0    0  0.00000000000E+00  0.00000000000E+00 -0.53708013102E+03  0.26751694860E+04  0.26207015686E+04 0.  0.
        3    1    3    3  502    0  0.27307908619E+03 -0.45894673354E+03  0.95291408215E+03  0.10923596247E+04  0.10100000352E+00 0.  1.
       -3    1    3    3    0  502 -0.27307908619E+03  0.45894673354E+03 -0.14899942132E+04  0.15828098613E+04  0.10100000352E+00 0. -1.
</event>
<event>
 5   0  0.4361864E-06  0.2591852E+04  0.7818609E-02  0.8370974E-01
        1   -1    0    0  501    0  0.00000000000E+00  0.00000000000E+00  0.22651121516E+04  0.22651121516E+04  0.50400001928E-02 0. -1.
       -1   -1    0    0    0  501  0.00000000000E+00  0.00000000000E+00 -0.74143071464E+03  0.74143071465E+03  0.50400001928E-02 0.  1.
    10030    2    1    2    0    0  0.00000000000E+00  0.00000000000E+00  0.15236814370E+04  0.30065428663E+04  0.25918516326E+04 0.  0.
        3    1    3    3  502    0 -0.37999118745E+03  0.11054227114E+04  0.14108915481E+04  0.18322029484E+04  0.10100000352E+00 0. -1.
       -3    1    3    3    0  502  0.37999118745E+03 -0.11054227114E+04  0.11278988886E+03  0.11743399179E+04  0.10100000352E+00 0.  1.
</event>
<event>
 5   0  0.4218590E-06  0.2546773E+04  0.7818609E-02  0.8386509E-01
        1   -1    0    0  501    0  0.00000000000E+00  0.00000000000E+00  0.11589328557E+04  0.11589328557E+04  0.50400001928E-02 0. -1.
       -1   -1    0    0    0  501  0.00000000000E+00  0.00000000000E+00 -0.13991435316E+04  0.13991435316E+04  0.50400001928E-02 0.  1.
    10030    2    1    2    0    0  0.00000000000E+00  0.00000000000E+00 -0.24021067585E+03  0.25580763873E+04  0.25467731808E+04 0.  0.
        1    1    3    3  502    0 -0.57357436084E+03  0.84008439124E+03 -0.88952344252E+03  0.13512887503E+04  0.50400001928E-02 0.  1.
       -1    1    3    3    0  502  0.57357436084E+03 -0.84008439124E+03  0.64931276667E+03  0.12067876370E+04  0.50400001928E-02 0. -1.
</event>
<event>
 5   0  0.4415080E-06  0.2609872E+04  0.7818609E-02  0.8364856E-01
       -1   -1    0    0    0  501  0.00000000000E+00  0.00000000000E+00  0.22465031912E+04  0.22465031912E+04  0.50400001928E-02 0. -1.
        1   -1    0    0  501    0  0.00000000000E+00  0.00000000000E+00 -0.75800383284E+03  0.75800383285E+03  0.50400001928E-02 0.  1.
    10030    2    1    2    0    0  0.00000000000E+00  0.00000000000E+00  0.14884993584E+04  0.30045070241E+04  0.26098720501E+04 0.  0.
        2    1    3    3  502    0 -0.70256315699E+03  0.10991478500E+04  0.78306852130E+03  0.15214852266E+04  0.25500000920E-02 0.  1.
       -2    1    3    3    0  502  0.70256315699E+03 -0.10991478500E+04  0.70543083708E+03  0.14830217974E+04  0.25500000920E-02 0. -1.
</event>
<event>
 5   0  0.1136881E-05  0.2585728E+04  0.7818609E-02  0.8373065E-01
        2   -1    0    0  501    0  0.00000000000E+00  0.00000000000E+00  0.96573439646E+03  0.96573439646E+03  0.25500000920E-02 0.  1.
       -2   -1    0    0    0  501  0.00000000000E+00  0.00000000000E+00 -0.17308050198E+04  0.17308050198E+04  0.25500000920E-02 0. -1.
    10030    2    1    2    0    0  0.00000000000E+00  0.00000000000E+00 -0.76507062330E+03  0.26965394162E+04  0.25857284785E+04 0.  0.
        3    1    3    3  502    0  0.12134314758E+04 -0.42667933724E+03 -0.51861379153E+03  0.13868783214E+04  0.10100000352E+00 0.  1.
       -3    1    3    3    0  502 -0.12134314758E+04  0.42667933724E+03 -0.24645683177E+03  0.13096610949E+04  0.10100000352E+00 0. -1.
</event>
<event>
 5   0  0.1136881E-05  0.2579059E+04  0.7818609E-02  0.8375349E-01
       -2   -1    0    0    0  501  0.00000000000E+00  0.00000000000E+00  0.14972221683E+04  0.14972221683E+04  0.25500000920E-02 0.  1.
        2   -1    0    0  501    0  0.00000000000E+00  0.00000000000E+00 -0.11106474223E+04  0.11106474223E+04  0.25500000920E-02 0. -1.
    10030    2    1    2    0    0  0.00000000000E+00  0.00000000000E+00  0.38657474599E+03  0.26078695906E+04  0.25790586980E+04 0.  0.
        3    1    3    3  502    0  0.24542296504E+03  0.53718103346E+03  0.13524308752E+04  0.14757591866E+04  0.10100000352E+00 0.  1.
       -3    1    3    3    0  502 -0.24542296504E+03 -0.53718103346E+03 -0.96585612918E+03  0.11321104041E+04  0.10100000352E+00 0. -1.
</event>
<event>
 5   0  0.4361864E-06  0.2589180E+04  0.7818609E-02  0.8371886E-01
        1   -1    0    0  501    0  0.00000000000E+00  0.00000000000E+00  0.12224329071E+04  0.12224329072E+04  0.50400001928E-02 0.  1.
       -1   -1    0    0    0  501  0.00000000000E+00  0.00000000000E+00 -0.13710068532E+04  0.13710068532E+04  0.50400001928E-02 0. -1.
    10030    2    1    2    0    0  0.00000000000E+00  0.00000000000E+00 -0.14857394601E+03  0.25934397603E+04  0.25891804829E+04 0.  0.
        3    1    3    3  502    0  0.75918367125E+03  0.10485389517E+04 -0.87350785221E+02  0.12974682847E+04  0.10100000352E+00 0. -1.
       -3    1    3    3    0  502 -0.75918367125E+03 -0.10485389517E+04 -0.61223160786E+02  0.12959714756E+04  0.10100000352E+00 0.  1.
</event>
<event>
 5   0  0.1086507E-05  0.2595549E+04  0.7818609E-02  0.8369715E-01
       -2   -1    0    0    0  501  0.00000000000E+00  0.00000000000E+00  0.16563566282E+04  0.16563566282E+04  0.25500000920E-02 0.  1.
        2   -1    0    0  501    0  0.00000000000E+00  0.00000000000E+00 -0.10168216536E+04  0.10168216536E+04  0.25500000920E-02 0. -1.
    10030    2    1    2    0    0  0.00000000000E+00  0.00000000000E+00  0.63953497454E+03  0.26731782818E+04  0.25955494876E+04 0.  0.
        2    1    3    3  502    0  0.83625187420E+03  0.68584640693E+03 -0.41898403370E+03  0.11598491762E+04  0.25500000920E-02 0. -1.
       -2    1    3    3    0  502 -0.83625187420E+03 -0.68584640693E+03  0.10585190082E+04  0.15133291056E+04  0.25500000920E-02 0.  1.
</event>
<event>
 5   0  0.1085061E-05  0.2599367E+04  0.7818609E-02  0.8368416E-01
        2   -1    0    0  501    0  0.00000000000E+00  0.00000000000E+00  0.11983809948E+04  0.11983809948E+04  0.25500000920E-02 0.  1.
       -2   -1    0    0    0  501  0.00000000000E+00  0.00000000000E+00 -0.14095488972E+04  0.14095488972E+04  0.25500000920E-02 0. -1.
    10030    2    1    2    0    0  0.00000000000E+00  0.00000000000E+00 -0.21116790242E+03  0.26079298919E+04  0.25993665456E+04 0.  0.
        1    1    3    3  502    0  0.95125723010E+02 -0.44138522253E+03  0.11171626674E+04  0.12049573617E+04  0.50400001928E-02 0.  1.
       -1    1    3    3    0  502 -0.95125723010E+02  0.44138522253E+03 -0.13283305699E+04  0.14029725303E+04  0.50400001928E-02 0. -1.
</event>
<event>
 5   0  0.1116310E-05  0.2722239E+04  0.7818609E-02  0.8327825E-01
        2   -1    0    0  501    0  0.00000000000E+00  0.00000000000E+00  0.32199286387E+04  0.32199286387E+04  0.25500000920E-02 0. -1.
       -2   -1    0    0    0  501  0.00000000000E+00  0.00000000000E+00 -0.57536874135E+03  0.57536874136E+03  0.25500000920E-02 0.  1.
    10030    2    1    2    0    0  0.00000000000E+00  0.00000000000E+00  0.26445598974E+04  0.37952973801E+04  0.27222389962E+04 0.  0.
        4    1    3    3  502    0 -0.50552839706E+03 -0.93376361039E+03  0.25095235676E+04  0.27249190061E+04  0.12699999809E+01 0. -1.
       -4    1    3    3    0  502  0.50552839706E+03  0.93376361039E+03  0.13503632976E+03  0.10703783740E+04  0.12699999809E+01 0.  1.
</event>
<event>
 5   0  0.4597705E-06  0.2611845E+04  0.7818609E-02  0.8364189E-01
        1   -1    0    0  501    0  0.00000000000E+00  0.00000000000E+00  0.15036007060E+04  0.15036007060E+04  0.50400001928E-02 0. -1.
       -1   -1    0    0    0  501  0.00000000000E+00  0.00000000000E+00 -0.11342333233E+04  0.11342333233E+04  0.50400001928E-02 0.  1.
    10030    2    1    2    0    0  0.00000000000E+00  0.00000000000E+00  0.36936738269E+03  0.26378340293E+04  0.26118453443E+04 0.  0.
        5    1    3    3  502    0  0.10788413127E+04 -0.15790557955E+03  0.91056975904E+03  0.14205604971E+04  0.46999998093E+01 0. -1.
       -5    1    3    3    0  502 -0.10788413127E+04  0.15790557955E+03 -0.54120237635E+03  0.12172735322E+04  0.46999998093E+01 0.  1.
</event>
<event>
 5   0  0.1085061E-05  0.2602751E+04  0.7818609E-02  0.8367267E-01
        2   -1    0    0  501    0  0.00000000000E+00  0.00000000000E+00  0.20105587514E+04  0.20105587514E+04  0.25500000920E-02 0. -1.
       -2   -1    0    0    0  501  0.00000000000E+00  0.00000000000E+00 -0.84234189403E+03  0.84234189404E+03  0.25500000920E-02 0.  1.
    10030    2    1    2    0    0  0.00000000000E+00  0.00000000000E+00  0.11682168574E+04  0.28529006454E+04  0.26027507500E+04 0.  0.
        1    1    3    3  502    0 -0.90027265537E+03 -0.67097986079E+03 -0.13705606393E+03  0.11311450801E+04  0.50400001928E-02 0.  1.
       -1    1    3    3    0  502  0.90027265537E+03  0.67097986079E+03  0.13052729213E+04  0.17217555653E+04  0.50400001928E-02 0. -1.
</event>
<event>
 5   0  0.1136881E-05  0.2601709E+04  0.7818609E-02  0.8367621E-01
       -2   -1    0    0    0  501  0.00000000000E+00  0.00000000000E+00  0.90089372770E+03  0.90089372770E+03  0.25500000920E-02 0.  1.
        2   -1    0    0  501    0  0.00000000000E+00  0.00000000000E+00 -0.18783816035E+04  0.18783816035E+04  0.25500000920E-02 0. -1.
    10030    2    1    2    0    0  0.00000000000E+00  0.00000000000E+00 -0.97748787582E+03  0.27792753312E+04  0.26017088268E+04 0.  0.
        3    1    3    3  502    0 -0.39024064620E+03 -0.38210549780E+03  0.77248328718E+03  0.94605645316E+03  0.10100000352E+00 0.  1.
       -3    1    3    3    0  502  0.39024064620E+03  0.38210549780E+03 -0.17499711630E+04  0.18332188781E+04  0.10100000352E+00 0. -1.
</event>
<event>
 5   0  0.4464297E-06  0.2601027E+04  0.7818609E-02  0.8367852E-01
        1   -1    0    0  501    0  0.00000000000E+00  0.00000000000E+00  0.13089710181E+04  0.13089710181E+04  0.50400001928E-02 0. -1.
       -1   -1    0    0    0  501  0.00000000000E+00  0.00000000000E+00 -0.12921109271E+04  0.12921109271E+04  0.50400001928E-02 0.  1.
    10030    2    1    2    0    0  0.00000000000E+00  0.00000000000E+00  0.16860091029E+02  0.26010819452E+04  0.26010273014E+04 0.  0.
        4    1    3    3  502    0 -0.99390992875E+03 -0.57106109644E+03  0.62274452234E+03  0.13045229302E+04  0.12699999809E+01 0. -1.
       -4    1    3    3    0  502  0.99390992875E+03  0.57106109644E+03 -0.60588443131E+03  0.12965590150E+04  0.12699999809E+01 0.  1.
</event>
<event>
 5   0  0.1085255E-05  0.2598658E+04  0.7818609E-02  0.8368657E-01
       -2   -1    0    0    0  501  0.00000000000E+00  0.00000000000E+00  0.15556154885E+04  0.15556154885E+04  0.25500000920E-02 0. -1.
        2   -1    0    0  501    0  0.00000000000E+00  0.00000000000E+00 -0.10852653352E+04  0.10852653352E+04  0.25500000920E-02 0.  1.
    10030    2    1    2    0    0  0.00000000000E+00  0.00000000000E+00  0.47035015334E+03  0.26408808237E+04  0.25986577802E+04 0.  0.
        5    1    3    3  502    0  0.22935445366E+03  0.12629883702E+04  0.43966676973E+03  0.13568611009E+04  0.46999998093E+01 0.  1.
       -5    1    3    3    0  502 -0.22935445366E+03 -0.12629883702E+04  0.30683383613E+02  0.12840197229E+04  0.46999998093E+01 0. -1.
</event>
<event>
 5   0  0.1086507E-05  0.2591595E+04  0.7818609E-02  0.8371062E-01
        2   -1    0    0  501    0  0.00000000000E+00  0.00000000000E+00  0.26283999854E+04  0.26283999854E+04  0.25500000920E-02 0. -1.
       -2   -1    0    0    0  501  0.00000000000E+00  0.00000000000E+00 -0.63882614588E+03  0.63882614589E+03  0.25500000920E-02 0.  1.
    10030    2    1    2    0    0  0.00000000000E+00  0.00000000000E+00  0.19895738395E+04  0.32672261313E+04  0.25915945921E+04 0.  0.
        2    1    3    3  502    0  0.31026294053E+03 -0.50388325002E+03  0.24481129515E+04  0.25186143900E+04  0.25500000920E-02 0. -1.
       -2    1    3    3    0  502 -0.31026294053E+03  0.50388325002E+03 -0.45853911204E+03  0.74861174129E+03  0.25500000920E-02 0.  1.
</event>
<event>
 5   0  0.1086507E-05  0.2607608E+04  0.7818609E-02  0.8365621E-01
        2   -1    0    0  501    0  0.00000000000E+00  0.00000000000E+00  0.11422617966E+04  0.11422617966E+04  0.25500000920E-02 0.  1.
       -2   -1    0    0    0  501  0.00000000000E+00  0.00000000000E+00 -0.14881922348E+04  0.14881922348E+04  0.25500000920E-02 0. -1.
    10030    2    1    2    0    0  0.00000000000E+00  0.00000000000E+00 -0.34593043822E+03  0.26304540314E+04  0.26076082036E+04 0.  0.
        2    1    3    3  502    0 -0.30268203068E+03 -0.92892443534E+03  0.69795748162E+03  0.12006921606E+04  0.25500000920E-02 0.  1.
       -2    1    3    3    0  502  0.30268203068E+03  0.92892443534E+03 -0.10438879198E+04  0.14297618709E+04  0.25500000920E-02 0. -1.
</event>
<event>
 5   0  0.4361864E-06  0.2612189E+04  0.7818609E-02  0.8364073E-01
       -1   -1    0    0    0  501  0.00000000000E+00  0.00000000000E+00  0.75431446114E+03  0.75431446116E+03  0.50400001928E-02 0. -1.
        1   -1    0    0  501    0  0.00000000000E+00  0.00000000000E+00 -0.22615000602E+04  0.22615000602E+04  0.50400001928E-02 0.  1.
    10030    2    1    2    0    0  0.00000000000E+00  0.00000000000E+00 -0.15071855991E+04  0.30158145214E+04  0.26121885072E+04 0.  0.
        3    1    3    3  502    0 -0.86542841650E+03 -0.82415796163E+03 -0.14521687047E+03  0.12038648759E+04  0.10100000352E+00 0. -1.
       -3    1    3    3    0  502  0.86542841650E+03  0.82415796163E+03 -0.13619687286E+04  0.18119496455E+04  0.10100000352E+00 0.  1.
</event>
<event>
 5   0  0.4415080E-06  0.2596597E+04  0.7818609E-02  0.8369358E-01
       -1   -1    0    0    0  501  0.00000000000E+00  0.00000000000E+00  0.99477174218E+03  0.99477174219E+03  0.50400001928E-02 0.  1.
        1   -1    0    0  501    0  0.00000000000E+00  0.00000000000E+00 -0.16944383832E+04  0.16944383832E+04  0.50400001928E-02 0. -1.
    10030    2    1    2    0    0  0.00000000000E+00  0.00000000000E+00 -0.69966664104E+03  0.26892101254E+04  0.25965973292E+04 0.  0.
        2    1    3    3  502    0 -0.10104252215E+04  0.63289618011E+03 -0.88203185892E+03  0.14830700938E+04  0.25500000920E-02 0.  1.
       -2    1    3    3    0  502  0.10104252215E+04 -0.63289618011E+03  0.18236521788E+03  0.12061400316E+04  0.25500000920E-02 0. -1.
</event>
<event>
 5   0  0.1085061E-05  0.2623811E+04  0.7818609E-02  0.8360158E-01
        2   -1    0    0  501    0  0.00000000000E+00  0.00000000000E+00  0.16162431804E+04  0.16162431804E+04  0.25500000920E-02 0. -1.
       -2   -1    0    0    0  501  0.00000000000E+00  0.00000000000E+00 -0.10648744669E+04  0.10648744669E+04  0.25500000920E-02 0.  1.
    10030    2    1    2    0    0  0.00000000000E+00  0.00000000000E+00  0.55136871347E+03  0.26811176472E+04  0.26238110412E+04 0.  0.
        1    1    3    3  502    0 -0.10979070005E+04 -0.51896544160E+03  0.78288321923E+03  0.14448636774E+04  0.50400001928E-02 0. -1.
       -1    1    3    3    0  502  0.10979070005E+04  0.51896544160E+03 -0.23151450576E+03  0.12362539698E+04  0.50400001928E-02 0.  1.
</event>
<event>
 5   0  0.4415080E-06  0.2602926E+04  0.7818609E-02  0.8367208E-01
       -1   -1    0    0    0  501  0.00000000000E+00  0.00000000000E+00  0.18565664480E+04  0.18565664480E+04  0.50400001928E-02 0. -1.
        1   -1    0    0  501    0  0.00000000000E+00  0.00000000000E+00 -0.91233232212E+03  0.91233232213E+03  0.50400001928E-02 0.  1.
    10030    2    1    2    0    0  0.00000000000E+00  0.00000000000E+00  0.94423412588E+03  0.27688987701E+04  0.26029257221E+04 0.  0.
        2    1    3    3  502    0 -0.18391492200E+02  0.97872588286E+03  0.13844539502E+04  0.16955693265E+04  0.25500000920E-02 0. -1.
       -2    1    3    3    0  502  0.18391492200E+02 -0.97872588286E+03 -0.44021982434E+03  0.10733294436E+04  0.25500000920E-02 0.  1.
</event>
<event>
 5   0  0.4597705E-06  0.2586632E+04  0.7818609E-02  0.8372756E-01
        1   -1    0    0  501    0  0.00000000000E+00  0.00000000000E+00  0.14455222532E+04  0.14455222532E+04  0.50400001928E-02 0. -1.
       -1   -1    0    0    0  501  0.00000000000E+00  0.00000000000E+00 -0.11571362213E+04  0.11571362213E+04  0.50400001928E-02 0.  1.
    10030    2    1    2    0    0  0.00000000000E+00  0.00000000000E+00  0.28838603189E+03  0.26026584746E+04  0.25866319088E+04 0.  0.
        5    1    3    3  502    0 -0.88625839625E+03  0.39499633787E+02  0.10911029830E+04  0.14062510358E+04  0.46999998093E+01 0. -1.
       -5    1    3    3    0  502  0.88625839625E+03 -0.39499633787E+02 -0.80271695114E+03  0.11964074388E+04  0.46999998093E+01 0.  1.
</event>
<event>
 5   0  0.1085255E-05  0.2571179E+04  0.7818609E-02  0.8378057E-01
        2   -1    0    0  501    0  0.00000000000E+00  0.00000000000E+00  0.11133348127E+04  0.11133348127E+04  0.25500000920E-02 0.  1.
       -2   -1    0    0    0  501  0.00000000000E+00  0.00000000000E+00 -0.14844956255E+04  0.14844956255E+04  0.25500000920E-02 0. -1.
    10030    2    1    2    0    0  0.00000000000E+00  0.00000000000E+00 -0.37116081278E+03  0.25978304382E+04  0.25711792308E+04 0.  0.
        5    1    3    3  502    0  0.95404413226E+02  0.10436579685E+04 -0.93787501620E+03  0.14063980920E+04  0.46999998093E+01 0. -1.
       -5    1    3    3    0  502 -0.95404413226E+02 -0.10436579685E+04  0.56671420342E+03  0.11914323462E+04  0.46999998093E+01 0.  1.
</event>
<event>
 5   0  0.4415080E-06  0.2585355E+04  0.7818609E-02  0.8373193E-01
        1   -1    0    0  501    0  0.00000000000E+00  0.00000000000E+00  0.14773061848E+04  0.14773061848E+04  0.50400001928E-02 0. -1.
       -1   -1    0    0    0  501  0.00000000000E+00  0.00000000000E+00 -0.11311229354E+04  0.11311229354E+04  0.50400001928E-02 0.  1.
    10030    2    1    2    0    0  0.00000000000E+00  0.00000000000E+00  0.34618324936E+03  0.26084291202E+04  0.25853548370E+04 0.  0.
        2    1    3    3  502    0  0.49019400622E+03  0.11783330596E+04 -0.34305529172E+02  0.12766894033E+04  0.25500000920E-02 0.  1.
       -2    1    3    3    0  502 -0.49019400622E+03 -0.11783330596E+04  0.38048877853E+03  0.13317397169E+04  0.25500000920E-02 0. -1.
</event>
<event>
 5   0  0.4361864E-06  0.2583381E+04  0.7818609E-02  0.8373868E-01
        1   -1    0    0  501    0  0.00000000000E+00  0.00000000000E+00  0.17090961030E+04  0.17090961030E+04  0.50400001928E-02 0.  1.
       -1   -1    0    0    0  501  0.00000000000E+00  0.00000000000E+00 -0.97622612027E+03  0.97622612028E+03  0.50400001928E-02 0. -1.
    10030    2    1    2    0    0  0.00000000000E+00  0.00000000000E+00  0.73286998275E+03  0.26853222233E+04  0.25833809304E+04 0.  0.
        3    1    3    3  502    0  0.49317674970E+03  0.10865787333E+04 -0.14763845567E+03  0.12023617483E+04  0.10100000352E+00 0. -1.
       -3    1    3    3    0  502 -0.49317674970E+03 -0.10865787333E+04  0.88050843842E+03  0.14829604750E+04  0.10100000352E+00 0.  1.
</event>
<event>
 5   0  0.4597705E-06  0.2629777E+04  0.7818609E-02  0.8358156E-01
       -1   -1    0    0    0  501  0.00000000000E+00  0.00000000000E+00  0.12630903753E+04  0.12630903753E+04  0.50400001928E-02 0. -1.
        1   -1    0    0  501    0  0.00000000000E+00  0.00000000000E+00 -0.13688112539E+04  0.13688112539E+04  0.50400001928E-02 0.  1.
    10030    2    1    2    0    0  0.00000000000E+00  0.00000000000E+00 -0.10572087856E+03  0.26319016292E+04  0.26297774205E+04 0.  0.
        5    1    3    3  502    0 -0.60183921367E+03  0.11671526045E+04  0.13936179830E+02  0.13132676606E+04  0.46999998093E+01 0.  1.
       -5    1    3    3    0  502  0.60183921367E+03 -0.11671526045E+04 -0.11965705839E+03  0.13186339685E+04  0.46999998093E+01 0. -1.
</event>
<event>
 5   0  0.1086507E-05  0.2591417E+04  0.7818609E-02  0.8371123E-01
        2   -1    0    0  501    0  0.00000000000E+00  0.00000000000E+00  0.14681141506E+04  0.14681141506E+04  0.25500000920E-02 0. -1.
       -2   -1    0    0    0  501  0.00000000000E+00  0.00000000000E+00 -0.11435486473E+04  0.11435486473E+04  0.25500000920E-02 0.  1.
    10030    2    1    2    0    0  0.00000000000E+00  0.00000000000E+00  0.32456550327E+03  0.26116627978E+04  0.25914165631E+04 0.  0.
        2    1    3    3  502    0  0.23225949213E+03  0.66962100370E+03  0.12554336563E+04  0.14416831918E+04  0.25500000920E-02 0. -1.
       -2    1    3    3    0  502 -0.23225949213E+03 -0.66962100370E+03 -0.93086815298E+03  0.11699796060E+04  0.25500000920E-02 0.  1.
</event>
<event>
 5   0  0.1085061E-05  0.2609246E+04  0.7818609E-02  0.8365067E-01
        2   -1    0    0  501    0  0.00000000000E+00  0.00000000000E+00  0.14589888490E+04  0.14589888490E+04  0.25500000920E-02 0.  1.
       -2   -1    0    0    0  501  0.00000000000E+00  0.00000000000E+00 -0.11665895669E+04  0.11665895669E+04  0.25500000920E-02 0. -1.
    10030    2    1    2    0    0  0.00000000000E+00  0.00000000000E+00  0.29239928219E+03  0.26255784159E+04  0.26092459980E+04 0.  0.
        1    1    3    3  502    0  0.42142553442E+03 -0.68039007856E+03 -0.89054601167E+03  0.11973313405E+04  0.50400001928E-02 0. -1.
       -1    1    3    3    0  502 -0.42142553442E+03  0.68039007856E+03  0.11829452939E+04  0.14282470754E+04  0.50400001928E-02 0.  1.
</event>
<event>
 5   0  0.4361864E-06  0.2569465E+04  0.7818609E-02  0.8378648E-01
       -1   -1    0    0    0  501  0.00000000000E+00  0.00000000000E+00  0.14609384505E+04  0.14609384505E+04  0.50400001928E-02 0.  1.
        1   -1    0    0  501    0  0.00000000000E+00  0.00000000000E+00 -0.11297789311E+04  0.11297789311E+04  0.50400001928E-02 0. -1.
    10030    2    1    2    0    0  0.00000000000E+00  0.00000000000E+00  0.33115951945E+03  0.25907173816E+04  0.25694649101E+04 0.  0.
        3    1    3    3  502    0  0.70111471259E+03 -0.95790452904E+03  0.66096272976E+03  0.13586812236E+04  0.10100000352E+00 0.  1.
       -3    1    3    3    0  502 -0.70111471259E+03  0.95790452904E+03 -0.32980321032E+03  0.12320361580E+04  0.10100000352E+00 0. -1.
</event>
<event>
 5   0  0.1085061E-05  0.2484938E+04  0.7818609E-02  0.8408371E-01
       -2   -1    0    0    0  501  0.00000000000E+00  0.00000000000E+00  0.10749493578E+04  0.10749493578E+04  0.25500000920E-02 0. -1.
        2   -1    0    0  501    0  0.00000000000E+00  0.00000000000E+00 -0.14360950054E+04  0.14360950054E+04  0.25500000920E-02 0.  1.
    10030    2    1    2    0    0  0.00000000000E+00  0.00000000000E+00 -0.36114564760E+03  0.25110443632E+04  0.24849381512E+04 0.  0.
        1    1    3    3  502    0  0.10010153640E+04 -0.48913936553E+03 -0.73629618066E+03  0.13354479187E+04  0.50400001928E-02 0.  1.
       -1    1    3    3    0  502 -0.10010153640E+04  0.48913936553E+03  0.37515053306E+03  0.11755964445E+04  0.50400001928E-02 0. -1.
</event>
<event>
 5   0  0.1085061E-05  0.2582747E+04  0.7818609E-02  0.8374085E-01
        2   -1    0    0  501    0  0.00000000000E+00  0.00000000000E+00  0.16430723608E+04  0.16430723608E+04  0.25500000920E-02 0.  1.
       -2   -1    0    0    0  501  0.00000000000E+00  0.00000000000E+00 -0.10149558688E+04  0.10149558688E+04  0.25500000920E-02 0. -1.
    10030    2    1    2    0    0  0.00000000000E+00  0.00000000000E+00  0.62811649198E+03  0.26580282296E+04  0.25827473244E+04 0.  0.
        1    1    3    3  502    0 -0.12480249655E+04 -0.33153438861E+03  0.30085584577E+03  0.13258942663E+04  0.50400001928E-02 0. -1.
       -1    1    3    3    0  502  0.12480249655E+04  0.33153438861E+03  0.32726064621E+03  0.13321339632E+04  0.50400001928E-02 0.  1.
</event>
<event>
 5   0  0.1085255E-05  0.2612531E+04  0.7818609E-02  0.8363957E-01
        2   -1    0    0  501    0  0.00000000000E+00  0.00000000000E+00  0.20132609944E+04  0.20132609944E+04  0.25500000920E-02 0. -1.
       -2   -1    0    0    0  501  0.00000000000E+00  0.00000000000E+00 -0.84754496884E+03  0.84754496885E+03  0.25500000920E-02 0.  1.
    10030    2    1    2    0    0  0.00000000000E+00  0.00000000000E+00  0.11657160256E+04  0.28608059633E+04  0.26125307476E+04 0.  0.
        5    1    3    3  502    0 -0.22111990434E+03  0.45268949281E+03 -0.73686524957E+03  0.89264454013E+03  0.46999998093E+01 0.  1.
       -5    1    3    3    0  502  0.22111990434E+03 -0.45268949281E+03  0.19025812751E+04  0.19681614231E+04  0.46999998093E+01 0. -1.
</event>
<event>
 5   0  0.1136881E-05  0.2609164E+04  0.7818609E-02  0.8365095E-01
        2   -1    0    0  501    0  0.00000000000E+00  0.00000000000E+00  0.21866553281E+04  0.21866553281E+04  0.25500000920E-02 0. -1.
       -2   -1    0    0    0  501  0.00000000000E+00  0.00000000000E+00 -0.77832784427E+03  0.77832784427E+03  0.25500000920E-02 0.  1.
    10030    2    1    2    0    0  0.00000000000E+00  0.00000000000E+00  0.14083274838E+04  0.29649831724E+04  0.26091644085E+04 0.  0.
        3    1    3    3  502    0 -0.81900561790E+03  0.10011541892E+04  0.51113149907E+03  0.13908038439E+04  0.10100000352E+00 0.  1.
       -3    1    3    3    0  502  0.81900561790E+03 -0.10011541892E+04  0.89719598474E+03  0.15741793284E+04  0.10100000352E+00 0. -1.
</event>
<event>
 5   0  0.4218590E-06  0.2622465E+04  0.7818609E-02  0.8360610E-01
       -1   -1    0    0    0  501  0.00000000000E+00  0.00000000000E+00  0.11126795808E+04  0.11126795808E+04  0.50400001928E-02 0. -1.
        1   -1    0    0  501    0  0.00000000000E+00  0.00000000000E+00 -0.15452163970E+04  0.15452163970E+04  0.50400001928E-02 0.  1.
    10030    2    1    2    0    0  0.00000000000E+00  0.00000000000E+00 -0.43253681622E+03  0.26578959779E+04  0.26224650487E+04 0.  0.
        1    1    3    3  502    0  0.12957246756E+03 -0.77861148117E+03  0.84492401604E+03  0.11562531971E+04  0.50400001928E-02 0. -1.
       -1    1    3    3    0  502 -0.12957246756E+03  0.77861148117E+03 -0.12774608323E+04  0.15016427807E+04  0.50400001928E-02 0.  1.
</event>
<event>
 5   0  0.4218590E-06  0.2600162E+04  0.7818609E-02  0.8368146E-01
       -1   -1    0    0    0  501  0.00000000000E+00  0.00000000000E+00  0.22017277262E+04  0.22017277262E+04  0.50400001928E-02 0.  1.
        1   -1    0    0  501    0  0.00000000000E+00  0.00000000000E+00 -0.76767457067E+03  0.76767457069E+03  0.50400001928E-02 0. -1.
    10030    2    1    2    0    0  0.00000000000E+00  0.00000000000E+00  0.14340531555E+04  0.29694022969E+04  0.26001618311E+04 0.  0.
        1    1    3    3  502    0 -0.12954565477E+04  0.32179716675E+02  0.83662247019E+03  0.15424591919E+04  0.50400001928E-02 0. -1.
       -1    1    3    3    0  502  0.12954565477E+04 -0.32179716675E+02  0.59743068531E+03  0.14269431050E+04  0.50400001928E-02 0.  1.
</event>
<event>
 5   0  0.4218590E-06  0.2631648E+04  0.7818609E-02  0.8357530E-01
        1   -1    0    0  501    0  0.00000000000E+00  0.00000000000E+00  0.14780666191E+04  0.14780666191E+04  0.50400001928E-02 0. -1.
       -1   -1    0    0    0  501  0.00000000000E+00  0.00000000000E+00 -0.11713900038E+04  0.11713900038E+04  0.50400001928E-02 0.  1.
    10030    2    1    2    0    0  0.00000000000E+00  0.00000000000E+00  0.30667661537E+03  0.26494566229E+04  0.26316477443E+04 0.  0.
        1    1    3    3  502    0  0.11520371773E+04 -0.54766497610E+03 -0.17174910978E+03  0.12870991961E+04  0.50400001928E-02 0.  1.
       -1    1    3    3    0  502 -0.11520371773E+04  0.54766497610E+03  0.47842572516E+03  0.13623574268E+04  0.50400001928E-02 0. -1.
</event>
<event>
 5   0  0.1085255E-05  0.2600422E+04  0.7818609E-02  0.8368058E-01
        2   -1    0    0  501    0  0.00000000000E+00  0.00000000000E+00  0.18351442318E+04  0.18351442318E+04  0.25500000920E-02 0.  1.
       -2   -1    0    0    0  501  0.00000000000E+00  0.00000000000E+00 -0.92120732756E+03  0.92120732756E+03  0.25500000920E-02 0. -1.
    10030    2    1    2    0    0  0.00000000000E+00  0.00000000000E+00  0.91393690429E+03  0.27563515594E+04  0.26004217454E+04 0.  0.
        5    1    3    3  502    0  0.17421435693E+03 -0.42447173235E+03 -0.83253223898E+03  0.95060975834E+03  0.46999998093E+01 0. -1.
       -5    1    3    3    0  502 -0.17421435693E+03  0.42447173235E+03  0.17464691433E+04  0.18057418011E+04  0.46999998093E+01 0.  1.
</event>
<event>
 5   0  0.1085061E-05  0.2609195E+04  0.7818609E-02  0.8365085E-01
       -2   -1    0    0    0  501  0.00000000000E+00  0.00000000000E+00  0.15040224350E+04  0.15040224350E+04  0.25500000920E-02 0.  1.
        2   -1    0    0  501    0  0.00000000000E+00  0.00000000000E+00 -0.11316148242E+04  0.11316148242E+04  0.25500000920E-02 0. -1.
    10030    2    1    2    0    0  0.00000000000E+00  0.00000000000E+00  0.37240761080E+03  0.26356372592E+04  0.26091945756E+04 0.  0.
        1    1    3    3  502    0 -0.86033464890E+03  0.91705204676E+03 -0.16490171444E+03  0.12682084766E+04  0.50400001928E-02 0. -1.
       -1    1    3    3    0  502  0.86033464890E+03 -0.91705204676E+03  0.53730932524E+03  0.13674287826E+04  0.50400001928E-02 0.  1.
</event>
<event>
 5   0  0.4597705E-06  0.2588970E+04  0.7818609E-02  0.8371958E-01
       -1   -1    0    0    0  501  0.00000000000E+00  0.00000000000E+00  0.15961169954E+04  0.15961169955E+04  0.50400001928E-02 0. -1.
        1   -1    0    0  501    0  0.00000000000E+00  0.00000000000E+00 -0.10498547936E+04  0.10498547936E+04  0.50400001928E-02 0.  1.
    10030    2    1    2    0    0  0.00000000000E+00  0.00000000000E+00  0.54626220186E+03  0.26459717891E+04  0.25889697401E+04 0.  0.
        5    1    3    3  502    0 -0.15924594542E+03  0.11983727229E+04 -0.19989017478E+03  0.12253304151E+04  0.46999998093E+01 0.  1.
       -5    1    3    3    0  502  0.15924594542E+03 -0.11983727229E+04  0.74615237664E+03  0.14206413740E+04  0.46999998093E+01 0. -1.
</event>
<event>
 5   0  0.4597705E-06  0.2602273E+04  0.7818609E-02  0.8367429E-01
       -1   -1    0    0    0  501  0.00000000000E+00  0.00000000000E+00  0.14841358443E+04  0.14841358443E+04  0.50400001928E-02 0.  1.
        1   -1    0    0  501    0  0.00000000000E+00  0.00000000000E+00 -0.11407019014E+04  0.11407019014E+04  0.50400001928E-02 0. -1.
    10030    2    1    2    0    0  0.00000000000E+00  0.00000000000E+00  0.34343394286E+03  0.26248377458E+04  0.26022732982E+04 0.  0.
        5    1    3    3  502    0 -0.14370852988E+03 -0.12901213378E+04  0.26119514468E+03  0.13241262029E+04  0.46999998093E+01 0. -1.
       -5    1    3    3    0  502  0.14370852988E+03  0.12901213378E+04  0.82238798186E+02  0.13007115428E+04  0.46999998093E+01 0.  1.
</event>
<event>
 5   0  0.1085061E-05  0.2603122E+04  0.7818609E-02  0.8367142E-01
        2   -1    0    0  501    0  0.00000000000E+00  0.00000000000E+00  0.17264358522E+04  0.17264358522E+04  0.25500000920E-02 0. -1.
       -2   -1    0    0    0  501  0.00000000000E+00  0.00000000000E+00 -0.98124759279E+03  0.98124759279E+03  0.25500000920E-02 0.  1.
    10030    2    1    2    0    0  0.00000000000E+00  0.00000000000E+00  0.74518825944E+03  0.27076834450E+04  0.26031219903E+04 0.  0.
        1    1    3    3  502    0 -0.51473805002E+03  0.71818059903E+02 -0.86863060943E+03  0.10122411914E+04  0.50400001928E-02 0.  1.
       -1    1    3    3    0  502  0.51473805002E+03 -0.71818059903E+02  0.16138188689E+04  0.16954422536E+04  0.50400001928E-02 0. -1.
</event>
<event>
 5   0  0.4361864E-06  0.2619228E+04  0.7818609E-02  0.8361699E-01
        1   -1    0    0  501    0  0.00000000000E+00  0.00000000000E+00  0.21819606396E+04  0.21819606396E+04  0.50400001928E-02 0. -1.
       -1   -1    0    0    0  501  0.00000000000E+00  0.00000000000E+00 -0.78603083346E+03  0.78603083348E+03  0.50400001928E-02 0.  1.
    10030    2    1    2    0    0  0.00000000000E+00  0.00000000000E+00  0.13959298062E+04  0.29679914731E+04  0.26192276268E+04 0.  0.
        3    1    3    3  502    0 -0.12405249876E+04 -0.32145160141E+03  0.10038222716E+04  0.16278490532E+04  0.10100000352E+00 0. -1.
       -3    1    3    3    0  502  0.12405249876E+04  0.32145160141E+03  0.39210753454E+03  0.13401424199E+04  0.10100000352E+00 0.  1.
</event>
<event>
 5   0  0.4415080E-06  0.2619820E+04  0.7818609E-02  0.8361500E-01
       -1   -1    0    0    0  501  0.00000000000E+00  0.00000000000E+00  0.79156246551E+03  0.79156246553E+03  0.50400001928E-02 0. -1.
        1   -1    0    0  501    0  0.00000000000E+00  0.00000000000E+00 -0.21676921928E+04  0.21676921928E+04  0.50400001928E-02 0.  1.
    10030    2    1    2    0    0  0.00000000000E+00  0.00000000000E+00 -0.13761297273E+04  0.29592546583E+04  0.26198196706E+04 0.  0.
        2    1    3    3  502    0  0.21807227967E+03  0.24875387457E+03 -0.21197311985E+04  0.21453890937E+04  0.25500000920E-02 0.  1.
       -2    1    3    3    0  502 -0.21807227967E+03 -0.24875387457E+03  0.74360147124E+03  0.81386556465E+03  0.25500000920E-02 0. -1.
</event>
<event>
 5   0  0.4464297E-06  0.2637503E+04  0.7818609E-02  0.8355573E-01
        1   -1    0    0  501    0  0.00000000000E+00  0.00000000000E+00  0.15027073551E+04  0.15027073551E+04  0.50400001928E-02 0.  1.
       -1   -1    0    0    0  501  0.00000000000E+00  0.00000000000E+00 -0.11573149697E+04  0.11573149697E+04  0.50400001928E-02 0. -1.
    10030    2    1    2    0    0  0.00000000000E+00  0.00000000000E+00  0.34539238544E+03  0.26600223248E+04  0.26375031504E+04 0.  0.
        4    1    3    3  502    0  0.23332874666E+03  0.10056578414E+04  0.10002593563E+04  0.14374666572E+04  0.12699999809E+01 0.  1.
       -4    1    3    3    0  502 -0.23332874666E+03 -0.10056578414E+04 -0.65486697087E+03  0.12225556676E+04  0.12699999809E+01 0. -1.
</event>
<event>
 5   0  0.4464297E-06  0.2606341E+04  0.7818609E-02  0.8366051E-01
       -1   -1    0    0    0  501  0.00000000000E+00  0.00000000000E+00  0.15649806357E+04  0.15649806357E+04  0.50400001928E-02 0. -1.
        1   -1    0    0  501    0  0.00000000000E+00  0.00000000000E+00 -0.10851590864E+04  0.10851590864E+04  0.50400001928E-02 0.  1.
    10030    2    1    2    0    0  0.00000000000E+00  0.00000000000E+00  0.47982154931E+03  0.26501397221E+04  0.26063406967E+04 0.  0.
        4    1    3    3  502    0  0.12633191010E+04 -0.31959361962E+03  0.22804803912E+03  0.13229220512E+04  0.12699999809E+01 0. -1.
       -4    1    3    3    0  502 -0.12633191010E+04  0.31959361962E+03  0.25177351020E+03  0.13272176709E+04  0.12699999809E+01 0.  1.
</event>
<event>
 5   0  0.4218590E-06  0.2576567E+04  0.7818609E-02  0.8376205E-01
       -1   -1    0    0    0  501  0.00000000000E+00  0.00000000000E+00  0.13551775748E+04  0.13551775748E+04  0.50400001928E-02 0. -1.
        1   -1    0    0  501    0  0.00000000000E+00  0.00000000000E+00 -0.12246915845E+04  0.12246915845E+04  0.50400001928E-02 0.  1.
    10030    2    1    2    0    0  0.00000000000E+00  0.00000000000E+00  0.13048599036E+03  0.25798691593E+04  0.25765671514E+04 0.  0.
        1    1    3    3  502    0  0.93173794781E+03  0.56073665710E+03 -0.62637615241E+03  0.12549534997E+04  0.50400001928E-02 0.  1.
       -1    1    3    3    0  502 -0.93173794781E+03 -0.56073665710E+03  0.75686214277E+03  0.13249156596E+04  0.50400001928E-02 0. -1.
</event>
<event>
 5   0  0.4361864E-06  0.2548838E+04  0.7818609E-02  0.8385790E-01
        1   -1    0    0  501    0  0.00000000000E+00  0.00000000000E+00  0.18351071276E+04  0.18351071276E+04  0.50400001928E-02 0. -1.
       -1   -1    0    0    0  501  0.00000000000E+00  0.00000000000E+00 -0.88504038303E+03  0.88504038304E+03  0.50400001928E-02 0.  1.
    10030    2    1    2    0    0  0.00000000000E+00  0.00000000000E+00  0.95006674458E+03  0.27201475107E+04  0.25488381001E+04 0.  0.
        3    1    3    3  502    0 -0.51268279882E+03 -0.11198977322E+04  0.82433803591E+03  0.14820755009E+04  0.10100000352E+00 0. -1.
       -3    1    3    3    0  502  0.51268279882E+03  0.11198977322E+04  0.12572870867E+03  0.12380720097E+04  0.10100000352E+00 0.  1.
</event>
<event>
 5   0  0.4464297E-06  0.2600056E+04  0.7818609E-02  0.8368182E-01
        1   -1    0    0  501    0  0.00000000000E+00  0.00000000000E+00  0.13445144989E+04  0.13445144989E+04  0.50400001928E-02 0.  1.
       -1   -1    0    0    0  501  0.00000000000E+00  0.00000000000E+00 -0.12570134813E+04  0.12570134813E+04  0.50400001928E-02 0. -1.
    10030    2    1    2    0    0  0.00000000000E+00  0.00000000000E+00  0.87501017652E+02  0.26015279802E+04  0.26000560385E+04 0.  0.
        4    1    3    3  502    0 -0.81436970225E+03  0.10053491807E+04 -0.83389325356E+02  0.12964877090E+04  0.12699999809E+01 0. -1.
       -4    1    3    3    0  502  0.81436970225E+03 -0.10053491807E+04  0.17089034301E+03  0.13050402712E+04  0.12699999809E+01 0.  1.
</event>
<event>
 5   0  0.1085255E-05  0.2596280E+04  0.7818609E-02  0.8369466E-01
       -2   -1    0    0    0  501  0.00000000000E+00  0.00000000000E+00  0.77871229671E+03  0.77871229672E+03  0.25500000920E-02 0. -1.
        2   -1    0    0  501    0  0.00000000000E+00  0.00000000000E+00 -0.21640434222E+04  0.21640434222E+04  0.25500000920E-02 0.  1.
    10030    2    1    2    0    0  0.00000000000E+00  0.00000000000E+00 -0.13853311255E+04  0.29427557189E+04  0.25962798181E+04 0.  0.
        5    1    3    3  502    0 -0.50679273765E+03 -0.94978575616E+03 -0.15148771894E+04  0.18584420493E+04  0.46999998093E+01 0.  1.
       -5    1    3    3    0  502  0.50679273765E+03  0.94978575616E+03  0.12954606390E+03  0.10843136697E+04  0.46999998093E+01 0. -1.
</event>
<event>
 5   0  0.4415080E-06  0.2597263E+04  0.7818609E-02  0.8369132E-01
        1   -1    0    0  501    0  0.00000000000E+00  0.00000000000E+00  0.10429760468E+04  0.10429760468E+04  0.50400001928E-02 0.  1.
       -1   -1    0    0    0  501  0.00000000000E+00  0.00000000000E+00 -0.16169533009E+04  0.16169533009E+04  0.50400001928E-02 0. -1.
    10030    2    1    2    0    0  0.00000000000E+00  0.00000000000E+00 -0.57397725411E+03  0.26599293478E+04  0.25972628375E+04 0.  0.
        2    1    3    3  502    0 -0.40744653071E+03  0.65332496107E+03  0.78399524420E+03  0.10988606477E+04  0.25500000920E-02 0.  1.
       -2    1    3    3    0  502  0.40744653071E+03 -0.65332496107E+03 -0.13579724983E+04  0.15610687001E+04  0.25500000920E-02 0. -1.
</event>
<event>
 5   0  0.4361864E-06  0.2610442E+04  0.7818609E-02  0.8364663E-01
       -1   -1    0    0    0  501  0.00000000000E+00  0.00000000000E+00  0.12172958389E+04  0.12172958389E+04  0.50400001928E-02 0.  1.
        1   -1    0    0  501    0  0.00000000000E+00  0.00000000000E+00 -0.13994966924E+04  0.13994966924E+04  0.50400001928E-02 0. -1.
    10030    2    1    2    0    0  0.00000000000E+00  0.00000000000E+00 -0.18220085355E+03  0.26167925313E+04  0.26104417253E+04 0.  0.
        3    1    3    3  502    0 -0.78287907532E+02 -0.76839289178E+03 -0.11458221682E+04  0.13818339567E+04  0.10100000352E+00 0. -1.
       -3    1    3    3    0  502  0.78287907532E+02  0.76839289178E+03  0.96362131469E+03  0.12349585746E+04  0.10100000352E+00 0.  1.
</event>
<event>
 5   0  0.4415080E-06  0.2549671E+04  0.7818609E-02  0.8385501E-01
       -1   -1    0    0    0  501  0.00000000000E+00  0.00000000000E+00  0.13801486624E+04  0.13801486624E+04  0.50400001928E-02 0. -1.
        1   -1    0    0  501    0  0.00000000000E+00  0.00000000000E+00 -0.11775582830E+04  0.11775582830E+04  0.50400001928E-02 0.  1.
    10030    2    1    2    0    0  0.00000000000E+00  0.00000000000E+00  0.20259037941E+03  0.25577069455E+04  0.25496709508E+04 0.  0.
        2    1    3    3  502    0  0.12032653931E+03 -0.74178020948E+03  0.11343414227E+04  0.13606788080E+04  0.25500000920E-02 0. -1.
       -2    1    3    3    0  502 -0.12032653931E+03  0.74178020948E+03 -0.93175104330E+03  0.11970281375E+04  0.25500000920E-02 0.  1.
</event>
<event>
 5   0  0.1085061E-05  0.2619344E+04  0.7818609E-02  0.8361660E-01
       -2   -1    0    0    0  501  0.00000000000E+00  0.00000000000E+00  0.81817864339E+03  0.81817864339E+03  0.25500000920E-02 0.  1.
        2   -1    0    0  501    0  0.00000000000E+00  0.00000000000E+00 -0.20964127366E+04  0.20964127366E+04  0.25500000920E-02 0. -1.
    10030    2    1    2    0    0  0.00000000000E+00  0.00000000000E+00 -0.12782340932E+04  0.29145913800E+04  0.26193435275E+04 0.  0.
        1    1    3    3  502    0 -0.51235704468E+03  0.91132145711E+02 -0.19764291107E+04  0.20437922690E+04  0.50400001928E-02 0. -1.
       -1    1    3    3    0  502  0.51235704468E+03 -0.91132145711E+02  0.69819501749E+03  0.87079911098E+03  0.50400001928E-02 0.  1.
</event>
<event>
 5   0  0.4218590E-06  0.2331858E+04  0.7818609E-02  0.8465465E-01
       -1   -1    0    0    0  501  0.00000000000E+00  0.00000000000E+00  0.19846914320E+04  0.19846914320E+04  0.50400001928E-02 0.  1.
        1   -1    0    0  501    0  0.00000000000E+00  0.00000000000E+00 -0.68493803149E+03  0.68493803151E+03  0.50400001928E-02 0. -1.
    10030    2    1    2    0    0  0.00000000000E+00  0.00000000000E+00  0.12997534005E+04  0.26696294635E+04  0.23318581797E+04 0.  0.
        1    1    3    3  502    0  0.75018899694E+02  0.10478901790E+04  0.70974955644E+02  0.10529668119E+04  0.50400001928E-02 0. -1.
       -1    1    3    3    0  502 -0.75018899694E+02 -0.10478901790E+04  0.12287784449E+04  0.16166626516E+04  0.50400001928E-02 0.  1.
</event>
<event>
 5   0  0.1086507E-05  0.2599243E+04  0.7818609E-02  0.8368458E-01
       -2   -1    0    0    0  501  0.00000000000E+00  0.00000000000E+00  0.86951622399E+03  0.86951622399E+03  0.25500000920E-02 0. -1.
        2   -1    0    0  501    0  0.00000000000E+00  0.00000000000E+00 -0.19424773716E+04  0.19424773716E+04  0.25500000920E-02 0.  1.
    10030    2    1    2    0    0  0.00000000000E+00  0.00000000000E+00 -0.10729611476E+04  0.28119935956E+04  0.25992426507E+04 0.  0.
        2    1    3    3  502    0 -0.53400715096E+03  0.32125707296E+03  0.69732586262E+03  0.93521821138E+03  0.25500000920E-02 0. -1.
       -2    1    3    3    0  502  0.53400715096E+03 -0.32125707296E+03 -0.17702870102E+04  0.18767753842E+04  0.25500000920E-02 0.  1.
</event>
<event>
 5   0  0.3705250E-06  0.2316961E+04  0.7818609E-02  0.8471264E-01
       -3   -1    0    0    0  501  0.00000000000E+00  0.00000000000E+00  0.12642081983E+04  0.12642082023E+04  0.10100000352E+00 0. -1.
        3   -1    0    0  501    0  0.00000000000E+00  0.00000000000E+00 -0.10615949400E+04  0.10615949449E+04  0.10100000352E+00 0.  1.
    10030    2    1    2    0    0  0.00000000000E+00  0.00000000000E+00  0.20261325822E+03  0.23258031472E+04  0.23169609722E+04 0.  0.
        4    1    3    3  502    0 -0.31410140531E+03 -0.68884331827E+02 -0.10158965536E+04  0.10655759778E+04  0.12699999809E+01 0.  1.
       -4    1    3    3    0  502  0.31410140531E+03  0.68884331827E+02  0.12185098118E+04  0.12602271693E+04  0.12699999809E+01 0. -1.
</event>
<event>
 5   0  0.4218590E-06  0.2563273E+04  0.7818609E-02  0.8380785E-01
       -1   -1    0    0    0  501  0.00000000000E+00  0.00000000000E+00  0.10851196890E+04  0.10851196890E+04  0.50400001928E-02 0. -1.
        1   -1    0    0  501    0  0.00000000000E+00  0.00000000000E+00 -0.15137426378E+04  0.15137426378E+04  0.50400001928E-02 0.  1.
    10030    2    1    2    0    0  0.00000000000E+00  0.00000000000E+00 -0.42862294882E+03  0.25988623269E+04  0.25632728613E+04 0.  0.
        1    1    3    3  502    0 -0.43726217168E+02 -0.19058975422E+03 -0.14985294318E+04  0.15112335672E+04  0.50400001928E-02 0.  1.
       -1    1    3    3    0  502  0.43726217168E+02  0.19058975422E+03  0.10699064830E+04  0.10876287597E+04  0.50400001928E-02 0. -1.
</event>
<event>
 5   0  0.4361864E-06  0.2613989E+04  0.7818609E-02  0.8363465E-01
       -1   -1    0    0    0  501  0.00000000000E+00  0.00000000000E+00  0.15642348600E+04  0.15642348601E+04  0.50400001928E-02 0.  1.
        1   -1    0    0  501    0  0.00000000000E+00  0.00000000000E+00 -0.10920574601E+04  0.10920574601E+04  0.50400001928E-02 0. -1.
    10030    2    1    2    0    0  0.00000000000E+00  0.00000000000E+00  0.47217739998E+03  0.26562923201E+04  0.26139887898E+04 0.  0.
        3    1    3    3  502    0  0.12646854085E+03 -0.66635964617E+03 -0.89922291741E+03  0.11263353565E+04  0.10100000352E+00 0. -1.
       -3    1    3    3    0  502 -0.12646854085E+03  0.66635964617E+03  0.13714003174E+04  0.15299569637E+04  0.10100000352E+00 0.  1.
</event>
<event>
 5   0  0.1136881E-05  0.2606921E+04  0.7818609E-02  0.8365854E-01
       -2   -1    0    0    0  501  0.00000000000E+00  0.00000000000E+00  0.82185376418E+03  0.82185376418E+03  0.25500000920E-02 0. -1.
        2   -1    0    0  501    0  0.00000000000E+00  0.00000000000E+00 -0.20672889954E+04  0.20672889954E+04  0.25500000920E-02 0.  1.
    10030    2    1    2    0    0  0.00000000000E+00  0.00000000000E+00 -0.12454352312E+04  0.28891427596E+04  0.26069209750E+04 0.  0.
        3    1    3    3  502    0 -0.27086172230E+03  0.19130098533E+03  0.77432456729E+03  0.84234238010E+03  0.10100000352E+00 0. -1.
       -3    1    3    3    0  502  0.27086172230E+03 -0.19130098533E+03 -0.20197597985E+04  0.20468003795E+04  0.10100000352E+00 0.  1.
</event>
<event>
 5   0  0.1116310E-05  0.2556982E+04  0.7818609E-02  0.8382962E-01
        2   -1    0    0  501    0  0.00000000000E+00  0.00000000000E+00  0.10644873216E+04  0.10644873216E+04  0.25500000920E-02 0. -1.
       -2   -1    0    0    0  501  0.00000000000E+00  0.00000000000E+00 -0.15355179067E+04  0.15355179067E+04  0.25500000920E-02 0.  1.
    10030    2    1    2    0    0  0.00000000000E+00  0.00000000000E+00 -0.47103058503E+03  0.26000052283E+04  0.25569820834E+04 0.  0.
        4    1    3    3  502    0  0.91872873647E+02  0.12090820430E+04 -0.64757157906E+03  0.13746528924E+04  0.12699999809E+01 0. -1.
       -4    1    3    3    0  502 -0.91872873647E+02 -0.12090820430E+04  0.17654099402E+03  0.12253523359E+04  0.12699999809E+01 0.  1.
</event>
<event>
 5   0  0.4218590E-06  0.2590619E+04  0.7818609E-02  0.8371395E-01
       -1   -1    0    0    0  501  0.00000000000E+00  0.00000000000E+00  0.13576158763E+04  0.13576158764E+04  0.50400001928E-02 0.  1.
        1   -1    0    0  501    0  0.00000000000E+00  0.00000000000E+00 -0.12358625879E+04  0.12358625879E+04  0.50400001928E-02 0. -1.
    10030    2    1    2    0    0  0.00000000000E+00  0.00000000000E+00  0.12175328849E+03  0.25934784642E+04  0.25906189764E+04 0.  0.
        1    1    3    3  502    0 -0.90720228744E+03 -0.15913902695E+03  0.97264284713E+03  0.13395429550E+04  0.50400001928E-02 0.  1.
       -1    1    3    3    0  502  0.90720228744E+03  0.15913902695E+03 -0.85088955864E+03  0.12539355092E+04  0.50400001928E-02 0. -1.
</event>
<event>
 5   0  0.4597705E-06  0.2598660E+04  0.7818609E-02  0.8368657E-01
       -1   -1    0    0    0  501  0.00000000000E+00  0.00000000000E+00  0.68981267225E+03  0.68981267227E+03  0.50400001928E-02 0.  1.
        1   -1    0    0  501    0  0.00000000000E+00  0.00000000000E+00 -0.24474152879E+04  0.24474152879E+04  0.50400001928E-02 0. -1.
    10030    2    1    2    0    0  0.00000000000E+00  0.00000000000E+00 -0.17576026156E+04  0.31372279601E+04  0.25986597160E+04 0.  0.
        5    1    3    3  502    0 -0.12076583593E+04  0.40156691722E+03 -0.56273893694E+03  0.13915429936E+04  0.46999998093E+01 0.  1.
       -5    1    3    3    0  502  0.12076583593E+04 -0.40156691722E+03 -0.11948636787E+04  0.17456849665E+04  0.46999998093E+01 0. -1.
</event>
<event>
 5   0  0.1136881E-05  0.2595637E+04  0.7818609E-02  0.8369685E-01
       -2   -1    0    0    0  501  0.00000000000E+00  0.00000000000E+00  0.11457142920E+04  0.11457142920E+04  0.25500000920E-02 0.  1.
        2   -1    0    0  501    0  0.00000000000E+00  0.00000000000E+00 -0.14701158246E+04  0.14701158246E+04  0.25500000920E-02 0. -1.
    10030    2    1    2    0    0  0.00000000000E+00  0.00000000000E+00 -0.32440153257E+03  0.26158301167E+04  0.25956368862E+04 0.  0.
        3    1    3    3  502    0 -0.89034634825E+03 -0.93937190044E+03 -0.65556250854E+02  0.12959297124E+04  0.10100000352E+00 0. -1.
       -3    1    3    3    0  502  0.89034634825E+03  0.93937190044E+03 -0.25884528171E+03  0.13199004043E+04  0.10100000352E+00 0.  1.
</event>
<event>
 5   0  0.4464297E-06  0.2594477E+04  0.7818609E-02  0.8370080E-01
        1   -1    0    0  501    0  0.00000000000E+00  0.00000000000E+00  0.17510188733E+04  0.17510188733E+04  0.50400001928E-02 0.  1.
       -1   -1    0    0    0  501  0.00000000000E+00  0.00000000000E+00 -0.96105606334E+03  0.96105606336E+03  0.50400001928E-02 0. -1.
    10030    2    1    2    0    0  0.00000000000E+00  0.00000000000E+00  0.78996280997E+03  0.27120749367E+04  0.25944766758E+04 0.  0.
        4    1    3    3  502    0  0.50748958242E+03  0.93941250142E+03 -0.37515118220E+03  0.11317161952E+04  0.12699999809E+01 0. -1.
       -4    1    3    3    0  502 -0.50748958242E+03 -0.93941250142E+03  0.11651139922E+04  0.15803587415E+04  0.12699999809E+01 0.  1.
</event>
<event>
 5   0  0.1136881E-05  0.2593537E+04  0.7818609E-02  0.8370400E-01
       -2   -1    0    0    0  501  0.00000000000E+00  0.00000000000E+00  0.89178756406E+03  0.89178756406E+03  0.25500000920E-02 0. -1.
        2   -1    0    0  501    0  0.00000000000E+00  0.00000000000E+00 -0.18856603797E+04  0.18856603797E+04  0.25500000920E-02 0.  1.
    10030    2    1    2    0    0  0.00000000000E+00  0.00000000000E+00 -0.99387281566E+03  0.27774479438E+04  0.25935369492E+04 0.  0.
        3    1    3    3  502    0  0.76077279230E+03  0.53310314629E+03 -0.14658798917E+04  0.17354475138E+04  0.10100000352E+00 0.  1.
       -3    1    3    3    0  502 -0.76077279230E+03 -0.53310314629E+03  0.47200707602E+03  0.10420004300E+04  0.10100000352E+00 0. -1.
</event>
<event>
 5   0  0.3705250E-06  0.2600676E+04  0.7818609E-02  0.8367972E-01
       -3   -1    0    0    0  501  0.00000000000E+00  0.00000000000E+00  0.16004540433E+04  0.16004540465E+04  0.10100000352E+00 0. -1.
        3   -1    0    0  501    0  0.00000000000E+00  0.00000000000E+00 -0.10564996086E+04  0.10564996135E+04  0.10100000352E+00 0.  1.
    10030    2    1    2    0    0  0.00000000000E+00  0.00000000000E+00  0.54395443470E+03  0.26569536600E+04  0.26006761283E+04 0.  0.
        2    1    3    3  502    0  0.11839036031E+04  0.53760007444E+03  0.28772173046E+03  0.13317001823E+04  0.25500000920E-02 0. -1.
       -2    1    3    3    0  502 -0.11839036031E+04 -0.53760007444E+03  0.25623270424E+03  0.13252534777E+04  0.25500000920E-02 0.  1.
</event>
<event>
 5   0  0.4415080E-06  0.2540974E+04  0.7818609E-02  0.8388532E-01
       -1   -1    0    0    0  501  0.00000000000E+00  0.00000000000E+00  0.12910578984E+04  0.12910578984E+04  0.50400001928E-02 0.  1.
        1   -1    0    0  501    0  0.00000000000E+00  0.00000000000E+00 -0.12502442705E+04  0.12502442705E+04  0.50400001928E-02 0. -1.
    10030    2    1    2    0    0  0.00000000000E+00  0.00000000000E+00  0.40813627884E+02  0.25413021688E+04  0.25409744117E+04 0.  0.
        2    1    3    3  502    0  0.82514958034E+03 -0.50157157881E+03  0.84615964267E+03  0.12839127772E+04  0.25500000920E-02 0.  1.
       -2    1    3    3    0  502 -0.82514958034E+03  0.50157157881E+03 -0.80534601479E+03  0.12573893916E+04  0.25500000920E-02 0. -1.
</event>
<event>
 5   0  0.1085255E-05  0.2451506E+04  0.7818609E-02  0.8420469E-01
        2   -1    0    0  501    0  0.00000000000E+00  0.00000000000E+00  0.14281611076E+04  0.14281611076E+04  0.25500000920E-02 0. -1.
       -2   -1    0    0    0  501  0.00000000000E+00  0.00000000000E+00 -0.10520310401E+04  0.10520310401E+04  0.25500000920E-02 0.  1.
    10030    2    1    2    0    0  0.00000000000E+00  0.00000000000E+00  0.37613006750E+03  0.24801921478E+04  0.24515055093E+04 0.  0.
        5    1    3    3  502    0  0.30244886603E+02  0.38645216472E+03 -0.98837811442E+03  0.10616842355E+04  0.46999998093E+01 0.  1.
       -5    1    3    3    0  502 -0.30244886603E+02 -0.38645216472E+03  0.13645081819E+04  0.14185079123E+04  0.46999998093E+01 0. -1.
</event>
<event>
 5   0  0.4218590E-06  0.2594413E+04  0.7818609E-02  0.8370101E-01
        1   -1    0    0  501    0  0.00000000000E+00  0.00000000000E+00  0.15825976000E+04  0.15825976001E+04  0.50400001928E-02 0. -1.
       -1   -1    0    0    0  501  0.00000000000E+00  0.00000000000E+00 -0.10632802907E+04  0.10632802907E+04  0.50400001928E-02 0.  1.
    10030    2    1    2    0    0  0.00000000000E+00  0.00000000000E+00  0.51931730938E+03  0.26458778907E+04  0.25944131022E+04 0.  0.
        1    1    3    3  502    0 -0.10076838928E+04  0.49154336980E+03 -0.40574332251E+03  0.11923377692E+04  0.50400001928E-02 0.  1.
       -1    1    3    3    0  502  0.10076838928E+04 -0.49154336980E+03  0.92506063188E+03  0.14535401215E+04  0.50400001928E-02 0. -1.
</event>
<event>
 5   0  0.4218590E-06  0.2633029E+04  0.7818609E-02  0.8357068E-01
       -1   -1    0    0    0  501  0.00000000000E+00  0.00000000000E+00  0.13526557106E+04  0.13526557106E+04  0.50400001928E-02 0. -1.
        1   -1    0    0  501    0  0.00000000000E+00  0.00000000000E+00 -0.12813385033E+04  0.12813385033E+04  0.50400001928E-02 0.  1.
    10030    2    1    2    0    0  0.00000000000E+00  0.00000000000E+00  0.71317207333E+02  0.26339942140E+04  0.26330285557E+04 0.  0.
        1    1    3    3  502    0  0.68579017635E+02  0.11752800996E+04  0.62513140490E+03  0.13329574890E+04  0.50400001928E-02 0. -1.
       -1    1    3    3    0  502 -0.68579017635E+02 -0.11752800996E+04 -0.55381419756E+03  0.13010367249E+04  0.50400001928E-02 0.  1.
</event>
<event>
 5   0  0.1136881E-05  0.2599121E+04  0.7818609E-02  0.8368500E-01
        2   -1    0    0  501    0  0.00000000000E+00  0.00000000000E+00  0.19674390926E+04  0.19674390926E+04  0.25500000920E-02 0. -1.
       -2   -1    0    0    0  501  0.00000000000E+00  0.00000000000E+00 -0.85840395200E+03  0.85840395201E+03  0.25500000920E-02 0.  1.
    10030    2    1    2    0    0  0.00000000000E+00  0.00000000000E+00  0.11090351406E+04  0.28258430446E+04  0.25991209994E+04 0.  0.
        3    1    3    3  502    0 -0.49625894501E+03  0.11533844062E+04  0.19019166325E+03  0.12699375606E+04  0.10100000352E+00 0.  1.
       -3    1    3    3    0  502  0.49625894501E+03 -0.11533844062E+04  0.91884347731E+03  0.15559054839E+04  0.10100000352E+00 0. -1.
</event>
<event>
 5   0  0.4464297E-06  0.2591092E+04  0.7818609E-02  0.8371233E-01
       -1   -1    0    0    0  501  0.00000000000E+00  0.00000000000E+00  0.83586662866E+03  0.83586662867E+03  0.50400001928E-02 0. -1.
        1   -1    0    0  501    0  0.00000000000E+00  0.00000000000E+00 -0.20080229853E+04  0.20080229853E+04  0.50400001928E-02 0.  1.
    10030    2    1    2    0    0  0.00000000000E+00  0.00000000000E+00 -0.11721563566E+04  0.28438896140E+04  0.25910919729E+04 0.  0.
        4    1    3    3  502    0 -0.11802737633E+04  0.14964129541E+03 -0.23209540536E+02  0.11899491457E+04  0.12699999809E+01 0. -1.
       -4    1    3    3    0  502  0.11802737633E+04 -0.14964129541E+03 -0.11489468161E+04  0.16539404683E+04  0.12699999809E+01 0.  1.
</event>
<event>
 5   0  0.4218590E-06  0.2591564E+04  0.7818609E-02  0.8371072E-01
       -1   -1    0    0    0  501  0.00000000000E+00  0.00000000000E+00  0.10913104735E+04  0.10913104735E+04  0.50400001928E-02 0. -1.
        1   -1    0    0  501    0  0.00000000000E+00  0.00000000000E+00 -0.15385635642E+04  0.15385635642E+04  0.50400001928E-02 0.  1.
    10030    2    1    2    0    0  0.00000000000E+00  0.00000000000E+00 -0.44725309063E+03  0.26298740377E+04  0.25915636452E+04 0.  0.
        1    1    3    3  502    0  0.12365981865E+04  0.38640508414E+03 -0.19947199165E+03  0.13108291420E+04  0.50400001928E-02 0.  1.
       -1    1    3    3    0  502 -0.12365981865E+04 -0.38640508414E+03 -0.24778109898E+03  0.13190448957E+04  0.50400001928E-02 0. -1.
</event>
<event>
 5   0  0.1085255E-05  0.2600498E+04  0.7818609E-02  0.8368032E-01
       -2   -1    0    0    0  501  0.00000000000E+00  0.00000000000E+00  0.92896041163E+03  0.92896041164E+03  0.25500000920E-02 0.  1.
        2   -1    0    0  501    0  0.00000000000E+00  0.00000000000E+00 -0.18199342781E+04  0.18199342781E+04  0.25500000920E-02 0. -1.
    10030    2    1    2    0    0  0.00000000000E+00  0.00000000000E+00 -0.89097386649E+03  0.27488946898E+04  0.26004975648E+04 0.  0.
        5    1    3    3  502    0 -0.66198708776E+03  0.87818298824E+03  0.28777830037E+03  0.11367808520E+04  0.46999998093E+01 0. -1.
       -5    1    3    3    0  502  0.66198708776E+03 -0.87818298824E+03 -0.11787521669E+04  0.16121138378E+04  0.46999998093E+01 0.  1.
</event>
<event>
 5   0  0.4597705E-06  0.2581114E+04  0.7818609E-02  0.8374645E-01
       -1   -1    0    0    0  501  0.00000000000E+00  0.00000000000E+00  0.15500726171E+04  0.15500726171E+04  0.50400001928E-02 0. -1.
        1   -1    0    0  501    0  0.00000000000E+00  0.00000000000E+00 -0.10744901159E+04  0.10744901159E+04  0.50400001928E-02 0.  1.
    10030    2    1    2    0    0  0.00000000000E+00  0.00000000000E+00  0.47558250125E+03  0.26245627330E+04  0.25811142602E+04 0.  0.
        5    1    3    3  502    0 -0.20248229656E+03 -0.12436975230E+04  0.52129085762E+03  0.13636527628E+04  0.46999998093E+01 0.  1.
       -5    1    3    3    0  502  0.20248229656E+03  0.12436975230E+04 -0.45708356364E+02  0.12609099702E+04  0.46999998093E+01 0. -1.
</event>
<event>
 5   0  0.1136881E-05  0.2561595E+04  0.7818609E-02  0.8381365E-01
        2   -1    0    0  501    0  0.00000000000E+00  0.00000000000E+00  0.13164512918E+04  0.13164512918E+04  0.25500000920E-02 0. -1.
       -2   -1    0    0    0  501  0.00000000000E+00  0.00000000000E+00 -0.12461097396E+04  0.12461097396E+04  0.25500000920E-02 0.  1.
    10030    2    1    2    0    0  0.00000000000E+00  0.00000000000E+00  0.70341552177E+02  0.25625610314E+04  0.25615954220E+04 0.  0.
        3    1    3    3  502    0 -0.16099362691E+03  0.65227766171E+03 -0.10556794817E+04  0.12513369946E+04  0.10100000352E+00 0.  1.
       -3    1    3    3    0  502  0.16099362691E+03 -0.65227766171E+03  0.11260210338E+04  0.13112240368E+04  0.10100000352E+00 0. -1.
</event>
<event>
 5   0  0.4415080E-06  0.2601798E+04  0.7818609E-02  0.8367591E-01
        1   -1    0    0  501    0  0.00000000000E+00  0.00000000000E+00  0.81867988564E+03  0.81867988566E+03  0.50400001928E-02 0. -1.
       -1   -1    0    0    0  501  0.00000000000E+00  0.00000000000E+00 -0.20671543960E+04  0.20671543960E+04  0.50400001928E-02 0.  1.
    10030    2    1    2    0    0  0.00000000000E+00  0.00000000000E+00 -0.12484745103E+04  0.28858342816E+04  0.26017976282E+04 0.  0.
        2    1    3    3  502    0 -0.10741487766E+04 -0.20396921519E+03  0.15765926427E+03  0.11046517455E+04  0.25500000920E-02 0. -1.
       -2    1    3    3    0  502  0.10741487766E+04  0.20396921519E+03 -0.14061337746E+04  0.17811825362E+04  0.25500000920E-02 0.  1.
</event>
<event>
 5   0  0.4464297E-06  0.2554242E+04  0.7818609E-02  0.8383912E-01
       -1   -1    0    0    0  501  0.00000000000E+00  0.00000000000E+00  0.76203528469E+03  0.76203528471E+03  0.50400001928E-02 0. -1.
        1   -1    0    0  501    0  0.00000000000E+00  0.00000000000E+00 -0.21403708977E+04  0.21403708977E+04  0.50400001928E-02 0.  1.
    10030    2    1    2    0    0  0.00000000000E+00  0.00000000000E+00 -0.13783356130E+04  0.29024061824E+04  0.25542420765E+04 0.  0.
        4    1    3    3  502    0 -0.30944375590E+03 -0.11650270953E+04 -0.20976833421E+03  0.12235391035E+04  0.12699999809E+01 0. -1.
       -4    1    3    3    0  502  0.30944375590E+03  0.11650270953E+04 -0.11685672788E+04  0.16788670789E+04  0.12699999809E+01 0.  1.
</event>
<event>
 5   0  0.4218590E-06  0.2502917E+04  0.7818609E-02  0.8401947E-01
       -1   -1    0    0    0  501  0.00000000000E+00  0.00000000000E+00  0.14186657896E+04  0.14186657896E+04  0.50400001928E-02 0.  1.
        1   -1    0    0  501    0  0.00000000000E+00  0.00000000000E+00 -0.11039585500E+04  0.11039585500E+04  0.50400001928E-02 0. -1.
    10030    2    1    2    0    0  0.00000000000E+00  0.00000000000E+00  0.31470723954E+03  0.25226243396E+04  0.25029168808E+04 0.  0.
        1    1    3    3  502    0 -0.11654516874E+04  0.44696284964E+03  0.66674080125E+02  0.12499995431E+04  0.50400001928E-02 0. -1.
       -1    1    3    3    0  502  0.11654516874E+04 -0.44696284964E+03  0.24803315941E+03  0.12726247966E+04  0.50400001928E-02 0.  1.
</event>
<event>
 5   0  0.4464297E-06  0.2571767E+04  0.7818609E-02  0.8377855E-01
        1   -1    0    0  501    0  0.00000000000E+00  0.00000000000E+00  0.21386334176E+04  0.21386334176E+04  0.50400001928E-02 0.  1.
       -1   -1    0    0    0  501  0.00000000000E+00  0.00000000000E+00 -0.77315565763E+03  0.77315565764E+03  0.50400001928E-02 0. -1.
    10030    2    1    2    0    0  0.00000000000E+00  0.00000000000E+00  0.13654777600E+04  0.29117890753E+04  0.25717671173E+04 0.  0.
        4    1    3    3  502    0  0.50151456608E+02  0.18521383984E+03  0.21223318332E+04  0.21309888217E+04  0.12699999809E+01 0.  1.
       -4    1    3    3    0  502 -0.50151456608E+02 -0.18521383984E+03 -0.75685407317E+03  0.78080025361E+03  0.12699999809E+01 0. -1.
</event>
<event>
 5   0  0.1086507E-05  0.2606010E+04  0.7818609E-02  0.8366163E-01
       -2   -1    0    0    0  501  0.00000000000E+00  0.00000000000E+00  0.13855155742E+04  0.13855155742E+04  0.25500000920E-02 0.  1.
        2   -1    0    0  501    0  0.00000000000E+00  0.00000000000E+00 -0.12254078559E+04  0.12254078559E+04  0.25500000920E-02 0. -1.
    10030    2    1    2    0    0  0.00000000000E+00  0.00000000000E+00  0.16010771829E+03  0.26109234301E+04  0.26060097230E+04 0.  0.
        2    1    3    3  502    0 -0.87177840162E+03 -0.59781175389E+03  0.84335992535E+03  0.13522693660E+04  0.25500000920E-02 0.  1.
       -2    1    3    3    0  502  0.87177840162E+03  0.59781175389E+03 -0.68325220706E+03  0.12586540641E+04  0.25500000920E-02 0. -1.
</event>
<event>
 5   0  0.1085061E-05  0.2605582E+04  0.7818609E-02  0.8366308E-01
        2   -1    0    0  501    0  0.00000000000E+00  0.00000000000E+00  0.18202354013E+04  0.18202354013E+04  0.25500000920E-02 0. -1.
       -2   -1    0    0    0  501  0.00000000000E+00  0.00000000000E+00 -0.93244215947E+03  0.93244215947E+03  0.25500000920E-02 0.  1.
    10030    2    1    2    0    0  0.00000000000E+00  0.00000000000E+00  0.88779324187E+03  0.27526775608E+04  0.26055818762E+04 0.  0.
        1    1    3    3  502    0 -0.34080121948E+03  0.49916224538E+03 -0.77536113295E+03  0.98310391359E+03  0.50400001928E-02 0.  1.
       -1    1    3    3    0  502  0.34080121948E+03 -0.49916224538E+03  0.16631543748E+04  0.17695736472E+04  0.50400001928E-02 0. -1.
</event>
<event>
 5   0  0.1136881E-05  0.2596681E+04  0.7818609E-02  0.8369329E-01
       -2   -1    0    0    0  501  0.00000000000E+00  0.00000000000E+00  0.84432935146E+03  0.84432935147E+03  0.25500000920E-02 0.  1.
        2   -1    0    0  501    0  0.00000000000E+00  0.00000000000E+00 -0.19964822647E+04  0.19964822647E+04  0.25500000920E-02 0. -1.
    10030    2    1    2    0    0  0.00000000000E+00  0.00000000000E+00 -0.11521529132E+04  0.28408116161E+04  0.25966814019E+04 0.  0.
        3    1    3    3  502    0 -0.10559764644E+03 -0.19316806566E+03 -0.19759145010E+04  0.19881405610E+04  0.10100000352E+00 0. -1.
       -3    1    3    3    0  502  0.10559764644E+03  0.19316806566E+03  0.82376158784E+03  0.85267105517E+03  0.10100000352E+00 0.  1.
</event>
<event>
 5   0  0.1085061E-05  0.2609367E+04  0.7818609E-02  0.8365026E-01
       -2   -1    0    0    0  501  0.00000000000E+00  0.00000000000E+00  0.94147067423E+03  0.94147067423E+03  0.25500000920E-02 0. -1.
        2   -1    0    0  501    0  0.00000000000E+00  0.00000000000E+00 -0.18080213262E+04  0.18080213262E+04  0.25500000920E-02 0.  1.
    10030    2    1    2    0    0  0.00000000000E+00  0.00000000000E+00 -0.86655065194E+03  0.27494920004E+04  0.26093670167E+04 0.  0.
        1    1    3    3  502    0 -0.12658229324E+03  0.18687946475E+03  0.92074123525E+03  0.94800392068E+03  0.50400001928E-02 0. -1.
       -1    1    3    3    0  502  0.12658229324E+03 -0.18687946475E+03 -0.17872918872E+04  0.18014880797E+04  0.50400001928E-02 0.  1.
</event>
<event>
 5   0  0.1116310E-05  0.2607423E+04  0.7818609E-02  0.8365684E-01
       -2   -1    0    0    0  501  0.00000000000E+00  0.00000000000E+00  0.10601705962E+04  0.10601705962E+04  0.25500000920E-02 0. -1.
        2   -1    0    0  501    0  0.00000000000E+00  0.00000000000E+00 -0.16031979204E+04  0.16031979204E+04  0.25500000920E-02 0.  1.
    10030    2    1    2    0    0  0.00000000000E+00  0.00000000000E+00 -0.54302732422E+03  0.26633685166E+04  0.26074227084E+04 0.  0.
        4    1    3    3  502    0  0.91546085199E+03  0.91509368398E+03 -0.43040401542E+03  0.13640800018E+04  0.12699999809E+01 0. -1.
       -4    1    3    3    0  502 -0.91546085199E+03 -0.91509368398E+03 -0.11262330880E+03  0.12992885147E+04  0.12699999809E+01 0.  1.
</event>
<event>
 5   0  0.4361864E-06  0.2617160E+04  0.7818609E-02  0.8362396E-01
        1   -1    0    0  501    0  0.00000000000E+00  0.00000000000E+00  0.14930647809E+04  0.14930647809E+04  0.50400001928E-02 0.  1.
       -1   -1    0    0    0  501  0.00000000000E+00  0.00000000000E+00 -0.11468900142E+04  0.11468900142E+04  0.50400001928E-02 0. -1.
    10030    2    1    2    0    0  0.00000000000E+00  0.00000000000E+00  0.34617476666E+03  0.26399547951E+04  0.26171595960E+04 0.  0.
        3    1    3    3  502    0 -0.87027033207E+03  0.44220713471E+03 -0.70597506818E+03  0.12047067726E+04  0.10100000352E+00 0. -1.
       -3    1    3    3    0  502  0.87027033207E+03 -0.44220713471E+03  0.10521498348E+04  0.14352480225E+04  0.10100000352E+00 0.  1.
</event>
<event>
 5   0  0.4218590E-06  0.2586582E+04  0.7818609E-02  0.8372773E-01
        1   -1    0    0  501    0  0.00000000000E+00  0.00000000000E+00  0.19750304764E+04  0.19750304764E+04  0.50400001928E-02 0.  1.
       -1   -1    0    0    0  501  0.00000000000E+00  0.00000000000E+00 -0.84687411625E+03  0.84687411626E+03  0.50400001928E-02 0. -1.
    10030    2    1    2    0    0  0.00000000000E+00  0.00000000000E+00  0.11281563602E+04  0.28219045927E+04  0.25865824474E+04 0.  0.
        1    1    3    3  502    0  0.55882363447E+03 -0.47723824653E+03  0.17251176701E+04  0.18751189760E+04  0.50400001928E-02 0.  1.
       -1    1    3    3    0  502 -0.55882363447E+03  0.47723824653E+03 -0.59696130994E+03  0.94678561670E+03  0.50400001928E-02 0. -1.
</event>
<event>
 5   0  0.3705250E-06  0.2547204E+04  0.7818609E-02  0.8386359E-01
        3   -1    0    0  501    0  0.00000000000E+00  0.00000000000E+00  0.23774715792E+04  0.23774715814E+04  0.10100000352E+00 0. -1.
       -3   -1    0    0    0  501  0.00000000000E+00  0.00000000000E+00 -0.68226363871E+03  0.68226364619E+03  0.10100000352E+00 0.  1.
    10030    2    1    2    0    0  0.00000000000E+00  0.00000000000E+00  0.16952079405E+04  0.30597352275E+04  0.25472042912E+04 0.  0.
        4    1    3    3  502    0 -0.39234646957E+03  0.48856203618E+03 -0.48429830315E+03  0.79194385831E+03  0.12699999809E+01 0.  1.
       -4    1    3    3    0  502  0.39234646957E+03 -0.48856203618E+03  0.21795062436E+04  0.22677913692E+04  0.12699999809E+01 0. -1.
</event>
<event>
 5   0  0.4218590E-06  0.2589536E+04  0.7818609E-02  0.8371764E-01
        1   -1    0    0  501    0  0.00000000000E+00  0.00000000000E+00  0.11729972138E+04  0.11729972138E+04  0.50400001928E-02 0.  1.
       -1   -1    0    0    0  501  0.00000000000E+00  0.00000000000E+00 -0.14291799280E+04  0.14291799281E+04  0.50400001928E-02 0. -1.
    10030    2    1    2    0    0  0.00000000000E+00  0.00000000000E+00 -0.25618271428E+03  0.26021771418E+04  0.25895359226E+04 0.  0.
        1    1    3    3  502    0  0.68083090447E+03 -0.75033176057E+02  0.97602776247E+03  0.11923887332E+04  0.50400001928E-02 0.  1.
       -1    1    3    3    0  502 -0.68083090447E+03  0.75033176057E+02 -0.12322104767E+04  0.14097884086E+04  0.50400001928E-02 0. -1.
</event>
<event>
 5   0  0.4464297E-06  0.2593171E+04  0.7818609E-02  0.8370525E-01
        1   -1    0    0  501    0  0.00000000000E+00  0.00000000000E+00  0.13148281056E+04  0.13148281056E+04  0.50400001928E-02 0.  1.
       -1   -1    0    0    0  501  0.00000000000E+00  0.00000000000E+00 -0.12785960704E+04  0.12785960704E+04  0.50400001928E-02 0. -1.
    10030    2    1    2    0    0  0.00000000000E+00  0.00000000000E+00  0.36232035281E+02  0.25934241760E+04  0.25931710696E+04 0.  0.
        4    1    3    3  502    0 -0.73173205810E+03  0.62476020662E+03 -0.85109211597E+03  0.12845686137E+04  0.12699999809E+01 0. -1.
       -4    1    3    3    0  502  0.73173205810E+03 -0.62476020662E+03  0.88732415125E+03  0.13088555623E+04  0.12699999809E+01 0.  1.
</event>
<event>
 5   0  0.4361864E-06  0.2611272E+04  0.7818609E-02  0.8364382E-01
        1   -1    0    0  501    0  0.00000000000E+00  0.00000000000E+00  0.55592416012E+03  0.55592416014E+03  0.50400001928E-02 0. -1.
       -1   -1    0    0    0  501  0.00000000000E+00  0.00000000000E+00 -0.30663990500E+04  0.30663990501E+04  0.50400001928E-02 0.  1.
    10030    2    1    2    0    0  0.00000000000E+00  0.00000000000E+00 -0.25104748899E+04  0.36223232102E+04  0.26112719633E+04 0.  0.
        3    1    3    3  502    0  0.71911813219E+03 -0.39347225311E+03 -0.26649459870E+04  0.27881693682E+04  0.10100000352E+00 0.  1.
       -3    1    3    3    0  502 -0.71911813219E+03  0.39347225311E+03  0.15447109709E+03  0.83415384196E+03  0.10100000352E+00 0. -1.
</event>
<event>
 5   0  0.1116310E-05  0.2608314E+04  0.7818609E-02  0.8365383E-01
       -2   -1    0    0    0  501  0.00000000000E+00  0.00000000000E+00  0.65544636122E+03  0.65544636122E+03  0.25500000920E-02 0. -1.
        2   -1    0    0  501    0  0.00000000000E+00  0.00000000000E+00 -0.25949117888E+04  0.25949117888E+04  0.25500000920E-02 0.  1.
    10030    2    1    2    0    0  0.00000000000E+00  0.00000000000E+00 -0.19394654276E+04  0.32503581500E+04  0.26083140069E+04 0.  0.
        4    1    3    3  502    0  0.19985804975E+03  0.96613131269E+03  0.93134874812E+02  0.99097359763E+03  0.12699999809E+01 0. -1.
       -4    1    3    3    0  502 -0.19985804975E+03 -0.96613131269E+03 -0.20326003024E+04  0.22593845524E+04  0.12699999809E+01 0.  1.
</event>
<event>
 5   0  0.4415080E-06  0.2543935E+04  0.7818609E-02  0.8387499E-01
        1   -1    0    0  501    0  0.00000000000E+00  0.00000000000E+00  0.15844022144E+04  0.15844022144E+04  0.50400001928E-02 0. -1.
       -1   -1    0    0    0  501  0.00000000000E+00  0.00000000000E+00 -0.10211428586E+04  0.10211428587E+04  0.50400001928E-02 0.  1.
    10030    2    1    2    0    0  0.00000000000E+00  0.00000000000E+00  0.56325935571E+03  0.26055450730E+04  0.25439347526E+04 0.  0.
        2    1    3    3  502    0 -0.38897448873E+03 -0.11787664992E+04 -0.27812421517E+01  0.12412893892E+04  0.25500000920E-02 0.  1.
       -2    1    3    3    0  502  0.38897448873E+03  0.11787664992E+04  0.56604059786E+03  0.13642556838E+04  0.25500000920E-02 0. -1.
</event>
<event>
 5   0  0.4361864E-06  0.2777766E+04  0.7818609E-02  0.8310205E-01
        1   -1    0    0  501    0  0.00000000000E+00  0.00000000000E+00  0.16667818593E+04  0.16667818593E+04  0.50400001928E-02 0. -1.
       -1   -1    0    0    0  501  0.00000000000E+00  0.00000000000E+00 -0.11573172861E+04  0.11573172861E+04  0.50400001928E-02 0.  1.
    10030    2    1    2    0    0  0.00000000000E+00  0.00000000000E+00  0.50946457318E+03  0.28240991454E+04  0.27777656185E+04 0.  0.
        3    1    3    3  502    0 -0.17814934998E+03  0.12524676671E+04 -0.32805072885E+03  0.13069161178E+04  0.10100000352E+00 0.  1.
       -3    1    3    3    0  502  0.17814934998E+03 -0.12524676671E+04  0.83751530203E+03  0.15171830276E+04  0.10100000352E+00 0. -1.
</event>
<event>
 5   0  0.1085255E-05  0.2735992E+04  0.7818609E-02  0.8323420E-01
       -2   -1    0    0    0  501  0.00000000000E+00  0.00000000000E+00  0.11638984377E+04  0.11638984377E+04  0.25500000920E-02 0. -1.
        2   -1    0    0  501    0  0.00000000000E+00  0.00000000000E+00 -0.16078835711E+04  0.16078835712E+04  0.25500000920E-02 0.  1.
    10030    2    1    2    0    0  0.00000000000E+00  0.00000000000E+00 -0.44398513342E+03  0.27717820089E+04  0.27359920881E+04 0.  0.
        5    1    3    3  502    0  0.13145129892E+04  0.27209445878E+03 -0.48889916011E+03  0.14286442077E+04  0.46999998093E+01 0.  1.
       -5    1    3    3    0  502 -0.13145129892E+04 -0.27209445878E+03  0.44914026686E+02  0.13431378012E+04  0.46999998093E+01 0. -1.
</event>
<event>
 5   0  0.4415080E-06  0.2584794E+04  0.7818609E-02  0.8373385E-01
        1   -1    0    0  501    0  0.00000000000E+00  0.00000000000E+00  0.13821694932E+04  0.13821694932E+04  0.50400001928E-02 0.  1.
       -1   -1    0    0    0  501  0.00000000000E+00  0.00000000000E+00 -0.12084556743E+04  0.12084556743E+04  0.50400001928E-02 0. -1.
    10030    2    1    2    0    0  0.00000000000E+00  0.00000000000E+00  0.17371381894E+03  0.25906251675E+04  0.25847944343E+04 0.  0.
        2    1    3    3  502    0  0.98378654108E+03 -0.71372565250E+03  0.52722294208E+03  0.13248412343E+04  0.25500000920E-02 0.  1.
       -2    1    3    3    0  502 -0.98378654108E+03  0.71372565250E+03 -0.35350912315E+03  0.12657839332E+04  0.25500000920E-02 0. -1.
</event>
<event>
 5   0  0.4597705E-06  0.2611190E+04  0.7818609E-02  0.8364410E-01
       -1   -1    0    0    0  501  0.00000000000E+00  0.00000000000E+00  0.13288685504E+04  0.13288685504E+04  0.50400001928E-02 0.  1.
        1   -1    0    0  501    0  0.00000000000E+00  0.00000000000E+00 -0.12827290395E+04  0.12827290395E+04  0.50400001928E-02 0. -1.
    10030    2    1    2    0    0  0.00000000000E+00  0.00000000000E+00  0.46139510830E+02  0.26115975899E+04  0.26111899811E+04 0.  0.
        5    1    3    3  502    0 -0.63911786758E+03  0.12830874645E+03 -0.11083103475E+04  0.12858105224E+04  0.46999998093E+01 0. -1.
       -5    1    3    3    0  502  0.63911786758E+03 -0.12830874645E+03  0.11544498583E+04  0.13257870675E+04  0.46999998093E+01 0.  1.
</event>
<event>
 5   0  0.4597705E-06  0.2597603E+04  0.7818609E-02  0.8369016E-01
        1   -1    0    0  501    0  0.00000000000E+00  0.00000000000E+00  0.19967569433E+04  0.19967569433E+04  0.50400001928E-02 0.  1.
       -1   -1    0    0    0  501  0.00000000000E+00  0.00000000000E+00 -0.84481283151E+03  0.84481283152E+03  0.50400001928E-02 0. -1.
    10030    2    1    2    0    0  0.00000000000E+00  0.00000000000E+00  0.11519441118E+04  0.28415697749E+04  0.25976034240E+04 0.  0.
        5    1    3    3  502    0 -0.11479827625E+04  0.94584758881E+02 -0.80428215970E+02  0.11546867487E+04  0.46999998093E+01 0. -1.
       -5    1    3    3    0  502  0.11479827625E+04 -0.94584758881E+02  0.12323723278E+04  0.16868830262E+04  0.46999998093E+01 0.  1.
</event>
<event>
 5   0  0.1086507E-05  0.2618787E+04  0.7818609E-02  0.8361847E-01
       -2   -1    0    0    0  501  0.00000000000E+00  0.00000000000E+00  0.12842755364E+04  0.12842755364E+04  0.25500000920E-02 0. -1.
        2   -1    0    0  501    0  0.00000000000E+00  0.00000000000E+00 -0.13350032265E+04  0.13350032265E+04  0.25500000920E-02 0.  1.
    10030    2    1    2    0    0  0.00000000000E+00  0.00000000000E+00 -0.50727690130E+02  0.26192787629E+04  0.26187874941E+04 0.  0.
        2    1    3    3  502    0  0.16672221907E+03 -0.14908468578E+03 -0.13157568077E+04  0.13346304802E+04  0.25500000920E-02 0.  1.
       -2    1    3    3    0  502 -0.16672221907E+03  0.14908468578E+03  0.12650291175E+04  0.12846482826E+04  0.25500000920E-02 0. -1.
</event>
<event>
 5   0  0.1086507E-05  0.2616535E+04  0.7818609E-02  0.8362606E-01
       -2   -1    0    0    0  501  0.00000000000E+00  0.00000000000E+00  0.12192606683E+04  0.12192606683E+04  0.25500000920E-02 0. -1.
        2   -1    0    0  501    0  0.00000000000E+00  0.00000000000E+00 -0.14037717419E+04  0.14037717419E+04  0.25500000920E-02 0.  1.
    10030    2    1    2    0    0  0.00000000000E+00  0.00000000000E+00 -0.18451107365E+03  0.26230324102E+04  0.26165348629E+04 0.  0.
        2    1    3    3  502    0 -0.14053548352E+03 -0.10532375852E+04 -0.85737033477E+03  0.13653364142E+04  0.25500000920E-02 0.  1.
       -2    1    3    3    0  502  0.14053548352E+03  0.10532375852E+04  0.67285926111E+03  0.12576959960E+04  0.25500000920E-02 0. -1.
</event>
<event>
 5   0  0.1085255E-05  0.2578566E+04  0.7818609E-02  0.8375519E-01
       -2   -1    0    0    0  501  0.00000000000E+00  0.00000000000E+00  0.19875769697E+04  0.19875769697E+04  0.25500000920E-02 0.  1.
        2   -1    0    0  501    0  0.00000000000E+00  0.00000000000E+00 -0.83631986124E+03  0.83631986124E+03  0.25500000920E-02 0. -1.
    10030    2    1    2    0    0  0.00000000000E+00  0.00000000000E+00  0.11512571084E+04  0.28238968309E+04  0.25785655667E+04 0.  0.
        5    1    3    3  502    0 -0.44262660249E+03  0.62839457982E+03  0.17092095014E+04  0.18740910508E+04  0.46999998093E+01 0.  1.
       -5    1    3    3    0  502  0.44262660249E+03 -0.62839457982E+03 -0.55795239292E+03  0.94980578012E+03  0.46999998093E+01 0. -1.
</event>
<event>
 5   0  0.1116310E-05  0.2600518E+04  0.7818609E-02  0.8368025E-01
       -2   -1    0    0    0  501  0.00000000000E+00  0.00000000000E+00  0.10137831535E+04  0.10137831535E+04  0.25500000920E-02 0. -1.
        2   -1    0    0  501    0  0.00000000000E+00  0.00000000000E+00 -0.16676870085E+04  0.16676870085E+04  0.25500000920E-02 0.  1.
    10030    2    1    2    0    0  0.00000000000E+00  0.00000000000E+00 -0.65390385496E+03  0.26814701620E+04  0.26005176366E+04 0.  0.
        4    1    3    3  502    0 -0.36227746914E+02  0.76334750481E+03 -0.14116782453E+04  0.16052566598E+04  0.12699999809E+01 0.  1.
       -4    1    3    3    0  502  0.36227746914E+02 -0.76334750481E+03  0.75777439033E+03  0.10762135022E+04  0.12699999809E+01 0. -1.
</event>
<event>
 5   0  0.4218590E-06  0.2600193E+04  0.7818609E-02  0.8368136E-01
        1   -1    0    0  501    0  0.00000000000E+00  0.00000000000E+00  0.20788203106E+04  0.20788203106E+04  0.50400001928E-02 0.  1.
       -1   -1    0    0    0  501  0.00000000000E+00  0.00000000000E+00 -0.81308155870E+03  0.81308155871E+03  0.50400001928E-02 0. -1.
    10030    2    1    2    0    0  0.00000000000E+00  0.00000000000E+00  0.12657387519E+04  0.28919018693E+04  0.26001926532E+04 0.  0.
        1    1    3    3  502    0  0.99150958210E+03  0.83785841670E+03  0.71270306634E+03  0.14808928518E+04  0.50400001928E-02 0.  1.
       -1    1    3    3    0  502 -0.99150958210E+03 -0.83785841670E+03  0.55303568553E+03  0.14110090175E+04  0.50400001928E-02 0. -1.
</event>
<event>
 5   0  0.1116310E-05  0.2572498E+04  0.7818609E-02  0.8377603E-01
       -2   -1    0    0    0  501  0.00000000000E+00  0.00000000000E+00  0.11648910490E+04  0.11648910490E+04  0.25500000920E-02 0. -1.
        2   -1    0    0  501    0  0.00000000000E+00  0.00000000000E+00 -0.14202498030E+04  0.14202498030E+04  0.25500000920E-02 0.  1.
    10030    2    1    2    0    0  0.00000000000E+00  0.00000000000E+00 -0.25535875405E+03  0.25851408520E+04  0.25724978390E+04 0.  0.
        4    1    3    3  502    0 -0.40781323827E+03 -0.12181702449E+04 -0.19268335374E+03  0.12989914821E+04  0.12699999809E+01 0.  1.
       -4    1    3    3    0  502  0.40781323827E+03  0.12181702449E+04 -0.62675400317E+02  0.12861493699E+04  0.12699999809E+01 0. -1.
</event>
<event>
 5   0  0.4464297E-06  0.2597060E+04  0.7818609E-02  0.8369201E-01
        1   -1    0    0  501    0  0.00000000000E+00  0.00000000000E+00  0.14985747900E+04  0.14985747900E+04  0.50400001928E-02 0.  1.
       -1   -1    0    0    0  501  0.00000000000E+00  0.00000000000E+00 -0.11251891284E+04  0.11251891284E+04  0.50400001928E-02 0. -1.
    10030    2    1    2    0    0  0.00000000000E+00  0.00000000000E+00  0.37338566158E+03  0.26237639184E+04  0.25970599237E+04 0.  0.
        4    1    3    3  502    0 -0.12030808941E+04  0.39760524554E+03  0.47366439385E+03  0.13527206437E+04  0.12699999809E+01 0.  1.
       -4    1    3    3    0  502  0.12030808941E+04 -0.39760524554E+03 -0.10027873227E+03  0.12710432747E+04  0.12699999809E+01 0. -1.
</event>
<event>
 5   0  0.1085061E-05  0.2602651E+04  0.7818609E-02  0.8367301E-01
        2   -1    0    0  501    0  0.00000000000E+00  0.00000000000E+00  0.97844408359E+03  0.97844408359E+03  0.25500000920E-02 0. -1.
       -2   -1    0    0    0  501  0.00000000000E+00  0.00000000000E+00 -0.17307563524E+04  0.17307563524E+04  0.25500000920E-02 0.  1.
    10030    2    1    2    0    0  0.00000000000E+00  0.00000000000E+00 -0.75231226878E+03  0.27092004360E+04  0.26026511969E+04 0.  0.
        1    1    3    3  502    0  0.22050184936E+03 -0.68349285302E+03  0.75347332417E+03  0.10409157487E+04  0.50400001928E-02 0. -1.
       -1    1    3    3    0  502 -0.22050184936E+03  0.68349285302E+03 -0.15057855929E+04  0.16682846872E+04  0.50400001928E-02 0.  1.
</event>
<event>
 5   0  0.4361864E-06  0.2595257E+04  0.7818609E-02  0.8369814E-01
       -1   -1    0    0    0  501  0.00000000000E+00  0.00000000000E+00  0.73601858047E+03  0.73601858048E+03  0.50400001928E-02 0.  1.
        1   -1    0    0  501    0  0.00000000000E+00  0.00000000000E+00 -0.22877672162E+04  0.22877672162E+04  0.50400001928E-02 0. -1.
    10030    2    1    2    0    0  0.00000000000E+00  0.00000000000E+00 -0.15517486357E+04  0.30237857967E+04  0.25952565799E+04 0.  0.
        3    1    3    3  502    0 -0.48254989360E+03  0.93979242645E+03 -0.16538021983E+04  0.19624285785E+04  0.10100000352E+00 0. -1.
       -3    1    3    3    0  502  0.48254989360E+03 -0.93979242645E+03  0.10205356258E+03  0.10613572181E+04  0.10100000352E+00 0.  1.
</event>
<event>
 5   0  0.1136881E-05  0.2604003E+04  0.7818609E-02  0.8366843E-01
        2   -1    0    0  501    0  0.00000000000E+00  0.00000000000E+00  0.17082151357E+04  0.17082151358E+04  0.25500000920E-02 0.  1.
       -2   -1    0    0    0  501  0.00000000000E+00  0.00000000000E+00 -0.99238536675E+03  0.99238536676E+03  0.25500000920E-02 0. -1.
    10030    2    1    2    0    0  0.00000000000E+00  0.00000000000E+00  0.71582976900E+03  0.27006005025E+04  0.26040028448E+04 0.  0.
        3    1    3    3  502    0 -0.97825291033E+03  0.27892815173E+03  0.12007286812E+04  0.15736991601E+04  0.10100000352E+00 0.  1.
       -3    1    3    3    0  502  0.97825291033E+03 -0.27892815173E+03 -0.48489891216E+03  0.11269013425E+04  0.10100000352E+00 0. -1.
</event>
<event>
 5   0  0.4597705E-06  0.2611125E+04  0.7818609E-02  0.8364432E-01
       -1   -1    0    0    0  501  0.00000000000E+00  0.00000000000E+00  0.17319436770E+04  0.17319436770E+04  0.50400001928E-02 0. -1.
        1   -1    0    0  501    0  0.00000000000E+00  0.00000000000E+00 -0.98415025822E+03  0.98415025823E+03  0.50400001928E-02 0.  1.
    10030    2    1    2    0    0  0.00000000000E+00  0.00000000000E+00  0.74779341880E+03  0.27160939353E+04  0.26111245217E+04 0.  0.
        5    1    3    3  502    0  0.44791454505E+03 -0.71288531521E+03 -0.66403288207E+03  0.10722847900E+04  0.46999998093E+01 0.  1.
       -5    1    3    3    0  502 -0.44791454505E+03  0.71288531521E+03  0.14118263009E+04  0.16438091453E+04  0.46999998093E+01 0. -1.
</event>
<event>
 5   0  0.1085061E-05  0.2607742E+04  0.7818609E-02  0.8365576E-01
       -2   -1    0    0    0  501  0.00000000000E+00  0.00000000000E+00  0.15938785318E+04  0.15938785318E+04  0.25500000920E-02 0.  1.
        2   -1    0    0  501    0  0.00000000000E+00  0.00000000000E+00 -0.10666305945E+04  0.10666305945E+04  0.25500000920E-02 0. -1.
    10030    2    1    2    0    0  0.00000000000E+00  0.00000000000E+00  0.52724793730E+03  0.26605091264E+04  0.26077420164E+04 0.  0.
        1    1    3    3  502    0  0.89752431520E+03  0.87993860150E+03  0.61739362525E+03  0.14003630698E+04  0.50400001928E-02 0.  1.
       -1    1    3    3    0  502 -0.89752431520E+03 -0.87993860150E+03 -0.90145687954E+02  0.12601460566E+04  0.50400001928E-02 0. -1.
</event>
<event>
 5   0  0.1136881E-05  0.2609740E+04  0.7818609E-02  0.8364900E-01
        2   -1    0    0  501    0  0.00000000000E+00  0.00000000000E+00  0.11630364233E+04  0.11630364233E+04  0.25500000920E-02 0.  1.
       -2   -1    0    0    0  501  0.00000000000E+00  0.00000000000E+00 -0.14640000110E+04  0.14640000110E+04  0.25500000920E-02 0. -1.
    10030    2    1    2    0    0  0.00000000000E+00  0.00000000000E+00 -0.30096358774E+03  0.26270364343E+04  0.26097397085E+04 0.  0.
        3    1    3    3  502    0  0.69412200962E+03 -0.87402615393E+03  0.52998535113E+03  0.12355612347E+04  0.10100000352E+00 0.  1.
       -3    1    3    3    0  502 -0.69412200962E+03  0.87402615393E+03 -0.83094893887E+03  0.13914751996E+04  0.10100000352E+00 0. -1.
</event>
<event>
 5   0  0.3705250E-06  0.2597375E+04  0.7818609E-02  0.8369093E-01
        3   -1    0    0  501    0  0.00000000000E+00  0.00000000000E+00  0.17277081241E+04  0.17277081270E+04  0.10100000352E+00 0.  1.
       -3   -1    0    0    0  501  0.00000000000E+00  0.00000000000E+00 -0.97620061911E+03  0.97620062433E+03  0.10100000352E+00 0. -1.
    10030    2    1    2    0    0  0.00000000000E+00  0.00000000000E+00  0.75150750497E+03  0.27039087514E+04  0.25973754072E+04 0.  0.
        4    1    3    3  502    0  0.38577342599E+03 -0.64202032334E+03  0.14802007893E+04  0.16589174848E+04  0.12699999809E+01 0.  1.
       -4    1    3    3    0  502 -0.38577342599E+03  0.64202032334E+03 -0.72869328430E+03  0.10449912666E+04  0.12699999809E+01 0. -1.
</event>
<event>
 5   0  0.4464297E-06  0.2595201E+04  0.7818609E-02  0.8369833E-01
        1   -1    0    0  501    0  0.00000000000E+00  0.00000000000E+00  0.24913296165E+04  0.24913296165E+04  0.50400001928E-02 0. -1.
       -1   -1    0    0    0  501  0.00000000000E+00  0.00000000000E+00 -0.67585098340E+03  0.67585098342E+03  0.50400001928E-02 0.  1.
    10030    2    1    2    0    0  0.00000000000E+00  0.00000000000E+00  0.18154786331E+04  0.31671805999E+04  0.25952013959E+04 0.  0.
        4    1    3    3  502    0 -0.15992508388E+03 -0.11267453352E+04  0.14693556063E+03  0.11474854050E+04  0.12699999809E+01 0.  1.
       -4    1    3    3    0  502  0.15992508388E+03  0.11267453352E+04  0.16685430725E+04  0.20196951949E+04  0.12699999809E+01 0. -1.
</event>
<event>
 5   0  0.4415080E-06  0.2578854E+04  0.7818609E-02  0.8375420E-01
        1   -1    0    0  501    0  0.00000000000E+00  0.00000000000E+00  0.10403313680E+04  0.10403313680E+04  0.50400001928E-02 0.  1.
       -1   -1    0    0    0  501  0.00000000000E+00  0.00000000000E+00 -0.15981661326E+04  0.15981661326E+04  0.50400001928E-02 0. -1.
    10030    2    1    2    0    0  0.00000000000E+00  0.00000000000E+00 -0.55783476461E+03  0.26384975007E+04  0.25788542875E+04 0.  0.
        2    1    3    3  502    0 -0.43635512300E+02 -0.30521446438E+03  0.10020624918E+04  0.10484222264E+04  0.25500000920E-02 0.  1.
       -2    1    3    3    0  502  0.43635512300E+02  0.30521446438E+03 -0.15598972565E+04  0.15900752743E+04  0.25500000920E-02 0. -1.
</event>
<event>
 5   0  0.1116310E-05  0.2585143E+04  0.7818609E-02  0.8373265E-01
        2   -1    0    0  501    0  0.00000000000E+00  0.00000000000E+00  0.14934089570E+04  0.14934089570E+04  0.25500000920E-02 0.  1.
       -2   -1    0    0    0  501  0.00000000000E+00  0.00000000000E+00 -0.11187434099E+04  0.11187434099E+04  0.25500000920E-02 0. -1.
    10030    2    1    2    0    0  0.00000000000E+00  0.00000000000E+00  0.37466554713E+03  0.26121523669E+04  0.25851432679E+04 0.  0.
        4    1    3    3  502    0  0.34670367316E+00 -0.12011322359E+04 -0.29517171473E+03  0.12368697273E+04  0.12699999809E+01 0. -1.
       -4    1    3    3    0  502 -0.34670367316E+00  0.12011322359E+04  0.66983726186E+03  0.13752826395E+04  0.12699999809E+01 0.  1.
</event>
<event>
 5   0  0.1085061E-05  0.2618117E+04  0.7818609E-02  0.8362073E-01
       -2   -1    0    0    0  501  0.00000000000E+00  0.00000000000E+00  0.79496345011E+03  0.79496345012E+03  0.25500000920E-02 0.  1.
        2   -1    0    0  501    0  0.00000000000E+00  0.00000000000E+00 -0.21556142487E+04  0.21556142487E+04  0.25500000920E-02 0. -1.
    10030    2    1    2    0    0  0.00000000000E+00  0.00000000000E+00 -0.13606507986E+04  0.29505776988E+04  0.26181172932E+04 0.  0.
        1    1    3    3  502    0  0.93072746247E+03 -0.14910966489E+03  0.34340047866E+03  0.10032004737E+04  0.50400001928E-02 0.  1.
       -1    1    3    3    0  502 -0.93072746247E+03  0.14910966489E+03 -0.17040512772E+04  0.19473772251E+04  0.50400001928E-02 0. -1.
</event>
<event>
 5   0  0.4218590E-06  0.2716098E+04  0.7818609E-02  0.8329800E-01
        1   -1    0    0  501    0  0.00000000000E+00  0.00000000000E+00  0.14779824523E+04  0.14779824524E+04  0.50400001928E-02 0. -1.
       -1   -1    0    0    0  501  0.00000000000E+00  0.00000000000E+00 -0.12478481427E+04  0.12478481428E+04  0.50400001928E-02 0.  1.
    10030    2    1    2    0    0  0.00000000000E+00  0.00000000000E+00  0.23013430959E+03  0.27258305951E+04  0.27160984210E+04 0.  0.
        1    1    3    3  502    0  0.26416502098E+03 -0.92370161360E+03 -0.84821052432E+03  0.12815884374E+04  0.50400001928E-02 0.  1.
       -1    1    3    3    0  502 -0.26416502098E+03  0.92370161360E+03  0.10783448339E+04  0.14442421577E+04  0.50400001928E-02 0. -1.
</event>
<event>
 5   0  0.1085255E-05  0.2593043E+04  0.7818609E-02  0.8370568E-01
       -2   -1    0    0    0  501  0.00000000000E+00  0.00000000000E+00  0.82890102516E+03  0.82890102516E+03  0.25500000920E-02 0.  1.
        2   -1    0    0  501    0  0.00000000000E+00  0.00000000000E+00 -0.20279470659E+04  0.20279470659E+04  0.25500000920E-02 0. -1.
    10030    2    1    2    0    0  0.00000000000E+00  0.00000000000E+00 -0.11990460407E+04  0.28568480911E+04  0.25930425387E+04 0.  0.
        5    1    3    3  502    0 -0.25248680840E+03  0.94633929498E+03 -0.15354395165E+04  0.18212370105E+04  0.46999998093E+01 0. -1.
       -5    1    3    3    0  502  0.25248680840E+03 -0.94633929498E+03  0.33639347576E+03  0.10356110806E+04  0.46999998093E+01 0.  1.
</event>
<event>
 5   0  0.4464297E-06  0.2595566E+04  0.7818609E-02  0.8369709E-01
       -1   -1    0    0    0  501  0.00000000000E+00  0.00000000000E+00  0.23503015718E+04  0.23503015718E+04  0.50400001928E-02 0.  1.
        1   -1    0    0  501    0  0.00000000000E+00  0.00000000000E+00 -0.71660621577E+03  0.71660621579E+03  0.50400001928E-02 0. -1.
    10030    2    1    2    0    0  0.00000000000E+00  0.00000000000E+00  0.16336953560E+04  0.30669077876E+04  0.25955660002E+04 0.  0.
        4    1    3    3  502    0  0.98350056712E+02  0.89651463642E+03  0.19194903687E+04  0.21208149649E+04  0.12699999809E+01 0.  1.
       -4    1    3    3    0  502 -0.98350056712E+02 -0.89651463642E+03 -0.28579501267E+03  0.94609282268E+03  0.12699999809E+01 0. -1.
</event>
<event>
 5   0  0.4361864E-06  0.2593111E+04  0.7818609E-02  0.8370545E-01
        1   -1    0    0  501    0  0.00000000000E+00  0.00000000000E+00  0.15302149584E+04  0.15302149585E+04  0.50400001928E-02 0. -1.
       -1   -1    0    0    0  501  0.00000000000E+00  0.00000000000E+00 -0.10985753485E+04  0.10985753485E+04  0.50400001928E-02 0.  1.
    10030    2    1    2    0    0  0.00000000000E+00  0.00000000000E+00  0.43163960998E+03  0.26287903069E+04  0.25931112057E+04 0.  0.
        3    1    3    3  502    0 -0.63394976426E+03 -0.52693643863E+03 -0.79870048345E+03  0.11478139163E+04  0.10100000352E+00 0.  1.
       -3    1    3    3    0  502  0.63394976426E+03  0.52693643863E+03  0.12303400934E+04  0.14809763907E+04  0.10100000352E+00 0. -1.
</event>
<event>
 5   0  0.4415080E-06  0.2577460E+04  0.7818609E-02  0.8375898E-01
       -1   -1    0    0    0  501  0.00000000000E+00  0.00000000000E+00  0.10899980946E+04  0.10899980946E+04  0.50400001928E-02 0.  1.
        1   -1    0    0  501    0  0.00000000000E+00  0.00000000000E+00 -0.15236951739E+04  0.15236951739E+04  0.50400001928E-02 0. -1.
    10030    2    1    2    0    0  0.00000000000E+00  0.00000000000E+00 -0.43369707933E+03  0.26136932685E+04  0.25774598630E+04 0.  0.
        2    1    3    3  502    0  0.52339527151E+03  0.63275524409E+03 -0.12240397323E+04  0.14739725491E+04  0.25500000920E-02 0. -1.
       -2    1    3    3    0  502 -0.52339527151E+03 -0.63275524409E+03  0.79034265297E+03  0.11397207194E+04  0.25500000920E-02 0.  1.
</event>
<event>
 5   0  0.1116310E-05  0.2584957E+04  0.7818609E-02  0.8373329E-01
        2   -1    0    0  501    0  0.00000000000E+00  0.00000000000E+00  0.19116841985E+04  0.19116841985E+04  0.25500000920E-02 0. -1.
       -2   -1    0    0    0  501  0.00000000000E+00  0.00000000000E+00 -0.87383727714E+03  0.87383727714E+03  0.25500000920E-02 0.  1.
    10030    2    1    2    0    0  0.00000000000E+00  0.00000000000E+00  0.10378469213E+04  0.27855214756E+04  0.25849571871E+04 0.  0.
        4    1    3    3  502    0  0.33245493547E+03  0.50919818165E+03 -0.71004318298E+03  0.93486469978E+03  0.12699999809E+01 0.  1.
       -4    1    3    3    0  502 -0.33245493547E+03 -0.50919818165E+03  0.17478901043E+04  0.18506567758E+04  0.12699999809E+01 0. -1.
</event>
<event>
 5   0  0.4218590E-06  0.2611688E+04  0.7818609E-02  0.8364242E-01
       -1   -1    0    0    0  501  0.00000000000E+00  0.00000000000E+00  0.14144080099E+04  0.14144080099E+04  0.50400001928E-02 0.  1.
        1   -1    0    0  501    0  0.00000000000E+00  0.00000000000E+00 -0.12056126976E+04  0.12056126976E+04  0.50400001928E-02 0. -1.
    10030    2    1    2    0    0  0.00000000000E+00  0.00000000000E+00  0.20879531230E+03  0.26200207075E+04  0.26116877733E+04 0.  0.
        1    1    3    3  502    0 -0.30248849819E+03  0.30568226437E+03 -0.11325357087E+04  0.12114363663E+04  0.50400001928E-02 0. -1.
       -1    1    3    3    0  502  0.30248849819E+03 -0.30568226437E+03  0.13413310210E+04  0.14085843411E+04  0.50400001928E-02 0.  1.
</event>
<event>
 5   0  0.4361864E-06  0.2607016E+04  0.7818609E-02  0.8365822E-01
        1   -1    0    0  501    0  0.00000000000E+00  0.00000000000E+00  0.13629229817E+04  0.13629229817E+04  0.50400001928E-02 0. -1.
       -1   -1    0    0    0  501  0.00000000000E+00  0.00000000000E+00 -0.12466830387E+04  0.12466830387E+04  0.50400001928E-02 0.  1.
    10030    2    1    2    0    0  0.00000000000E+00  0.00000000000E+00  0.11623994304E+03  0.26096060204E+04  0.26070158913E+04 0.  0.
        3    1    3    3  502    0 -0.24070921901E+03  0.80309046537E+03 -0.94098877292E+03  0.12602996091E+04  0.10100000352E+00 0.  1.
       -3    1    3    3    0  502  0.24070921901E+03 -0.80309046537E+03  0.10572287160E+04  0.13493064114E+04  0.10100000352E+00 0. -1.
</event>
<event>
 5   0  0.1086507E-05  0.2583470E+04  0.7818609E-02  0.8373838E-01
       -2   -1    0    0    0  501  0.00000000000E+00  0.00000000000E+00  0.10237499027E+04  0.10237499027E+04  0.25500000920E-02 0. -1.
        2   -1    0    0  501    0  0.00000000000E+00  0.00000000000E+00 -0.16298696575E+04  0.16298696575E+04  0.25500000920E-02 0.  1.
    10030    2    1    2    0    0  0.00000000000E+00  0.00000000000E+00 -0.60611975476E+03  0.26536195602E+04  0.25834696850E+04 0.  0.
        2    1    3    3  502    0 -0.12176727014E+03  0.24769315097E+03 -0.15992280069E+04  0.16228707229E+04  0.25500000920E-02 0.  1.
       -2    1    3    3    0  502  0.12176727014E+03 -0.24769315097E+03  0.99310825217E+03  0.10307488373E+04  0.25500000920E-02 0. -1.
</event>
<event>
 5   0  0.1116310E-05  0.2605729E+04  0.7818609E-02  0.8366258E-01
        2   -1    0    0  501    0  0.00000000000E+00  0.00000000000E+00  0.12113189513E+04  0.12113189513E+04  0.25500000920E-02 0.  1.
       -2   -1    0    0    0  501  0.00000000000E+00  0.00000000000E+00 -0.14013283178E+04  0.14013283178E+04  0.25500000920E-02 0. -1.
    10030    2    1    2    0    0  0.00000000000E+00  0.00000000000E+00 -0.19000936656E+03  0.26126472691E+04  0.26057287260E+04 0.  0.
        4    1    3    3  502    0  0.63008406948E+03 -0.76436174920E+03 -0.94353716159E+03  0.13680346510E+04  0.12699999809E+01 0. -1.
       -4    1    3    3    0  502 -0.63008406948E+03  0.76436174920E+03  0.75352779504E+03  0.12446126181E+04  0.12699999809E+01 0.  1.
</event>
<event>
 5   0  0.4597705E-06  0.2478624E+04  0.7818609E-02  0.8410641E-01
       -1   -1    0    0    0  501  0.00000000000E+00  0.00000000000E+00  0.57901816693E+03  0.57901816696E+03  0.50400001928E-02 0. -1.
        1   -1    0    0  501    0  0.00000000000E+00  0.00000000000E+00 -0.26525832771E+04  0.26525832771E+04  0.50400001928E-02 0.  1.
    10030    2    1    2    0    0  0.00000000000E+00  0.00000000000E+00 -0.20735651101E+04  0.32316014440E+04  0.24786237365E+04 0.  0.
        5    1    3    3  502    0 -0.11612607689E+04  0.20172970338E+03 -0.15360678450E+04  0.19361683710E+04  0.46999998093E+01 0. -1.
       -5    1    3    3    0  502  0.11612607689E+04 -0.20172970338E+03 -0.53749726510E+03  0.12954330730E+04  0.46999998093E+01 0.  1.
</event>
<event>
 5   0  0.1116310E-05  0.2572884E+04  0.7818609E-02  0.8377471E-01
       -2   -1    0    0    0  501  0.00000000000E+00  0.00000000000E+00  0.12310682226E+04  0.12310682226E+04  0.25500000920E-02 0. -1.
        2   -1    0    0  501    0  0.00000000000E+00  0.00000000000E+00 -0.13443067797E+04  0.13443067797E+04  0.25500000920E-02 0.  1.
    10030    2    1    2    0    0  0.00000000000E+00  0.00000000000E+00 -0.11323855708E+03  0.25753750022E+04  0.25728842631E+04 0.  0.
        4    1    3    3  502    0 -0.79608651071E+03  0.34652909231E+03 -0.10067987864E+04  0.13294666425E+04  0.12699999809E+01 0.  1.
       -4    1    3    3    0  502  0.79608651071E+03 -0.34652909231E+03  0.89356022935E+03  0.12459083597E+04  0.12699999809E+01 0. -1.
</event>
<event>
 5   0  0.4415080E-06  0.2598634E+04  0.7818609E-02  0.8368665E-01
        1   -1    0    0  501    0  0.00000000000E+00  0.00000000000E+00  0.18559304939E+04  0.18559304939E+04  0.50400001928E-02 0. -1.
       -1   -1    0    0    0  501  0.00000000000E+00  0.00000000000E+00 -0.90963819061E+03  0.90963819062E+03  0.50400001928E-02 0.  1.
    10030    2    1    2    0    0  0.00000000000E+00  0.00000000000E+00  0.94629230334E+03  0.27655686846E+04  0.25986344540E+04 0.  0.
        2    1    3    3  502    0  0.11742594905E+04 -0.19339958841E+03  0.10281206305E+04  0.15726794915E+04  0.25500000920E-02 0. -1.
       -2    1    3    3    0  502 -0.11742594905E+04  0.19339958841E+03 -0.81828327200E+02  0.11928891931E+04  0.25500000920E-02 0.  1.
</event>
<event>
 5   0  0.1085255E-05  0.2538889E+04  0.7818609E-02  0.8389261E-01
       -2   -1    0    0    0  501  0.00000000000E+00  0.00000000000E+00  0.11321159203E+04  0.11321159203E+04  0.25500000920E-02 0. -1.
        2   -1    0    0  501    0  0.00000000000E+00  0.00000000000E+00 -0.14234310910E+04  0.14234310910E+04  0.25500000920E-02 0.  1.
    10030    2    1    2    0    0  0.00000000000E+00  0.00000000000E+00 -0.29131517071E+03  0.25555470113E+04  0.25388887329E+04 0.  0.
        5    1    3    3  502    0 -0.78705514058E+03  0.96977951608E+03 -0.37416872708E+03  0.13038222388E+04  0.46999998093E+01 0. -1.
       -5    1    3    3    0  502  0.78705514058E+03 -0.96977951608E+03  0.82853556369E+02  0.12517247724E+04  0.46999998093E+01 0.  1.
</event>
<event>
 5   0  0.4464297E-06  0.2613943E+04  0.7818609E-02  0.8363481E-01
       -1   -1    0    0    0  501  0.00000000000E+00  0.00000000000E+00  0.98213924819E+03  0.98213924820E+03  0.50400001928E-02 0. -1.
        1   -1    0    0  501    0  0.00000000000E+00  0.00000000000E+00 -0.17392379704E+04  0.17392379704E+04  0.50400001928E-02 0.  1.
    10030    2    1    2    0    0  0.00000000000E+00  0.00000000000E+00 -0.75709872224E+03  0.27213772186E+04  0.26139425187E+04 0.  0.
        4    1    3    3  502    0  0.10620400576E+04  0.54427277737E+03  0.17628042996E+03  0.12063326005E+04  0.12699999809E+01 0. -1.
       -4    1    3    3    0  502 -0.10620400576E+04 -0.54427277737E+03 -0.93337915220E+03  0.15150446181E+04  0.12699999809E+01 0.  1.
</event>
<event>
 5   0  0.1136881E-05  0.2483248E+04  0.7818609E-02  0.8408978E-01
       -2   -1    0    0    0  501  0.00000000000E+00  0.00000000000E+00  0.18956907748E+04  0.18956907748E+04  0.25500000920E-02 0.  1.
        2   -1    0    0  501    0  0.00000000000E+00  0.00000000000E+00 -0.81322853247E+03  0.81322853248E+03  0.25500000920E-02 0. -1.
    10030    2    1    2    0    0  0.00000000000E+00  0.00000000000E+00  0.10824622424E+04  0.27089193073E+04  0.24832477338E+04 0.  0.
        3    1    3    3  502    0  0.58222827828E+03 -0.77235843302E+03  0.13905075258E+04  0.16938236350E+04  0.10100000352E+00 0.  1.
       -3    1    3    3    0  502 -0.58222827828E+03  0.77235843302E+03 -0.30804528343E+03  0.10150956723E+04  0.10100000352E+00 0. -1.
</event>
<event>
 5   0  0.4415080E-06  0.2592489E+04  0.7818609E-02  0.8370757E-01
       -1   -1    0    0    0  501  0.00000000000E+00  0.00000000000E+00  0.14982458793E+04  0.14982458793E+04  0.50400001928E-02 0.  1.
        1   -1    0    0  501    0  0.00000000000E+00  0.00000000000E+00 -0.11214782056E+04  0.11214782056E+04  0.50400001928E-02 0. -1.
    10030    2    1    2    0    0  0.00000000000E+00  0.00000000000E+00  0.37676767371E+03  0.26197240848E+04  0.25924892287E+04 0.  0.
        2    1    3    3  502    0  0.10893386114E+04  0.49518624580E+03 -0.31523123048E+03  0.12374323242E+04  0.25500000920E-02 0. -1.
       -2    1    3    3    0  502 -0.10893386114E+04 -0.49518624580E+03  0.69199890419E+03  0.13822917607E+04  0.25500000920E-02 0.  1.
</event>
<event>
 5   0  0.1086507E-05  0.2667243E+04  0.7818609E-02  0.8345712E-01
       -2   -1    0    0    0  501  0.00000000000E+00  0.00000000000E+00  0.17650232284E+04  0.17650232285E+04  0.25500000920E-02 0.  1.
        2   -1    0    0  501    0  0.00000000000E+00  0.00000000000E+00 -0.10076620277E+04  0.10076620277E+04  0.25500000920E-02 0. -1.
    10030    2    1    2    0    0  0.00000000000E+00  0.00000000000E+00  0.75736120079E+03  0.27726852561E+04  0.26672434349E+04 0.  0.
        2    1    3    3  502    0  0.45868227333E+03  0.64227393728E+03 -0.73882449096E+03  0.10810952164E+04  0.25500000920E-02 0. -1.
       -2    1    3    3    0  502 -0.45868227333E+03 -0.64227393728E+03  0.14961856918E+04  0.16915900398E+04  0.25500000920E-02 0.  1.
</event>
<event>
 5   0  0.3705250E-06  0.2604496E+04  0.7818609E-02  0.8366676E-01
       -3   -1    0    0    0  501  0.00000000000E+00  0.00000000000E+00  0.96074315097E+03  0.96074315628E+03  0.10100000352E+00 0.  1.
        3   -1    0    0  501    0  0.00000000000E+00  0.00000000000E+00 -0.17651439869E+04  0.17651439898E+04  0.10100000352E+00 0. -1.
    10030    2    1    2    0    0  0.00000000000E+00  0.00000000000E+00 -0.80440083592E+03  0.27258871461E+04  0.26044961179E+04 0.  0.
        5    1    3    3  502    0 -0.13340481350E+03 -0.30839715412E+03 -0.17189826314E+04  0.17515219170E+04  0.46999998093E+01 0. -1.
       -5    1    3    3    0  502  0.13340481350E+03  0.30839715412E+03  0.91458179546E+03  0.97436522901E+03  0.46999998093E+01 0.  1.
</event>
<event>
 5   0  0.1116310E-05  0.2592739E+04  0.7818609E-02  0.8370672E-01
       -2   -1    0    0    0  501  0.00000000000E+00  0.00000000000E+00  0.73369543609E+03  0.73369543610E+03  0.25500000920E-02 0.  1.
        2   -1    0    0  501    0  0.00000000000E+00  0.00000000000E+00 -0.22905602870E+04  0.22905602870E+04  0.25500000920E-02 0. -1.
    10030    2    1    2    0    0  0.00000000000E+00  0.00000000000E+00 -0.15568648509E+04  0.30242557231E+04  0.25927388057E+04 0.  0.
        4    1    3    3  502    0 -0.10062831470E+04  0.68247362570E+03 -0.13029330587E+04  0.17821369729E+04  0.12699999809E+01 0.  1.
       -4    1    3    3    0  502  0.10062831470E+04 -0.68247362570E+03 -0.25393179226E+03  0.12421187503E+04  0.12699999809E+01 0. -1.
</event>
<event>
 5   0  0.1085255E-05  0.2580890E+04  0.7818609E-02  0.8374721E-01
        2   -1    0    0  501    0  0.00000000000E+00  0.00000000000E+00  0.15784755085E+04  0.15784755085E+04  0.25500000920E-02 0.  1.
       -2   -1    0    0    0  501  0.00000000000E+00  0.00000000000E+00 -0.10549728243E+04  0.10549728243E+04  0.25500000920E-02 0. -1.
    10030    2    1    2    0    0  0.00000000000E+00  0.00000000000E+00  0.52350268415E+03  0.26334483328E+04  0.25808903621E+04 0.  0.
        5    1    3    3  502    0  0.11692797031E+04 -0.45688261851E+03  0.56661652521E+03  0.13773282571E+04  0.46999998093E+01 0.  1.
       -5    1    3    3    0  502 -0.11692797031E+04  0.45688261851E+03 -0.43113841062E+02  0.12561200757E+04  0.46999998093E+01 0. -1.
</event>
<event>
 5   0  0.4218590E-06  0.2576820E+04  0.7818609E-02  0.8376118E-01
        1   -1    0    0  501    0  0.00000000000E+00  0.00000000000E+00  0.10812377614E+04  0.10812377614E+04  0.50400001928E-02 0. -1.
       -1   -1    0    0    0  501  0.00000000000E+00  0.00000000000E+00 -0.15352782359E+04  0.15352782359E+04  0.50400001928E-02 0.  1.
    10030    2    1    2    0    0  0.00000000000E+00  0.00000000000E+00 -0.45404047452E+03  0.26165159974E+04  0.25768203686E+04 0.  0.
        1    1    3    3  502    0 -0.54656488549E+03  0.37955192478E+03 -0.13472874938E+04  0.15026564573E+04  0.50400001928E-02 0.  1.
       -1    1    3    3    0  502  0.54656488549E+03 -0.37955192478E+03  0.89324701925E+03  0.11138595401E+04  0.50400001928E-02 0. -1.
</event>
<event>
 5   0  0.4415080E-06  0.2602544E+04  0.7818609E-02  0.8367337E-01
       -1   -1    0    0    0  501  0.00000000000E+00  0.00000000000E+00  0.13550873855E+04  0.13550873855E+04  0.50400001928E-02 0. -1.
        1   -1    0    0  501    0  0.00000000000E+00  0.00000000000E+00 -0.12495941820E+04  0.12495941820E+04  0.50400001928E-02 0.  1.
    10030    2    1    2    0    0  0.00000000000E+00  0.00000000000E+00  0.10549320349E+03  0.26046815675E+04  0.26025443804E+04 0.  0.
        2    1    3    3  502    0 -0.44608032017E+03  0.33318233683E+03  0.12298549446E+04  0.13500152986E+04  0.25500000920E-02 0. -1.
       -2    1    3    3    0  502  0.44608032017E+03 -0.33318233683E+03 -0.11243617411E+04  0.12546662690E+04  0.25500000920E-02 0.  1.
</event>
<event>
 5   0  0.1085255E-05  0.2593644E+04  0.7818609E-02  0.8370363E-01
        2   -1    0    0  501    0  0.00000000000E+00  0.00000000000E+00  0.15992793953E+04  0.15992793953E+04  0.25500000920E-02 0. -1.
       -2   -1    0    0    0  501  0.00000000000E+00  0.00000000000E+00 -0.10515658157E+04  0.10515658157E+04  0.25500000920E-02 0.  1.
    10030    2    1    2    0    0  0.00000000000E+00  0.00000000000E+00  0.54771357965E+03  0.26508452110E+04  0.25936441867E+04 0.  0.
        5    1    3    3  502    0 -0.11305953064E+04  0.63137941515E+03  0.20275427653E+03  0.13107315130E+04  0.46999998093E+01 0. -1.
       -5    1    3    3    0  502  0.11305953064E+04 -0.63137941515E+03  0.34495930311E+03  0.13401136979E+04  0.46999998093E+01 0.  1.
</event>
<event>
 5   0  0.4361864E-06  0.2606526E+04  0.7818609E-02  0.8365988E-01
       -1   -1    0    0    0  501  0.00000000000E+00  0.00000000000E+00  0.66997790276E+03  0.66997790278E+03  0.50400001928E-02 0.  1.
        1   -1    0    0  501    0  0.00000000000E+00  0.00000000000E+00 -0.25351497100E+04  0.25351497100E+04  0.50400001928E-02 0. -1.
    10030    2    1    2    0    0  0.00000000000E+00  0.00000000000E+00 -0.18651718072E+04  0.32051276128E+04  0.26065258763E+04 0.  0.
        3    1    3    3  502    0 -0.68227058980E+03 -0.10711027235E+04 -0.12926461806E+04  0.18120950197E+04  0.10100000352E+00 0. -1.
       -3    1    3    3    0  502  0.68227058980E+03  0.10711027235E+04 -0.57252562665E+03  0.13930325931E+04  0.10100000352E+00 0.  1.
</event>
<event>
 5   0  0.1085061E-05  0.2658200E+04  0.7818609E-02  0.8348697E-01
       -2   -1    0    0    0  501  0.00000000000E+00  0.00000000000E+00  0.87568527680E+03  0.87568527681E+03  0.25500000920E-02 0. -1.
        2   -1    0    0  501    0  0.00000000000E+00  0.00000000000E+00 -0.20172845716E+04  0.20172845716E+04  0.25500000920E-02 0.  1.
    10030    2    1    2    0    0  0.00000000000E+00  0.00000000000E+00 -0.11415992948E+04  0.28929698484E+04  0.26581996904E+04 0.  0.
        1    1    3    3  502    0  0.85650457991E+02 -0.11677426860E+04 -0.12552714795E+04  0.17165854098E+04  0.50400001928E-02 0.  1.
       -1    1    3    3    0  502 -0.85650457991E+02  0.11677426860E+04  0.11367218476E+03  0.11763844386E+04  0.50400001928E-02 0. -1.
</event>
<event>
 5   0  0.4218590E-06  0.2686439E+04  0.7818609E-02  0.8339418E-01
        1   -1    0    0  501    0  0.00000000000E+00  0.00000000000E+00  0.16083015215E+04  0.16083015215E+04  0.50400001928E-02 0. -1.
       -1   -1    0    0    0  501  0.00000000000E+00  0.00000000000E+00 -0.11218285220E+04  0.11218285220E+04  0.50400001928E-02 0.  1.
    10030    2    1    2    0    0  0.00000000000E+00  0.00000000000E+00  0.48647299948E+03  0.27301300435E+04  0.26864389209E+04 0.  0.
        1    1    3    3  502    0  0.35929072533E+03  0.12854147212E+04  0.89590055615E+02  0.13376872613E+04  0.50400001928E-02 0. -1.
       -1    1    3    3    0  502 -0.35929072533E+03 -0.12854147212E+04  0.39688294386E+03  0.13924427823E+04  0.50400001928E-02 0.  1.
</event>
<event>
 5   0  0.1085061E-05  0.2622134E+04  0.7818609E-02  0.8360721E-01
       -2   -1    0    0    0  501  0.00000000000E+00  0.00000000000E+00  0.11547623494E+04  0.11547623494E+04  0.25500000920E-02 0. -1.
        2   -1    0    0  501    0  0.00000000000E+00  0.00000000000E+00 -0.14885284410E+04  0.14885284410E+04  0.25500000920E-02 0.  1.
    10030    2    1    2    0    0  0.00000000000E+00  0.00000000000E+00 -0.33376609160E+03  0.26432907904E+04  0.26221339399E+04 0.  0.
        1    1    3    3  502    0  0.19135349525E+03 -0.93113256727E+02  0.11372360339E+04  0.11569753824E+04  0.50400001928E-02 0. -1.
       -1    1    3    3    0  502 -0.19135349525E+03  0.93113256727E+02 -0.14710021255E+04  0.14863154080E+04  0.50400001928E-02 0.  1.
</event>
<event>
 5   0  0.1085061E-05  0.2591833E+04  0.7818609E-02  0.8370980E-01
        2   -1    0    0  501    0  0.00000000000E+00  0.00000000000E+00  0.14251182267E+04  0.14251182267E+04  0.25500000920E-02 0.  1.
       -2   -1    0    0    0  501  0.00000000000E+00  0.00000000000E+00 -0.11784286320E+04  0.11784286320E+04  0.25500000920E-02 0. -1.
    10030    2    1    2    0    0  0.00000000000E+00  0.00000000000E+00  0.24668959467E+03  0.26035468587E+04  0.25918334223E+04 0.  0.
        1    1    3    3  502    0 -0.27023647214E+03 -0.42639654847E+03 -0.10755979218E+04  0.11881719812E+04  0.50400001928E-02 0. -1.
       -1    1    3    3    0  502  0.27023647214E+03  0.42639654847E+03  0.13222875165E+04  0.14153748775E+04  0.50400001928E-02 0.  1.
</event>
<event>
 5   0  0.1085255E-05  0.2617000E+04  0.7818609E-02  0.8362450E-01
       -2   -1    0    0    0  501  0.00000000000E+00  0.00000000000E+00  0.17067132885E+04  0.17067132885E+04  0.25500000920E-02 0.  1.
        2   -1    0    0  501    0  0.00000000000E+00  0.00000000000E+00 -0.10031985149E+04  0.10031985149E+04  0.25500000920E-02 0. -1.
    10030    2    1    2    0    0  0.00000000000E+00  0.00000000000E+00  0.70351477366E+03  0.27099118034E+04  0.26169999896E+04 0.  0.
        5    1    3    3  502    0 -0.62871715324E+03  0.11246079863E+04  0.58816474586E+03  0.14163291425E+04  0.46999998093E+01 0. -1.
       -5    1    3    3    0  502  0.62871715324E+03 -0.11246079863E+04  0.11535002780E+03  0.12935826609E+04  0.46999998093E+01 0.  1.
</event>
<event>
 5   0  0.1136881E-05  0.2596411E+04  0.7818609E-02  0.8369421E-01
       -2   -1    0    0    0  501  0.00000000000E+00  0.00000000000E+00  0.77488647851E+03  0.77488647851E+03  0.25500000920E-02 0.  1.
        2   -1    0    0  501    0  0.00000000000E+00  0.00000000000E+00 -0.21749471113E+04  0.21749471113E+04  0.25500000920E-02 0. -1.
    10030    2    1    2    0    0  0.00000000000E+00  0.00000000000E+00 -0.14000606328E+04  0.29498335898E+04  0.25964106825E+04 0.  0.
        3    1    3    3  502    0  0.51954527924E+03  0.60915855368E+03 -0.18610622972E+04  0.20259699713E+04  0.10100000352E+00 0. -1.
       -3    1    3    3    0  502 -0.51954527924E+03 -0.60915855368E+03  0.46100166440E+03  0.92386361844E+03  0.10100000352E+00 0.  1.
</event>
<event>
 5   0  0.4415080E-06  0.2559848E+04  0.7818609E-02  0.8381969E-01
        1   -1    0    0  501    0  0.00000000000E+00  0.00000000000E+00  0.21434038596E+04  0.21434038596E+04  0.50400001928E-02 0.  1.
       -1   -1    0    0    0  501  0.00000000000E+00  0.00000000000E+00 -0.76430084306E+03  0.76430084307E+03  0.50400001928E-02 0. -1.
    10030    2    1    2    0    0  0.00000000000E+00  0.00000000000E+00  0.13791030166E+04  0.29077047027E+04  0.25598479462E+04 0.  0.
        2    1    3    3  502    0 -0.29462544810E+03 -0.25580412157E+03 -0.69510001892E+03  0.79712228647E+03  0.25500000920E-02 0. -1.
       -2    1    3    3    0  502  0.29462544810E+03  0.25580412157E+03  0.20742030355E+04  0.21105824162E+04  0.25500000920E-02 0.  1.
</event>
<event>
 5   0  0.4361864E-06  0.2600459E+04  0.7818609E-02  0.8368045E-01
        1   -1    0    0  501    0  0.00000000000E+00  0.00000000000E+00  0.11095818399E+04  0.11095818399E+04  0.50400001928E-02 0. -1.
       -1   -1    0    0    0  501  0.00000000000E+00  0.00000000000E+00 -0.15236342621E+04  0.15236342621E+04  0.50400001928E-02 0.  1.
    10030    2    1    2    0    0  0.00000000000E+00  0.00000000000E+00 -0.41405242218E+03  0.26332161021E+04  0.26004591194E+04 0.  0.
        3    1    3    3  502    0  0.51551931329E+03 -0.92201916175E+03 -0.97467690096E+03  0.14373150554E+04  0.10100000352E+00 0.  1.
       -3    1    3    3    0  502 -0.51551931329E+03  0.92201916175E+03  0.56062447879E+03  0.11959010467E+04  0.10100000352E+00 0. -1.
</event>
<event>
 5   0  0.4415080E-06  0.2725748E+04  0.7818609E-02  0.8326699E-01
        1   -1    0    0  501    0  0.00000000000E+00  0.00000000000E+00  0.99283239119E+03  0.99283239120E+03  0.50400001928E-02 0. -1.
       -1   -1    0    0    0  501  0.00000000000E+00  0.00000000000E+00 -0.18708354341E+04  0.18708354341E+04  0.50400001928E-02 0.  1.
    10030    2    1    2    0    0  0.00000000000E+00  0.00000000000E+00 -0.87800304294E+03  0.28636678253E+04  0.27257483505E+04 0.  0.
        2    1    3    3  502    0  0.39638307192E+03 -0.65164054691E+03 -0.16256066918E+04  0.17956480887E+04  0.25500000920E-02 0.  1.
       -2    1    3    3    0  502 -0.39638307192E+03  0.65164054691E+03  0.74760364883E+03  0.10680197366E+04  0.25500000920E-02 0. -1.
</event>
<event>
 5   0  0.4218590E-06  0.2611513E+04  0.7818609E-02  0.8364301E-01
        1   -1    0    0  501    0  0.00000000000E+00  0.00000000000E+00  0.11276604592E+04  0.11276604592E+04  0.50400001928E-02 0. -1.
       -1   -1    0    0    0  501  0.00000000000E+00  0.00000000000E+00 -0.15119804619E+04  0.15119804619E+04  0.50400001928E-02 0.  1.
    10030    2    1    2    0    0  0.00000000000E+00  0.00000000000E+00 -0.38432000264E+03  0.26396409211E+04  0.26115134171E+04 0.  0.
        1    1    3    3  502    0  0.10515560830E+04 -0.10598168472E+03  0.58290944068E+03  0.12069737898E+04  0.50400001928E-02 0. -1.
       -1    1    3    3    0  502 -0.10515560830E+04  0.10598168472E+03 -0.96722944332E+03  0.14326671313E+04  0.50400001928E-02 0.  1.
</event>
<event>
 5   0  0.1085061E-05  0.2598777E+04  0.7818609E-02  0.8368617E-01
        2   -1    0    0  501    0  0.00000000000E+00  0.00000000000E+00  0.12772131062E+04  0.12772131062E+04  0.25500000920E-02 0.  1.
       -2   -1    0    0    0  501  0.00000000000E+00  0.00000000000E+00 -0.13219487116E+04  0.13219487116E+04  0.25500000920E-02 0. -1.
    10030    2    1    2    0    0  0.00000000000E+00  0.00000000000E+00 -0.44735605405E+02  0.25991618178E+04  0.25987768047E+04 0.  0.
        1    1    3    3  502    0  0.68946224597E+02 -0.11352327071E+04 -0.65087425358E+03  0.13103984795E+04  0.50400001928E-02 0. -1.
       -1    1    3    3    0  502 -0.68946224597E+02  0.11352327071E+04  0.60613864818E+03  0.12887633382E+04  0.50400001928E-02 0.  1.
</event>
<event>
 5   0  0.4361864E-06  0.2548981E+04  0.7818609E-02  0.8385741E-01
        1   -1    0    0  501    0  0.00000000000E+00  0.00000000000E+00  0.81766508686E+03  0.81766508687E+03  0.50400001928E-02 0. -1.
       -1   -1    0    0    0  501  0.00000000000E+00  0.00000000000E+00 -0.19865419504E+04  0.19865419504E+04  0.50400001928E-02 0.  1.
    10030    2    1    2    0    0  0.00000000000E+00  0.00000000000E+00 -0.11688768635E+04  0.28042070373E+04  0.25489809701E+04 0.  0.
        3    1    3    3  502    0  0.19684515899E+03 -0.62635122521E+03 -0.17861808958E+04  0.19030255060E+04  0.10100000352E+00 0.  1.
       -3    1    3    3    0  502 -0.19684515899E+03  0.62635122521E+03  0.61730403221E+03  0.90118153128E+03  0.10100000352E+00 0. -1.
</event>
<event>
 5   0  0.1086507E-05  0.2601197E+04  0.7818609E-02  0.8367795E-01
        2   -1    0    0  501    0  0.00000000000E+00  0.00000000000E+00  0.23113958899E+04  0.23113958899E+04  0.25500000920E-02 0.  1.
       -2   -1    0    0    0  501  0.00000000000E+00  0.00000000000E+00 -0.73183321878E+03  0.73183321878E+03  0.25500000920E-02 0. -1.
    10030    2    1    2    0    0  0.00000000000E+00  0.00000000000E+00  0.15795626711E+04  0.30432291086E+04  0.26011968737E+04 0.  0.
        2    1    3    3  502    0  0.79528546944E+03  0.60720217232E+03 -0.18230853879E+03  0.10170594178E+04  0.25500000920E-02 0. -1.
       -2    1    3    3    0  502 -0.79528546944E+03 -0.60720217232E+03  0.17618712099E+04  0.20261696909E+04  0.25500000920E-02 0.  1.
</event>
<event>
 5   0  0.4597705E-06  0.2563958E+04  0.7818609E-02  0.8380548E-01
       -1   -1    0    0    0  501  0.00000000000E+00  0.00000000000E+00  0.64831002134E+03  0.64831002136E+03  0.50400001928E-02 0. -1.
        1   -1    0    0  501    0  0.00000000000E+00  0.00000000000E+00 -0.25350059978E+04  0.25350059978E+04  0.50400001928E-02 0.  1.
    10030    2    1    2    0    0  0.00000000000E+00  0.00000000000E+00 -0.18866959765E+04  0.31833160192E+04  0.25639577162E+04 0.  0.
        5    1    3    3  502    0  0.94409984970E+03 -0.63806327238E+03 -0.21409627228E+03  0.11594432153E+04  0.46999998093E+01 0. -1.
       -5    1    3    3    0  502 -0.94409984970E+03  0.63806327238E+03 -0.16725997042E+04  0.20238728039E+04  0.46999998093E+01 0.  1.
</event>
<event>
 5   0  0.1116310E-05  0.2590455E+04  0.7818609E-02  0.8371450E-01
       -2   -1    0    0    0  501  0.00000000000E+00  0.00000000000E+00  0.77502839263E+03  0.77502839264E+03  0.25500000920E-02 0.  1.
        2   -1    0    0  501    0  0.00000000000E+00  0.00000000000E+00 -0.21645850899E+04  0.21645850899E+04  0.25500000920E-02 0. -1.
    10030    2    1    2    0    0  0.00000000000E+00  0.00000000000E+00 -0.13895566973E+04  0.29396134826E+04  0.25904554835E+04 0.  0.
        4    1    3    3  502    0  0.27009092169E+03 -0.87412654535E+02 -0.21288462377E+04  0.21476913174E+04  0.12699999809E+01 0. -1.
       -4    1    3    3    0  502 -0.27009092169E+03  0.87412654535E+02  0.73928954043E+03  0.79192216514E+03  0.12699999809E+01 0.  1.
</event>
<event>
 5   0  0.1085061E-05  0.2593560E+04  0.7818609E-02  0.8370392E-01
        2   -1    0    0  501    0  0.00000000000E+00  0.00000000000E+00  0.10447403163E+04  0.10447403163E+04  0.25500000920E-02 0. -1.
       -2   -1    0    0    0  501  0.00000000000E+00  0.00000000000E+00 -0.16096238642E+04  0.16096238642E+04  0.25500000920E-02 0.  1.
    10030    2    1    2    0    0  0.00000000000E+00  0.00000000000E+00 -0.56488354791E+03  0.26543641806E+04  0.25935604447E+04 0.  0.
        1    1    3    3  502    0  0.10797518954E+04 -0.37977879942E+03  0.34139157834E+03  0.11944221623E+04  0.50400001928E-02 0. -1.
       -1    1    3    3    0  502 -0.10797518954E+04  0.37977879942E+03 -0.90627512625E+03  0.14599420182E+04  0.50400001928E-02 0.  1.
</event>
<event>
 5   0  0.1085061E-05  0.2593089E+04  0.7818609E-02  0.8370552E-01
       -2   -1    0    0    0  501  0.00000000000E+00  0.00000000000E+00  0.11519703657E+04  0.11519703657E+04  0.25500000920E-02 0. -1.
        2   -1    0    0  501    0  0.00000000000E+00  0.00000000000E+00 -0.14592633139E+04  0.14592633139E+04  0.25500000920E-02 0.  1.
    10030    2    1    2    0    0  0.00000000000E+00  0.00000000000E+00 -0.30729294820E+03  0.26112336795E+04  0.25930893492E+04 0.  0.
        1    1    3    3  502    0  0.11116884636E+04  0.33892293695E+03 -0.73239229309E+03  0.13737243057E+04  0.50400001928E-02 0. -1.
       -1    1    3    3    0  502 -0.11116884636E+04 -0.33892293695E+03  0.42509934489E+03  0.12375093738E+04  0.50400001928E-02 0.  1.
</event>
<event>
 5   0  0.4464297E-06  0.2552081E+04  0.7818609E-02  0.8384663E-01
        1   -1    0    0  501    0  0.00000000000E+00  0.00000000000E+00  0.24512974066E+04  0.24512974066E+04  0.50400001928E-02 0. -1.
       -1   -1    0    0    0  501  0.00000000000E+00  0.00000000000E+00 -0.66425213284E+03  0.66425213286E+03  0.50400001928E-02 0.  1.
    10030    2    1    2    0    0  0.00000000000E+00  0.00000000000E+00  0.17870452738E+04  0.31155495395E+04  0.25520811356E+04 0.  0.
        4    1    3    3  502    0  0.11291753600E+04 -0.25138558626E+03  0.15509893687E+04  0.19348905244E+04  0.12699999809E+01 0. -1.
       -4    1    3    3    0  502 -0.11291753600E+04  0.25138558626E+03  0.23605590511E+03  0.11806590151E+04  0.12699999809E+01 0.  1.
</event>
<event>
 5   0  0.1116310E-05  0.2600988E+04  0.7818609E-02  0.8367866E-01
        2   -1    0    0  501    0  0.00000000000E+00  0.00000000000E+00  0.18667611842E+04  0.18667611842E+04  0.25500000920E-02 0.  1.
       -2   -1    0    0    0  501  0.00000000000E+00  0.00000000000E+00 -0.90599915759E+03  0.90599915759E+03  0.25500000920E-02 0. -1.
    10030    2    1    2    0    0  0.00000000000E+00  0.00000000000E+00  0.96076202659E+03  0.27727603418E+04  0.26009875511E+04 0.  0.
        4    1    3    3  502    0  0.85051440250E+03  0.45043146497E+03 -0.45203607880E+03  0.10632974574E+04  0.12699999809E+01 0. -1.
       -4    1    3    3    0  502 -0.85051440250E+03 -0.45043146497E+03  0.14127981054E+04  0.17094628844E+04  0.12699999809E+01 0.  1.
</event>
<event>
 5   0  0.1116310E-05  0.2444083E+04  0.7818609E-02  0.8423181E-01
        2   -1    0    0  501    0  0.00000000000E+00  0.00000000000E+00  0.12662240067E+04  0.12662240067E+04  0.25500000920E-02 0.  1.
       -2   -1    0    0    0  501  0.00000000000E+00  0.00000000000E+00 -0.11794009724E+04  0.11794009724E+04  0.25500000920E-02 0. -1.
    10030    2    1    2    0    0  0.00000000000E+00  0.00000000000E+00  0.86823034231E+02  0.24456249791E+04  0.24440833249E+04 0.  0.
        4    1    3    3  502    0 -0.68816290440E+03 -0.14214446786E+03 -0.95702460072E+03  0.11872956380E+04  0.12699999809E+01 0. -1.
       -4    1    3    3    0  502  0.68816290440E+03  0.14214446786E+03  0.10438476349E+04  0.12583293411E+04  0.12699999809E+01 0.  1.
</event>
<event>
 5   0  0.4415080E-06  0.2613996E+04  0.7818609E-02  0.8363463E-01
       -1   -1    0    0    0  501  0.00000000000E+00  0.00000000000E+00  0.18673073057E+04  0.18673073057E+04  0.50400001928E-02 0.  1.
        1   -1    0    0  501    0  0.00000000000E+00  0.00000000000E+00 -0.91481659612E+03  0.91481659614E+03  0.50400001928E-02 0. -1.
    10030    2    1    2    0    0  0.00000000000E+00  0.00000000000E+00  0.95249070961E+03  0.27821239019E+04  0.26139959551E+04 0.  0.
        2    1    3    3  502    0  0.64799840472E+02 -0.11767387226E+03  0.18599400966E+04  0.18647850607E+04  0.25500000920E-02 0.  1.
       -2    1    3    3    0  502 -0.64799840472E+02  0.11767387226E+03 -0.90744938702E+03  0.91733884118E+03  0.25500000920E-02 0. -1.
</event>
<event>
 5   0  0.1085061E-05  0.2595863E+04  0.7818609E-02  0.8369608E-01
       -2   -1    0    0    0  501  0.00000000000E+00  0.00000000000E+00  0.91509359860E+03  0.91509359861E+03  0.25500000920E-02 0. -1.
        2   -1    0    0  501    0  0.00000000000E+00  0.00000000000E+00 -0.18409328251E+04  0.18409328251E+04  0.25500000920E-02 0.  1.
    10030    2    1    2    0    0  0.00000000000E+00  0.00000000000E+00 -0.92583922651E+03  0.27560264237E+04  0.25958627419E+04 0.  0.
        1    1    3    3  502    0  0.10208874224E+04 -0.24672641669E+03  0.34671998915E+03  0.11060288445E+04  0.50400001928E-02 0. -1.
       -1    1    3    3    0  502 -0.10208874224E+04  0.24672641669E+03 -0.12725592157E+04  0.16499975792E+04  0.50400001928E-02 0.  1.
</event>
<event>
 5   0  0.4597705E-06  0.2634005E+04  0.7818609E-02  0.8356741E-01
       -1   -1    0    0    0  501  0.00000000000E+00  0.00000000000E+00  0.18903960413E+04  0.18903960413E+04  0.50400001928E-02 0. -1.
        1   -1    0    0  501    0  0.00000000000E+00  0.00000000000E+00 -0.91753028058E+03  0.91753028059E+03  0.50400001928E-02 0.  1.
    10030    2    1    2    0    0  0.00000000000E+00  0.00000000000E+00  0.97286576075E+03  0.28079263219E+04  0.26340050192E+04 0.  0.
        5    1    3    3  502    0 -0.10824160640E+04 -0.48610631708E+03 -0.12274441711E+03  0.11929007373E+04  0.46999998093E+01 0.  1.
       -5    1    3    3    0  502  0.10824160640E+04  0.48610631708E+03  0.10956101779E+04  0.16150255846E+04  0.46999998093E+01 0. -1.
</event>
<event>
 5   0  0.4597705E-06  0.2621195E+04  0.7818609E-02  0.8361037E-01
        1   -1    0    0  501    0  0.00000000000E+00  0.00000000000E+00  0.20327119266E+04  0.20327119266E+04  0.50400001928E-02 0. -1.
       -1   -1    0    0    0  501  0.00000000000E+00  0.00000000000E+00 -0.84501187417E+03  0.84501187419E+03  0.50400001928E-02 0.  1.
    10030    2    1    2    0    0  0.00000000000E+00  0.00000000000E+00  0.11877000524E+04  0.28777238008E+04  0.26211949296E+04 0.  0.
        5    1    3    3  502    0 -0.22563564420E+03  0.23164260190E+03  0.19882164605E+04  0.20143476668E+04  0.46999998093E+01 0. -1.
       -5    1    3    3    0  502  0.22563564420E+03 -0.23164260190E+03 -0.80051640814E+03  0.86337613393E+03  0.46999998093E+01 0.  1.
</event>
<event>
 5   0  0.4597705E-06  0.2575509E+04  0.7818609E-02  0.8376568E-01
        1   -1    0    0  501    0  0.00000000000E+00  0.00000000000E+00  0.11772391524E+04  0.11772391524E+04  0.50400001928E-02 0.  1.
       -1   -1    0    0    0  501  0.00000000000E+00  0.00000000000E+00 -0.14086443935E+04  0.14086443935E+04  0.50400001928E-02 0. -1.
    10030    2    1    2    0    0  0.00000000000E+00  0.00000000000E+00 -0.23140524108E+03  0.25858835459E+04  0.25755087512E+04 0.  0.
        5    1    3    3  502    0  0.43636687971E+03  0.57189555187E+03 -0.11880915910E+04  0.13889075904E+04  0.46999998093E+01 0. -1.
       -5    1    3    3    0  502 -0.43636687971E+03 -0.57189555187E+03  0.95668634996E+03  0.11969759555E+04  0.46999998093E+01 0.  1.
</event>
<event>
 5   0  0.4415080E-06  0.2585819E+04  0.7818609E-02  0.8373034E-01
       -1   -1    0    0    0  501  0.00000000000E+00  0.00000000000E+00  0.77287822355E+03  0.77287822357E+03  0.50400001928E-02 0.  1.
        1   -1    0    0  501    0  0.00000000000E+00  0.00000000000E+00 -0.21628439467E+04  0.21628439467E+04  0.50400001928E-02 0. -1.
    10030    2    1    2    0    0  0.00000000000E+00  0.00000000000E+00 -0.13899657232E+04  0.29357221703E+04  0.25858190094E+04 0.  0.
        2    1    3    3  502    0 -0.61892193742E+03  0.10489995793E+04 -0.11874412318E+04  0.17010235627E+04  0.25500000920E-02 0.  1.
       -2    1    3    3    0  502  0.61892193742E+03 -0.10489995793E+04 -0.20252449135E+03  0.12346986076E+04  0.25500000920E-02 0. -1.
</event>
<event>
 5   0  0.1136881E-05  0.2605269E+04  0.7818609E-02  0.8366414E-01
       -2   -1    0    0    0  501  0.00000000000E+00  0.00000000000E+00  0.13966375305E+04  0.13966375305E+04  0.25500000920E-02 0.  1.
        2   -1    0    0  501    0  0.00000000000E+00  0.00000000000E+00 -0.12149584970E+04  0.12149584970E+04  0.25500000920E-02 0. -1.
    10030    2    1    2    0    0  0.00000000000E+00  0.00000000000E+00  0.18167903346E+03  0.26115960275E+04  0.26052689956E+04 0.  0.
        3    1    3    3  502    0 -0.60153183866E+03 -0.10124270172E+04  0.64897496125E+03  0.13446254231E+04  0.10100000352E+00 0.  1.
       -3    1    3    3    0  502  0.60153183866E+03  0.10124270172E+04 -0.46729592779E+03  0.12669706044E+04  0.10100000352E+00 0. -1.
</event>
<event>
 5   0  0.1085255E-05  0.2590820E+04  0.7818609E-02  0.8371326E-01
       -2   -1    0    0    0  501  0.00000000000E+00  0.00000000000E+00  0.12173961420E+04  0.12173961420E+04  0.25500000920E-02 0. -1.
        2   -1    0    0  501    0  0.00000000000E+00  0.00000000000E+00 -0.13784231337E+04  0.13784231337E+04  0.25500000920E-02 0.  1.
    10030    2    1    2    0    0  0.00000000000E+00  0.00000000000E+00 -0.16102699163E+03  0.25958192757E+04  0.25908199513E+04 0.  0.
        5    1    3    3  502    0  0.66772810725E+03 -0.96656960916E+03 -0.62741224875E+03  0.13318355208E+04  0.46999998093E+01 0.  1.
       -5    1    3    3    0  502 -0.66772810725E+03  0.96656960916E+03  0.46638525712E+03  0.12639837549E+04  0.46999998093E+01 0. -1.
</event>
<event>
 5   0  0.1086507E-05  0.2599156E+04  0.7818609E-02  0.8368488E-01
        2   -1    0    0  501    0  0.00000000000E+00  0.00000000000E+00  0.21376490943E+04  0.21376490944E+04  0.25500000920E-02 0. -1.
       -2   -1    0    0    0  501  0.00000000000E+00  0.00000000000E+00 -0.79007466452E+03  0.79007466452E+03  0.25500000920E-02 0.  1.
    10030    2    1    2    0    0  0.00000000000E+00  0.00000000000E+00  0.13475744298E+04  0.29277237589E+04  0.25991555483E+04 0.  0.
        2    1    3    3  502    0  0.65777554738E+03  0.11115094200E+04  0.51140960947E+03  0.13891226188E+04  0.25500000920E-02 0.  1.
       -2    1    3    3    0  502 -0.65777554738E+03 -0.11115094200E+04  0.83616482036E+03  0.15386011401E+04  0.25500000920E-02 0. -1.
</event>
<event>
 5   0  0.4464297E-06  0.2593416E+04  0.7818609E-02  0.8370441E-01
        1   -1    0    0  501    0  0.00000000000E+00  0.00000000000E+00  0.16657631064E+04  0.16657631064E+04  0.50400001928E-02 0. -1.
       -1   -1    0    0    0  501  0.00000000000E+00  0.00000000000E+00 -0.10094184251E+04  0.10094184251E+04  0.50400001928E-02 0.  1.
    10030    2    1    2    0    0  0.00000000000E+00  0.00000000000E+00  0.65634468131E+03  0.26751815315E+04  0.25934162577E+04 0.  0.
        4    1    3    3  502    0  0.24180535068E+03 -0.11659136954E+04 -0.20146058033E+03  0.12076475276E+04  0.12699999809E+01 0.  1.
       -4    1    3    3    0  502 -0.24180535068E+03  0.11659136954E+04  0.85780526163E+03  0.14675340038E+04  0.12699999809E+01 0. -1.
</event>
<event>
 5   0  0.1085061E-05  0.2551792E+04  0.7818609E-02  0.8384763E-01
       -2   -1    0    0    0  501  0.00000000000E+00  0.00000000000E+00  0.74386097540E+03  0.74386097540E+03  0.25500000920E-02 0.  1.
        2   -1    0    0  501    0  0.00000000000E+00  0.00000000000E+00 -0.21884607489E+04  0.21884607489E+04  0.25500000920E-02 0. -1.
    10030    2    1    2    0    0  0.00000000000E+00  0.00000000000E+00 -0.14445997735E+04  0.29323217243E+04  0.25517919565E+04 0.  0.
        1    1    3    3  502    0 -0.10715262908E+03 -0.10226360365E+04 -0.15903586644E+04  0.18938074956E+04  0.50400001928E-02 0. -1.
       -1    1    3    3    0  502  0.10715262908E+03  0.10226360365E+04  0.14575889086E+03  0.10385142287E+04  0.50400001928E-02 0.  1.
</event>
<event>
 5   0  0.4415080E-06  0.2590924E+04  0.7818609E-02  0.8371291E-01
        1   -1    0    0  501    0  0.00000000000E+00  0.00000000000E+00  0.11636170828E+04  0.11636170828E+04  0.50400001928E-02 0.  1.
       -1   -1    0    0    0  501  0.00000000000E+00  0.00000000000E+00 -0.14422459856E+04  0.14422459856E+04  0.50400001928E-02 0. -1.
    10030    2    1    2    0    0  0.00000000000E+00  0.00000000000E+00 -0.27862890280E+03  0.26058630684E+04  0.25909242107E+04 0.  0.
        2    1    3    3  502    0  0.12878239405E+03  0.12061043036E+04 -0.59685453372E+03  0.13518534797E+04  0.25500000920E-02 0.  1.
       -2    1    3    3    0  502 -0.12878239405E+03 -0.12061043036E+04  0.31822563092E+03  0.12540095887E+04  0.25500000920E-02 0. -1.
</event>
<event>
 5   0  0.4218590E-06  0.2565025E+04  0.7818609E-02  0.8380179E-01
        1   -1    0    0  501    0  0.00000000000E+00  0.00000000000E+00  0.97794585273E+03  0.97794585274E+03  0.50400001928E-02 0. -1.
       -1   -1    0    0    0  501  0.00000000000E+00  0.00000000000E+00 -0.16819321526E+04  0.16819321526E+04  0.50400001928E-02 0.  1.
    10030    2    1    2    0    0  0.00000000000E+00  0.00000000000E+00 -0.70398629982E+03  0.26598780053E+04  0.25650252031E+04 0.  0.
        1    1    3    3  502    0 -0.13148563457E+03  0.39069517997E+03 -0.16113605748E+04  0.16632540689E+04  0.50400001928E-02 0.  1.
       -1    1    3    3    0  502  0.13148563457E+03 -0.39069517997E+03  0.90737427495E+03  0.99662393641E+03  0.50400001928E-02 0. -1.
</event>
<event>
 5   0  0.4361864E-06  0.2602316E+04  0.7818609E-02  0.8367415E-01
        1   -1    0    0  501    0  0.00000000000E+00  0.00000000000E+00  0.19347755351E+04  0.19347755351E+04  0.50400001928E-02 0. -1.
       -1   -1    0    0    0  501  0.00000000000E+00  0.00000000000E+00 -0.87504306884E+03  0.87504306886E+03  0.50400001928E-02 0.  1.
    10030    2    1    2    0    0  0.00000000000E+00  0.00000000000E+00  0.10597324662E+04  0.28098186039E+04  0.26023158315E+04 0.  0.
        3    1    3    3  502    0  0.74202784216E+03  0.74896615806E+03  0.13532016835E+04  0.17154330155E+04  0.10100000352E+00 0. -1.
       -3    1    3    3    0  502 -0.74202784216E+03 -0.74896615806E+03 -0.29346921722E+03  0.10943855884E+04  0.10100000352E+00 0.  1.
</event>
<event>
 5   0  0.4415080E-06  0.2319031E+04  0.7818609E-02  0.8470455E-01
       -1   -1    0    0    0  501  0.00000000000E+00  0.00000000000E+00  0.13350946569E+04  0.13350946569E+04  0.50400001928E-02 0.  1.
        1   -1    0    0  501    0  0.00000000000E+00  0.00000000000E+00 -0.10070270233E+04  0.10070270234E+04  0.50400001928E-02 0. -1.
    10030    2    1    2    0    0  0.00000000000E+00  0.00000000000E+00  0.32806763354E+03  0.23421216802E+04  0.23190311755E+04 0.  0.
        2    1    3    3  502    0  0.76275151562E+02 -0.64506861454E+02 -0.10026729786E+04  0.10076369068E+04  0.25500000920E-02 0. -1.
       -2    1    3    3    0  502 -0.76275151562E+02  0.64506861454E+02  0.13307406121E+04  0.13344847735E+04  0.25500000920E-02 0.  1.
</event>
<event>
 5   0  0.4361864E-06  0.2592473E+04  0.7818609E-02  0.8370762E-01
        1   -1    0    0  501    0  0.00000000000E+00  0.00000000000E+00  0.18405313989E+04  0.18405313989E+04  0.50400001928E-02 0.  1.
       -1   -1    0    0    0  501  0.00000000000E+00  0.00000000000E+00 -0.91290449880E+03  0.91290449882E+03  0.50400001928E-02 0. -1.
    10030    2    1    2    0    0  0.00000000000E+00  0.00000000000E+00  0.92762690009E+03  0.27534358977E+04  0.25924732548E+04 0.  0.
        3    1    3    3  502    0  0.72602072828E+03  0.78156554143E+03  0.12459307905E+04  0.16402116749E+04  0.10100000352E+00 0.  1.
       -3    1    3    3    0  502 -0.72602072828E+03 -0.78156554143E+03 -0.31830389043E+03  0.11132242228E+04  0.10100000352E+00 0. -1.
</event>
<event>
 5   0  0.4218590E-06  0.2603344E+04  0.7818609E-02  0.8367066E-01
       -1   -1    0    0    0  501  0.00000000000E+00  0.00000000000E+00  0.15812132047E+04  0.15812132047E+04  0.50400001928E-02 0.  1.
        1   -1    0    0  501    0  0.00000000000E+00  0.00000000000E+00 -0.10715503479E+04  0.10715503479E+04  0.50400001928E-02 0. -1.
    10030    2    1    2    0    0  0.00000000000E+00  0.00000000000E+00  0.50966285684E+03  0.26527635526E+04  0.26033436650E+04 0.  0.
        1    1    3    3  502    0  0.66612397467E+03  0.85194051845E+03 -0.48336954260E+03  0.11845547313E+04  0.50400001928E-02 0. -1.
       -1    1    3    3    0  502 -0.66612397467E+03 -0.85194051845E+03  0.99303239944E+03  0.14682088213E+04  0.50400001928E-02 0.  1.
</event>
<event>
 5   0  0.4415080E-06  0.2597633E+04  0.7818609E-02  0.8369006E-01
        1   -1    0    0  501    0  0.00000000000E+00  0.00000000000E+00  0.17229026618E+04  0.17229026618E+04  0.50400001928E-02 0.  1.
       -1   -1    0    0    0  501  0.00000000000E+00  0.00000000000E+00 -0.97911721816E+03  0.97911721818E+03  0.50400001928E-02 0. -1.
    10030    2    1    2    0    0  0.00000000000E+00  0.00000000000E+00  0.74378544362E+03  0.27020198800E+04  0.25976325078E+04 0.  0.
        2    1    3    3  502    0 -0.98082587015E+03 -0.70875781132E+03 -0.11883530555E+03  0.12159271576E+04  0.25500000920E-02 0. -1.
       -2    1    3    3    0  502  0.98082587015E+03  0.70875781132E+03  0.86262074917E+03  0.14860927224E+04  0.25500000920E-02 0.  1.
</event>
<event>
 5   0  0.1086507E-05  0.2605205E+04  0.7818609E-02  0.8366435E-01
        2   -1    0    0  501    0  0.00000000000E+00  0.00000000000E+00  0.23384402454E+04  0.23384402454E+04  0.25500000920E-02 0.  1.
       -2   -1    0    0    0  501  0.00000000000E+00  0.00000000000E+00 -0.72560040781E+03  0.72560040781E+03  0.25500000920E-02 0. -1.
    10030    2    1    2    0    0  0.00000000000E+00  0.00000000000E+00  0.16128398376E+04  0.30640406532E+04  0.26052049407E+04 0.  0.
        2    1    3    3  502    0 -0.28453747705E+03  0.83952347233E+03  0.19289931171E+04  0.21229167865E+04  0.25500000920E-02 0.  1.
       -2    1    3    3    0  502  0.28453747705E+03 -0.83952347233E+03 -0.31615327950E+03  0.94112386676E+03  0.25500000920E-02 0. -1.
</event>
<event>
 5   0  0.4415080E-06  0.2587310E+04  0.7818609E-02  0.8372525E-01
       -1   -1    0    0    0  501  0.00000000000E+00  0.00000000000E+00  0.63086240290E+03  0.63086240292E+03  0.50400001928E-02 0. -1.
        1   -1    0    0  501    0  0.00000000000E+00  0.00000000000E+00 -0.26527855042E+04  0.26527855042E+04  0.50400001928E-02 0.  1.
    10030    2    1    2    0    0  0.00000000000E+00  0.00000000000E+00 -0.20219231013E+04  0.32836479072E+04  0.25873095197E+04 0.  0.
        2    1    3    3  502    0 -0.78146579955E+03 -0.76618637967E+03 -0.13552229507E+03  0.11027677256E+04  0.25500000920E-02 0. -1.
       -2    1    3    3    0  502  0.78146579955E+03  0.76618637967E+03 -0.18864008063E+04  0.21808801815E+04  0.25500000920E-02 0.  1.
</event>
<event>
 5   0  0.4597705E-06  0.2603976E+04  0.7818609E-02  0.8366852E-01
        1   -1    0    0  501    0  0.00000000000E+00  0.00000000000E+00  0.10777750825E+04  0.10777750825E+04  0.50400001928E-02 0.  1.
       -1   -1    0    0    0  501  0.00000000000E+00  0.00000000000E+00 -0.15728446728E+04  0.15728446728E+04  0.50400001928E-02 0. -1.
    10030    2    1    2    0    0  0.00000000000E+00  0.00000000000E+00 -0.49506959030E+03  0.26506197553E+04  0.26039760345E+04 0.  0.
        5    1    3    3  502    0  0.11223242595E+04 -0.63049098050E+03 -0.44601490905E+03  0.13623810073E+04  0.46999998093E+01 0.  1.
       -5    1    3    3    0  502 -0.11223242595E+04  0.63049098050E+03 -0.49054681250E+02  0.12882387480E+04  0.46999998093E+01 0. -1.
</event>
<event>
 5   0  0.1136881E-05  0.2587060E+04  0.7818609E-02  0.8372610E-01
        2   -1    0    0  501    0  0.00000000000E+00  0.00000000000E+00  0.11100280217E+04  0.11100280217E+04  0.25500000920E-02 0. -1.
       -2   -1    0    0    0  501  0.00000000000E+00  0.00000000000E+00 -0.15073673431E+04  0.15073673431E+04  0.25500000920E-02 0.  1.
    10030    2    1    2    0    0  0.00000000000E+00  0.00000000000E+00 -0.39733932139E+03  0.26173953647E+04  0.25870600996E+04 0.  0.
        3    1    3    3  502    0 -0.12753901895E+04 -0.16248970178E+01  0.19725363649E+02  0.12755437569E+04  0.10100000352E+00 0. -1.
       -3    1    3    3    0  502  0.12753901895E+04  0.16248970178E+01 -0.41706468504E+03  0.13418516078E+04  0.10100000352E+00 0.  1.
</event>
<event>
 5   0  0.1136881E-05  0.2619541E+04  0.7818609E-02  0.8361594E-01
       -2   -1    0    0    0  501  0.00000000000E+00  0.00000000000E+00  0.81092504691E+03  0.81092504691E+03  0.25500000920E-02 0.  1.
        2   -1    0    0  501    0  0.00000000000E+00  0.00000000000E+00 -0.21154840901E+04  0.21154840901E+04  0.25500000920E-02 0. -1.
    10030    2    1    2    0    0  0.00000000000E+00  0.00000000000E+00 -0.13045590432E+04  0.29264091370E+04  0.26195412079E+04 0.  0.
        3    1    3    3  502    0 -0.12613139045E+04  0.10762977779E+03 -0.27674224905E+03  0.12957944348E+04  0.10100000352E+00 0.  1.
       -3    1    3    3    0  502  0.12613139045E+04 -0.10762977779E+03 -0.10278167942E+04  0.16306147023E+04  0.10100000352E+00 0. -1.
</event>
<event>
 5   0  0.1116310E-05  0.2532046E+04  0.7818609E-02  0.8391657E-01
       -2   -1    0    0    0  501  0.00000000000E+00  0.00000000000E+00  0.11208033485E+04  0.11208033485E+04  0.25500000920E-02 0. -1.
        2   -1    0    0  501    0  0.00000000000E+00  0.00000000000E+00 -0.14300580334E+04  0.14300580334E+04  0.25500000920E-02 0.  1.
    10030    2    1    2    0    0  0.00000000000E+00  0.00000000000E+00 -0.30925468489E+03  0.25508613819E+04  0.25320456808E+04 0.  0.
        4    1    3    3  502    0  0.11643050155E+04  0.44793887156E+03 -0.37200102648E+03  0.13017840752E+04  0.12699999809E+01 0. -1.
       -4    1    3    3    0  502 -0.11643050155E+04 -0.44793887156E+03  0.62746341590E+02  0.12490773067E+04  0.12699999809E+01 0.  1.
</event>
<event>
 5   0  0.1136881E-05  0.2663202E+04  0.7818609E-02  0.8347044E-01
       -2   -1    0    0    0  501  0.00000000000E+00  0.00000000000E+00  0.10376200863E+04  0.10376200863E+04  0.25500000920E-02 0.  1.
        2   -1    0    0  501    0  0.00000000000E+00  0.00000000000E+00 -0.17088727474E+04  0.17088727474E+04  0.25500000920E-02 0. -1.
    10030    2    1    2    0    0  0.00000000000E+00  0.00000000000E+00 -0.67125266112E+03  0.27464928336E+04  0.26632015977E+04 0.  0.
        3    1    3    3  502    0 -0.11187944564E+04 -0.72153572638E+03 -0.36561918705E+03  0.13805767781E+04  0.10100000352E+00 0.  1.
       -3    1    3    3    0  502  0.11187944564E+04  0.72153572638E+03 -0.30563347407E+03  0.13659160555E+04  0.10100000352E+00 0. -1.
</event>
<event>
 5   0  0.1085061E-05  0.2622724E+04  0.7818609E-02  0.8360523E-01
        2   -1    0    0  501    0  0.00000000000E+00  0.00000000000E+00  0.18308353074E+04  0.18308353074E+04  0.25500000920E-02 0. -1.
       -2   -1    0    0    0  501  0.00000000000E+00  0.00000000000E+00 -0.93928190914E+03  0.93928190915E+03  0.25500000920E-02 0.  1.
    10030    2    1    2    0    0  0.00000000000E+00  0.00000000000E+00  0.89155339829E+03  0.27701172166E+04  0.26227241433E+04 0.  0.
        1    1    3    3  502    0  0.91496868152E+03 -0.48739706510E+03  0.12939947506E+04  0.16580548850E+04  0.50400001928E-02 0. -1.
       -1    1    3    3    0  502 -0.91496868152E+03  0.48739706510E+03 -0.40244135227E+03  0.11120623316E+04  0.50400001928E-02 0.  1.
</event>
<event>
 5   0  0.1085255E-05  0.2605221E+04  0.7818609E-02  0.8366430E-01
        2   -1    0    0  501    0  0.00000000000E+00  0.00000000000E+00  0.68623798247E+03  0.68623798248E+03  0.25500000920E-02 0. -1.
       -2   -1    0    0    0  501  0.00000000000E+00  0.00000000000E+00 -0.24726036407E+04  0.24726036407E+04  0.25500000920E-02 0.  1.
    10030    2    1    2    0    0  0.00000000000E+00  0.00000000000E+00 -0.17863656583E+04  0.31588416232E+04  0.26052213218E+04 0.  0.
        5    1    3    3  502    0 -0.71105213136E+02 -0.12864732721E+04 -0.11254747391E+04  0.17107848811E+04  0.46999998093E+01 0.  1.
       -5    1    3    3    0  502  0.71105213136E+02  0.12864732721E+04 -0.66089091917E+03  0.14480567421E+04  0.46999998093E+01 0. -1.
</event>
<event>
 5   0  0.1085255E-05  0.2593187E+04  0.7818609E-02  0.8370519E-01
       -2   -1    0    0    0  501  0.00000000000E+00  0.00000000000E+00  0.13510792724E+04  0.13510792724E+04  0.25500000920E-02 0. -1.
        2   -1    0    0  501    0  0.00000000000E+00  0.00000000000E+00 -0.12443051121E+04  0.12443051121E+04  0.25500000920E-02 0.  1.
    10030    2    1    2    0    0  0.00000000000E+00  0.00000000000E+00  0.10677416024E+03  0.25953843845E+04  0.25931871090E+04 0.  0.
        5    1    3    3  502    0 -0.74368134531E+03  0.54925153063E+03 -0.85644510857E+03  0.12602616797E+04  0.46999998093E+01 0.  1.
       -5    1    3    3    0  502  0.74368134531E+03 -0.54925153063E+03  0.96321926881E+03  0.13351227049E+04  0.46999998093E+01 0. -1.
</event>
<event>
 5   0  0.4361864E-06  0.2593951E+04  0.7818609E-02  0.8370259E-01
        1   -1    0    0  501    0  0.00000000000E+00  0.00000000000E+00  0.14367520778E+04  0.14367520778E+04  0.50400001928E-02 0.  1.
       -1   -1    0    0    0  501  0.00000000000E+00  0.00000000000E+00 -0.11707968986E+04  0.11707968986E+04  0.50400001928E-02 0. -1.
    10030    2    1    2    0    0  0.00000000000E+00  0.00000000000E+00  0.26595517926E+03  0.26075489764E+04  0.25939505599E+04 0.  0.
        3    1    3    3  502    0  0.90343682823E+03 -0.63422628039E+02 -0.80028821020E+03  0.12085866795E+04  0.10100000352E+00 0. -1.
       -3    1    3    3    0  502 -0.90343682823E+03  0.63422628039E+02  0.10662433895E+04  0.13989622969E+04  0.10100000352E+00 0.  1.
</event>
<event>
 5   0  0.4218590E-06  0.2605208E+04  0.7818609E-02  0.8366434E-01
       -1   -1    0    0    0  501  0.00000000000E+00  0.00000000000E+00  0.89920323902E+03  0.89920323904E+03  0.50400001928E-02 0.  1.
        1   -1    0    0  501    0  0.00000000000E+00  0.00000000000E+00 -0.18869790541E+04  0.18869790541E+04  0.50400001928E-02 0. -1.
    10030    2    1    2    0    0  0.00000000000E+00  0.00000000000E+00 -0.98777581508E+03  0.27861822931E+04  0.26052083813E+04 0.  0.
        1    1    3    3  502    0 -0.69941192272E+03  0.60026479329E+03 -0.14783097942E+04  0.17420949192E+04  0.50400001928E-02 0. -1.
       -1    1    3    3    0  502  0.69941192272E+03 -0.60026479329E+03  0.49053397916E+03  0.10440873740E+04  0.50400001928E-02 0.  1.
</event>
<event>
 5   0  0.4361864E-06  0.2552989E+04  0.7818609E-02  0.8384347E-01
       -1   -1    0    0    0  501  0.00000000000E+00  0.00000000000E+00  0.16540521440E+04  0.16540521440E+04  0.50400001928E-02 0. -1.
        1   -1    0    0  501    0  0.00000000000E+00  0.00000000000E+00 -0.98511920954E+03  0.98511920956E+03  0.50400001928E-02 0.  1.
    10030    2    1    2    0    0  0.00000000000E+00  0.00000000000E+00  0.66893293449E+03  0.26391713536E+04  0.25529892602E+04 0.  0.
        3    1    3    3  502    0 -0.82709078722E+03 -0.76027096755E+03 -0.29208549643E+03  0.11607777831E+04  0.10100000352E+00 0.  1.
       -3    1    3    3    0  502  0.82709078722E+03  0.76027096755E+03  0.96101843092E+03  0.14783935705E+04  0.10100000352E+00 0. -1.
</event>
<event>
 5   0  0.4218590E-06  0.2594720E+04  0.7818609E-02  0.8369997E-01
       -1   -1    0    0    0  501  0.00000000000E+00  0.00000000000E+00  0.16929485086E+04  0.16929485087E+04  0.50400001928E-02 0. -1.
        1   -1    0    0  501    0  0.00000000000E+00  0.00000000000E+00 -0.99420824684E+03  0.99420824685E+03  0.50400001928E-02 0.  1.
    10030    2    1    2    0    0  0.00000000000E+00  0.00000000000E+00  0.69874026181E+03  0.26871567555E+04  0.25947203077E+04 0.  0.
        1    1    3    3  502    0 -0.11816054061E+04 -0.46175400910E+03  0.68154094575E+02  0.12704538879E+04  0.50400001928E-02 0.  1.
       -1    1    3    3    0  502  0.11816054061E+04  0.46175400910E+03  0.63058616724E+03  0.14167028676E+04  0.50400001928E-02 0. -1.
</event>
<event>
 5   0  0.4464297E-06  0.2760221E+04  0.7818609E-02  0.8315726E-01
        1   -1    0    0  501    0  0.00000000000E+00  0.00000000000E+00  0.15445930719E+04  0.15445930719E+04  0.50400001928E-02 0. -1.
       -1   -1    0    0    0  501  0.00000000000E+00  0.00000000000E+00 -0.12331432617E+04  0.12331432617E+04  0.50400001928E-02 0.  1.
    10030    2    1    2    0    0  0.00000000000E+00  0.00000000000E+00  0.31144981015E+03  0.27777363336E+04  0.27602206714E+04 0.  0.
        4    1    3    3  502    0 -0.37321922861E+02 -0.11507923015E+04  0.92146546476E+03  0.14747257585E+04  0.12699999809E+01 0. -1.
       -4    1    3    3    0  502  0.37321922861E+02  0.11507923015E+04 -0.61001565460E+03  0.13030105751E+04  0.12699999809E+01 0.  1.
</event>
<event>
 5   0  0.1116310E-05  0.2610443E+04  0.7818609E-02  0.8364663E-01
       -2   -1    0    0    0  501  0.00000000000E+00  0.00000000000E+00  0.12342110309E+04  0.12342110309E+04  0.25500000920E-02 0. -1.
        2   -1    0    0  501    0  0.00000000000E+00  0.00000000000E+00 -0.13803170620E+04  0.13803170620E+04  0.25500000920E-02 0.  1.
    10030    2    1    2    0    0  0.00000000000E+00  0.00000000000E+00 -0.14610603115E+03  0.26145280929E+04  0.26104425250E+04 0.  0.
        4    1    3    3  502    0  0.63500558077E+03  0.10409960040E+04  0.39318189350E+03  0.12812097339E+04  0.12699999809E+01 0. -1.
       -4    1    3    3    0  502 -0.63500558077E+03 -0.10409960040E+04 -0.53928792465E+03  0.13333183590E+04  0.12699999809E+01 0.  1.
</event>
<event>
 5   0  0.1085255E-05  0.2599887E+04  0.7818609E-02  0.8368240E-01
       -2   -1    0    0    0  501  0.00000000000E+00  0.00000000000E+00  0.11473354034E+04  0.11473354034E+04  0.25500000920E-02 0. -1.
        2   -1    0    0  501    0  0.00000000000E+00  0.00000000000E+00 -0.14728502852E+04  0.14728502852E+04  0.25500000920E-02 0.  1.
    10030    2    1    2    0    0  0.00000000000E+00  0.00000000000E+00 -0.32551488182E+03  0.26201856887E+04  0.25998871331E+04 0.  0.
        5    1    3    3  502    0 -0.56881779025E+03  0.86026486680E+02  0.10120525784E+04  0.11641420645E+04  0.46999998093E+01 0. -1.
       -5    1    3    3    0  502  0.56881779025E+03 -0.86026486680E+02 -0.13375674602E+04  0.14560436242E+04  0.46999998093E+01 0.  1.
</event>
<event>
 5   0  0.4218590E-06  0.2621630E+04  0.7818609E-02  0.8360891E-01
        1   -1    0    0  501    0  0.00000000000E+00  0.00000000000E+00  0.22437719595E+04  0.22437719595E+04  0.50400001928E-02 0.  1.
       -1   -1    0    0    0  501  0.00000000000E+00  0.00000000000E+00 -0.76577991002E+03  0.76577991004E+03  0.50400001928E-02 0. -1.
    10030    2    1    2    0    0  0.00000000000E+00  0.00000000000E+00  0.14779920495E+04  0.30095518695E+04  0.26216296377E+04 0.  0.
        1    1    3    3  502    0  0.10122871198E+04  0.25022888435E+03  0.16508164293E+04  0.19525712767E+04  0.50400001928E-02 0.  1.
       -1    1    3    3    0  502 -0.10122871198E+04 -0.25022888435E+03 -0.17282437979E+03  0.10569805929E+04  0.50400001928E-02 0. -1.
</event>
<event>
 5   0  0.1136881E-05  0.2599063E+04  0.7818609E-02  0.8368519E-01
       -2   -1    0    0    0  501  0.00000000000E+00  0.00000000000E+00  0.10701134935E+04  0.10701134935E+04  0.25500000920E-02 0.  1.
        2   -1    0    0  501    0  0.00000000000E+00  0.00000000000E+00 -0.15781338206E+04  0.15781338206E+04  0.25500000920E-02 0. -1.
    10030    2    1    2    0    0  0.00000000000E+00  0.00000000000E+00 -0.50802032716E+03  0.26482473141E+04  0.25990631358E+04 0.  0.
        3    1    3    3  502    0 -0.65050185587E+03  0.10511289236E+04 -0.66254347828E+03  0.14024936896E+04  0.10100000352E+00 0.  1.
       -3    1    3    3    0  502  0.65050185587E+03 -0.10511289236E+04  0.15452315112E+03  0.12457536245E+04  0.10100000352E+00 0. -1.
</event>
<event>
 5   0  0.1085061E-05  0.2611520E+04  0.7818609E-02  0.8364299E-01
        2   -1    0    0  501    0  0.00000000000E+00  0.00000000000E+00  0.14875434423E+04  0.14875434423E+04  0.25500000920E-02 0. -1.
       -2   -1    0    0    0  501  0.00000000000E+00  0.00000000000E+00 -0.11461915081E+04  0.11461915081E+04  0.25500000920E-02 0.  1.
    10030    2    1    2    0    0  0.00000000000E+00  0.00000000000E+00  0.34135193416E+03  0.26337349504E+04  0.26115203706E+04 0.  0.
        1    1    3    3  502    0 -0.75698717578E+03 -0.10526203027E+04  0.14534635221E+02  0.12966303797E+04  0.50400001928E-02 0.  1.
       -1    1    3    3    0  502  0.75698717578E+03  0.10526203027E+04  0.32681729893E+03  0.13371045707E+04  0.50400001928E-02 0. -1.
</event>
<event>
 5   0  0.1086507E-05  0.2605427E+04  0.7818609E-02  0.8366360E-01
       -2   -1    0    0    0  501  0.00000000000E+00  0.00000000000E+00  0.17203804430E+04  0.17203804430E+04  0.25500000920E-02 0.  1.
        2   -1    0    0  501    0  0.00000000000E+00  0.00000000000E+00 -0.98644605545E+03  0.98644605545E+03  0.25500000920E-02 0. -1.
    10030    2    1    2    0    0  0.00000000000E+00  0.00000000000E+00  0.73393438758E+03  0.27068264985E+04  0.26054270298E+04 0.  0.
        2    1    3    3  502    0 -0.55036228874E+02  0.45271612316E+03  0.16347380315E+04  0.16971591871E+04  0.25500000920E-02 0.  1.
       -2    1    3    3    0  502  0.55036228874E+02 -0.45271612316E+03 -0.90080364396E+03  0.10096673114E+04  0.25500000920E-02 0. -1.
</event>
<event>
 5   0  0.4415080E-06  0.2655012E+04  0.7818609E-02  0.8349751E-01
        1   -1    0    0  501    0  0.00000000000E+00  0.00000000000E+00  0.94266691054E+03  0.94266691055E+03  0.50400001928E-02 0.  1.
       -1   -1    0    0    0  501  0.00000000000E+00  0.00000000000E+00 -0.18694542851E+04  0.18694542851E+04  0.50400001928E-02 0. -1.
    10030    2    1    2    0    0  0.00000000000E+00  0.00000000000E+00 -0.92678737457E+03  0.28121211957E+04  0.26550123882E+04 0.  0.
        2    1    3    3  502    0 -0.43330429235E+03 -0.71143948745E+03  0.63139203595E+03  0.10452533938E+04  0.25500000920E-02 0.  1.
       -2    1    3    3    0  502  0.43330429235E+03  0.71143948745E+03 -0.15581794105E+04  0.17668678019E+04  0.25500000920E-02 0. -1.
</event>
<event>
 5   0  0.4464297E-06  0.2589767E+04  0.7818609E-02  0.8371685E-01
        1   -1    0    0  501    0  0.00000000000E+00  0.00000000000E+00  0.59831314889E+03  0.59831314891E+03  0.50400001928E-02 0.  1.
       -1   -1    0    0    0  501  0.00000000000E+00  0.00000000000E+00 -0.28024181265E+04  0.28024181265E+04  0.50400001928E-02 0. -1.
    10030    2    1    2    0    0  0.00000000000E+00  0.00000000000E+00 -0.22041049776E+04  0.34007312754E+04  0.25897672589E+04 0.  0.
        4    1    3    3  502    0 -0.82185655648E+03  0.81329378703E+03 -0.18675442686E+04  0.21965013525E+04  0.12699999809E+01 0. -1.
       -4    1    3    3    0  502  0.82185655648E+03 -0.81329378703E+03 -0.33656070897E+03  0.12042299229E+04  0.12699999809E+01 0.  1.
</event>
<event>
 5   0  0.1085255E-05  0.2592713E+04  0.7818609E-02  0.8370681E-01
        2   -1    0    0  501    0  0.00000000000E+00  0.00000000000E+00  0.17169364918E+04  0.17169364918E+04  0.25500000920E-02 0. -1.
       -2   -1    0    0    0  501  0.00000000000E+00  0.00000000000E+00 -0.97880151761E+03  0.97880151761E+03  0.25500000920E-02 0.  1.
    10030    2    1    2    0    0  0.00000000000E+00  0.00000000000E+00  0.73813497422E+03  0.26957380094E+04  0.25927128988E+04 0.  0.
        5    1    3    3  502    0  0.10535169125E+04  0.15650248268E+03 -0.39930197247E+03  0.11374775018E+04  0.46999998093E+01 0.  1.
       -5    1    3    3    0  502 -0.10535169125E+04 -0.15650248268E+03  0.11374369467E+04  0.15582605076E+04  0.46999998093E+01 0. -1.
</event>
<event>
 5   0  0.4415080E-06  0.2598097E+04  0.7818609E-02  0.8368848E-01
        1   -1    0    0  501    0  0.00000000000E+00  0.00000000000E+00  0.18658322254E+04  0.18658322254E+04  0.50400001928E-02 0. -1.
       -1   -1    0    0    0  501  0.00000000000E+00  0.00000000000E+00 -0.90443637182E+03  0.90443637183E+03  0.50400001928E-02 0.  1.
    10030    2    1    2    0    0  0.00000000000E+00  0.00000000000E+00  0.96139585361E+03  0.27702685973E+04  0.25980966329E+04 0.  0.
        2    1    3    3  502    0  0.95237712579E+03 -0.63577842954E+03  0.11347735910E+04  0.16121251515E+04  0.25500000920E-02 0.  1.
       -2    1    3    3    0  502 -0.95237712579E+03  0.63577842954E+03 -0.17337773737E+03  0.11581434458E+04  0.25500000920E-02 0. -1.
</event>
<event>
 5   0  0.4597705E-06  0.2563301E+04  0.7818609E-02  0.8380775E-01
        1   -1    0    0  501    0  0.00000000000E+00  0.00000000000E+00  0.14610664030E+04  0.14610664030E+04  0.50400001928E-02 0.  1.
       -1   -1    0    0    0  501  0.00000000000E+00  0.00000000000E+00 -0.11242665838E+04  0.11242665838E+04  0.50400001928E-02 0. -1.
    10030    2    1    2    0    0  0.00000000000E+00  0.00000000000E+00  0.33679981915E+03  0.25853329868E+04  0.25633011011E+04 0.  0.
        5    1    3    3  502    0 -0.61176760659E+02 -0.35307932204E+02  0.14590930609E+04  0.14608093292E+04  0.46999998093E+01 0.  1.
       -5    1    3    3    0  502  0.61176760659E+02  0.35307932204E+02 -0.11222932417E+04  0.11245236576E+04  0.46999998093E+01 0. -1.
</event>
<event>
 5   0  0.4464297E-06  0.2614035E+04  0.7818609E-02  0.8363449E-01
        1   -1    0    0  501    0  0.00000000000E+00  0.00000000000E+00  0.13675511784E+04  0.13675511784E+04  0.50400001928E-02 0. -1.
       -1   -1    0    0    0  501  0.00000000000E+00  0.00000000000E+00 -0.12491631138E+04  0.12491631138E+04  0.50400001928E-02 0.  1.
    10030    2    1    2    0    0  0.00000000000E+00  0.00000000000E+00  0.11838806463E+03  0.26167142922E+04  0.26140348033E+04 0.  0.
        4    1    3    3  502    0 -0.40873163796E+03  0.60185136336E+03 -0.10277395234E+04  0.12591809863E+04  0.12699999809E+01 0.  1.
       -4    1    3    3    0  502  0.40873163796E+03 -0.60185136336E+03  0.11461275881E+04  0.13575333058E+04  0.12699999809E+01 0. -1.
</event>
<event>
 5   0  0.4361864E-06  0.2606576E+04  0.7818609E-02  0.8365971E-01
       -1   -1    0    0    0  501  0.00000000000E+00  0.00000000000E+00  0.91628634229E+03  0.91628634230E+03  0.50400001928E-02 0. -1.
        1   -1    0    0  501    0  0.00000000000E+00  0.00000000000E+00 -0.18537433280E+04  0.18537433280E+04  0.50400001928E-02 0.  1.
    10030    2    1    2    0    0  0.00000000000E+00  0.00000000000E+00 -0.93745698574E+03  0.27700296703E+04  0.26065760634E+04 0.  0.
        3    1    3    3  502    0  0.31681424015E+02 -0.65137826934E+03 -0.16678769744E+04  0.17908408568E+04  0.10100000352E+00 0.  1.
       -3    1    3    3    0  502 -0.31681424015E+02  0.65137826934E+03  0.73041998871E+03  0.97918881351E+03  0.10100000352E+00 0. -1.
</event>
<event>
 5   0  0.4597705E-06  0.2601165E+04  0.7818609E-02  0.8367806E-01
       -1   -1    0    0    0  501  0.00000000000E+00  0.00000000000E+00  0.11453736021E+04  0.11453736021E+04  0.50400001928E-02 0. -1.
        1   -1    0    0  501    0  0.00000000000E+00  0.00000000000E+00 -0.14768234048E+04  0.14768234048E+04  0.50400001928E-02 0.  1.
    10030    2    1    2    0    0  0.00000000000E+00  0.00000000000E+00 -0.33144980272E+03  0.26221970069E+04  0.26011647721E+04 0.  0.
        5    1    3    3  502    0 -0.51889903075E+03 -0.11168799109E+04 -0.58721505995E+03  0.13643755187E+04  0.46999998093E+01 0.  1.
       -5    1    3    3    0  502  0.51889903075E+03  0.11168799109E+04  0.25576525722E+03  0.12578214882E+04  0.46999998093E+01 0. -1.
</event>
<event>
 5   0  0.4218590E-06  0.2601791E+04  0.7818609E-02  0.8367593E-01
       -1   -1    0    0    0  501  0.00000000000E+00  0.00000000000E+00  0.17049336657E+04  0.17049336657E+04  0.50400001928E-02 0.  1.
        1   -1    0    0  501    0  0.00000000000E+00  0.00000000000E+00 -0.99260721865E+03  0.99260721867E+03  0.50400001928E-02 0. -1.
    10030    2    1    2    0    0  0.00000000000E+00  0.00000000000E+00  0.71232644701E+03  0.26975408843E+04  0.26017912782E+04 0.  0.
        1    1    3    3  502    0 -0.69639572402E+03  0.52190687868E+03 -0.64636298942E+03  0.10840382413E+04  0.50400001928E-02 0. -1.
       -1    1    3    3    0  502  0.69639572402E+03 -0.52190687868E+03  0.13586894364E+04  0.16135026430E+04  0.50400001928E-02 0.  1.
</event>
<event>
 5   0  0.1085061E-05  0.2611880E+04  0.7818609E-02  0.8364177E-01
        2   -1    0    0  501    0  0.00000000000E+00  0.00000000000E+00  0.13770537130E+04  0.13770537130E+04  0.25500000920E-02 0. -1.
       -2   -1    0    0    0  501  0.00000000000E+00  0.00000000000E+00 -0.12384984422E+04  0.12384984422E+04  0.25500000920E-02 0.  1.
    10030    2    1    2    0    0  0.00000000000E+00  0.00000000000E+00  0.13855527078E+03  0.26155521552E+04  0.26118796897E+04 0.  0.
        1    1    3    3  502    0 -0.50822810289E+03 -0.11090460487E+04 -0.39742479476E+03  0.12830531596E+04  0.50400001928E-02 0.  1.
       -1    1    3    3    0  502  0.50822810289E+03  0.11090460487E+04  0.53598006554E+03  0.13324989957E+04  0.50400001928E-02 0. -1.
</event>
<event>
 5   0  0.4218590E-06  0.2602347E+04  0.7818609E-02  0.8367404E-01
       -1   -1    0    0    0  501  0.00000000000E+00  0.00000000000E+00  0.11464989817E+04  0.11464989818E+04  0.50400001928E-02 0.  1.
        1   -1    0    0  501    0  0.00000000000E+00  0.00000000000E+00 -0.14767157261E+04  0.14767157261E+04  0.50400001928E-02 0. -1.
    10030    2    1    2    0    0  0.00000000000E+00  0.00000000000E+00 -0.33021674431E+03  0.26232147078E+04  0.26023474605E+04 0.  0.
        1    1    3    3  502    0 -0.45776073264E+03  0.10162652260E+03 -0.13885873133E+04  0.14656219039E+04  0.50400001928E-02 0. -1.
       -1    1    3    3    0  502  0.45776073264E+03 -0.10162652260E+03  0.10583705690E+04  0.11575928040E+04  0.50400001928E-02 0.  1.
</event>
<event>
 5   0  0.1116310E-05  0.2601460E+04  0.7818609E-02  0.8367705E-01
        2   -1    0    0  501    0  0.00000000000E+00  0.00000000000E+00  0.10306289568E+04  0.10306289568E+04  0.25500000920E-02 0. -1.
       -2   -1    0    0    0  501  0.00000000000E+00  0.00000000000E+00 -0.16416180215E+04  0.16416180215E+04  0.25500000920E-02 0.  1.
    10030    2    1    2    0    0  0.00000000000E+00  0.00000000000E+00 -0.61098906467E+03  0.26722469783E+04  0.26014604121E+04 0.  0.
        4    1    3    3  502    0 -0.43166462147E+03  0.12251158855E+04 -0.37557239571E+03  0.13521462627E+04  0.12699999809E+01 0.  1.
       -4    1    3    3    0  502  0.43166462147E+03 -0.12251158855E+04 -0.23541666896E+03  0.13201007156E+04  0.12699999809E+01 0. -1.
</event>
<event>
 5   0  0.1085255E-05  0.2518884E+04  0.7818609E-02  0.8396289E-01
       -2   -1    0    0    0  501  0.00000000000E+00  0.00000000000E+00  0.82678726956E+03  0.82678726957E+03  0.25500000920E-02 0. -1.
        2   -1    0    0  501    0  0.00000000000E+00  0.00000000000E+00 -0.19185027229E+04  0.19185027229E+04  0.25500000920E-02 0.  1.
    10030    2    1    2    0    0  0.00000000000E+00  0.00000000000E+00 -0.10917154533E+04  0.27452899925E+04  0.25188835844E+04 0.  0.
        5    1    3    3  502    0 -0.12218511379E+04  0.16653662040E+03 -0.82482725242E+03  0.14835823992E+04  0.46999998093E+01 0.  1.
       -5    1    3    3    0  502  0.12218511379E+04 -0.16653662040E+03 -0.26688820093E+03  0.12617075932E+04  0.46999998093E+01 0. -1.
</event>
<event>
 5   0  0.4415080E-06  0.2470314E+04  0.7818609E-02  0.8413638E-01
       -1   -1    0    0    0  501  0.00000000000E+00  0.00000000000E+00  0.10621851965E+04  0.10621851965E+04  0.50400001928E-02 0. -1.
        1   -1    0    0  501    0  0.00000000000E+00  0.00000000000E+00 -0.14362961751E+04  0.14362961751E+04  0.50400001928E-02 0.  1.
    10030    2    1    2    0    0  0.00000000000E+00  0.00000000000E+00 -0.37411097864E+03  0.24984813716E+04  0.24703137735E+04 0.  0.
        2    1    3    3  502    0 -0.68097456570E+03  0.31387991441E+03  0.80564802074E+03  0.11005978798E+04  0.25500000920E-02 0. -1.
       -2    1    3    3    0  502  0.68097456570E+03 -0.31387991441E+03 -0.11797589994E+04  0.13978834917E+04  0.25500000920E-02 0.  1.
</event>
<event>
 5   0  0.4218590E-06  0.2611042E+04  0.7818609E-02  0.8364460E-01
       -1   -1    0    0    0  501  0.00000000000E+00  0.00000000000E+00  0.13558134285E+04  0.13558134285E+04  0.50400001928E-02 0.  1.
        1   -1    0    0  501    0  0.00000000000E+00  0.00000000000E+00 -0.12570940369E+04  0.12570940369E+04  0.50400001928E-02 0. -1.
    10030    2    1    2    0    0  0.00000000000E+00  0.00000000000E+00  0.98719391598E+02  0.26129074653E+04  0.26110419193E+04 0.  0.
        1    1    3    3  502    0  0.11576700651E+04  0.56963447294E+02  0.65057190280E+03  0.13291683921E+04  0.50400001928E-02 0.  1.
       -1    1    3    3    0  502 -0.11576700651E+04 -0.56963447294E+02 -0.55185251120E+03  0.12837390732E+04  0.50400001928E-02 0. -1.
</event>
<event>
 5   0  0.1086507E-05  0.2601115E+04  0.7818609E-02  0.8367823E-01
       -2   -1    0    0    0  501  0.00000000000E+00  0.00000000000E+00  0.94607370531E+03  0.94607370531E+03  0.25500000920E-02 0. -1.
        2   -1    0    0  501    0  0.00000000000E+00  0.00000000000E+00 -0.17878619799E+04  0.17878619799E+04  0.25500000920E-02 0.  1.
    10030    2    1    2    0    0  0.00000000000E+00  0.00000000000E+00 -0.84178827460E+03  0.27339356852E+04  0.26011145364E+04 0.  0.
        2    1    3    3  502    0 -0.88789762564E+03  0.81242639518E+03 -0.93906973606E+03  0.15265159057E+04  0.25500000920E-02 0.  1.
       -2    1    3    3    0  502  0.88789762564E+03 -0.81242639518E+03  0.97281461458E+02  0.12074197795E+04  0.25500000920E-02 0. -1.
</event>
<event>
 5   0  0.4361864E-06  0.2596565E+04  0.7818609E-02  0.8369369E-01
        1   -1    0    0  501    0  0.00000000000E+00  0.00000000000E+00  0.16954166275E+04  0.16954166275E+04  0.50400001928E-02 0. -1.
       -1   -1    0    0    0  501  0.00000000000E+00  0.00000000000E+00 -0.99417334461E+03  0.99417334462E+03  0.50400001928E-02 0.  1.
    10030    2    1    2    0    0  0.00000000000E+00  0.00000000000E+00  0.70124328290E+03  0.26895899721E+04  0.25965654385E+04 0.  0.
        3    1    3    3  502    0  0.70137326529E+03  0.63153023345E+03  0.12740668261E+04  0.15855602104E+04  0.10100000352E+00 0. -1.
       -3    1    3    3    0  502 -0.70137326529E+03 -0.63153023345E+03 -0.57282354323E+03  0.11040297618E+04  0.10100000352E+00 0.  1.
</event>
<event>
 5   0  0.4361864E-06  0.2593838E+04  0.7818609E-02  0.8370297E-01
       -1   -1    0    0    0  501  0.00000000000E+00  0.00000000000E+00  0.11844250193E+04  0.11844250193E+04  0.50400001928E-02 0.  1.
        1   -1    0    0  501    0  0.00000000000E+00  0.00000000000E+00 -0.14200971941E+04  0.14200971941E+04  0.50400001928E-02 0. -1.
    10030    2    1    2    0    0  0.00000000000E+00  0.00000000000E+00 -0.23567217475E+03  0.26045222134E+04  0.25938378103E+04 0.  0.
        3    1    3    3  502    0  0.32896162868E+03 -0.56750559305E+03 -0.12412476624E+04  0.14039138581E+04  0.10100000352E+00 0. -1.
       -3    1    3    3    0  502 -0.32896162868E+03  0.56750559305E+03  0.10055754876E+04  0.12006083553E+04  0.10100000352E+00 0.  1.
</event>
<event>
 5   0  0.1086507E-05  0.2562143E+04  0.7818609E-02  0.8381175E-01
        2   -1    0    0  501    0  0.00000000000E+00  0.00000000000E+00  0.20475714230E+04  0.20475714230E+04  0.25500000920E-02 0. -1.
       -2   -1    0    0    0  501  0.00000000000E+00  0.00000000000E+00 -0.80150767567E+03  0.80150767567E+03  0.25500000920E-02 0.  1.
    10030    2    1    2    0    0  0.00000000000E+00  0.00000000000E+00  0.12460637474E+04  0.28490790987E+04  0.25621430187E+04 0.  0.
        2    1    3    3  502    0  0.10581795467E+04 -0.71429424534E+03  0.50543398496E+03  0.13731073283E+04  0.25500000920E-02 0. -1.
       -2    1    3    3    0  502 -0.10581795467E+04  0.71429424534E+03  0.74062976241E+03  0.14759717704E+04  0.25500000920E-02 0.  1.
</event>
<event>
 5   0  0.4597705E-06  0.2639766E+04  0.7818609E-02  0.8354818E-01
       -1   -1    0    0    0  501  0.00000000000E+00  0.00000000000E+00  0.67462507942E+03  0.67462507944E+03  0.50400001928E-02 0. -1.
        1   -1    0    0  501    0  0.00000000000E+00  0.00000000000E+00 -0.25823096763E+04  0.25823096763E+04  0.50400001928E-02 0.  1.
    10030    2    1    2    0    0  0.00000000000E+00  0.00000000000E+00 -0.19076845969E+04  0.32569347558E+04  0.26397658006E+04 0.  0.
        5    1    3    3  502    0 -0.64119577875E+03 -0.80072215168E+03  0.70863534070E+02  0.10282663669E+04  0.46999998093E+01 0. -1.
       -5    1    3    3    0  502  0.64119577875E+03  0.80072215168E+03 -0.19785481310E+04  0.22286683888E+04  0.46999998093E+01 0.  1.
</event>
<event>
 5   0  0.1136881E-05  0.2608875E+04  0.7818609E-02  0.8365193E-01
        2   -1    0    0  501    0  0.00000000000E+00  0.00000000000E+00  0.26469587411E+04  0.26469587411E+04  0.25500000920E-02 0. -1.
       -2   -1    0    0    0  501  0.00000000000E+00  0.00000000000E+00 -0.64283482875E+03  0.64283482875E+03  0.25500000920E-02 0.  1.
    10030    2    1    2    0    0  0.00000000000E+00  0.00000000000E+00  0.20041239123E+04  0.32897935698E+04  0.26088750595E+04 0.  0.
        3    1    3    3  502    0 -0.44233898212E+03 -0.49064883331E+03 -0.41630176104E+03  0.78083751138E+03  0.10100000352E+00 0.  1.
       -3    1    3    3    0  502  0.44233898212E+03  0.49064883331E+03  0.24204256734E+04  0.25089560584E+04  0.10100000352E+00 0. -1.
</event>
<event>
 5   0  0.1136881E-05  0.2584815E+04  0.7818609E-02  0.8373377E-01
        2   -1    0    0  501    0  0.00000000000E+00  0.00000000000E+00  0.17323431441E+04  0.17323431441E+04  0.25500000920E-02 0. -1.
       -2   -1    0    0    0  501  0.00000000000E+00  0.00000000000E+00 -0.96419559582E+03  0.96419559582E+03  0.25500000920E-02 0.  1.
    10030    2    1    2    0    0  0.00000000000E+00  0.00000000000E+00  0.76814754825E+03  0.26965387399E+04  0.25848153744E+04 0.  0.
        3    1    3    3  502    0 -0.88403542424E+03 -0.11739188379E+03  0.13599296075E+04  0.16262558327E+04  0.10100000352E+00 0. -1.
       -3    1    3    3    0  502  0.88403542424E+03  0.11739188379E+03 -0.59178205925E+03  0.10702829072E+04  0.10100000352E+00 0.  1.
</event>
<event>
 5   0  0.1086507E-05  0.2601750E+04  0.7818609E-02  0.8367607E-01
       -2   -1    0    0    0  501  0.00000000000E+00  0.00000000000E+00  0.87059005373E+03  0.87059005374E+03  0.25500000920E-02 0.  1.
        2   -1    0    0  501    0  0.00000000000E+00  0.00000000000E+00 -0.19438261027E+04  0.19438261027E+04  0.25500000920E-02 0. -1.
    10030    2    1    2    0    0  0.00000000000E+00  0.00000000000E+00 -0.10732360489E+04  0.28144161564E+04  0.26017499274E+04 0.  0.
        2    1    3    3  502    0  0.25136348303E+02 -0.85074879419E+03  0.52760181585E+03  0.10013835543E+04  0.25500000920E-02 0.  1.
       -2    1    3    3    0  502 -0.25136348303E+02  0.85074879419E+03 -0.16008378648E+04  0.18130326021E+04  0.25500000920E-02 0. -1.
</event>
<event>
 5   0  0.4464297E-06  0.2591388E+04  0.7818609E-02  0.8371132E-01
       -1   -1    0    0    0  501  0.00000000000E+00  0.00000000000E+00  0.97550164159E+03  0.97550164161E+03  0.50400001928E-02 0. -1.
        1   -1    0    0  501    0  0.00000000000E+00  0.00000000000E+00 -0.17209837801E+04  0.17209837801E+04  0.50400001928E-02 0.  1.
    10030    2    1    2    0    0  0.00000000000E+00  0.00000000000E+00 -0.74548213853E+03  0.26964854217E+04  0.25913876612E+04 0.  0.
        4    1    3    3  502    0  0.10836839113E+04 -0.26241631632E+03 -0.10594987376E+04  0.15381067358E+04  0.12699999809E+01 0.  1.
       -4    1    3    3    0  502 -0.10836839113E+04  0.26241631632E+03  0.31401659905E+03  0.11583786860E+04  0.12699999809E+01 0. -1.
</event>
<event>
 5   0  0.1085061E-05  0.2602125E+04  0.7818609E-02  0.8367480E-01
       -2   -1    0    0    0  501  0.00000000000E+00  0.00000000000E+00  0.71565926356E+03  0.71565926356E+03  0.25500000920E-02 0.  1.
        2   -1    0    0  501    0  0.00000000000E+00  0.00000000000E+00 -0.23653206281E+04  0.23653206281E+04  0.25500000920E-02 0. -1.
    10030    2    1    2    0    0  0.00000000000E+00  0.00000000000E+00 -0.16496613645E+04  0.30809798916E+04  0.26021249922E+04 0.  0.
        1    1    3    3  502    0 -0.93034376395E+03  0.77227345708E+03 -0.25598382208E+03  0.12359100003E+04  0.50400001928E-02 0.  1.
       -1    1    3    3    0  502  0.93034376395E+03 -0.77227345708E+03 -0.13936775424E+04  0.18450698913E+04  0.50400001928E-02 0. -1.
</event>
<event>
 5   0  0.1086507E-05  0.2598417E+04  0.7818609E-02  0.8368739E-01
       -2   -1    0    0    0  501  0.00000000000E+00  0.00000000000E+00  0.10093807128E+04  0.10093807128E+04  0.25500000920E-02 0. -1.
        2   -1    0    0  501    0  0.00000000000E+00  0.00000000000E+00 -0.16722553197E+04  0.16722553197E+04  0.25500000920E-02 0.  1.
    10030    2    1    2    0    0  0.00000000000E+00  0.00000000000E+00 -0.66287460687E+03  0.26816360325E+04  0.25984166460E+04 0.  0.
        2    1    3    3  502    0  0.36013729467E+03 -0.11968177444E+04  0.34707888687E+02  0.12503104502E+04  0.25500000920E-02 0.  1.
       -2    1    3    3    0  502 -0.36013729467E+03  0.11968177444E+04 -0.69758249555E+03  0.14313255823E+04  0.25500000920E-02 0. -1.
</event>
<event>
 5   0  0.1085061E-05  0.2598211E+04  0.7818609E-02  0.8368809E-01
       -2   -1    0    0    0  501  0.00000000000E+00  0.00000000000E+00  0.16637962628E+04  0.16637962628E+04  0.25500000920E-02 0.  1.
        2   -1    0    0  501    0  0.00000000000E+00  0.00000000000E+00 -0.10143522128E+04  0.10143522128E+04  0.25500000920E-02 0. -1.
    10030    2    1    2    0    0  0.00000000000E+00  0.00000000000E+00  0.64944404995E+03  0.26781484756E+04  0.25982112469E+04 0.  0.
        1    1    3    3  502    0  0.11817075141E+04  0.46269227038E+03  0.38401514578E+02  0.12696422576E+04  0.50400001928E-02 0.  1.
       -1    1    3    3    0  502 -0.11817075141E+04 -0.46269227038E+03  0.61104253537E+03  0.14085062180E+04  0.50400001928E-02 0. -1.
</event>
<event>
 5   0  0.1136881E-05  0.2610757E+04  0.7818609E-02  0.8364556E-01
       -2   -1    0    0    0  501  0.00000000000E+00  0.00000000000E+00  0.11517392599E+04  0.11517392599E+04  0.25500000920E-02 0.  1.
        2   -1    0    0  501    0  0.00000000000E+00  0.00000000000E+00 -0.14795132767E+04  0.14795132767E+04  0.25500000920E-02 0. -1.
    10030    2    1    2    0    0  0.00000000000E+00  0.00000000000E+00 -0.32777401679E+03  0.26312525365E+04  0.26107573815E+04 0.  0.
        3    1    3    3  502    0  0.29024625187E+03 -0.79622841235E+03  0.83677734567E+03  0.11909739325E+04  0.10100000352E+00 0.  1.
       -3    1    3    3    0  502 -0.29024625187E+03  0.79622841235E+03 -0.11645513625E+04  0.14402786041E+04  0.10100000352E+00 0. -1.
</event>
<event>
 5   0  0.4415080E-06  0.2599370E+04  0.7818609E-02  0.8368415E-01
       -1   -1    0    0    0  501  0.00000000000E+00  0.00000000000E+00  0.12084224837E+04  0.12084224837E+04  0.50400001928E-02 0. -1.
        1   -1    0    0  501    0  0.00000000000E+00  0.00000000000E+00 -0.13978401428E+04  0.13978401428E+04  0.50400001928E-02 0.  1.
    10030    2    1    2    0    0  0.00000000000E+00  0.00000000000E+00 -0.18941765904E+03  0.26062626265E+04  0.25993702754E+04 0.  0.
        2    1    3    3  502    0  0.76925860751E+03 -0.69785267923E+03 -0.87807701787E+03  0.13600648574E+04  0.25500000920E-02 0.  1.
       -2    1    3    3    0  502 -0.76925860751E+03  0.69785267923E+03  0.68865935883E+03  0.12461977691E+04  0.25500000920E-02 0. -1.
</event>
<event>
 5   0  0.1085061E-05  0.2608653E+04  0.7818609E-02  0.8365268E-01
       -2   -1    0    0    0  501  0.00000000000E+00  0.00000000000E+00  0.13753841771E+04  0.13753841771E+04  0.25500000920E-02 0.  1.
        2   -1    0    0  501    0  0.00000000000E+00  0.00000000000E+00 -0.12369398490E+04  0.12369398490E+04  0.25500000920E-02 0. -1.
    10030    2    1    2    0    0  0.00000000000E+00  0.00000000000E+00  0.13844432808E+03  0.26123240261E+04  0.26086529063E+04 0.  0.
        1    1    3    3  502    0  0.21590020706E+03 -0.23837154572E+03  0.13350554801E+04  0.13732468927E+04  0.50400001928E-02 0.  1.
       -1    1    3    3    0  502 -0.21590020706E+03  0.23837154572E+03 -0.11966111521E+04  0.12390771334E+04  0.50400001928E-02 0. -1.
</event>
<event>
 5   0  0.1116310E-05  0.2600390E+04  0.7818609E-02  0.8368069E-01
       -2   -1    0    0    0  501  0.00000000000E+00  0.00000000000E+00  0.72872541678E+03  0.72872541678E+03  0.25500000920E-02 0.  1.
        2   -1    0    0  501    0  0.00000000000E+00  0.00000000000E+00 -0.23198141051E+04  0.23198141051E+04  0.25500000920E-02 0. -1.
    10030    2    1    2    0    0  0.00000000000E+00  0.00000000000E+00 -0.15910886884E+04  0.30485395219E+04  0.26003903558E+04 0.  0.
        4    1    3    3  502    0  0.80329121607E+03  0.40203936229E+03  0.30645041631E+03  0.94911848428E+03  0.12699999809E+01 0.  1.
       -4    1    3    3    0  502 -0.80329121607E+03 -0.40203936229E+03 -0.18975391047E+04  0.20994210376E+04  0.12699999809E+01 0. -1.
</event>
<event>
 5   0  0.4218590E-06  0.2297322E+04  0.7818609E-02  0.8478978E-01
       -1   -1    0    0    0  501  0.00000000000E+00  0.00000000000E+00  0.94413546710E+03  0.94413546711E+03  0.50400001928E-02 0.  1.
        1   -1    0    0  501    0  0.00000000000E+00  0.00000000000E+00 -0.13974928955E+04  0.13974928956E+04  0.50400001928E-02 0. -1.
    10030    2    1    2    0    0  0.00000000000E+00  0.00000000000E+00 -0.45335742844E+03  0.23416283627E+04  0.22973224482E+04 0.  0.
        1    1    3    3  502    0 -0.11019401777E+04  0.32421727043E+03 -0.22076914555E+03  0.11696700430E+04  0.50400001928E-02 0.  1.
       -1    1    3    3    0  502  0.11019401777E+04 -0.32421727043E+03 -0.23258828290E+03  0.11719583197E+04  0.50400001928E-02 0. -1.
</event>
<event>
 5   0  0.4415080E-06  0.2593183E+04  0.7818609E-02  0.8370521E-01
       -1   -1    0    0    0  501  0.00000000000E+00  0.00000000000E+00  0.59814492496E+03  0.59814492498E+03  0.50400001928E-02 0. -1.
        1   -1    0    0  501    0  0.00000000000E+00  0.00000000000E+00 -0.28106053837E+04  0.28106053838E+04  0.50400001928E-02 0.  1.
    10030    2    1    2    0    0  0.00000000000E+00  0.00000000000E+00 -0.22124604588E+04  0.34087503087E+04  0.25931828677E+04 0.  0.
        2    1    3    3  502    0 -0.58800058192E+03 -0.71345790750E+03  0.88727647032E+02  0.92878386370E+03  0.25500000920E-02 0. -1.
       -2    1    3    3    0  502  0.58800058192E+03  0.71345790750E+03 -0.23011881058E+04  0.24799664450E+04  0.25500000920E-02 0.  1.
</event>
<event>
 5   0  0.4597705E-06  0.2609007E+04  0.7818609E-02  0.8365148E-01
       -1   -1    0    0    0  501  0.00000000000E+00  0.00000000000E+00  0.11490539160E+04  0.11490539160E+04  0.50400001928E-02 0. -1.
        1   -1    0    0  501    0  0.00000000000E+00  0.00000000000E+00 -0.14809825741E+04  0.14809825741E+04  0.50400001928E-02 0.  1.
    10030    2    1    2    0    0  0.00000000000E+00  0.00000000000E+00 -0.33192865808E+03  0.26300364901E+04  0.26090065744E+04 0.  0.
        5    1    3    3  502    0 -0.68214757912E+03  0.10913838442E+04 -0.38042957782E+03  0.13420852316E+04  0.46999998093E+01 0. -1.
       -5    1    3    3    0  502  0.68214757912E+03 -0.10913838442E+04  0.48500919742E+02  0.12879512585E+04  0.46999998093E+01 0.  1.
</event>
<event>
 5   0  0.3705250E-06  0.2559961E+04  0.7818609E-02  0.8381930E-01
        3   -1    0    0  501    0  0.00000000000E+00  0.00000000000E+00  0.14863137720E+04  0.14863137754E+04  0.10100000352E+00 0. -1.
       -3   -1    0    0    0  501  0.00000000000E+00  0.00000000000E+00 -0.11022909466E+04  0.11022909512E+04  0.10100000352E+00 0.  1.
    10030    2    1    2    0    0  0.00000000000E+00  0.00000000000E+00  0.38402282542E+03  0.25886047266E+04  0.25599611130E+04 0.  0.
        5    1    3    3  502    0 -0.98890626283E+03  0.33354424477E+03  0.94134330643E+03  0.14054667091E+04  0.46999998093E+01 0. -1.
       -5    1    3    3    0  502  0.98890626283E+03 -0.33354424477E+03 -0.55732048101E+03  0.11831380175E+04  0.46999998093E+01 0.  1.
</event>
<event>
 5   0  0.4361864E-06  0.2589988E+04  0.7818609E-02  0.8371610E-01
       -1   -1    0    0    0  501  0.00000000000E+00  0.00000000000E+00  0.11197341815E+04  0.11197341815E+04  0.50400001928E-02 0.  1.
        1   -1    0    0  501    0  0.00000000000E+00  0.00000000000E+00 -0.14976853331E+04  0.14976853331E+04  0.50400001928E-02 0. -1.
    10030    2    1    2    0    0  0.00000000000E+00  0.00000000000E+00 -0.37795115164E+03  0.26174195146E+04  0.25899880004E+04 0.  0.
        3    1    3    3  502    0  0.50149726377E+03  0.64176479726E+03 -0.12064397924E+04  0.14556299473E+04  0.10100000352E+00 0. -1.
       -3    1    3    3    0  502 -0.50149726377E+03 -0.64176479726E+03  0.82848864076E+03  0.11617895673E+04  0.10100000352E+00 0.  1.
</event>
<event>
 5   0  0.1116310E-05  0.2587844E+04  0.7818609E-02  0.8372342E-01
       -2   -1    0    0    0  501  0.00000000000E+00  0.00000000000E+00  0.96482025487E+03  0.96482025487E+03  0.25500000920E-02 0.  1.
        2   -1    0    0  501    0  0.00000000000E+00  0.00000000000E+00 -0.17352815015E+04  0.17352815015E+04  0.25500000920E-02 0. -1.
    10030    2    1    2    0    0  0.00000000000E+00  0.00000000000E+00 -0.77046124660E+03  0.27001017563E+04  0.25878444625E+04 0.  0.
        4    1    3    3  502    0  0.11059259217E+04  0.11643970873E+03 -0.10754418133E+04  0.15469993719E+04  0.12699999809E+01 0. -1.
       -4    1    3    3    0  502 -0.11059259217E+04 -0.11643970873E+03  0.30498056673E+03  0.11531023844E+04  0.12699999809E+01 0.  1.
</event>
<event>
 5   0  0.4218590E-06  0.2591940E+04  0.7818609E-02  0.8370944E-01
        1   -1    0    0  501    0  0.00000000000E+00  0.00000000000E+00  0.15726727048E+04  0.15726727048E+04  0.50400001928E-02 0.  1.
       -1   -1    0    0    0  501  0.00000000000E+00  0.00000000000E+00 -0.10679512242E+04  0.10679512242E+04  0.50400001928E-02 0. -1.
    10030    2    1    2    0    0  0.00000000000E+00  0.00000000000E+00  0.50472148060E+03  0.26406239290E+04  0.25919396138E+04 0.  0.
        1    1    3    3  502    0 -0.22182256202E+03 -0.59682368875E+03 -0.89761644295E+03  0.11005085384E+04  0.50400001928E-02 0. -1.
       -1    1    3    3    0  502  0.22182256202E+03  0.59682368875E+03  0.14023379235E+04  0.15401153906E+04  0.50400001928E-02 0.  1.
</event>
<event>
 5   0  0.1085255E-05  0.2526931E+04  0.7818609E-02  0.8393454E-01
       -2   -1    0    0    0  501  0.00000000000E+00  0.00000000000E+00  0.13047872344E+04  0.13047872344E+04  0.25500000920E-02 0. -1.
        2   -1    0    0  501    0  0.00000000000E+00  0.00000000000E+00 -0.12234525555E+04  0.12234525555E+04  0.25500000920E-02 0.  1.
    10030    2    1    2    0    0  0.00000000000E+00  0.00000000000E+00  0.81334678863E+02  0.25282397899E+04  0.25269311635E+04 0.  0.
        5    1    3    3  502    0 -0.10080310828E+03 -0.66897236492E+03 -0.10269550362E+04  0.12297739744E+04  0.46999998093E+01 0.  1.
       -5    1    3    3    0  502  0.10080310828E+03  0.66897236492E+03  0.11082897151E+04  0.12984658156E+04  0.46999998093E+01 0. -1.
</event>
<event>
 5   0  0.1085255E-05  0.2600302E+04  0.7818609E-02  0.8368099E-01
       -2   -1    0    0    0  501  0.00000000000E+00  0.00000000000E+00  0.66274143891E+03  0.66274143892E+03  0.25500000920E-02 0.  1.
        2   -1    0    0  501    0  0.00000000000E+00  0.00000000000E+00 -0.25506069970E+04  0.25506069970E+04  0.25500000920E-02 0. -1.
    10030    2    1    2    0    0  0.00000000000E+00  0.00000000000E+00 -0.18878655581E+04  0.32133484359E+04  0.26003022527E+04 0.  0.
        5    1    3    3  502    0 -0.10344695278E+04 -0.76749274648E+03 -0.11622063400E+04  0.17349115212E+04  0.46999998093E+01 0. -1.
       -5    1    3    3    0  502  0.10344695278E+04  0.76749274648E+03 -0.72565921812E+03  0.14784369147E+04  0.46999998093E+01 0.  1.
</event>
<event>
 5   0  0.1085255E-05  0.2602460E+04  0.7818609E-02  0.8367366E-01
       -2   -1    0    0    0  501  0.00000000000E+00  0.00000000000E+00  0.86765511543E+03  0.86765511543E+03  0.25500000920E-02 0.  1.
        2   -1    0    0  501    0  0.00000000000E+00  0.00000000000E+00 -0.19514655975E+04  0.19514655975E+04  0.25500000920E-02 0. -1.
    10030    2    1    2    0    0  0.00000000000E+00  0.00000000000E+00 -0.10838104821E+04  0.28191207130E+04  0.26024596891E+04 0.  0.
        5    1    3    3  502    0 -0.64238831278E+03  0.11164445382E+04 -0.74184049807E+03  0.14864254323E+04  0.46999998093E+01 0.  1.
       -5    1    3    3    0  502  0.64238831278E+03 -0.11164445382E+04 -0.34196998403E+03  0.13326952807E+04  0.46999998093E+01 0. -1.
</event>
<event>
 5   0  0.1086507E-05  0.2600607E+04  0.7818609E-02  0.8367995E-01
       -2   -1    0    0    0  501  0.00000000000E+00  0.00000000000E+00  0.72842798355E+03  0.72842798356E+03  0.25500000920E-02 0.  1.
        2   -1    0    0  501    0  0.00000000000E+00  0.00000000000E+00 -0.23211474230E+04  0.23211474230E+04  0.25500000920E-02 0. -1.
    10030    2    1    2    0    0  0.00000000000E+00  0.00000000000E+00 -0.15927194394E+04  0.30495754065E+04  0.26006066499E+04 0.  0.
        2    1    3    3  502    0 -0.70331853226E+03 -0.10584417220E+04 -0.47344076313E+03  0.13561349464E+04  0.25500000920E-02 0.  1.
       -2    1    3    3    0  502  0.70331853226E+03  0.10584417220E+04 -0.11192786763E+04  0.16934404601E+04  0.25500000920E-02 0. -1.
</event>
<event>
 5   0  0.4464297E-06  0.2558713E+04  0.7818609E-02  0.8382362E-01
        1   -1    0    0  501    0  0.00000000000E+00  0.00000000000E+00  0.20193840762E+04  0.20193840762E+04  0.50400001928E-02 0.  1.
       -1   -1    0    0    0  501  0.00000000000E+00  0.00000000000E+00 -0.81052083300E+03  0.81052083301E+03  0.50400001928E-02 0. -1.
    10030    2    1    2    0    0  0.00000000000E+00  0.00000000000E+00  0.12088632432E+04  0.28299049092E+04  0.25587128511E+04 0.  0.
        4    1    3    3  502    0 -0.26432858837E+03 -0.10919734408E+04 -0.72371082729E+02  0.11258395910E+04  0.12699999809E+01 0.  1.
       -4    1    3    3    0  502  0.26432858837E+03  0.10919734408E+04  0.12812343259E+04  0.17040653183E+04  0.12699999809E+01 0. -1.
</event>
<event>
 5   0  0.1085061E-05  0.2564952E+04  0.7818609E-02  0.8380205E-01
        2   -1    0    0  501    0  0.00000000000E+00  0.00000000000E+00  0.76226875118E+03  0.76226875118E+03  0.25500000920E-02 0. -1.
       -2   -1    0    0    0  501  0.00000000000E+00  0.00000000000E+00 -0.21576962358E+04  0.21576962358E+04  0.25500000920E-02 0.  1.
    10030    2    1    2    0    0  0.00000000000E+00  0.00000000000E+00 -0.13954274846E+04  0.29199649870E+04  0.25649517852E+04 0.  0.
        1    1    3    3  502    0 -0.83948217324E+03 -0.50570862184E+03  0.24398741414E+03  0.10099511808E+04  0.50400001928E-02 0. -1.
       -1    1    3    3    0  502  0.83948217324E+03  0.50570862184E+03 -0.16394148988E+04  0.19100138062E+04  0.50400001928E-02 0.  1.
</event>
<event>
 5   0  0.1085255E-05  0.2584411E+04  0.7818609E-02  0.8373516E-01
        2   -1    0    0  501    0  0.00000000000E+00  0.00000000000E+00  0.10476628606E+04  0.10476628606E+04  0.25500000920E-02 0. -1.
       -2   -1    0    0    0  501  0.00000000000E+00  0.00000000000E+00 -0.15938287682E+04  0.15938287682E+04  0.25500000920E-02 0.  1.
    10030    2    1    2    0    0  0.00000000000E+00  0.00000000000E+00 -0.54616590759E+03  0.26414916289E+04  0.25844111180E+04 0.  0.
        5    1    3    3  502    0 -0.13537717579E+02 -0.86361006733E+03 -0.12554391235E+04  0.15238619035E+04  0.46999998093E+01 0.  1.
       -5    1    3    3    0  502  0.13537717579E+02  0.86361006733E+03  0.70927321590E+03  0.11176297253E+04  0.46999998093E+01 0. -1.
</event>
<event>
 5   0  0.1116310E-05  0.2604524E+04  0.7818609E-02  0.8366666E-01
       -2   -1    0    0    0  501  0.00000000000E+00  0.00000000000E+00  0.14080646411E+04  0.14080646411E+04  0.25500000920E-02 0. -1.
        2   -1    0    0  501    0  0.00000000000E+00  0.00000000000E+00 -0.12044096009E+04  0.12044096009E+04  0.25500000920E-02 0.  1.
    10030    2    1    2    0    0  0.00000000000E+00  0.00000000000E+00  0.20365504023E+03  0.26124742420E+04  0.26045241964E+04 0.  0.
        4    1    3    3  502    0 -0.90190331853E+03 -0.55557391955E+03  0.86163092833E+03  0.13654674825E+04  0.12699999809E+01 0. -1.
       -4    1    3    3    0  502  0.90190331853E+03  0.55557391955E+03 -0.65797588810E+03  0.12470067595E+04  0.12699999809E+01 0.  1.
</event>
<event>
 5   0  0.1085255E-05  0.2549058E+04  0.7818609E-02  0.8385714E-01
        2   -1    0    0  501    0  0.00000000000E+00  0.00000000000E+00  0.15823856054E+04  0.15823856054E+04  0.25500000920E-02 0. -1.
       -2   -1    0    0    0  501  0.00000000000E+00  0.00000000000E+00 -0.10265668621E+04  0.10265668621E+04  0.25500000920E-02 0.  1.
    10030    2    1    2    0    0  0.00000000000E+00  0.00000000000E+00  0.55581874328E+03  0.26089524675E+04  0.25490583560E+04 0.  0.
        5    1    3    3  502    0  0.49527606011E+03  0.23412346263E+03  0.14557268596E+04  0.15554018616E+04  0.46999998093E+01 0. -1.
       -5    1    3    3    0  502 -0.49527606011E+03 -0.23412346263E+03 -0.89990811627E+03  0.10535506059E+04  0.46999998093E+01 0.  1.
</event>
<event>
 5   0  0.1085255E-05  0.2643438E+04  0.7818609E-02  0.8353594E-01
        2   -1    0    0  501    0  0.00000000000E+00  0.00000000000E+00  0.22765947615E+04  0.22765947615E+04  0.25500000920E-02 0. -1.
       -2   -1    0    0    0  501  0.00000000000E+00  0.00000000000E+00 -0.76734816391E+03  0.76734816391E+03  0.25500000920E-02 0.  1.
    10030    2    1    2    0    0  0.00000000000E+00  0.00000000000E+00  0.15092465976E+04  0.30439429254E+04  0.26434377694E+04 0.  0.
        5    1    3    3  502    0 -0.43089902929E+02  0.43959337836E+03  0.21890819580E+04  0.22332041973E+04  0.46999998093E+01 0. -1.
       -5    1    3    3    0  502  0.43089902929E+02 -0.43959337836E+03 -0.67983536039E+03  0.81073872812E+03  0.46999998093E+01 0.  1.
</event>
<event>
 5   0  0.4464297E-06  0.2603983E+04  0.7818609E-02  0.8366849E-01
        1   -1    0    0  501    0  0.00000000000E+00  0.00000000000E+00  0.10527585229E+04  0.10527585230E+04  0.50400001928E-02 0. -1.
       -1   -1    0    0    0  501  0.00000000000E+00  0.00000000000E+00 -0.16102289629E+04  0.16102289629E+04  0.50400001928E-02 0.  1.
    10030    2    1    2    0    0  0.00000000000E+00  0.00000000000E+00 -0.55747043999E+03  0.26629874859E+04  0.26039833061E+04 0.  0.
        4    1    3    3  502    0 -0.29800375859E+03 -0.12593283232E+04 -0.13243208469E+03  0.13008666095E+04  0.12699999809E+01 0. -1.
       -4    1    3    3    0  502  0.29800375859E+03  0.12593283232E+04 -0.42503835530E+03  0.13621208764E+04  0.12699999809E+01 0.  1.
</event>
<event>
 5   0  0.4361864E-06  0.2599523E+04  0.7818609E-02  0.8368363E-01
        1   -1    0    0  501    0  0.00000000000E+00  0.00000000000E+00  0.21465427015E+04  0.21465427015E+04  0.50400001928E-02 0. -1.
       -1   -1    0    0    0  501  0.00000000000E+00  0.00000000000E+00 -0.78702362053E+03  0.78702362055E+03  0.50400001928E-02 0.  1.
    10030    2    1    2    0    0  0.00000000000E+00  0.00000000000E+00  0.13595190809E+04  0.29335663220E+04  0.25995228859E+04 0.  0.
        3    1    3    3  502    0 -0.53731118858E+02 -0.10729433492E+04 -0.14588846945E+03  0.10841484767E+04  0.10100000352E+00 0.  1.
       -3    1    3    3    0  502  0.53731118858E+02  0.10729433492E+04  0.15054075504E+04  0.18494178453E+04  0.10100000352E+00 0. -1.
</event>
<event>
 5   0  0.4597705E-06  0.2598280E+04  0.7818609E-02  0.8368786E-01
        1   -1    0    0  501    0  0.00000000000E+00  0.00000000000E+00  0.14643107167E+04  0.14643107167E+04  0.50400001928E-02 0. -1.
       -1   -1    0    0    0  501  0.00000000000E+00  0.00000000000E+00 -0.11526003380E+04  0.11526003380E+04  0.50400001928E-02 0.  1.
    10030    2    1    2    0    0  0.00000000000E+00  0.00000000000E+00  0.31171037871E+03  0.26169110547E+04  0.25982802212E+04 0.  0.
        5    1    3    3  502    0 -0.96491142077E+03 -0.34957945285E+03  0.95811124045E+03  0.14040153428E+04  0.46999998093E+01 0. -1.
       -5    1    3    3    0  502  0.96491142077E+03  0.34957945285E+03 -0.64640086174E+03  0.12128957119E+04  0.46999998093E+01 0.  1.
</event>
<event>
 5   0  0.1085061E-05  0.2612087E+04  0.7818609E-02  0.8364107E-01
       -2   -1    0    0    0  501  0.00000000000E+00  0.00000000000E+00  0.97231233662E+03  0.97231233663E+03  0.25500000920E-02 0. -1.
        2   -1    0    0  501    0  0.00000000000E+00  0.00000000000E+00 -0.17543228660E+04  0.17543228660E+04  0.25500000920E-02 0.  1.
    10030    2    1    2    0    0  0.00000000000E+00  0.00000000000E+00 -0.78201052938E+03  0.27266352026E+04  0.26120871081E+04 0.  0.
        1    1    3    3  502    0 -0.12026674893E+04 -0.50070798840E+03 -0.29402133712E+03  0.13355022000E+04  0.50400001928E-02 0.  1.
       -1    1    3    3    0  502  0.12026674893E+04  0.50070798840E+03 -0.48798919227E+03  0.13911330027E+04  0.50400001928E-02 0. -1.
</event>
<event>
 5   0  0.1085255E-05  0.2608675E+04  0.7818609E-02  0.8365261E-01
       -2   -1    0    0    0  501  0.00000000000E+00  0.00000000000E+00  0.17189481822E+04  0.17189481822E+04  0.25500000920E-02 0.  1.
        2   -1    0    0  501    0  0.00000000000E+00  0.00000000000E+00 -0.98973064062E+03  0.98973064062E+03  0.25500000920E-02 0. -1.
    10030    2    1    2    0    0  0.00000000000E+00  0.00000000000E+00  0.72921754154E+03  0.27086788228E+04  0.26086745182E+04 0.  0.
        5    1    3    3  502    0  0.28037339651E+03  0.79265439851E+03  0.14000135675E+04  0.16330861325E+04  0.46999998093E+01 0.  1.
       -5    1    3    3    0  502 -0.28037339651E+03 -0.79265439851E+03 -0.67079602597E+03  0.10755926903E+04  0.46999998093E+01 0. -1.
</event>
<event>
 5   0  0.4597705E-06  0.2595696E+04  0.7818609E-02  0.8369665E-01
       -1   -1    0    0    0  501  0.00000000000E+00  0.00000000000E+00  0.18742921760E+04  0.18742921760E+04  0.50400001928E-02 0.  1.
        1   -1    0    0  501    0  0.00000000000E+00  0.00000000000E+00 -0.89869075414E+03  0.89869075415E+03  0.50400001928E-02 0. -1.
    10030    2    1    2    0    0  0.00000000000E+00  0.00000000000E+00  0.97560142188E+03  0.27729829302E+04  0.25956957057E+04 0.  0.
        5    1    3    3  502    0  0.69054295620E+02  0.51388359595E+03  0.17588278237E+04  0.18336690676E+04  0.46999998093E+01 0.  1.
       -5    1    3    3    0  502 -0.69054295620E+02 -0.51388359595E+03 -0.78322640183E+03  0.93931386259E+03  0.46999998093E+01 0. -1.
</event>
<event>
 5   0  0.4218590E-06  0.2613340E+04  0.7818609E-02  0.8363684E-01
       -1   -1    0    0    0  501  0.00000000000E+00  0.00000000000E+00  0.11461965689E+04  0.11461965689E+04  0.50400001928E-02 0. -1.
        1   -1    0    0  501    0  0.00000000000E+00  0.00000000000E+00 -0.14896110332E+04  0.14896110333E+04  0.50400001928E-02 0.  1.
    10030    2    1    2    0    0  0.00000000000E+00  0.00000000000E+00 -0.34341446434E+03  0.26358076022E+04  0.26133404335E+04 0.  0.
        1    1    3    3  502    0 -0.81091990792E+03 -0.40623436071E+03  0.77700131885E+03  0.11942983306E+04  0.50400001928E-02 0. -1.
       -1    1    3    3    0  502  0.81091990792E+03  0.40623436071E+03 -0.11204157832E+04  0.14415092716E+04  0.50400001928E-02 0.  1.
</event>
<event>
 5   0  0.1116310E-05  0.2603473E+04  0.7818609E-02  0.8367023E-01
        2   -1    0    0  501    0  0.00000000000E+00  0.00000000000E+00  0.17245599575E+04  0.17245599575E+04  0.25500000920E-02 0.  1.
       -2   -1    0    0    0  501  0.00000000000E+00  0.00000000000E+00 -0.98257979345E+03  0.98257979346E+03  0.25500000920E-02 0. -1.
    10030    2    1    2    0    0  0.00000000000E+00  0.00000000000E+00  0.74198016409E+03  0.27071397510E+04  0.26034728859E+04 0.  0.
        4    1    3    3  502    0  0.42525794535E+03 -0.54511336305E+03 -0.77588950956E+03  0.10392300239E+04  0.12699999809E+01 0. -1.
       -4    1    3    3    0  502 -0.42525794535E+03  0.54511336305E+03  0.15178696736E+04  0.16679097271E+04  0.12699999809E+01 0.  1.
</event>
<event>
 5   0  0.4218590E-06  0.2586977E+04  0.7818609E-02  0.8372638E-01
       -1   -1    0    0    0  501  0.00000000000E+00  0.00000000000E+00  0.16681905960E+04  0.16681905960E+04  0.50400001928E-02 0.  1.
        1   -1    0    0  501    0  0.00000000000E+00  0.00000000000E+00 -0.10029500766E+04  0.10029500766E+04  0.50400001928E-02 0. -1.
    10030    2    1    2    0    0  0.00000000000E+00  0.00000000000E+00  0.66524051942E+03  0.26711406726E+04  0.25869765256E+04 0.  0.
        1    1    3    3  502    0  0.55090644380E+03  0.21455724012E+03 -0.85527796614E+03  0.10397274251E+04  0.50400001928E-02 0. -1.
       -1    1    3    3    0  502 -0.55090644380E+03 -0.21455724012E+03  0.15205184856E+04  0.16314132475E+04  0.50400001928E-02 0.  1.
</event>
<event>
 5   0  0.1116310E-05  0.2602806E+04  0.7818609E-02  0.8367249E-01
       -2   -1    0    0    0  501  0.00000000000E+00  0.00000000000E+00  0.60806782629E+03  0.60806782629E+03  0.25500000920E-02 0. -1.
        2   -1    0    0  501    0  0.00000000000E+00  0.00000000000E+00 -0.27852982786E+04  0.27852982786E+04  0.25500000920E-02 0.  1.
    10030    2    1    2    0    0  0.00000000000E+00  0.00000000000E+00 -0.21772304523E+04  0.33933661049E+04  0.26028063853E+04 0.  0.
        4    1    3    3  502    0 -0.11535704049E+04 -0.51151364627E+02 -0.30604104636E+03  0.11945726751E+04  0.12699999809E+01 0. -1.
       -4    1    3    3    0  502  0.11535704049E+04  0.51151364627E+02 -0.18711894060E+04  0.21987934298E+04  0.12699999809E+01 0.  1.
</event>
<event>
 5   0  0.1085061E-05  0.2596060E+04  0.7818609E-02  0.8369541E-01
        2   -1    0    0  501    0  0.00000000000E+00  0.00000000000E+00  0.10079176279E+04  0.10079176279E+04  0.25500000920E-02 0. -1.
       -2   -1    0    0    0  501  0.00000000000E+00  0.00000000000E+00 -0.16716462518E+04  0.16716462518E+04  0.25500000920E-02 0.  1.
    10030    2    1    2    0    0  0.00000000000E+00  0.00000000000E+00 -0.66372862391E+03  0.26795638797E+04  0.25960598797E+04 0.  0.
        1    1    3    3  502    0  0.58373732491E+03  0.10631273647E+04  0.14549715218E+03  0.12215393892E+04  0.50400001928E-02 0. -1.
       -1    1    3    3    0  502 -0.58373732491E+03 -0.10631273647E+04 -0.80922577609E+03  0.14580244905E+04  0.50400001928E-02 0.  1.
</event>
<event>
 5   0  0.4415080E-06  0.2620172E+04  0.7818609E-02  0.8361381E-01
       -1   -1    0    0    0  501  0.00000000000E+00  0.00000000000E+00  0.75630171507E+03  0.75630171509E+03  0.50400001928E-02 0. -1.
        1   -1    0    0  501    0  0.00000000000E+00  0.00000000000E+00 -0.22693653088E+04  0.22693653088E+04  0.50400001928E-02 0.  1.
    10030    2    1    2    0    0  0.00000000000E+00  0.00000000000E+00 -0.15130635937E+04  0.30256670239E+04  0.26201716548E+04 0.  0.
        2    1    3    3  502    0 -0.27883772370E+03  0.77940807804E+03  0.41604485853E+03  0.92645601762E+03  0.25500000920E-02 0. -1.
       -2    1    3    3    0  502  0.27883772370E+03 -0.77940807804E+03 -0.19291084522E+04  0.20992110063E+04  0.25500000920E-02 0.  1.
</event>
<event>
 5   0  0.4218590E-06  0.2599264E+04  0.7818609E-02  0.8368451E-01
       -1   -1    0    0    0  501  0.00000000000E+00  0.00000000000E+00  0.12996398894E+04  0.12996398894E+04  0.50400001928E-02 0. -1.
        1   -1    0    0  501    0  0.00000000000E+00  0.00000000000E+00 -0.12996238834E+04  0.12996238834E+04  0.50400001928E-02 0.  1.
    10030    2    1    2    0    0  0.00000000000E+00  0.00000000000E+00  0.16005958822E-01  0.25992637728E+04  0.25992637728E+04 0.  0.
        1    1    3    3  502    0 -0.95384390435E+03 -0.88238745350E+03  0.24852079553E+02  0.12996320394E+04  0.50400001928E-02 0.  1.
       -1    1    3    3    0  502  0.95384390435E+03  0.88238745350E+03 -0.24836073594E+02  0.12996317334E+04  0.50400001928E-02 0. -1.
</event>
<event>
 5   0  0.3705250E-06  0.2602500E+04  0.7818609E-02  0.8367352E-01
       -3   -1    0    0    0  501  0.00000000000E+00  0.00000000000E+00  0.12840100327E+04  0.12840100367E+04  0.10100000352E+00 0.  1.
        3   -1    0    0  501    0  0.00000000000E+00  0.00000000000E+00 -0.13187215247E+04  0.13187215285E+04  0.10100000352E+00 0. -1.
    10030    2    1    2    0    0  0.00000000000E+00  0.00000000000E+00 -0.34711491952E+02  0.26027315652E+04  0.26025000890E+04 0.  0.
        1    1    3    3  502    0  0.33996752143E+03 -0.97879122023E+02  0.12349910099E+04  0.12846637820E+04  0.50400001928E-02 0.  1.
       -1    1    3    3    0  502 -0.33996752143E+03  0.97879122023E+02 -0.12697025018E+04  0.13180677833E+04  0.50400001928E-02 0. -1.
</event>
<event>
 5   0  0.1116310E-05  0.2461898E+04  0.7818609E-02  0.8416687E-01
       -2   -1    0    0    0  501  0.00000000000E+00  0.00000000000E+00  0.74249615995E+03  0.74249615996E+03  0.25500000920E-02 0.  1.
        2   -1    0    0  501    0  0.00000000000E+00  0.00000000000E+00 -0.20407317642E+04  0.20407317642E+04  0.25500000920E-02 0. -1.
    10030    2    1    2    0    0  0.00000000000E+00  0.00000000000E+00 -0.12982356043E+04  0.27832279242E+04  0.24618980470E+04 0.  0.
        4    1    3    3  502    0 -0.11580249152E+04 -0.30202567396E+03 -0.32343217945E+03  0.12396980275E+04  0.12699999809E+01 0. -1.
       -4    1    3    3    0  502  0.11580249152E+04  0.30202567396E+03 -0.97480342482E+03  0.15435298966E+04  0.12699999809E+01 0.  1.
</event>
<event>
 5   0  0.4464297E-06  0.2628425E+04  0.7818609E-02  0.8358609E-01
       -1   -1    0    0    0  501  0.00000000000E+00  0.00000000000E+00  0.14108602660E+04  0.14108602660E+04  0.50400001928E-02 0. -1.
        1   -1    0    0  501    0  0.00000000000E+00  0.00000000000E+00 -0.12241854042E+04  0.12241854042E+04  0.50400001928E-02 0.  1.
    10030    2    1    2    0    0  0.00000000000E+00  0.00000000000E+00  0.18667486179E+03  0.26350456702E+04  0.26284250379E+04 0.  0.
        4    1    3    3  502    0 -0.56040854648E+02 -0.41167098494E+03  0.13432896496E+04  0.14060733526E+04  0.12699999809E+01 0. -1.
       -4    1    3    3    0  502  0.56040854648E+02  0.41167098494E+03 -0.11566147878E+04  0.12289723176E+04  0.12699999809E+01 0.  1.
</event>
<event>
 5   0  0.1116310E-05  0.2620528E+04  0.7818609E-02  0.8361261E-01
       -2   -1    0    0    0  501  0.00000000000E+00  0.00000000000E+00  0.77686605521E+03  0.77686605521E+03  0.25500000920E-02 0. -1.
        2   -1    0    0  501    0  0.00000000000E+00  0.00000000000E+00 -0.22098949097E+04  0.22098949097E+04  0.25500000920E-02 0.  1.
    10030    2    1    2    0    0  0.00000000000E+00  0.00000000000E+00 -0.14330288545E+04  0.29867609649E+04  0.26205284512E+04 0.  0.
        4    1    3    3  502    0 -0.25551597791E+03  0.84563571717E+03 -0.18194315537E+04  0.20225530828E+04  0.12699999809E+01 0.  1.
       -4    1    3    3    0  502  0.25551597791E+03 -0.84563571717E+03  0.38640269921E+03  0.96420788214E+03  0.12699999809E+01 0. -1.
</event>
<event>
 5   0  0.4415080E-06  0.2606316E+04  0.7818609E-02  0.8366059E-01
       -1   -1    0    0    0  501  0.00000000000E+00  0.00000000000E+00  0.12803431967E+04  0.12803431967E+04  0.50400001928E-02 0. -1.
        1   -1    0    0  501    0  0.00000000000E+00  0.00000000000E+00 -0.13263788671E+04  0.13263788672E+04  0.50400001928E-02 0.  1.
    10030    2    1    2    0    0  0.00000000000E+00  0.00000000000E+00 -0.46035670471E+02  0.26067220638E+04  0.26063155287E+04 0.  0.
        2    1    3    3  502    0 -0.72393116547E+03  0.36037921319E+03  0.99903717643E+03  0.12853111645E+04  0.25500000920E-02 0. -1.
       -2    1    3    3    0  502  0.72393116547E+03 -0.36037921319E+03 -0.10450728469E+04  0.13214108994E+04  0.25500000920E-02 0.  1.
</event>
<event>
 5   0  0.1085061E-05  0.2638659E+04  0.7818609E-02  0.8355187E-01
        2   -1    0    0  501    0  0.00000000000E+00  0.00000000000E+00  0.14263669012E+04  0.14263669012E+04  0.25500000920E-02 0. -1.
       -2   -1    0    0    0  501  0.00000000000E+00  0.00000000000E+00 -0.12203244617E+04  0.12203244617E+04  0.25500000920E-02 0.  1.
    10030    2    1    2    0    0  0.00000000000E+00  0.00000000000E+00  0.20604243950E+03  0.26466913628E+04  0.26386590692E+04 0.  0.
        1    1    3    3  502    0 -0.78200278684E+03  0.84069016582E+03 -0.54883559626E+03  0.12725992399E+04  0.50400001928E-02 0. -1.
       -1    1    3    3    0  502  0.78200278684E+03 -0.84069016582E+03  0.75487803576E+03  0.13740921230E+04  0.50400001928E-02 0.  1.
</event>
<event>
 5   0  0.4361864E-06  0.2579155E+04  0.7818609E-02  0.8375317E-01
       -1   -1    0    0    0  501  0.00000000000E+00  0.00000000000E+00  0.98071072291E+03  0.98071072292E+03  0.50400001928E-02 0.  1.
        1   -1    0    0  501    0  0.00000000000E+00  0.00000000000E+00 -0.16957187757E+04  0.16957187757E+04  0.50400001928E-02 0. -1.
    10030    2    1    2    0    0  0.00000000000E+00  0.00000000000E+00 -0.71500805277E+03  0.26764294986E+04  0.25791545796E+04 0.  0.
        3    1    3    3  502    0 -0.22875051773E+03  0.43808503919E+03 -0.15935469654E+04  0.16684235799E+04  0.10100000352E+00 0. -1.
       -3    1    3    3    0  502  0.22875051773E+03 -0.43808503919E+03  0.87853891262E+03  0.10080059187E+04  0.10100000352E+00 0.  1.
</event>
<event>
 5   0  0.4218590E-06  0.2596733E+04  0.7818609E-02  0.8369312E-01
        1   -1    0    0  501    0  0.00000000000E+00  0.00000000000E+00  0.13918455499E+04  0.13918455499E+04  0.50400001928E-02 0.  1.
       -1   -1    0    0    0  501  0.00000000000E+00  0.00000000000E+00 -0.12111655898E+04  0.12111655898E+04  0.50400001928E-02 0. -1.
    10030    2    1    2    0    0  0.00000000000E+00  0.00000000000E+00  0.18067996011E+03  0.26030111397E+04  0.25967328983E+04 0.  0.
        1    1    3    3  502    0 -0.95984137935E+03  0.11073115657E+03  0.95973069852E+03  0.13618516352E+04  0.50400001928E-02 0. -1.
       -1    1    3    3    0  502  0.95984137935E+03 -0.11073115657E+03 -0.77905073841E+03  0.12411595045E+04  0.50400001928E-02 0.  1.
</event>
<event>
 5   0  0.4361864E-06  0.2567613E+04  0.7818609E-02  0.8379286E-01
        1   -1    0    0  501    0  0.00000000000E+00  0.00000000000E+00  0.23049727749E+04  0.23049727749E+04  0.50400001928E-02 0. -1.
       -1   -1    0    0    0  501  0.00000000000E+00  0.00000000000E+00 -0.71504497408E+03  0.71504497410E+03  0.50400001928E-02 0.  1.
    10030    2    1    2    0    0  0.00000000000E+00  0.00000000000E+00  0.15899278008E+04  0.30200177490E+04  0.25676130535E+04 0.  0.
        3    1    3    3  502    0 -0.77562242805E+03 -0.74348136779E+03 -0.31563848968E+02  0.10748725422E+04  0.10100000352E+00 0.  1.
       -3    1    3    3    0  502  0.77562242805E+03  0.74348136779E+03  0.16214916498E+04  0.19451452069E+04  0.10100000352E+00 0. -1.
</event>
<event>
 5   0  0.1136881E-05  0.2607932E+04  0.7818609E-02  0.8365512E-01
        2   -1    0    0  501    0  0.00000000000E+00  0.00000000000E+00  0.18349946518E+04  0.18349946518E+04  0.25500000920E-02 0. -1.
       -2   -1    0    0    0  501  0.00000000000E+00  0.00000000000E+00 -0.92661145877E+03  0.92661145877E+03  0.25500000920E-02 0.  1.
    10030    2    1    2    0    0  0.00000000000E+00  0.00000000000E+00  0.90838319303E+03  0.27616061106E+04  0.26079318021E+04 0.  0.
        3    1    3    3  502    0 -0.73214173862E+03 -0.10500760331E+04  0.71708654162E+03  0.14672778602E+04  0.10100000352E+00 0. -1.
       -3    1    3    3    0  502  0.73214173862E+03  0.10500760331E+04  0.19129665141E+03  0.12943282504E+04  0.10100000352E+00 0.  1.
</event>
<event>
 5   0  0.1086507E-05  0.2593045E+04  0.7818609E-02  0.8370568E-01
        2   -1    0    0  501    0  0.00000000000E+00  0.00000000000E+00  0.11678373923E+04  0.11678373923E+04  0.25500000920E-02 0. -1.
       -2   -1    0    0    0  501  0.00000000000E+00  0.00000000000E+00 -0.14393870588E+04  0.14393870588E+04  0.25500000920E-02 0.  1.
    10030    2    1    2    0    0  0.00000000000E+00  0.00000000000E+00 -0.27154966647E+03  0.26072244511E+04  0.25930445652E+04 0.  0.
        2    1    3    3  502    0 -0.74961982371E+03 -0.83623395944E+03  0.51565148368E+03  0.12357643657E+04  0.25500000920E-02 0. -1.
       -2    1    3    3    0  502  0.74961982371E+03  0.83623395944E+03 -0.78720115015E+03  0.13714600854E+04  0.25500000920E-02 0.  1.
</event>
<event>
 5   0  0.4464297E-06  0.2635095E+04  0.7818609E-02  0.8356377E-01
       -1   -1    0    0    0  501  0.00000000000E+00  0.00000000000E+00  0.73841156985E+03  0.73841156987E+03  0.50400001928E-02 0. -1.
        1   -1    0    0  501    0  0.00000000000E+00  0.00000000000E+00 -0.23508989084E+04  0.23508989084E+04  0.50400001928E-02 0.  1.
    10030    2    1    2    0    0  0.00000000000E+00  0.00000000000E+00 -0.16124873386E+04  0.30893104783E+04  0.26350946500E+04 0.  0.
        4    1    3    3  502    0  0.84366564649E+03 -0.21360418001E+03 -0.19659622200E+04  0.21499784957E+04  0.12699999809E+01 0.  1.
       -4    1    3    3    0  502 -0.84366564649E+03  0.21360418001E+03  0.35347488142E+03  0.93933198257E+03  0.12699999809E+01 0. -1.
</event>
<event>
 5   0  0.1085061E-05  0.2692741E+04  0.7818609E-02  0.8337364E-01
       -2   -1    0    0    0  501  0.00000000000E+00  0.00000000000E+00  0.11998167148E+04  0.11998167148E+04  0.25500000920E-02 0.  1.
        2   -1    0    0  501    0  0.00000000000E+00  0.00000000000E+00 -0.15108255545E+04  0.15108255545E+04  0.25500000920E-02 0. -1.
    10030    2    1    2    0    0  0.00000000000E+00  0.00000000000E+00 -0.31100883977E+03  0.27106422693E+04  0.26927411709E+04 0.  0.
        1    1    3    3  502    0 -0.22309046626E+03 -0.17734706132E+03 -0.14801140031E+04  0.15073018273E+04  0.50400001928E-02 0. -1.
       -1    1    3    3    0  502  0.22309046626E+03  0.17734706132E+03  0.11691051634E+04  0.12033404420E+04  0.50400001928E-02 0.  1.
</event>
<event>
 5   0  0.1085255E-05  0.2541809E+04  0.7818609E-02  0.8388240E-01
        2   -1    0    0  501    0  0.00000000000E+00  0.00000000000E+00  0.14223787404E+04  0.14223787404E+04  0.25500000920E-02 0. -1.
       -2   -1    0    0    0  501  0.00000000000E+00  0.00000000000E+00 -0.11355613733E+04  0.11355613733E+04  0.25500000920E-02 0.  1.
    10030    2    1    2    0    0  0.00000000000E+00  0.00000000000E+00  0.28681736709E+03  0.25579401137E+04  0.25418090847E+04 0.  0.
        5    1    3    3  502    0  0.38891441552E+03 -0.82226573653E+03 -0.74980564620E+03  0.11788154907E+04  0.46999998093E+01 0.  1.
       -5    1    3    3    0  502 -0.38891441552E+03  0.82226573653E+03  0.10366230133E+04  0.13791246230E+04  0.46999998093E+01 0. -1.
</event>
<event>
 5   0  0.4464297E-06  0.2639375E+04  0.7818609E-02  0.8354948E-01
       -1   -1    0    0    0  501  0.00000000000E+00  0.00000000000E+00  0.12571939361E+04  0.12571939361E+04  0.50400001928E-02 0.  1.
        1   -1    0    0  501    0  0.00000000000E+00  0.00000000000E+00 -0.13852877039E+04  0.13852877039E+04  0.50400001928E-02 0. -1.
    10030    2    1    2    0    0  0.00000000000E+00  0.00000000000E+00 -0.12809376782E+03  0.26424816400E+04  0.26393751541E+04 0.  0.
        4    1    3    3  502    0 -0.12079276262E+04 -0.51168485065E+03  0.79869135002E+02  0.13142645198E+04  0.12699999809E+01 0.  1.
       -4    1    3    3    0  502  0.12079276262E+04  0.51168485065E+03 -0.20796290282E+03  0.13282171201E+04  0.12699999809E+01 0. -1.
</event>
<event>
 5   0  0.1085061E-05  0.2589808E+04  0.7818609E-02  0.8371671E-01
        2   -1    0    0  501    0  0.00000000000E+00  0.00000000000E+00  0.17153608851E+04  0.17153608851E+04  0.25500000920E-02 0.  1.
       -2   -1    0    0    0  501  0.00000000000E+00  0.00000000000E+00 -0.97750677980E+03  0.97750677980E+03  0.25500000920E-02 0. -1.
    10030    2    1    2    0    0  0.00000000000E+00  0.00000000000E+00  0.73785410526E+03  0.26928676649E+04  0.25898084060E+04 0.  0.
        1    1    3    3  502    0 -0.72162554738E+02 -0.91338390482E+03  0.13203809297E+04  0.16071351503E+04  0.50400001928E-02 0.  1.
       -1    1    3    3    0  502  0.72162554738E+02  0.91338390482E+03 -0.58252682443E+03  0.10857325145E+04  0.50400001928E-02 0. -1.
</event>
<event>
 5   0  0.4218590E-06  0.2592624E+04  0.7818609E-02  0.8370711E-01
       -1   -1    0    0    0  501  0.00000000000E+00  0.00000000000E+00  0.16838977565E+04  0.16838977565E+04  0.50400001928E-02 0.  1.
        1   -1    0    0  501    0  0.00000000000E+00  0.00000000000E+00 -0.99793790207E+03  0.99793790208E+03  0.50400001928E-02 0. -1.
    10030    2    1    2    0    0  0.00000000000E+00  0.00000000000E+00  0.68595985446E+03  0.26818356586E+04  0.25926244576E+04 0.  0.
        1    1    3    3  502    0 -0.18082408034E+03 -0.25344655759E+03  0.16446490593E+04  0.16738587258E+04  0.50400001928E-02 0.  1.
       -1    1    3    3    0  502  0.18082408034E+03  0.25344655759E+03 -0.95868920485E+03  0.10079769328E+04  0.50400001928E-02 0. -1.
</event>
<event>
 5   0  0.1085061E-05  0.2636860E+04  0.7818609E-02  0.8355787E-01
       -2   -1    0    0    0  501  0.00000000000E+00  0.00000000000E+00  0.13478276321E+04  0.13478276321E+04  0.25500000920E-02 0. -1.
        2   -1    0    0  501    0  0.00000000000E+00  0.00000000000E+00 -0.12896738861E+04  0.12896738861E+04  0.25500000920E-02 0.  1.
    10030    2    1    2    0    0  0.00000000000E+00  0.00000000000E+00  0.58153745965E+02  0.26375015182E+04  0.26368603300E+04 0.  0.
        1    1    3    3  502    0  0.64363409472E+03  0.19377657449E+03 -0.11054140259E+04  0.12937365951E+04  0.50400001928E-02 0.  1.
       -1    1    3    3    0  502 -0.64363409472E+03 -0.19377657449E+03  0.11635677719E+04  0.13437649231E+04  0.50400001928E-02 0. -1.
</event>
<event>
 5   0  0.4464297E-06  0.2628326E+04  0.7818609E-02  0.8358643E-01
        1   -1    0    0  501    0  0.00000000000E+00  0.00000000000E+00  0.18379491809E+04  0.18379491809E+04  0.50400001928E-02 0. -1.
       -1   -1    0    0    0  501  0.00000000000E+00  0.00000000000E+00 -0.93964732462E+03  0.93964732464E+03  0.50400001928E-02 0.  1.
    10030    2    1    2    0    0  0.00000000000E+00  0.00000000000E+00  0.89830185628E+03  0.27775965055E+04  0.26283257261E+04 0.  0.
        4    1    3    3  502    0 -0.56173977591E+03  0.11420110800E+04  0.10301039303E+03  0.12768530208E+04  0.12699999809E+01 0. -1.
       -4    1    3    3    0  502  0.56173977591E+03 -0.11420110800E+04  0.79529146324E+03  0.15007434848E+04  0.12699999809E+01 0.  1.
</event>
<event>
 5   0  0.1086507E-05  0.2631865E+04  0.7818609E-02  0.8357457E-01
        2   -1    0    0  501    0  0.00000000000E+00  0.00000000000E+00  0.16408550882E+04  0.16408550882E+04  0.25500000920E-02 0.  1.
       -2   -1    0    0    0  501  0.00000000000E+00  0.00000000000E+00 -0.10553512001E+04  0.10553512001E+04  0.25500000920E-02 0. -1.
    10030    2    1    2    0    0  0.00000000000E+00  0.00000000000E+00  0.58550388814E+03  0.26962062883E+04  0.26318650319E+04 0.  0.
        2    1    3    3  502    0  0.10171592459E+03 -0.23006362294E+02 -0.10511113013E+04  0.10562719298E+04  0.25500000920E-02 0. -1.
       -2    1    3    3    0  502 -0.10171592459E+03  0.23006362294E+02  0.16366151894E+04  0.16399343585E+04  0.25500000920E-02 0.  1.
</event>
<event>
 5   0  0.1086507E-05  0.2660799E+04  0.7818609E-02  0.8347838E-01
       -2   -1    0    0    0  501  0.00000000000E+00  0.00000000000E+00  0.16188182127E+04  0.16188182127E+04  0.25500000920E-02 0. -1.
        2   -1    0    0  501    0  0.00000000000E+00  0.00000000000E+00 -0.10933671802E+04  0.10933671802E+04  0.25500000920E-02 0.  1.
    10030    2    1    2    0    0  0.00000000000E+00  0.00000000000E+00  0.52545103248E+03  0.27121853929E+04  0.26607989060E+04 0.  0.
        2    1    3    3  502    0 -0.52791372057E+03 -0.94371146977E+03 -0.52727677753E+03  0.12030399140E+04  0.25500000920E-02 0.  1.
       -2    1    3    3    0  502  0.52791372057E+03  0.94371146977E+03  0.10527278100E+04  0.15091454789E+04  0.25500000920E-02 0. -1.
</event>
<event>
 5   0  0.4464297E-06  0.2555785E+04  0.7818609E-02  0.8383377E-01
        1   -1    0    0  501    0  0.00000000000E+00  0.00000000000E+00  0.14287735994E+04  0.14287735994E+04  0.50400001928E-02 0. -1.
       -1   -1    0    0    0  501  0.00000000000E+00  0.00000000000E+00 -0.11429443017E+04  0.11429443017E+04  0.50400001928E-02 0.  1.
    10030    2    1    2    0    0  0.00000000000E+00  0.00000000000E+00  0.28582929773E+03  0.25717179011E+04  0.25557845322E+04 0.  0.
        4    1    3    3  502    0 -0.19795546538E+03 -0.45973910889E+03 -0.10401963026E+04  0.11543640567E+04  0.12699999809E+01 0.  1.
       -4    1    3    3    0  502  0.19795546538E+03  0.45973910889E+03  0.13260256003E+04  0.14173538444E+04  0.12699999809E+01 0. -1.
</event>
<event>
 5   0  0.4597705E-06  0.2611347E+04  0.7818609E-02  0.8364357E-01
        1   -1    0    0  501    0  0.00000000000E+00  0.00000000000E+00  0.77742504140E+03  0.77742504142E+03  0.50400001928E-02 0.  1.
       -1   -1    0    0    0  501  0.00000000000E+00  0.00000000000E+00 -0.21928585433E+04  0.21928585433E+04  0.50400001928E-02 0. -1.
    10030    2    1    2    0    0  0.00000000000E+00  0.00000000000E+00 -0.14154335019E+04  0.29702835847E+04  0.26113468891E+04 0.  0.
        5    1    3    3  502    0 -0.33084727498E+03 -0.98868961946E+03 -0.16017531094E+04  0.19111782221E+04  0.46999998093E+01 0. -1.
       -5    1    3    3    0  502  0.33084727498E+03  0.98868961946E+03  0.18631960755E+03  0.10591053626E+04  0.46999998093E+01 0.  1.
</event>
<event>
 5   0  0.4415080E-06  0.2632474E+04  0.7818609E-02  0.8357253E-01
       -1   -1    0    0    0  501  0.00000000000E+00  0.00000000000E+00  0.13249809547E+04  0.13249809547E+04  0.50400001928E-02 0. -1.
        1   -1    0    0  501    0  0.00000000000E+00  0.00000000000E+00 -0.13075508323E+04  0.13075508323E+04  0.50400001928E-02 0.  1.
    10030    2    1    2    0    0  0.00000000000E+00  0.00000000000E+00  0.17430122416E+02  0.26325317870E+04  0.26324740836E+04 0.  0.
        2    1    3    3  502    0  0.40613997714E+03  0.56299986517E+03  0.11270246095E+04  0.13236702760E+04  0.25500000920E-02 0. -1.
       -2    1    3    3    0  502 -0.40613997714E+03 -0.56299986517E+03 -0.11095944871E+04  0.13088615110E+04  0.25500000920E-02 0.  1.
</event>
<event>
 5   0  0.1136881E-05  0.2615887E+04  0.7818609E-02  0.8362825E-01
       -2   -1    0    0    0  501  0.00000000000E+00  0.00000000000E+00  0.12958800501E+04  0.12958800501E+04  0.25500000920E-02 0. -1.
        2   -1    0    0  501    0  0.00000000000E+00  0.00000000000E+00 -0.13201188556E+04  0.13201188556E+04  0.25500000920E-02 0.  1.
    10030    2    1    2    0    0  0.00000000000E+00  0.00000000000E+00 -0.24238805487E+02  0.26159989057E+04  0.26158866097E+04 0.  0.
        3    1    3    3  502    0  0.11074160889E+04  0.19732397234E+03  0.65529858986E+03  0.13018154232E+04  0.10100000352E+00 0. -1.
       -3    1    3    3    0  502 -0.11074160889E+04 -0.19732397234E+03 -0.67953739535E+03  0.13141834825E+04  0.10100000352E+00 0.  1.
</event>
<event>
 5   0  0.4415080E-06  0.2602025E+04  0.7818609E-02  0.8367514E-01
        1   -1    0    0  501    0  0.00000000000E+00  0.00000000000E+00  0.83908720666E+03  0.83908720667E+03  0.50400001928E-02 0.  1.
       -1   -1    0    0    0  501  0.00000000000E+00  0.00000000000E+00 -0.20172315798E+04  0.20172315798E+04  0.50400001928E-02 0. -1.
    10030    2    1    2    0    0  0.00000000000E+00  0.00000000000E+00 -0.11781443731E+04  0.28563187864E+04  0.26020247589E+04 0.  0.
        2    1    3    3  502    0 -0.76895237199E+03  0.19696435025E+03  0.54246815720E+03  0.96143351681E+03  0.25500000920E-02 0.  1.
       -2    1    3    3    0  502  0.76895237199E+03 -0.19696435025E+03 -0.17206125303E+04  0.18948852696E+04  0.25500000920E-02 0. -1.
</event>
<event>
 5   0  0.4218590E-06  0.2599462E+04  0.7818609E-02  0.8368384E-01
        1   -1    0    0  501    0  0.00000000000E+00  0.00000000000E+00  0.11734490268E+04  0.11734490268E+04  0.50400001928E-02 0.  1.
       -1   -1    0    0    0  501  0.00000000000E+00  0.00000000000E+00 -0.14396027252E+04  0.14396027252E+04  0.50400001928E-02 0. -1.
    10030    2    1    2    0    0  0.00000000000E+00  0.00000000000E+00 -0.26615369844E+03  0.26130517520E+04  0.25994618034E+04 0.  0.
        1    1    3    3  502    0  0.70615101114E+03  0.10532161770E+04 -0.41985211640E+03  0.13357355148E+04  0.50400001928E-02 0. -1.
       -1    1    3    3    0  502 -0.70615101114E+03 -0.10532161770E+04  0.15369841795E+03  0.12773162371E+04  0.50400001928E-02 0.  1.
</event>
<event>
 5   0  0.1085061E-05  0.2609475E+04  0.7818609E-02  0.8364990E-01
       -2   -1    0    0    0  501  0.00000000000E+00  0.00000000000E+00  0.19100928841E+04  0.19100928841E+04  0.25500000920E-02 0.  1.
        2   -1    0    0  501    0  0.00000000000E+00  0.00000000000E+00 -0.89123398379E+03  0.89123398380E+03  0.25500000920E-02 0. -1.
    10030    2    1    2    0    0  0.00000000000E+00  0.00000000000E+00  0.10188589003E+04  0.28013268679E+04  0.26094748058E+04 0.  0.
        1    1    3    3  502    0  0.77655980230E+03  0.92438866458E+02  0.16306039555E+04  0.18084411327E+04  0.50400001928E-02 0.  1.
       -1    1    3    3    0  502 -0.77655980230E+03 -0.92438866458E+02 -0.61174505522E+03  0.99288573521E+03  0.50400001928E-02 0. -1.
</event>
<event>
 5   0  0.3705250E-06  0.2623559E+04  0.7818609E-02  0.8360243E-01
        3   -1    0    0  501    0  0.00000000000E+00  0.00000000000E+00  0.12430075686E+04  0.12430075727E+04  0.10100000352E+00 0.  1.
       -3   -1    0    0    0  501  0.00000000000E+00  0.00000000000E+00 -0.13843559341E+04  0.13843559378E+04  0.10100000352E+00 0. -1.
    10030    2    1    2    0    0  0.00000000000E+00  0.00000000000E+00 -0.14134836552E+03  0.26273635104E+04  0.26235585863E+04 0.  0.
        2    1    3    3  502    0 -0.79335546859E+03  0.10365394746E+04 -0.20100874261E+03  0.13206935665E+04  0.25500000920E-02 0. -1.
       -2    1    3    3    0  502  0.79335546859E+03 -0.10365394746E+04  0.59660377088E+02  0.13066699440E+04  0.25500000920E-02 0.  1.
</event>
<event>
 5   0  0.4597705E-06  0.2590025E+04  0.7818609E-02  0.8371597E-01
       -1   -1    0    0    0  501  0.00000000000E+00  0.00000000000E+00  0.71585076830E+03  0.71585076832E+03  0.50400001928E-02 0.  1.
        1   -1    0    0  501    0  0.00000000000E+00  0.00000000000E+00 -0.23427471983E+04  0.23427471983E+04  0.50400001928E-02 0. -1.
    10030    2    1    2    0    0  0.00000000000E+00  0.00000000000E+00 -0.16268964300E+04  0.30585979667E+04  0.25900250052E+04 0.  0.
        5    1    3    3  502    0 -0.77666515585E+03 -0.10206855731E+04 -0.60210910217E+03  0.14168857626E+04  0.46999998093E+01 0. -1.
       -5    1    3    3    0  502  0.77666515585E+03  0.10206855731E+04 -0.10247873279E+04  0.16417122040E+04  0.46999998093E+01 0.  1.
</event>
<event>
 5   0  0.1086507E-05  0.2588278E+04  0.7818609E-02  0.8372194E-01
        2   -1    0    0  501    0  0.00000000000E+00  0.00000000000E+00  0.26128332099E+04  0.26128332099E+04  0.25500000920E-02 0. -1.
       -2   -1    0    0    0  501  0.00000000000E+00  0.00000000000E+00 -0.64098815459E+03  0.64098815460E+03  0.25500000920E-02 0.  1.
    10030    2    1    2    0    0  0.00000000000E+00  0.00000000000E+00  0.19718450554E+04  0.32538213645E+04  0.25882775257E+04 0.  0.
        2    1    3    3  502    0  0.45193809231E+03 -0.95972444055E+03  0.54048372164E+02  0.10621865503E+04  0.25500000920E-02 0. -1.
       -2    1    3    3    0  502 -0.45193809231E+03  0.95972444055E+03  0.19177966832E+04  0.21916348143E+04  0.25500000920E-02 0.  1.
</event>
<event>
 5   0  0.1086507E-05  0.2589434E+04  0.7818609E-02  0.8371799E-01
        2   -1    0    0  501    0  0.00000000000E+00  0.00000000000E+00  0.19229335657E+04  0.19229335657E+04  0.25500000920E-02 0. -1.
       -2   -1    0    0    0  501  0.00000000000E+00  0.00000000000E+00 -0.87173663534E+03  0.87173663534E+03  0.25500000920E-02 0.  1.
    10030    2    1    2    0    0  0.00000000000E+00  0.00000000000E+00  0.10511969303E+04  0.27946702010E+04  0.25894336342E+04 0.  0.
        2    1    3    3  502    0 -0.87954485391E+03  0.93199235544E+03  0.32635090882E+03  0.13223894345E+04  0.25500000920E-02 0.  1.
       -2    1    3    3    0  502  0.87954485391E+03 -0.93199235544E+03  0.72484602150E+03  0.14722807665E+04  0.25500000920E-02 0. -1.
</event>
<event>
 5   0  0.4361864E-06  0.2577377E+04  0.7818609E-02  0.8375926E-01
       -1   -1    0    0    0  501  0.00000000000E+00  0.00000000000E+00  0.13608652215E+04  0.13608652215E+04  0.50400001928E-02 0.  1.
        1   -1    0    0  501    0  0.00000000000E+00  0.00000000000E+00 -0.12203400636E+04  0.12203400636E+04  0.50400001928E-02 0. -1.
    10030    2    1    2    0    0  0.00000000000E+00  0.00000000000E+00  0.14052515793E+03  0.25812052852E+04  0.25773772336E+04 0.  0.
        3    1    3    3  502    0 -0.46306602210E+01  0.89328085109E+03 -0.85995831474E+03  0.12399598523E+04  0.10100000352E+00 0. -1.
       -3    1    3    3    0  502  0.46306602210E+01 -0.89328085109E+03  0.10004834727E+04  0.13412454329E+04  0.10100000352E+00 0.  1.
</event>
<event>
 5   0  0.1085255E-05  0.2597526E+04  0.7818609E-02  0.8369042E-01
       -2   -1    0    0    0  501  0.00000000000E+00  0.00000000000E+00  0.11075074372E+04  0.11075074372E+04  0.25500000920E-02 0.  1.
        2   -1    0    0  501    0  0.00000000000E+00  0.00000000000E+00 -0.15230459511E+04  0.15230459511E+04  0.25500000920E-02 0. -1.
    10030    2    1    2    0    0  0.00000000000E+00  0.00000000000E+00 -0.41553851383E+03  0.26305533883E+04  0.25975255287E+04 0.  0.
        5    1    3    3  502    0  0.67342381430E+03  0.38012591857E+03  0.84893833202E+03  0.11483526154E+04  0.46999998093E+01 0.  1.
       -5    1    3    3    0  502 -0.67342381430E+03 -0.38012591857E+03 -0.12644768458E+04  0.14822007729E+04  0.46999998093E+01 0. -1.
</event>
<event>
 5   0  0.4464297E-06  0.2601727E+04  0.7818609E-02  0.8367615E-01
        1   -1    0    0  501    0  0.00000000000E+00  0.00000000000E+00  0.15511323752E+04  0.15511323752E+04  0.50400001928E-02 0.  1.
       -1   -1    0    0    0  501  0.00000000000E+00  0.00000000000E+00 -0.10909742627E+04  0.10909742627E+04  0.50400001928E-02 0. -1.
    10030    2    1    2    0    0  0.00000000000E+00  0.00000000000E+00  0.46015811243E+03  0.26421066379E+04  0.26017267339E+04 0.  0.
        4    1    3    3  502    0 -0.78431465856E+03 -0.42820365891E+03  0.11901278265E+04  0.14882586178E+04  0.12699999809E+01 0.  1.
       -4    1    3    3    0  502  0.78431465856E+03  0.42820365891E+03 -0.72996971408E+03  0.11538480201E+04  0.12699999809E+01 0. -1.
</event>
<event>
 5   0  0.1086507E-05  0.2582378E+04  0.7818609E-02  0.8374212E-01
        2   -1    0    0  501    0  0.00000000000E+00  0.00000000000E+00  0.11923941232E+04  0.11923941232E+04  0.25500000920E-02 0. -1.
       -2   -1    0    0    0  501  0.00000000000E+00  0.00000000000E+00 -0.13981695028E+04  0.13981695028E+04  0.25500000920E-02 0.  1.
    10030    2    1    2    0    0  0.00000000000E+00  0.00000000000E+00 -0.20577537955E+03  0.25905636260E+04  0.25823780501E+04 0.  0.
        2    1    3    3  502    0 -0.52106691930E+03  0.62264475555E+03 -0.11100481053E+04  0.13752832516E+04  0.25500000920E-02 0.  1.
       -2    1    3    3    0  502  0.52106691930E+03 -0.62264475555E+03  0.90427272571E+03  0.12152803744E+04  0.25500000920E-02 0. -1.
</event>
<event>
 5   0  0.4597705E-06  0.2581438E+04  0.7818609E-02  0.8374534E-01
        1   -1    0    0  501    0  0.00000000000E+00  0.00000000000E+00  0.23833516343E+04  0.23833516343E+04  0.50400001928E-02 0.  1.
       -1   -1    0    0    0  501  0.00000000000E+00  0.00000000000E+00 -0.69899675047E+03  0.69899675049E+03  0.50400001928E-02 0. -1.
    10030    2    1    2    0    0  0.00000000000E+00  0.00000000000E+00  0.16843548838E+04  0.30823483848E+04  0.25814376209E+04 0.  0.
        5    1    3    3  502    0  0.83635620430E+02  0.57642450238E+03  0.22174918941E+04  0.22927172775E+04  0.46999998093E+01 0.  1.
       -5    1    3    3    0  502 -0.83635620430E+02 -0.57642450238E+03 -0.53313701027E+03  0.78963110733E+03  0.46999998093E+01 0. -1.
</event>
<event>
 5   0  0.3705250E-06  0.2602993E+04  0.7818609E-02  0.8367185E-01
       -3   -1    0    0    0  501  0.00000000000E+00  0.00000000000E+00  0.11653309171E+04  0.11653309214E+04  0.10100000352E+00 0. -1.
        3   -1    0    0  501    0  0.00000000000E+00  0.00000000000E+00 -0.14535722353E+04  0.14535722388E+04  0.10100000352E+00 0.  1.
    10030    2    1    2    0    0  0.00000000000E+00  0.00000000000E+00 -0.28824131826E+03  0.26189031603E+04  0.26029926441E+04 0.  0.
        2    1    3    3  502    0 -0.10831934238E+04  0.31378794903E+03  0.50955963470E+03  0.12375063198E+04  0.25500000920E-02 0. -1.
       -2    1    3    3    0  502  0.10831934238E+04 -0.31378794903E+03 -0.79780095296E+03  0.13813968404E+04  0.25500000920E-02 0.  1.
</event>
<event>
 5   0  0.4415080E-06  0.2600431E+04  0.7818609E-02  0.8368055E-01
       -1   -1    0    0    0  501  0.00000000000E+00  0.00000000000E+00  0.96649298817E+03  0.96649298819E+03  0.50400001928E-02 0.  1.
        1   -1    0    0  501    0  0.00000000000E+00  0.00000000000E+00 -0.17491694067E+04  0.17491694067E+04  0.50400001928E-02 0. -1.
    10030    2    1    2    0    0  0.00000000000E+00  0.00000000000E+00 -0.78267641855E+03  0.27156623949E+04  0.26004307080E+04 0.  0.
        2    1    3    3  502    0  0.17587269769E+03  0.32517128084E+02  0.95358527893E+03  0.97021309701E+03  0.25500000920E-02 0.  1.
       -2    1    3    3    0  502 -0.17587269769E+03 -0.32517128084E+02 -0.17362616975E+04  0.17454492979E+04  0.25500000920E-02 0. -1.
</event>
<event>
 5   0  0.4597705E-06  0.2593621E+04  0.7818609E-02  0.8370371E-01
        1   -1    0    0  501    0  0.00000000000E+00  0.00000000000E+00  0.11703878897E+04  0.11703878897E+04  0.50400001928E-02 0.  1.
       -1   -1    0    0    0  501  0.00000000000E+00  0.00000000000E+00 -0.14368887460E+04  0.14368887460E+04  0.50400001928E-02 0. -1.
    10030    2    1    2    0    0  0.00000000000E+00  0.00000000000E+00 -0.26650085628E+03  0.26072766357E+04  0.25936207796E+04 0.  0.
        5    1    3    3  502    0 -0.70908291767E+03  0.85952804456E+03 -0.80014977762E+03  0.13718049425E+04  0.46999998093E+01 0. -1.
       -5    1    3    3    0  502  0.70908291767E+03 -0.85952804456E+03  0.53364892135E+03  0.12354716932E+04  0.46999998093E+01 0.  1.
</event>
<event>
 5   0  0.1086507E-05  0.2483521E+04  0.7818609E-02  0.8408880E-01
       -2   -1    0    0    0  501  0.00000000000E+00  0.00000000000E+00  0.78655843197E+03  0.78655843197E+03  0.25500000920E-02 0. -1.
        2   -1    0    0  501    0  0.00000000000E+00  0.00000000000E+00 -0.19604005569E+04  0.19604005569E+04  0.25500000920E-02 0.  1.
    10030    2    1    2    0    0  0.00000000000E+00  0.00000000000E+00 -0.11738421249E+04  0.27469589889E+04  0.24835213613E+04 0.  0.
        2    1    3    3  502    0 -0.41488320309E+03  0.92579070696E+03  0.20510307251E+03  0.10350283936E+04  0.25500000920E-02 0.  1.
       -2    1    3    3    0  502  0.41488320309E+03 -0.92579070696E+03 -0.13789451974E+04  0.17119305952E+04  0.25500000920E-02 0. -1.
</event>
<event>
 5   0  0.1086507E-05  0.2603757E+04  0.7818609E-02  0.8366926E-01
        2   -1    0    0  501    0  0.00000000000E+00  0.00000000000E+00  0.12947893926E+04  0.12947893926E+04  0.25500000920E-02 0.  1.
       -2   -1    0    0    0  501  0.00000000000E+00  0.00000000000E+00 -0.13090067860E+04  0.13090067860E+04  0.25500000920E-02 0. -1.
    10030    2    1    2    0    0  0.00000000000E+00  0.00000000000E+00 -0.14217393363E+02  0.26037961786E+04  0.26037573630E+04 0.  0.
        2    1    3    3  502    0 -0.87299425606E+03  0.10414134109E+03  0.95307420188E+03  0.12966552450E+04  0.25500000920E-02 0.  1.
       -2    1    3    3    0  502  0.87299425606E+03 -0.10414134109E+03 -0.96729159524E+03  0.13071409336E+04  0.25500000920E-02 0. -1.
</event>
<event>
 5   0  0.4464297E-06  0.2586581E+04  0.7818609E-02  0.8372774E-01
       -1   -1    0    0    0  501  0.00000000000E+00  0.00000000000E+00  0.13901747233E+04  0.13901747234E+04  0.50400001928E-02 0. -1.
        1   -1    0    0  501    0  0.00000000000E+00  0.00000000000E+00 -0.12031582744E+04  0.12031582744E+04  0.50400001928E-02 0.  1.
    10030    2    1    2    0    0  0.00000000000E+00  0.00000000000E+00  0.18701644898E+03  0.25933329977E+04  0.25865809257E+04 0.  0.
        4    1    3    3  502    0 -0.21381716260E+03 -0.10048747150E+04  0.88112086179E+03  0.13534646496E+04  0.12699999809E+01 0. -1.
       -4    1    3    3    0  502  0.21381716260E+03  0.10048747150E+04 -0.69410441282E+03  0.12398683481E+04  0.12699999809E+01 0.  1.
</event>
<event>
 5   0  0.1116310E-05  0.2532337E+04  0.7818609E-02  0.8391555E-01
        2   -1    0    0  501    0  0.00000000000E+00  0.00000000000E+00  0.21713214798E+04  0.21713214798E+04  0.25500000920E-02 0.  1.
       -2   -1    0    0    0  501  0.00000000000E+00  0.00000000000E+00 -0.73834398497E+03  0.73834398498E+03  0.25500000920E-02 0. -1.
    10030    2    1    2    0    0  0.00000000000E+00  0.00000000000E+00  0.14329774948E+04  0.29096654648E+04  0.25323365922E+04 0.  0.
        4    1    3    3  502    0 -0.11346611864E+04  0.27586791370E+03  0.15403805681E+03  0.11778320973E+04  0.12699999809E+01 0. -1.
       -4    1    3    3    0  502  0.11346611864E+04 -0.27586791370E+03  0.12789394380E+04  0.17318333674E+04  0.12699999809E+01 0.  1.
</event>
<event>
 5   0  0.3705250E-06  0.2553477E+04  0.7818609E-02  0.8384178E-01
       -3   -1    0    0    0  501  0.00000000000E+00  0.00000000000E+00  0.23807630424E+04  0.23807630445E+04  0.10100000352E+00 0.  1.
        3   -1    0    0  501    0  0.00000000000E+00  0.00000000000E+00 -0.68468013601E+03  0.68468014346E+03  0.10100000352E+00 0. -1.
    10030    2    1    2    0    0  0.00000000000E+00  0.00000000000E+00  0.16960829064E+04  0.30654431880E+04  0.25534769851E+04 0.  0.
        3    1    3    3  502    0  0.27423723148E+03 -0.10261278579E+04  0.16985470172E+04  0.20032988843E+04  0.10100000352E+00 0.  1.
       -3    1    3    3    0  502 -0.27423723148E+03  0.10261278579E+04 -0.24641108077E+01  0.10621443037E+04  0.10100000352E+00 0. -1.
</event>
<event>
 5   0  0.3705250E-06  0.2602877E+04  0.7818609E-02  0.8367224E-01
       -3   -1    0    0    0  501  0.00000000000E+00  0.00000000000E+00  0.11719549811E+04  0.11719549854E+04  0.10100000352E+00 0.  1.
        3   -1    0    0  501    0  0.00000000000E+00  0.00000000000E+00 -0.14452284204E+04  0.14452284239E+04  0.10100000352E+00 0. -1.
    10030    2    1    2    0    0  0.00000000000E+00  0.00000000000E+00 -0.27327343933E+03  0.26171834093E+04  0.26028773742E+04 0.  0.
        2    1    3    3  502    0 -0.16950221207E+03  0.81629877446E+03  0.86818961881E+03  0.12036726728E+04  0.25500000920E-02 0.  1.
       -2    1    3    3    0  502  0.16950221207E+03 -0.81629877446E+03 -0.11414630581E+04  0.14135107365E+04  0.25500000920E-02 0. -1.
</event>
<event>
 5   0  0.4361864E-06  0.2584185E+04  0.7818609E-02  0.8373593E-01
       -1   -1    0    0    0  501  0.00000000000E+00  0.00000000000E+00  0.14211894154E+04  0.14211894154E+04  0.50400001928E-02 0. -1.
        1   -1    0    0  501    0  0.00000000000E+00  0.00000000000E+00 -0.11747225495E+04  0.11747225495E+04  0.50400001928E-02 0.  1.
    10030    2    1    2    0    0  0.00000000000E+00  0.00000000000E+00  0.24646686587E+03  0.25959119650E+04  0.25841851741E+04 0.  0.
        3    1    3    3  502    0 -0.10234324542E+04 -0.60549522742E+03  0.63096229351E+03  0.13461619088E+04  0.10100000352E+00 0.  1.
       -3    1    3    3    0  502  0.10234324542E+04  0.60549522742E+03 -0.38449542764E+03  0.12497500561E+04  0.10100000352E+00 0. -1.
</event>
<event>
 5   0  0.1086507E-05  0.2595565E+04  0.7818609E-02  0.8369709E-01
       -2   -1    0    0    0  501  0.00000000000E+00  0.00000000000E+00  0.13476345443E+04  0.13476345443E+04  0.25500000920E-02 0.  1.
        2   -1    0    0  501    0  0.00000000000E+00  0.00000000000E+00 -0.12497741612E+04  0.12497741612E+04  0.25500000920E-02 0. -1.
    10030    2    1    2    0    0  0.00000000000E+00  0.00000000000E+00  0.97860383129E+02  0.25974087055E+04  0.25955645491E+04 0.  0.
        2    1    3    3  502    0  0.11186011891E+04 -0.57835155132E+03 -0.26510752103E+03  0.12868726180E+04  0.25500000920E-02 0.  1.
       -2    1    3    3    0  502 -0.11186011891E+04  0.57835155132E+03  0.36296790415E+03  0.13105360875E+04  0.25500000920E-02 0. -1.
</event>
<event>
 5   0  0.4218590E-06  0.2587077E+04  0.7818609E-02  0.8372604E-01
        1   -1    0    0  501    0  0.00000000000E+00  0.00000000000E+00  0.25500182677E+04  0.25500182677E+04  0.50400001928E-02 0.  1.
       -1   -1    0    0    0  501  0.00000000000E+00  0.00000000000E+00 -0.65616879302E+03  0.65616879304E+03  0.50400001928E-02 0. -1.
    10030    2    1    2    0    0  0.00000000000E+00  0.00000000000E+00  0.18938494747E+04  0.32061870608E+04  0.25870774314E+04 0.  0.
        1    1    3    3  502    0 -0.11421622242E+04  0.57358142341E+03  0.11938931870E+04  0.17489743102E+04  0.50400001928E-02 0.  1.
       -1    1    3    3    0  502  0.11421622242E+04 -0.57358142341E+03  0.69995628770E+03  0.14572127506E+04  0.50400001928E-02 0. -1.
</event>
<event>
 5   0  0.1086507E-05  0.2587042E+04  0.7818609E-02  0.8372616E-01
        2   -1    0    0  501    0  0.00000000000E+00  0.00000000000E+00  0.10687196793E+04  0.10687196793E+04  0.25500000920E-02 0.  1.
       -2   -1    0    0    0  501  0.00000000000E+00  0.00000000000E+00 -0.15656088954E+04  0.15656088954E+04  0.25500000920E-02 0. -1.
    10030    2    1    2    0    0  0.00000000000E+00  0.00000000000E+00 -0.49688921616E+03  0.26343285747E+04  0.25870423549E+04 0.  0.
        2    1    3    3  502    0  0.10604757188E+04  0.73430648246E+03 -0.14981200109E+03  0.12985601241E+04  0.25500000920E-02 0.  1.
       -2    1    3    3    0  502 -0.10604757188E+04 -0.73430648246E+03 -0.34707721507E+03  0.13357684506E+04  0.25500000920E-02 0. -1.
</event>
<event>
 5   0  0.1086507E-05  0.2606887E+04  0.7818609E-02  0.8365865E-01
        2   -1    0    0  501    0  0.00000000000E+00  0.00000000000E+00  0.97452293730E+03  0.97452293731E+03  0.25500000920E-02 0. -1.
       -2   -1    0    0    0  501  0.00000000000E+00  0.00000000000E+00 -0.17433817978E+04  0.17433817978E+04  0.25500000920E-02 0.  1.
    10030    2    1    2    0    0  0.00000000000E+00  0.00000000000E+00 -0.76885886050E+03  0.27179047351E+04  0.26068874548E+04 0.  0.
        2    1    3    3  502    0  0.10333952120E+04  0.13132840156E+03 -0.12012560757E+04  0.15900216893E+04  0.25500000920E-02 0.  1.
       -2    1    3    3    0  502 -0.10333952120E+04 -0.13132840156E+03  0.43239721515E+03  0.11278830458E+04  0.25500000920E-02 0. -1.
</event>
<event>
 5   0  0.4361864E-06  0.2596351E+04  0.7818609E-02  0.8369442E-01
        1   -1    0    0  501    0  0.00000000000E+00  0.00000000000E+00  0.79980781766E+03  0.79980781767E+03  0.50400001928E-02 0.  1.
       -1   -1    0    0    0  501  0.00000000000E+00  0.00000000000E+00 -0.21070815222E+04  0.21070815222E+04  0.50400001928E-02 0. -1.
    10030    2    1    2    0    0  0.00000000000E+00  0.00000000000E+00 -0.13072737046E+04  0.29068893399E+04  0.25963514970E+04 0.  0.
        3    1    3    3  502    0 -0.51216922828E+03 -0.11237649268E+03 -0.19832429333E+04  0.20513893675E+04  0.10100000352E+00 0. -1.
       -3    1    3    3    0  502  0.51216922828E+03  0.11237649268E+03  0.67596922868E+03  0.85549997243E+03  0.10100000352E+00 0.  1.
</event>
<event>
 5   0  0.4218590E-06  0.2613874E+04  0.7818609E-02  0.8363504E-01
       -1   -1    0    0    0  501  0.00000000000E+00  0.00000000000E+00  0.16027196023E+04  0.16027196023E+04  0.50400001928E-02 0. -1.
        1   -1    0    0  501    0  0.00000000000E+00  0.00000000000E+00 -0.10657411181E+04  0.10657411181E+04  0.50400001928E-02 0.  1.
    10030    2    1    2    0    0  0.00000000000E+00  0.00000000000E+00  0.53697848421E+03  0.26684607204E+04  0.26138738921E+04 0.  0.
        1    1    3    3  502    0 -0.12134421066E+04 -0.29937062339E+03  0.65859454774E+03  0.14127318551E+04  0.50400001928E-02 0.  1.
       -1    1    3    3    0  502  0.12134421066E+04  0.29937062339E+03 -0.12161606353E+03  0.12557288653E+04  0.50400001928E-02 0. -1.
</event>
<event>
 5   0  0.4361864E-06  0.2595247E+04  0.7818609E-02  0.8369817E-01
       -1   -1    0    0    0  501  0.00000000000E+00  0.00000000000E+00  0.94508959626E+03  0.94508959627E+03  0.50400001928E-02 0. -1.
        1   -1    0    0  501    0  0.00000000000E+00  0.00000000000E+00 -0.17816586226E+04  0.17816586227E+04  0.50400001928E-02 0.  1.
    10030    2    1    2    0    0  0.00000000000E+00  0.00000000000E+00 -0.83656902639E+03  0.27267482189E+04  0.25952472163E+04 0.  0.
        3    1    3    3  502    0  0.37716184076E+03 -0.20303484253E+02  0.88605513103E+03  0.96320142807E+03  0.10100000352E+00 0. -1.
       -3    1    3    3    0  502 -0.37716184076E+03  0.20303484253E+02 -0.17226241574E+04  0.17635467909E+04  0.10100000352E+00 0.  1.
</event>
<event>
 5   0  0.3705250E-06  0.2589856E+04  0.7818609E-02  0.8371655E-01
        3   -1    0    0  501    0  0.00000000000E+00  0.00000000000E+00  0.11807476844E+04  0.11807476888E+04  0.10100000352E+00 0.  1.
       -3   -1    0    0    0  501  0.00000000000E+00  0.00000000000E+00 -0.14201497254E+04  0.14201497290E+04  0.10100000352E+00 0. -1.
    10030    2    1    2    0    0  0.00000000000E+00  0.00000000000E+00 -0.23940204097E+03  0.26008974178E+04  0.25898559884E+04 0.  0.
        1    1    3    3  502    0 -0.49119728919E+02  0.10406770995E+04 -0.89201605092E+03  0.13715371698E+04  0.50400001928E-02 0. -1.
       -1    1    3    3    0  502  0.49119728919E+02 -0.10406770995E+04  0.65261400996E+03  0.12293602479E+04  0.50400001928E-02 0.  1.
</event>
<event>
 5   0  0.4464297E-06  0.2593104E+04  0.7818609E-02  0.8370548E-01
        1   -1    0    0  501    0  0.00000000000E+00  0.00000000000E+00  0.20624599714E+04  0.20624599714E+04  0.50400001928E-02 0.  1.
       -1   -1    0    0    0  501  0.00000000000E+00  0.00000000000E+00 -0.81506867699E+03  0.81506867700E+03  0.50400001928E-02 0. -1.
    10030    2    1    2    0    0  0.00000000000E+00  0.00000000000E+00  0.12473912944E+04  0.28775286484E+04  0.25931035616E+04 0.  0.
        4    1    3    3  502    0  0.60063039931E+03 -0.11489490360E+04  0.60784059940E+03  0.14318912567E+04  0.12699999809E+01 0. -1.
       -4    1    3    3    0  502 -0.60063039931E+03  0.11489490360E+04  0.63955069504E+03  0.14456373917E+04  0.12699999809E+01 0.  1.
</event>
<event>
 5   0  0.4464297E-06  0.2585810E+04  0.7818609E-02  0.8373037E-01
        1   -1    0    0  501    0  0.00000000000E+00  0.00000000000E+00  0.17140495505E+04  0.17140495505E+04  0.50400001928E-02 0.  1.
       -1   -1    0    0    0  501  0.00000000000E+00  0.00000000000E+00 -0.97523662265E+03  0.97523662266E+03  0.50400001928E-02 0. -1.
    10030    2    1    2    0    0  0.00000000000E+00  0.00000000000E+00  0.73881292788E+03  0.26892861732E+04  0.25858104298E+04 0.  0.
        4    1    3    3  502    0  0.84066330385E+03 -0.36788917629E+03  0.13166471049E+04  0.16048733434E+04  0.12699999809E+01 0.  1.
       -4    1    3    3    0  502 -0.84066330385E+03  0.36788917629E+03 -0.57783417702E+03  0.10844128298E+04  0.12699999809E+01 0. -1.
</event>
<event>
 5   0  0.1085061E-05  0.2602894E+04  0.7818609E-02  0.8367219E-01
       -2   -1    0    0    0  501  0.00000000000E+00  0.00000000000E+00  0.12592410799E+04  0.12592410799E+04  0.25500000920E-02 0.  1.
        2   -1    0    0  501    0  0.00000000000E+00  0.00000000000E+00 -0.13450679478E+04  0.13450679478E+04  0.25500000920E-02 0. -1.
    10030    2    1    2    0    0  0.00000000000E+00  0.00000000000E+00 -0.85826867830E+02  0.26043090277E+04  0.26028944006E+04 0.  0.
        1    1    3    3  502    0 -0.73004853297E+03  0.67573901103E+03  0.79669144951E+03  0.12744847340E+04  0.50400001928E-02 0.  1.
       -1    1    3    3    0  502  0.73004853297E+03 -0.67573901103E+03 -0.88251831734E+03  0.13298242937E+04  0.50400001928E-02 0. -1.
</event>
<event>
 5   0  0.1136881E-05  0.2601366E+04  0.7818609E-02  0.8367737E-01
        2   -1    0    0  501    0  0.00000000000E+00  0.00000000000E+00  0.12304459616E+04  0.12304459616E+04  0.25500000920E-02 0. -1.
       -2   -1    0    0    0  501  0.00000000000E+00  0.00000000000E+00 -0.13749298044E+04  0.13749298044E+04  0.25500000920E-02 0.  1.
    10030    2    1    2    0    0  0.00000000000E+00  0.00000000000E+00 -0.14448384274E+03  0.26053757660E+04  0.26013664296E+04 0.  0.
        3    1    3    3  502    0 -0.10242093005E+04 -0.62728617536E+03 -0.57229510355E+03  0.13304188561E+04  0.10100000352E+00 0.  1.
       -3    1    3    3    0  502  0.10242093005E+04  0.62728617536E+03  0.42781126081E+03  0.12749569099E+04  0.10100000352E+00 0. -1.
</event>
<event>
 5   0  0.3705250E-06  0.2589570E+04  0.7818609E-02  0.8371753E-01
        3   -1    0    0  501    0  0.00000000000E+00  0.00000000000E+00  0.82378772917E+03  0.82378773536E+03  0.10100000352E+00 0. -1.
       -3   -1    0    0    0  501  0.00000000000E+00  0.00000000000E+00 -0.20350723381E+04  0.20350723407E+04  0.10100000352E+00 0.  1.
    10030    2    1    2    0    0  0.00000000000E+00  0.00000000000E+00 -0.12112846090E+04  0.28588600760E+04  0.25895695647E+04 0.  0.
        2    1    3    3  502    0  0.42324372368E+03  0.17053511592E+03  0.73207808197E+03  0.86264465077E+03  0.25500000920E-02 0. -1.
       -2    1    3    3    0  502 -0.42324372368E+03 -0.17053511592E+03 -0.19433626909E+04  0.19962154252E+04  0.25500000920E-02 0.  1.
</event>
<event>
 5   0  0.1086507E-05  0.2717686E+04  0.7818609E-02  0.8329289E-01
       -2   -1    0    0    0  501  0.00000000000E+00  0.00000000000E+00  0.96197513359E+03  0.96197513359E+03  0.25500000920E-02 0.  1.
        2   -1    0    0  501    0  0.00000000000E+00  0.00000000000E+00 -0.19194412872E+04  0.19194412872E+04  0.25500000920E-02 0. -1.
    10030    2    1    2    0    0  0.00000000000E+00  0.00000000000E+00 -0.95746615360E+03  0.28814164208E+04  0.27176863606E+04 0.  0.
        2    1    3    3  502    0 -0.13434854247E+04  0.14145168484E+03 -0.63417081080E+03  0.14923586307E+04  0.25500000920E-02 0.  1.
       -2    1    3    3    0  502  0.13434854247E+04 -0.14145168484E+03 -0.32329534280E+03  0.13890577901E+04  0.25500000920E-02 0. -1.
</event>
<event>
 5   0  0.1116310E-05  0.2307849E+04  0.7818609E-02  0.8474833E-01
        2   -1    0    0  501    0  0.00000000000E+00  0.00000000000E+00  0.11923358964E+04  0.11923358964E+04  0.25500000920E-02 0.  1.
       -2   -1    0    0    0  501  0.00000000000E+00  0.00000000000E+00 -0.11167502259E+04  0.11167502259E+04  0.25500000920E-02 0. -1.
    10030    2    1    2    0    0  0.00000000000E+00  0.00000000000E+00  0.75585670477E+02  0.23090861224E+04  0.23078486794E+04 0.  0.
        4    1    3    3  502    0 -0.46855350423E+03  0.75580394468E+03  0.77354947429E+03  0.11786273335E+04  0.12699999809E+01 0.  1.
       -4    1    3    3    0  502  0.46855350423E+03 -0.75580394468E+03 -0.69796380381E+03  0.11304587889E+04  0.12699999809E+01 0. -1.
</event>
<event>
 5   0  0.4464297E-06  0.2604936E+04  0.7818609E-02  0.8366527E-01
       -1   -1    0    0    0  501  0.00000000000E+00  0.00000000000E+00  0.15752138180E+04  0.15752138180E+04  0.50400001928E-02 0. -1.
        1   -1    0    0  501    0  0.00000000000E+00  0.00000000000E+00 -0.10769473339E+04  0.10769473339E+04  0.50400001928E-02 0.  1.
    10030    2    1    2    0    0  0.00000000000E+00  0.00000000000E+00  0.49826648410E+03  0.26521611519E+04  0.26049355628E+04 0.  0.
        4    1    3    3  502    0  0.83053438388E+03 -0.24969346130E+03  0.12384943174E+04  0.15119536946E+04  0.12699999809E+01 0. -1.
       -4    1    3    3    0  502 -0.83053438388E+03  0.24969346130E+03 -0.74022783333E+03  0.11402074573E+04  0.12699999809E+01 0.  1.
</event>
<event>
 5   0  0.1085255E-05  0.2630982E+04  0.7818609E-02  0.8357753E-01
       -2   -1    0    0    0  501  0.00000000000E+00  0.00000000000E+00  0.11743323204E+04  0.11743323204E+04  0.25500000920E-02 0. -1.
        2   -1    0    0  501    0  0.00000000000E+00  0.00000000000E+00 -0.14736173210E+04  0.14736173210E+04  0.25500000920E-02 0.  1.
    10030    2    1    2    0    0  0.00000000000E+00  0.00000000000E+00 -0.29928500056E+03  0.26479496414E+04  0.26309819064E+04 0.  0.
        5    1    3    3  502    0 -0.10452233545E+04 -0.65094140183E+03  0.31624433411E+03  0.12713178746E+04  0.46999998093E+01 0. -1.
       -5    1    3    3    0  502  0.10452233545E+04  0.65094140183E+03 -0.61552933468E+03  0.13766317668E+04  0.46999998093E+01 0.  1.
</event>
<event>
 5   0  0.1136881E-05  0.2536906E+04  0.7818609E-02  0.8389954E-01
        2   -1    0    0  501    0  0.00000000000E+00  0.00000000000E+00  0.87438145518E+03  0.87438145518E+03  0.25500000920E-02 0.  1.
       -2   -1    0    0    0  501  0.00000000000E+00  0.00000000000E+00 -0.18401272392E+04  0.18401272392E+04  0.25500000920E-02 0. -1.
    10030    2    1    2    0    0  0.00000000000E+00  0.00000000000E+00 -0.96574578405E+03  0.27145086944E+04  0.25369060946E+04 0.  0.
        3    1    3    3  502    0  0.12323494232E+04 -0.30747516034E+02 -0.16304512299E+03  0.12434686297E+04  0.10100000352E+00 0.  1.
       -3    1    3    3    0  502 -0.12323494232E+04  0.30747516034E+02 -0.80270066106E+03  0.14710400647E+04  0.10100000352E+00 0. -1.
</event>
<event>
 5   0  0.4464297E-06  0.2594170E+04  0.7818609E-02  0.8370184E-01
        1   -1    0    0  501    0  0.00000000000E+00  0.00000000000E+00  0.13636031735E+04  0.13636031736E+04  0.50400001928E-02 0. -1.
       -1   -1    0    0    0  501  0.00000000000E+00  0.00000000000E+00 -0.12338120140E+04  0.12338120140E+04  0.50400001928E-02 0.  1.
    10030    2    1    2    0    0  0.00000000000E+00  0.00000000000E+00  0.12979115951E+03  0.25974151876E+04  0.25941703706E+04 0.  0.
        4    1    3    3  502    0 -0.46652684448E+03 -0.26116325947E+03  0.12481414155E+04  0.13578336241E+04  0.12699999809E+01 0. -1.
       -4    1    3    3    0  502  0.46652684448E+03  0.26116325947E+03 -0.11183502560E+04  0.12395815635E+04  0.12699999809E+01 0.  1.
</event>
<event>
 5   0  0.4361864E-06  0.2584700E+04  0.7818609E-02  0.8373417E-01
        1   -1    0    0  501    0  0.00000000000E+00  0.00000000000E+00  0.12396187788E+04  0.12396187788E+04  0.50400001928E-02 0. -1.
       -1   -1    0    0    0  501  0.00000000000E+00  0.00000000000E+00 -0.13473246169E+04  0.13473246169E+04  0.50400001928E-02 0.  1.
    10030    2    1    2    0    0  0.00000000000E+00  0.00000000000E+00 -0.10770583809E+03  0.25869433958E+04  0.25847002893E+04 0.  0.
        3    1    3    3  502    0 -0.65857235576E+03  0.12914398547E+03  0.10515389681E+04  0.12474493691E+04  0.10100000352E+00 0. -1.
       -3    1    3    3    0  502  0.65857235576E+03 -0.12914398547E+03 -0.11592448062E+04  0.13394940267E+04  0.10100000352E+00 0.  1.
</event>
<event>
 5   0  0.1116310E-05  0.2434804E+04  0.7818609E-02  0.8426587E-01
        2   -1    0    0  501    0  0.00000000000E+00  0.00000000000E+00  0.14934228304E+04  0.14934228304E+04  0.25500000920E-02 0.  1.
       -2   -1    0    0    0  501  0.00000000000E+00  0.00000000000E+00 -0.99239627681E+03  0.99239627682E+03  0.25500000920E-02 0. -1.
    10030    2    1    2    0    0  0.00000000000E+00  0.00000000000E+00  0.50102655363E+03  0.24858191073E+04  0.24348036936E+04 0.  0.
        4    1    3    3  502    0  0.63509436364E+03  0.20630095418E+03 -0.78873456193E+03  0.10334450912E+04  0.12699999809E+01 0. -1.
       -4    1    3    3    0  502 -0.63509436364E+03 -0.20630095418E+03  0.12897611156E+04  0.14523740161E+04  0.12699999809E+01 0.  1.
</event>
<event>
 5   0  0.1136881E-05  0.2597960E+04  0.7818609E-02  0.8368894E-01
        2   -1    0    0  501    0  0.00000000000E+00  0.00000000000E+00  0.96003996192E+03  0.96003996192E+03  0.25500000920E-02 0. -1.
       -2   -1    0    0    0  501  0.00000000000E+00  0.00000000000E+00 -0.17575820621E+04  0.17575820621E+04  0.25500000920E-02 0.  1.
    10030    2    1    2    0    0  0.00000000000E+00  0.00000000000E+00 -0.79754210016E+03  0.27176220240E+04  0.25979599812E+04 0.  0.
        3    1    3    3  502    0  0.12466833113E+04  0.33851694773E+03 -0.25635312829E+03  0.13170155425E+04  0.10100000352E+00 0.  1.
       -3    1    3    3    0  502 -0.12466833113E+04 -0.33851694773E+03 -0.54118897187E+03  0.14006064815E+04  0.10100000352E+00 0. -1.
</event>
<event>
 5   0  0.1086507E-05  0.2602209E+04  0.7818609E-02  0.8367451E-01
        2   -1    0    0  501    0  0.00000000000E+00  0.00000000000E+00  0.27793614089E+04  0.27793614089E+04  0.25500000920E-02 0.  1.
       -2   -1    0    0    0  501  0.00000000000E+00  0.00000000000E+00 -0.60908679542E+03  0.60908679543E+03  0.25500000920E-02 0. -1.
    10030    2    1    2    0    0  0.00000000000E+00  0.00000000000E+00  0.21702746135E+04  0.33884482044E+04  0.26022085496E+04 0.  0.
        2    1    3    3  502    0  0.35332726600E+03  0.29412259513E+03  0.26700783385E+04  0.27093664557E+04  0.25500000920E-02 0.  1.
       -2    1    3    3    0  502 -0.35332726600E+03 -0.29412259513E+03 -0.49980372495E+03  0.67908174864E+03  0.25500000920E-02 0. -1.
</event>
<event>
 5   0  0.1086507E-05  0.2603934E+04  0.7818609E-02  0.8366866E-01
        2   -1    0    0  501    0  0.00000000000E+00  0.00000000000E+00  0.21550950533E+04  0.21550950533E+04  0.25500000920E-02 0.  1.
       -2   -1    0    0    0  501  0.00000000000E+00  0.00000000000E+00 -0.78656318087E+03  0.78656318087E+03  0.25500000920E-02 0. -1.
    10030    2    1    2    0    0  0.00000000000E+00  0.00000000000E+00  0.13685318725E+04  0.29416582342E+04  0.26039342697E+04 0.  0.
        2    1    3    3  502    0  0.61752044493E+03 -0.91276206320E+03 -0.98943165775E+02  0.11064609501E+04  0.25500000920E-02 0. -1.
       -2    1    3    3    0  502 -0.61752044493E+03  0.91276206320E+03  0.14674750382E+04  0.18351972842E+04  0.25500000920E-02 0.  1.
</event>
<event>
 5   0  0.1116310E-05  0.2580138E+04  0.7818609E-02  0.8374979E-01
       -2   -1    0    0    0  501  0.00000000000E+00  0.00000000000E+00  0.20740118569E+04  0.20740118569E+04  0.25500000920E-02 0. -1.
        2   -1    0    0  501    0  0.00000000000E+00  0.00000000000E+00 -0.80244366488E+03  0.80244366489E+03  0.25500000920E-02 0.  1.
    10030    2    1    2    0    0  0.00000000000E+00  0.00000000000E+00  0.12715681920E+04  0.28764555218E+04  0.25801377292E+04 0.  0.
        4    1    3    3  502    0 -0.48060036291E+02 -0.76995176324E+03 -0.51695807136E+03  0.92864565107E+03  0.12699999809E+01 0.  1.
       -4    1    3    3    0  502  0.48060036291E+02  0.76995176324E+03  0.17885262634E+04  0.19478098707E+04  0.12699999809E+01 0. -1.
</event>
<event>
 5   0  0.1085255E-05  0.2613726E+04  0.7818609E-02  0.8363554E-01
        2   -1    0    0  501    0  0.00000000000E+00  0.00000000000E+00  0.12091904775E+04  0.12091904775E+04  0.25500000920E-02 0. -1.
       -2   -1    0    0    0  501  0.00000000000E+00  0.00000000000E+00 -0.14124251166E+04  0.14124251166E+04  0.25500000920E-02 0.  1.
    10030    2    1    2    0    0  0.00000000000E+00  0.00000000000E+00 -0.20323463912E+03  0.26216155941E+04  0.26137260769E+04 0.  0.
        5    1    3    3  502    0  0.35790808329E+03 -0.99810176198E+02  0.11550846593E+04  0.12133849050E+04  0.46999998093E+01 0. -1.
       -5    1    3    3    0  502 -0.35790808329E+03  0.99810176198E+02 -0.13583192985E+04  0.14082306892E+04  0.46999998093E+01 0.  1.
</event>
<event>
 5   0  0.1085255E-05  0.2586705E+04  0.7818609E-02  0.8372731E-01
       -2   -1    0    0    0  501  0.00000000000E+00  0.00000000000E+00  0.87930413870E+03  0.87930413870E+03  0.25500000920E-02 0. -1.
        2   -1    0    0  501    0  0.00000000000E+00  0.00000000000E+00 -0.19023688747E+04  0.19023688747E+04  0.25500000920E-02 0.  1.
    10030    2    1    2    0    0  0.00000000000E+00  0.00000000000E+00 -0.10230647360E+04  0.27816730134E+04  0.25867051049E+04 0.  0.
        5    1    3    3  502    0  0.11079976323E+04 -0.51701613830E+03 -0.58119711494E+02  0.12240769712E+04  0.46999998093E+01 0. -1.
       -5    1    3    3    0  502 -0.11079976323E+04  0.51701613830E+03 -0.96494502452E+03  0.15575960423E+04  0.46999998093E+01 0.  1.
</event>
<event>
 5   0  0.1136881E-05  0.2597500E+04  0.7818609E-02  0.8369051E-01
       -2   -1    0    0    0  501  0.00000000000E+00  0.00000000000E+00  0.73312302930E+03  0.73312302931E+03  0.25500000920E-02 0. -1.
        2   -1    0    0  501    0  0.00000000000E+00  0.00000000000E+00 -0.23007760487E+04  0.23007760487E+04  0.25500000920E-02 0.  1.
    10030    2    1    2    0    0  0.00000000000E+00  0.00000000000E+00 -0.15676530194E+04  0.30338990780E+04  0.25975002649E+04 0.  0.
        3    1    3    3  502    0 -0.13768209243E+03  0.59267190402E+03  0.55634945592E+03  0.82446411183E+03  0.10100000352E+00 0. -1.
       -3    1    3    3    0  502  0.13768209243E+03 -0.59267190402E+03 -0.21240024753E+04  0.22094349662E+04  0.10100000352E+00 0.  1.
</event>
<event>
 5   0  0.4218590E-06  0.2603955E+04  0.7818609E-02  0.8366859E-01
       -1   -1    0    0    0  501  0.00000000000E+00  0.00000000000E+00  0.92247914909E+03  0.92247914910E+03  0.50400001928E-02 0.  1.
        1   -1    0    0  501    0  0.00000000000E+00  0.00000000000E+00 -0.18375976238E+04  0.18375976238E+04  0.50400001928E-02 0. -1.
    10030    2    1    2    0    0  0.00000000000E+00  0.00000000000E+00 -0.91511847473E+03  0.27600767729E+04  0.26039550629E+04 0.  0.
        1    1    3    3  502    0 -0.30649782416E+03 -0.12499224052E+04 -0.24850719077E+03  0.13107260427E+04  0.50400001928E-02 0. -1.
       -1    1    3    3    0  502  0.30649782416E+03  0.12499224052E+04 -0.66661128396E+03  0.14493507302E+04  0.50400001928E-02 0.  1.
</event>
<event>
 5   0  0.4218590E-06  0.2586538E+04  0.7818609E-02  0.8372788E-01
        1   -1    0    0  501    0  0.00000000000E+00  0.00000000000E+00  0.10979886034E+04  0.10979886034E+04  0.50400001928E-02 0.  1.
       -1   -1    0    0    0  501  0.00000000000E+00  0.00000000000E+00 -0.15232808499E+04  0.15232808500E+04  0.50400001928E-02 0. -1.
    10030    2    1    2    0    0  0.00000000000E+00  0.00000000000E+00 -0.42529224658E+03  0.26212694533E+04  0.25865382371E+04 0.  0.
        1    1    3    3  502    0  0.23519408587E+03  0.13922008800E+03 -0.14936790550E+04  0.15184780572E+04  0.50400001928E-02 0. -1.
       -1    1    3    3    0  502 -0.23519408587E+03 -0.13922008800E+03  0.10683868084E+04  0.11027913961E+04  0.50400001928E-02 0.  1.
</event>
<event>
 5   0  0.1086507E-05  0.2602578E+04  0.7818609E-02  0.8367326E-01
       -2   -1    0    0    0  501  0.00000000000E+00  0.00000000000E+00  0.72944300495E+03  0.72944300495E+03  0.25500000920E-02 0.  1.
        2   -1    0    0  501    0  0.00000000000E+00  0.00000000000E+00 -0.23214327955E+04  0.23214327955E+04  0.25500000920E-02 0. -1.
    10030    2    1    2    0    0  0.00000000000E+00  0.00000000000E+00 -0.15919897906E+04  0.30508758005E+04  0.26025778868E+04 0.  0.
        2    1    3    3  502    0  0.19041056149E+03  0.12789099958E+04 -0.62416523814E+03  0.14357747747E+04  0.25500000920E-02 0. -1.
       -2    1    3    3    0  502 -0.19041056149E+03 -0.12789099958E+04 -0.96782455243E+03  0.16151010258E+04  0.25500000920E-02 0.  1.
</event>
<event>
 5   0  0.1116310E-05  0.2602242E+04  0.7818609E-02  0.8367440E-01
       -2   -1    0    0    0  501  0.00000000000E+00  0.00000000000E+00  0.77760987710E+03  0.77760987711E+03  0.25500000920E-02 0. -1.
        2   -1    0    0  501    0  0.00000000000E+00  0.00000000000E+00 -0.21770768554E+04  0.21770768554E+04  0.25500000920E-02 0.  1.
    10030    2    1    2    0    0  0.00000000000E+00  0.00000000000E+00 -0.13994669783E+04  0.29546867325E+04  0.26022424683E+04 0.  0.
        4    1    3    3  502    0 -0.90399020353E+03 -0.91133903285E+03 -0.45839538584E+03  0.13630352393E+04  0.12699999809E+01 0. -1.
       -4    1    3    3    0  502  0.90399020353E+03  0.91133903285E+03 -0.94107159247E+03  0.15916514932E+04  0.12699999809E+01 0.  1.
</event>
<event>
 5   0  0.4597705E-06  0.2593045E+04  0.7818609E-02  0.8370568E-01
        1   -1    0    0  501    0  0.00000000000E+00  0.00000000000E+00  0.13900884862E+04  0.13900884862E+04  0.50400001928E-02 0. -1.
       -1   -1    0    0    0  501  0.00000000000E+00  0.00000000000E+00 -0.12092539511E+04  0.12092539511E+04  0.50400001928E-02 0.  1.
    10030    2    1    2    0    0  0.00000000000E+00  0.00000000000E+00  0.18083453512E+03  0.25993424373E+04  0.25930445382E+04 0.  0.
        5    1    3    3  502    0  0.19757617699E+03 -0.10770655959E+04  0.78625105702E+03  0.13480799154E+04  0.46999998093E+01 0. -1.
       -5    1    3    3    0  502 -0.19757617699E+03  0.10770655959E+04 -0.60541652190E+03  0.12512625219E+04  0.46999998093E+01 0.  1.
</event>
<event>
 5   0  0.1085061E-05  0.2575644E+04  0.7818609E-02  0.8376522E-01
       -2   -1    0    0    0  501  0.00000000000E+00  0.00000000000E+00  0.11829085910E+04  0.11829085910E+04  0.25500000920E-02 0. -1.
        2   -1    0    0  501    0  0.00000000000E+00  0.00000000000E+00 -0.14020400574E+04  0.14020400574E+04  0.25500000920E-02 0.  1.
    10030    2    1    2    0    0  0.00000000000E+00  0.00000000000E+00 -0.21913146642E+03  0.25849486485E+04  0.25756437866E+04 0.  0.
        1    1    3    3  502    0  0.69583129200E+03  0.17282519459E+03 -0.11832133880E+04  0.13834896661E+04  0.50400001928E-02 0.  1.
       -1    1    3    3    0  502 -0.69583129200E+03 -0.17282519459E+03  0.96408192153E+03  0.12014589824E+04  0.50400001928E-02 0. -1.
</event>
<event>
 5   0  0.4597705E-06  0.2623530E+04  0.7818609E-02  0.8360252E-01
       -1   -1    0    0    0  501  0.00000000000E+00  0.00000000000E+00  0.83492326515E+03  0.83492326516E+03  0.50400001928E-02 0.  1.
        1   -1    0    0  501    0  0.00000000000E+00  0.00000000000E+00 -0.20609410369E+04  0.20609410369E+04  0.50400001928E-02 0. -1.
    10030    2    1    2    0    0  0.00000000000E+00  0.00000000000E+00 -0.12260177718E+04  0.28958643021E+04  0.26235301560E+04 0.  0.
        5    1    3    3  502    0 -0.11526341529E+04 -0.16018826005E+03  0.55207535815E+02  0.11650303563E+04  0.46999998093E+01 0.  1.
       -5    1    3    3    0  502  0.11526341529E+04  0.16018826005E+03 -0.12812253076E+04  0.17308339458E+04  0.46999998093E+01 0. -1.
</event>
<event>
 5   0  0.4464297E-06  0.2604244E+04  0.7818609E-02  0.8366761E-01
        1   -1    0    0  501    0  0.00000000000E+00  0.00000000000E+00  0.21889823475E+04  0.21889823475E+04  0.50400001928E-02 0. -1.
       -1   -1    0    0    0  501  0.00000000000E+00  0.00000000000E+00 -0.77457100591E+03  0.77457100592E+03  0.50400001928E-02 0.  1.
    10030    2    1    2    0    0  0.00000000000E+00  0.00000000000E+00  0.14144113415E+04  0.29635533534E+04  0.26042444269E+04 0.  0.
        4    1    3    3  502    0  0.11814081782E+04 -0.20120978724E+03  0.12866885722E+04  0.17583457444E+04  0.12699999809E+01 0. -1.
       -4    1    3    3    0  502 -0.11814081782E+04  0.20120978724E+03  0.12772276936E+03  0.12052076090E+04  0.12699999809E+01 0.  1.
</event>
<event>
 5   0  0.4218590E-06  0.2561670E+04  0.7818609E-02  0.8381339E-01
       -1   -1    0    0    0  501  0.00000000000E+00  0.00000000000E+00  0.15478983581E+04  0.15478983581E+04  0.50400001928E-02 0.  1.
        1   -1    0    0  501    0  0.00000000000E+00  0.00000000000E+00 -0.10598489774E+04  0.10598489775E+04  0.50400001928E-02 0. -1.
    10030    2    1    2    0    0  0.00000000000E+00  0.00000000000E+00  0.48804938063E+03  0.26077473355E+04  0.25616701521E+04 0.  0.
        1    1    3    3  502    0  0.12505551282E+03 -0.12589026313E+04  0.44778436564E+03  0.13420080307E+04  0.50400001928E-02 0.  1.
       -1    1    3    3    0  502 -0.12505551282E+03  0.12589026313E+04  0.40265014991E+02  0.12657393048E+04  0.50400001928E-02 0. -1.
</event>
<event>
 5   0  0.4218590E-06  0.2582895E+04  0.7818609E-02  0.8374035E-01
        1   -1    0    0  501    0  0.00000000000E+00  0.00000000000E+00  0.12382982525E+04  0.12382982525E+04  0.50400001928E-02 0. -1.
       -1   -1    0    0    0  501  0.00000000000E+00  0.00000000000E+00 -0.13468783150E+04  0.13468783150E+04  0.50400001928E-02 0.  1.
    10030    2    1    2    0    0  0.00000000000E+00  0.00000000000E+00 -0.10858006252E+03  0.25851765675E+04  0.25828953241E+04 0.  0.
        1    1    3    3  502    0 -0.42262318277E+03  0.75296996961E+03 -0.10154834355E+04  0.13329593908E+04  0.50400001928E-02 0.  1.
       -1    1    3    3    0  502  0.42262318277E+03 -0.75296996961E+03  0.90690337294E+03  0.12522171767E+04  0.50400001928E-02 0. -1.
</event>
<event>
 5   0  0.4218590E-06  0.2599535E+04  0.7818609E-02  0.8368359E-01
       -1   -1    0    0    0  501  0.00000000000E+00  0.00000000000E+00  0.25366771403E+04  0.25366771403E+04  0.50400001928E-02 0. -1.
        1   -1    0    0  501    0  0.00000000000E+00  0.00000000000E+00 -0.66598779098E+03  0.66598779100E+03  0.50400001928E-02 0.  1.
    10030    2    1    2    0    0  0.00000000000E+00  0.00000000000E+00  0.18706893493E+04  0.32026649313E+04  0.25995353470E+04 0.  0.
        1    1    3    3  502    0  0.12014263606E+04  0.49595413203E+03  0.93590134866E+03  0.16016576211E+04  0.50400001928E-02 0. -1.
       -1    1    3    3    0  502 -0.12014263606E+04 -0.49595413203E+03  0.93478800065E+03  0.16010073101E+04  0.50400001928E-02 0.  1.
</event>
<event>
 5   0  0.4415080E-06  0.2590574E+04  0.7818609E-02  0.8371410E-01
       -1   -1    0    0    0  501  0.00000000000E+00  0.00000000000E+00  0.74316556582E+03  0.74316556583E+03  0.50400001928E-02 0. -1.
        1   -1    0    0  501    0  0.00000000000E+00  0.00000000000E+00 -0.22575964487E+04  0.22575964487E+04  0.50400001928E-02 0.  1.
    10030    2    1    2    0    0  0.00000000000E+00  0.00000000000E+00 -0.15144308829E+04  0.30007620145E+04  0.25905736370E+04 0.  0.
        2    1    3    3  502    0  0.89442121242E+03 -0.88182024908E+03 -0.39060223770E+03  0.13153578848E+04  0.25500000920E-02 0.  1.
       -2    1    3    3    0  502 -0.89442121242E+03  0.88182024908E+03 -0.11238286452E+04  0.16854041298E+04  0.25500000920E-02 0. -1.
</event>
<event>
 5   0  0.4597705E-06  0.2601687E+04  0.7818609E-02  0.8367628E-01
        1   -1    0    0  501    0  0.00000000000E+00  0.00000000000E+00  0.22814018296E+04  0.22814018296E+04  0.50400001928E-02 0. -1.
       -1   -1    0    0    0  501  0.00000000000E+00  0.00000000000E+00 -0.74173411442E+03  0.74173411444E+03  0.50400001928E-02 0.  1.
    10030    2    1    2    0    0  0.00000000000E+00  0.00000000000E+00  0.15396677152E+04  0.30231359440E+04  0.26016868111E+04 0.  0.
        5    1    3    3  502    0 -0.84783867821E+01 -0.21779914135E+03 -0.72035440853E+03  0.75262268960E+03  0.46999998093E+01 0.  1.
       -5    1    3    3    0  502  0.84783867821E+01  0.21779914135E+03  0.22600221237E+04  0.22705132544E+04  0.46999998093E+01 0. -1.
</event>
<event>
 5   0  0.1136881E-05  0.2587181E+04  0.7818609E-02  0.8372568E-01
       -2   -1    0    0    0  501  0.00000000000E+00  0.00000000000E+00  0.89838360818E+03  0.89838360818E+03  0.25500000920E-02 0. -1.
        2   -1    0    0  501    0  0.00000000000E+00  0.00000000000E+00 -0.18626530257E+04  0.18626530257E+04  0.25500000920E-02 0.  1.
    10030    2    1    2    0    0  0.00000000000E+00  0.00000000000E+00 -0.96426941747E+03  0.27610366338E+04  0.25871814362E+04 0.  0.
        3    1    3    3  502    0 -0.84543505156E+02  0.11127478811E+04  0.21606243392E+03  0.11366786866E+04  0.10100000352E+00 0. -1.
       -3    1    3    3    0  502  0.84543505156E+02 -0.11127478811E+04 -0.11803318514E+04  0.16243579472E+04  0.10100000352E+00 0.  1.
</event>
<event>
 5   0  0.4361864E-06  0.2577610E+04  0.7818609E-02  0.8375847E-01
       -1   -1    0    0    0  501  0.00000000000E+00  0.00000000000E+00  0.13767461629E+04  0.13767461629E+04  0.50400001928E-02 0. -1.
        1   -1    0    0  501    0  0.00000000000E+00  0.00000000000E+00 -0.12064809821E+04  0.12064809821E+04  0.50400001928E-02 0.  1.
    10030    2    1    2    0    0  0.00000000000E+00  0.00000000000E+00  0.17026518080E+03  0.25832271451E+04  0.25776097942E+04 0.  0.
        3    1    3    3  502    0 -0.10527053529E+04 -0.43924109618E+03  0.68635392870E+03  0.13312411601E+04  0.10100000352E+00 0. -1.
       -3    1    3    3    0  502  0.10527053529E+04  0.43924109618E+03 -0.51608874791E+03  0.12519859850E+04  0.10100000352E+00 0.  1.
</event>
<event>
 5   0  0.4415080E-06  0.2648126E+04  0.7818609E-02  0.8352035E-01
       -1   -1    0    0    0  501  0.00000000000E+00  0.00000000000E+00  0.81958280027E+03  0.81958280028E+03  0.50400001928E-02 0. -1.
        1   -1    0    0  501    0  0.00000000000E+00  0.00000000000E+00 -0.21390677468E+04  0.21390677468E+04  0.50400001928E-02 0.  1.
    10030    2    1    2    0    0  0.00000000000E+00  0.00000000000E+00 -0.13194849465E+04  0.29586505471E+04  0.26481262311E+04 0.  0.
        2    1    3    3  502    0 -0.44127157452E+03  0.58202354893E+02  0.73349477251E+03  0.85797593084E+03  0.25500000920E-02 0. -1.
       -2    1    3    3    0  502  0.44127157452E+03 -0.58202354893E+02 -0.20529797190E+04  0.21006746163E+04  0.25500000920E-02 0.  1.
</event>
<event>
 5   0  0.1085255E-05  0.2601367E+04  0.7818609E-02  0.8367737E-01
       -2   -1    0    0    0  501  0.00000000000E+00  0.00000000000E+00  0.15416663460E+04  0.15416663460E+04  0.25500000920E-02 0.  1.
        2   -1    0    0  501    0  0.00000000000E+00  0.00000000000E+00 -0.10973695939E+04  0.10973695939E+04  0.25500000920E-02 0. -1.
    10030    2    1    2    0    0  0.00000000000E+00  0.00000000000E+00  0.44429675206E+03  0.26390359399E+04  0.26013671575E+04 0.  0.
        5    1    3    3  502    0  0.83773010251E+03 -0.38520740992E+03 -0.70851184342E+03  0.11628360140E+04  0.46999998093E+01 0.  1.
       -5    1    3    3    0  502 -0.83773010251E+03  0.38520740992E+03  0.11528085955E+04  0.14761999259E+04  0.46999998093E+01 0. -1.
</event>
<event>
 5   0  0.1136881E-05  0.2612956E+04  0.7818609E-02  0.8363814E-01
        2   -1    0    0  501    0  0.00000000000E+00  0.00000000000E+00  0.14570868577E+04  0.14570868577E+04  0.25500000920E-02 0. -1.
       -2   -1    0    0    0  501  0.00000000000E+00  0.00000000000E+00 -0.11714361305E+04  0.11714361305E+04  0.25500000920E-02 0.  1.
    10030    2    1    2    0    0  0.00000000000E+00  0.00000000000E+00  0.28565072720E+03  0.26285229883E+04  0.26129555606E+04 0.  0.
        3    1    3    3  502    0  0.32495446677E+03  0.12593645473E+04  0.18437100165E+02  0.13007437893E+04  0.10100000352E+00 0. -1.
       -3    1    3    3    0  502 -0.32495446677E+03 -0.12593645473E+04  0.26721362703E+03  0.13277791990E+04  0.10100000352E+00 0.  1.
</event>
<event>
 5   0  0.4218590E-06  0.2569798E+04  0.7818609E-02  0.8378533E-01
       -1   -1    0    0    0  501  0.00000000000E+00  0.00000000000E+00  0.11925182406E+04  0.11925182406E+04  0.50400001928E-02 0.  1.
        1   -1    0    0  501    0  0.00000000000E+00  0.00000000000E+00 -0.13844362190E+04  0.13844362190E+04  0.50400001928E-02 0. -1.
    10030    2    1    2    0    0  0.00000000000E+00  0.00000000000E+00 -0.19191797840E+03  0.25769544597E+04  0.25697980031E+04 0.  0.
        1    1    3    3  502    0  0.79312841161E+03 -0.29769423465E+03  0.87280117971E+03  0.12163290813E+04  0.50400001928E-02 0.  1.
       -1    1    3    3    0  502 -0.79312841161E+03  0.29769423465E+03 -0.10647191581E+04  0.13606253784E+04  0.50400001928E-02 0. -1.
</event>
<event>
 5   0  0.1116310E-05  0.2593614E+04  0.7818609E-02  0.8370374E-01
        2   -1    0    0  501    0  0.00000000000E+00  0.00000000000E+00  0.20752424358E+04  0.20752424358E+04  0.25500000920E-02 0.  1.
       -2   -1    0    0    0  501  0.00000000000E+00  0.00000000000E+00 -0.81036735253E+03  0.81036735253E+03  0.25500000920E-02 0. -1.
    10030    2    1    2    0    0  0.00000000000E+00  0.00000000000E+00  0.12648750833E+04  0.28856097884E+04  0.25936142493E+04 0.  0.
        4    1    3    3  502    0  0.88197849223E+03 -0.82862422962E+03  0.11391808209E+03  0.12155176334E+04  0.12699999809E+01 0. -1.
       -4    1    3    3    0  502 -0.88197849223E+03  0.82862422962E+03  0.11509570012E+04  0.16700921550E+04  0.12699999809E+01 0.  1.
</event>
<event>
 5   0  0.1085061E-05  0.2603360E+04  0.7818609E-02  0.8367061E-01
        2   -1    0    0  501    0  0.00000000000E+00  0.00000000000E+00  0.30624832615E+04  0.30624832615E+04  0.25500000920E-02 0.  1.
       -2   -1    0    0    0  501  0.00000000000E+00  0.00000000000E+00 -0.55326683742E+03  0.55326683743E+03  0.25500000920E-02 0. -1.
    10030    2    1    2    0    0  0.00000000000E+00  0.00000000000E+00  0.25092164241E+04  0.36157500990E+04  0.26033596976E+04 0.  0.
        1    1    3    3  502    0 -0.69200879107E+03  0.34937674103E+03  0.27069196336E+04  0.28157333284E+04  0.50400001928E-02 0.  1.
       -1    1    3    3    0  502  0.69200879107E+03 -0.34937674103E+03 -0.19770320946E+03  0.80001677054E+03  0.50400001928E-02 0. -1.
</event>
<event>
 5   0  0.1136881E-05  0.2573325E+04  0.7818609E-02  0.8377319E-01
       -2   -1    0    0    0  501  0.00000000000E+00  0.00000000000E+00  0.10113629174E+04  0.10113629174E+04  0.25500000920E-02 0. -1.
        2   -1    0    0  501    0  0.00000000000E+00  0.00000000000E+00 -0.16368999638E+04  0.16368999638E+04  0.25500000920E-02 0.  1.
    10030    2    1    2    0    0  0.00000000000E+00  0.00000000000E+00 -0.62553704642E+03  0.26482628812E+04  0.25733246378E+04 0.  0.
        3    1    3    3  502    0 -0.15388967767E+03  0.91100876969E+03 -0.12343239273E+04  0.15418088659E+04  0.10100000352E+00 0.  1.
       -3    1    3    3    0  502  0.15388967767E+03 -0.91100876969E+03  0.60878688090E+03  0.11064540153E+04  0.10100000352E+00 0. -1.
</event>
<event>
 5   0  0.4597705E-06  0.2568573E+04  0.7818609E-02  0.8378955E-01
        1   -1    0    0  501    0  0.00000000000E+00  0.00000000000E+00  0.16917921014E+04  0.16917921014E+04  0.50400001928E-02 0.  1.
       -1   -1    0    0    0  501  0.00000000000E+00  0.00000000000E+00 -0.97493743306E+03  0.97493743307E+03  0.50400001928E-02 0. -1.
    10030    2    1    2    0    0  0.00000000000E+00  0.00000000000E+00  0.71685466836E+03  0.26667295345E+04  0.25685727155E+04 0.  0.
        5    1    3    3  502    0  0.11838012993E+04  0.13924476087E+03  0.85481413094E+03  0.14668005687E+04  0.46999998093E+01 0.  1.
       -5    1    3    3    0  502 -0.11838012993E+04 -0.13924476087E+03 -0.13795946257E+03  0.11999289658E+04  0.46999998093E+01 0. -1.
</event>
<event>
 5   0  0.4415080E-06  0.2549366E+04  0.7818609E-02  0.8385607E-01
        1   -1    0    0  501    0  0.00000000000E+00  0.00000000000E+00  0.16858990840E+04  0.16858990840E+04  0.50400001928E-02 0. -1.
       -1   -1    0    0    0  501  0.00000000000E+00  0.00000000000E+00 -0.96376886966E+03  0.96376886968E+03  0.50400001928E-02 0.  1.
    10030    2    1    2    0    0  0.00000000000E+00  0.00000000000E+00  0.72213021437E+03  0.26496679537E+04  0.25493662386E+04 0.  0.
        2    1    3    3  502    0  0.11277578467E+04 -0.92158642025E+02 -0.24895627931E+03  0.11585811171E+04  0.25500000920E-02 0. -1.
       -2    1    3    3    0  502 -0.11277578467E+04  0.92158642025E+02  0.97108649367E+03  0.14910868366E+04  0.25500000920E-02 0.  1.
</event>
<event>
 5   0  0.4361864E-06  0.2567793E+04  0.7818609E-02  0.8379224E-01
        1   -1    0    0  501    0  0.00000000000E+00  0.00000000000E+00  0.19667399049E+04  0.19667399049E+04  0.50400001928E-02 0.  1.
       -1   -1    0    0    0  501  0.00000000000E+00  0.00000000000E+00 -0.83813334767E+03  0.83813334769E+03  0.50400001928E-02 0. -1.
    10030    2    1    2    0    0  0.00000000000E+00  0.00000000000E+00  0.11286065573E+04  0.28048732526E+04  0.25677930606E+04 0.  0.
        3    1    3    3  502    0 -0.13111678728E+03  0.11517510512E+04 -0.38626563082E+02  0.11598336594E+04  0.10100000352E+00 0. -1.
       -3    1    3    3    0  502  0.13111678728E+03 -0.11517510512E+04  0.11672331203E+04  0.16450395932E+04  0.10100000352E+00 0.  1.
</event>
<event>
 5   0  0.1086507E-05  0.2614051E+04  0.7818609E-02  0.8363444E-01
       -2   -1    0    0    0  501  0.00000000000E+00  0.00000000000E+00  0.13032008320E+04  0.13032008320E+04  0.25500000920E-02 0. -1.
        2   -1    0    0  501    0  0.00000000000E+00  0.00000000000E+00 -0.13108616836E+04  0.13108616836E+04  0.25500000920E-02 0.  1.
    10030    2    1    2    0    0  0.00000000000E+00  0.00000000000E+00 -0.76608515672E+01  0.26140625156E+04  0.26140512900E+04 0.  0.
        2    1    3    3  502    0 -0.31908902856E+03 -0.96582327893E+02  0.12599669472E+04  0.13033275346E+04  0.25500000920E-02 0. -1.
       -2    1    3    3    0  502  0.31908902856E+03  0.96582327893E+02 -0.12676277988E+04  0.13107349810E+04  0.25500000920E-02 0.  1.
</event>
<event>
 5   0  0.1116310E-05  0.2606198E+04  0.7818609E-02  0.8366099E-01
       -2   -1    0    0    0  501  0.00000000000E+00  0.00000000000E+00  0.16033121620E+04  0.16033121620E+04  0.25500000920E-02 0. -1.
        2   -1    0    0  501    0  0.00000000000E+00  0.00000000000E+00 -0.10590996137E+04  0.10590996137E+04  0.25500000920E-02 0.  1.
    10030    2    1    2    0    0  0.00000000000E+00  0.00000000000E+00  0.54421254827E+03  0.26624117756E+04  0.26061982207E+04 0.  0.
        4    1    3    3  502    0 -0.87865485620E+03 -0.76862123589E+03 -0.31939261750E+03  0.12103000527E+04  0.12699999809E+01 0.  1.
       -4    1    3    3    0  502  0.87865485620E+03  0.76862123589E+03  0.86360516578E+03  0.14521117229E+04  0.12699999809E+01 0. -1.
</event>
<event>
 5   0  0.4415080E-06  0.2613289E+04  0.7818609E-02  0.8363701E-01
        1   -1    0    0  501    0  0.00000000000E+00  0.00000000000E+00  0.99849426315E+03  0.99849426316E+03  0.50400001928E-02 0. -1.
       -1   -1    0    0    0  501  0.00000000000E+00  0.00000000000E+00 -0.17098949384E+04  0.17098949384E+04  0.50400001928E-02 0.  1.
    10030    2    1    2    0    0  0.00000000000E+00  0.00000000000E+00 -0.71140067522E+03  0.27083892015E+04  0.26132893346E+04 0.  0.
        2    1    3    3  502    0 -0.44970876866E+03  0.12252496416E+04 -0.41997015783E+03  0.13710760717E+04  0.25500000920E-02 0. -1.
       -2    1    3    3    0  502  0.44970876866E+03 -0.12252496416E+04 -0.29143051739E+03  0.13373131299E+04  0.25500000920E-02 0.  1.
</event>
<event>
 5   0  0.4597705E-06  0.2605668E+04  0.7818609E-02  0.8366279E-01
       -1   -1    0    0    0  501  0.00000000000E+00  0.00000000000E+00  0.67551250753E+03  0.67551250755E+03  0.50400001928E-02 0. -1.
        1   -1    0    0  501    0  0.00000000000E+00  0.00000000000E+00 -0.25127235970E+04  0.25127235970E+04  0.50400001928E-02 0.  1.
    10030    2    1    2    0    0  0.00000000000E+00  0.00000000000E+00 -0.18372110894E+04  0.31882361045E+04  0.26056678359E+04 0.  0.
        5    1    3    3  502    0 -0.54968270762E+03 -0.68587441100E+03 -0.20952641711E+04  0.22721639077E+04  0.46999998093E+01 0.  1.
       -5    1    3    3    0  502  0.54968270762E+03  0.68587441100E+03  0.25805308172E+03  0.91607219678E+03  0.46999998093E+01 0. -1.
</event>
<event>
 5   0  0.4415080E-06  0.2590867E+04  0.7818609E-02  0.8371310E-01
       -1   -1    0    0    0  501  0.00000000000E+00  0.00000000000E+00  0.96803439016E+03  0.96803439017E+03  0.50400001928E-02 0. -1.
        1   -1    0    0  501    0  0.00000000000E+00  0.00000000000E+00 -0.17335621956E+04  0.17335621956E+04  0.50400001928E-02 0.  1.
    10030    2    1    2    0    0  0.00000000000E+00  0.00000000000E+00 -0.76552780546E+03  0.27015965858E+04  0.25908668996E+04 0.  0.
        2    1    3    3  502    0 -0.56968314477E+03 -0.15619158042E+03  0.81942497891E+03  0.10101445398E+04  0.25500000920E-02 0. -1.
       -2    1    3    3    0  502  0.56968314477E+03  0.15619158042E+03 -0.15849527844E+04  0.16914520460E+04  0.25500000920E-02 0.  1.
</event>
<event>
 5   0  0.1086507E-05  0.2593943E+04  0.7818609E-02  0.8370262E-01
        2   -1    0    0  501    0  0.00000000000E+00  0.00000000000E+00  0.13712350844E+04  0.13712350844E+04  0.25500000920E-02 0.  1.
       -2   -1    0    0    0  501  0.00000000000E+00  0.00000000000E+00 -0.12267294878E+04  0.12267294878E+04  0.25500000920E-02 0. -1.
    10030    2    1    2    0    0  0.00000000000E+00  0.00000000000E+00  0.14450559665E+03  0.25979645722E+04  0.25939425689E+04 0.  0.
        2    1    3    3  502    0 -0.95227950445E+02 -0.27597130431E+03 -0.11933940527E+04  0.12285836920E+04  0.25500000920E-02 0. -1.
       -2    1    3    3    0  502  0.95227950445E+02  0.27597130431E+03  0.13378996493E+04  0.13693808802E+04  0.25500000920E-02 0.  1.
</event>
<event>
 5   0  0.1136881E-05  0.2609992E+04  0.7818609E-02  0.8364815E-01
       -2   -1    0    0    0  501  0.00000000000E+00  0.00000000000E+00  0.84283795189E+03  0.84283795189E+03  0.25500000920E-02 0. -1.
        2   -1    0    0  501    0  0.00000000000E+00  0.00000000000E+00 -0.20205721358E+04  0.20205721358E+04  0.25500000920E-02 0.  1.
    10030    2    1    2    0    0  0.00000000000E+00  0.00000000000E+00 -0.11777341840E+04  0.28634100877E+04  0.26099922457E+04 0.  0.
        3    1    3    3  502    0 -0.11550638523E+04  0.30272790408E+03 -0.11250681029E+02  0.11941286676E+04  0.10100000352E+00 0. -1.
       -3    1    3    3    0  502  0.11550638523E+04 -0.30272790408E+03 -0.11664835029E+04  0.16692814201E+04  0.10100000352E+00 0.  1.
</event>
<event>
 5   0  0.1086507E-05  0.2611556E+04  0.7818609E-02  0.8364286E-01
       -2   -1    0    0    0  501  0.00000000000E+00  0.00000000000E+00  0.91053609952E+03  0.91053609953E+03  0.25500000920E-02 0. -1.
        2   -1    0    0  501    0  0.00000000000E+00  0.00000000000E+00 -0.18725856394E+04  0.18725856394E+04  0.25500000920E-02 0.  1.
    10030    2    1    2    0    0  0.00000000000E+00  0.00000000000E+00 -0.96204953989E+03  0.27831217389E+04  0.26115564893E+04 0.  0.
        2    1    3    3  502    0 -0.13006906947E+04 -0.51611896104E+02 -0.37132159737E+03  0.13536394644E+04  0.25500000920E-02 0.  1.
       -2    1    3    3    0  502  0.13006906947E+04  0.51611896104E+02 -0.59072794251E+03  0.14294822745E+04  0.25500000920E-02 0. -1.
</event>
<event>
 5   0  0.4361864E-06  0.2609323E+04  0.7818609E-02  0.8365041E-01
        1   -1    0    0  501    0  0.00000000000E+00  0.00000000000E+00  0.27173820614E+04  0.27173820614E+04  0.50400001928E-02 0.  1.
       -1   -1    0    0    0  501  0.00000000000E+00  0.00000000000E+00 -0.62639015139E+03  0.62639015141E+03  0.50400001928E-02 0. -1.
    10030    2    1    2    0    0  0.00000000000E+00  0.00000000000E+00  0.20909919100E+04  0.33437722128E+04  0.26093227940E+04 0.  0.
        3    1    3    3  502    0  0.71339977373E+03 -0.75828528530E+03  0.37925735996E+02  0.10418129308E+04  0.10100000352E+00 0. -1.
       -3    1    3    3    0  502 -0.71339977373E+03  0.75828528530E+03  0.20530661740E+04  0.23019592820E+04  0.10100000352E+00 0.  1.
</event>
<event>
 5   0  0.4597705E-06  0.2607482E+04  0.7818609E-02  0.8365664E-01
        1   -1    0    0  501    0  0.00000000000E+00  0.00000000000E+00  0.13044100029E+04  0.13044100029E+04  0.50400001928E-02 0. -1.
       -1   -1    0    0    0  501  0.00000000000E+00  0.00000000000E+00 -0.13030718861E+04  0.13030718861E+04  0.50400001928E-02 0.  1.
    10030    2    1    2    0    0  0.00000000000E+00  0.00000000000E+00  0.13381167923E+01  0.26074818891E+04  0.26074815457E+04 0.  0.
        5    1    3    3  502    0  0.11181339674E+04  0.65091023635E+03  0.16132463626E+03  0.13038233903E+04  0.46999998093E+01 0.  1.
       -5    1    3    3    0  502 -0.11181339674E+04 -0.65091023635E+03 -0.15998651947E+03  0.13036584987E+04  0.46999998093E+01 0. -1.
</event>
<event>
 5   0  0.1085255E-05  0.2604310E+04  0.7818609E-02  0.8366739E-01
        2   -1    0    0  501    0  0.00000000000E+00  0.00000000000E+00  0.27336702653E+04  0.27336702653E+04  0.25500000920E-02 0.  1.
       -2   -1    0    0    0  501  0.00000000000E+00  0.00000000000E+00 -0.62026796943E+03  0.62026796944E+03  0.25500000920E-02 0. -1.
    10030    2    1    2    0    0  0.00000000000E+00  0.00000000000E+00  0.21134022959E+04  0.33539382347E+04  0.26043103537E+04 0.  0.
        5    1    3    3  502    0 -0.97856879830E+03  0.84912968052E+03  0.88894576558E+03  0.15712621587E+04  0.46999998093E+01 0.  1.
       -5    1    3    3    0  502  0.97856879830E+03 -0.84912968052E+03  0.12244565303E+04  0.17826760760E+04  0.46999998093E+01 0. -1.
</event>
<event>
 5   0  0.4597705E-06  0.2604290E+04  0.7818609E-02  0.8366745E-01
        1   -1    0    0  501    0  0.00000000000E+00  0.00000000000E+00  0.89781373980E+03  0.89781373982E+03  0.50400001928E-02 0. -1.
       -1   -1    0    0    0  501  0.00000000000E+00  0.00000000000E+00 -0.18885673856E+04  0.18885673856E+04  0.50400001928E-02 0.  1.
    10030    2    1    2    0    0  0.00000000000E+00  0.00000000000E+00 -0.99075364577E+03  0.27863811254E+04  0.26042901124E+04 0.  0.
        5    1    3    3  502    0  0.44082328517E+03  0.29206216289E+03 -0.17685066429E+04  0.18458773826E+04  0.46999998093E+01 0.  1.
       -5    1    3    3    0  502 -0.44082328517E+03 -0.29206216289E+03  0.77775299709E+03  0.94050374280E+03  0.46999998093E+01 0. -1.
</event>
<event>
 5   0  0.4415080E-06  0.2589891E+04  0.7818609E-02  0.8371643E-01
       -1   -1    0    0    0  501  0.00000000000E+00  0.00000000000E+00  0.17989802604E+04  0.17989802604E+04  0.50400001928E-02 0.  1.
        1   -1    0    0  501    0  0.00000000000E+00  0.00000000000E+00 -0.93213014287E+03  0.93213014289E+03  0.50400001928E-02 0. -1.
    10030    2    1    2    0    0  0.00000000000E+00  0.00000000000E+00  0.86685011752E+03  0.27311104033E+04  0.25898909067E+04 0.  0.
        2    1    3    3  502    0  0.34594176619E+03  0.86626704812E+03  0.13806167586E+04  0.16661923474E+04  0.25500000920E-02 0.  1.
       -2    1    3    3    0  502 -0.34594176619E+03 -0.86626704812E+03 -0.51376664112E+03  0.10649180559E+04  0.25500000920E-02 0. -1.
</event>
<event>
 5   0  0.1085255E-05  0.2681322E+04  0.7818609E-02  0.8341091E-01
       -2   -1    0    0    0  501  0.00000000000E+00  0.00000000000E+00  0.10077886287E+04  0.10077886287E+04  0.25500000920E-02 0. -1.
        2   -1    0    0  501    0  0.00000000000E+00  0.00000000000E+00 -0.17834812438E+04  0.17834812438E+04  0.25500000920E-02 0.  1.
    10030    2    1    2    0    0  0.00000000000E+00  0.00000000000E+00 -0.77569261510E+03  0.27912698726E+04  0.26813221493E+04 0.  0.
        5    1    3    3  502    0 -0.79833251764E+03 -0.97958782338E+03  0.78197261147E+02  0.12661216427E+04  0.46999998093E+01 0. -1.
       -5    1    3    3    0  502  0.79833251764E+03  0.97958782338E+03 -0.85388987625E+03  0.15251482299E+04  0.46999998093E+01 0.  1.
</event>
<event>
 5   0  0.4218590E-06  0.2608414E+04  0.7818609E-02  0.8365349E-01
        1   -1    0    0  501    0  0.00000000000E+00  0.00000000000E+00  0.68033252791E+03  0.68033252793E+03  0.50400001928E-02 0. -1.
       -1   -1    0    0    0  501  0.00000000000E+00  0.00000000000E+00 -0.25001834294E+04  0.25001834294E+04  0.50400001928E-02 0.  1.
    10030    2    1    2    0    0  0.00000000000E+00  0.00000000000E+00 -0.18198509015E+04  0.31805159574E+04  0.26084141641E+04 0.  0.
        1    1    3    3  502    0  0.34631674455E+02 -0.98185726162E+02 -0.24951081623E+04  0.24972794259E+04  0.50400001928E-02 0.  1.
       -1    1    3    3    0  502 -0.34631674455E+02  0.98185726162E+02  0.67525726074E+03  0.68323653145E+03  0.50400001928E-02 0. -1.
</event>
<event>
 5   0  0.1136881E-05  0.2606895E+04  0.7818609E-02  0.8365863E-01
       -2   -1    0    0    0  501  0.00000000000E+00  0.00000000000E+00  0.11235800009E+04  0.11235800009E+04  0.25500000920E-02 0. -1.
        2   -1    0    0  501    0  0.00000000000E+00  0.00000000000E+00 -0.15121089219E+04  0.15121089219E+04  0.25500000920E-02 0.  1.
    10030    2    1    2    0    0  0.00000000000E+00  0.00000000000E+00 -0.38852892103E+03  0.26356889228E+04  0.26068949682E+04 0.  0.
        3    1    3    3  502    0  0.11197567037E+04 -0.27138818521E+03 -0.81047871013E+03  0.14086810755E+04  0.10100000352E+00 0.  1.
       -3    1    3    3    0  502 -0.11197567037E+04  0.27138818521E+03  0.42194978910E+03  0.12270078473E+04  0.10100000352E+00 0. -1.
</event>
<event>
 5   0  0.1085061E-05  0.2580037E+04  0.7818609E-02  0.8375014E-01
        2   -1    0    0  501    0  0.00000000000E+00  0.00000000000E+00  0.27512522688E+04  0.27512522688E+04  0.25500000920E-02 0.  1.
       -2   -1    0    0    0  501  0.00000000000E+00  0.00000000000E+00 -0.60486937000E+03  0.60486937001E+03  0.25500000920E-02 0. -1.
    10030    2    1    2    0    0  0.00000000000E+00  0.00000000000E+00  0.21463828987E+04  0.33561216388E+04  0.25800373846E+04 0.  0.
        1    1    3    3  502    0 -0.44402453632E+03 -0.23648413664E+03  0.26183936224E+04  0.26662834991E+04  0.50400001928E-02 0.  1.
       -1    1    3    3    0  502  0.44402453632E+03  0.23648413664E+03 -0.47201072362E+03  0.68983813969E+03  0.50400001928E-02 0. -1.
</event>
<event>
 5   0  0.1136881E-05  0.2598125E+04  0.7818609E-02  0.8368838E-01
       -2   -1    0    0    0  501  0.00000000000E+00  0.00000000000E+00  0.84560036498E+03  0.84560036498E+03  0.25500000920E-02 0.  1.
        2   -1    0    0  501    0  0.00000000000E+00  0.00000000000E+00 -0.19956984905E+04  0.19956984905E+04  0.25500000920E-02 0. -1.
    10030    2    1    2    0    0  0.00000000000E+00  0.00000000000E+00 -0.11500981256E+04  0.28412988555E+04  0.25981249947E+04 0.  0.
        3    1    3    3  502    0 -0.32847055543E+02  0.12686685479E+04 -0.27165838119E+03  0.12978432493E+04  0.10100000352E+00 0.  1.
       -3    1    3    3    0  502  0.32847055543E+02 -0.12686685479E+04 -0.87843974437E+03  0.15434556062E+04  0.10100000352E+00 0. -1.
</event>
<event>
 5   0  0.4415080E-06  0.2599073E+04  0.7818609E-02  0.8368516E-01
        1   -1    0    0  501    0  0.00000000000E+00  0.00000000000E+00  0.18505500485E+04  0.18505500486E+04  0.50400001928E-02 0.  1.
       -1   -1    0    0    0  501  0.00000000000E+00  0.00000000000E+00 -0.91259073936E+03  0.91259073938E+03  0.50400001928E-02 0. -1.
    10030    2    1    2    0    0  0.00000000000E+00  0.00000000000E+00  0.93795930918E+03  0.27631407879E+04  0.25990727863E+04 0.  0.
        2    1    3    3  502    0  0.85764384475E+03  0.28682881739E+03  0.14611504620E+04  0.17183667849E+04  0.25500000920E-02 0.  1.
       -2    1    3    3    0  502 -0.85764384475E+03 -0.28682881739E+03 -0.52319115284E+03  0.10447740030E+04  0.25500000920E-02 0. -1.
</event>
<event>
 5   0  0.1116310E-05  0.2602923E+04  0.7818609E-02  0.8367209E-01
        2   -1    0    0  501    0  0.00000000000E+00  0.00000000000E+00  0.89066316230E+03  0.89066316231E+03  0.25500000920E-02 0. -1.
       -2   -1    0    0    0  501  0.00000000000E+00  0.00000000000E+00 -0.19017307324E+04  0.19017307324E+04  0.25500000920E-02 0.  1.
    10030    2    1    2    0    0  0.00000000000E+00  0.00000000000E+00 -0.10110675701E+04  0.27923938947E+04  0.26029225943E+04 0.  0.
        4    1    3    3  502    0  0.16771966252E+02  0.65521990582E+03 -0.17117474919E+04  0.18329417647E+04  0.12699999809E+01 0.  1.
       -4    1    3    3    0  502 -0.16771966252E+02 -0.65521990582E+03  0.70067992187E+03  0.95945212994E+03  0.12699999809E+01 0. -1.
</event>
<event>
 5   0  0.4597705E-06  0.2590612E+04  0.7818609E-02  0.8371397E-01
        1   -1    0    0  501    0  0.00000000000E+00  0.00000000000E+00  0.11275626398E+04  0.11275626398E+04  0.50400001928E-02 0. -1.
       -1   -1    0    0    0  501  0.00000000000E+00  0.00000000000E+00 -0.14880040333E+04  0.14880040333E+04  0.50400001928E-02 0.  1.
    10030    2    1    2    0    0  0.00000000000E+00  0.00000000000E+00 -0.36044139347E+03  0.26155666732E+04  0.25906120944E+04 0.  0.
        5    1    3    3  502    0  0.10829350934E+04 -0.47398952049E+03 -0.71483163337E+03  0.13814560565E+04  0.46999998093E+01 0. -1.
       -5    1    3    3    0  502 -0.10829350934E+04  0.47398952049E+03  0.35439023990E+03  0.12341106166E+04  0.46999998093E+01 0.  1.
</event>
<event>
 5   0  0.4415080E-06  0.2609369E+04  0.7818609E-02  0.8365026E-01
        1   -1    0    0  501    0  0.00000000000E+00  0.00000000000E+00  0.15875886583E+04  0.15875886583E+04  0.50400001928E-02 0.  1.
       -1   -1    0    0    0  501  0.00000000000E+00  0.00000000000E+00 -0.10721933872E+04  0.10721933872E+04  0.50400001928E-02 0. -1.
    10030    2    1    2    0    0  0.00000000000E+00  0.00000000000E+00  0.51539527114E+03  0.26597820455E+04  0.26093693192E+04 0.  0.
        2    1    3    3  502    0 -0.30053739992E+02 -0.11416878951E+04 -0.38524001799E+03  0.12053067446E+04  0.25500000920E-02 0.  1.
       -2    1    3    3    0  502  0.30053739992E+02  0.11416878951E+04  0.90063528913E+03  0.14544753009E+04  0.25500000920E-02 0. -1.
</event>
<event>
 5   0  0.4415080E-06  0.2420588E+04  0.7818609E-02  0.8431836E-01
        1   -1    0    0  501    0  0.00000000000E+00  0.00000000000E+00  0.13373079621E+04  0.13373079621E+04  0.50400001928E-02 0. -1.
       -1   -1    0    0    0  501  0.00000000000E+00  0.00000000000E+00 -0.10953434097E+04  0.10953434097E+04  0.50400001928E-02 0.  1.
    10030    2    1    2    0    0  0.00000000000E+00  0.00000000000E+00  0.24196455239E+03  0.24326513718E+04  0.24205879145E+04 0.  0.
        2    1    3    3  502    0  0.10630960207E+04 -0.20640121337E+03  0.66407982527E+03  0.12703450809E+04  0.25500000920E-02 0. -1.
       -2    1    3    3    0  502 -0.10630960207E+04  0.20640121337E+03 -0.42211527288E+03  0.11623062909E+04  0.25500000920E-02 0.  1.
</event>
<event>
 5   0  0.4361864E-06  0.2594688E+04  0.7818609E-02  0.8370008E-01
        1   -1    0    0  501    0  0.00000000000E+00  0.00000000000E+00  0.21340603168E+04  0.21340603168E+04  0.50400001928E-02 0. -1.
       -1   -1    0    0    0  501  0.00000000000E+00  0.00000000000E+00 -0.78868496736E+03  0.78868496737E+03  0.50400001928E-02 0.  1.
    10030    2    1    2    0    0  0.00000000000E+00  0.00000000000E+00  0.13453753494E+04  0.29227452842E+04  0.25946878743E+04 0.  0.
        3    1    3    3  502    0  0.58787688200E+03 -0.97794201818E+03  0.13681013815E+04  0.17814800643E+04  0.10100000352E+00 0. -1.
       -3    1    3    3    0  502 -0.58787688200E+03  0.97794201818E+03 -0.22726032061E+02  0.11412652199E+04  0.10100000352E+00 0.  1.
</event>
<event>
 5   0  0.4597705E-06  0.2607058E+04  0.7818609E-02  0.8365808E-01
       -1   -1    0    0    0  501  0.00000000000E+00  0.00000000000E+00  0.13414728138E+04  0.13414728138E+04  0.50400001928E-02 0. -1.
        1   -1    0    0  501    0  0.00000000000E+00  0.00000000000E+00 -0.12666580543E+04  0.12666580543E+04  0.50400001928E-02 0.  1.
    10030    2    1    2    0    0  0.00000000000E+00  0.00000000000E+00  0.74814759464E+02  0.26081308681E+04  0.26070576090E+04 0.  0.
        5    1    3    3  502    0  0.12632001684E+04  0.23190306843E+03  0.26046005047E+03  0.13104637448E+04  0.46999998093E+01 0. -1.
       -5    1    3    3    0  502 -0.12632001684E+04 -0.23190306843E+03 -0.18564529101E+03  0.12976671232E+04  0.46999998093E+01 0.  1.
</event>
<event>
 5   0  0.1085255E-05  0.2605076E+04  0.7818609E-02  0.8366479E-01
       -2   -1    0    0    0  501  0.00000000000E+00  0.00000000000E+00  0.92114315428E+03  0.92114315429E+03  0.25500000920E-02 0.  1.
        2   -1    0    0  501    0  0.00000000000E+00  0.00000000000E+00 -0.18418472352E+04  0.18418472352E+04  0.25500000920E-02 0. -1.
    10030    2    1    2    0    0  0.00000000000E+00  0.00000000000E+00 -0.92070408090E+03  0.27629903895E+04  0.26050757931E+04 0.  0.
        5    1    3    3  502    0  0.12851668234E+04 -0.51304211311E+01 -0.23560410738E+03  0.13066030272E+04  0.46999998093E+01 0.  1.
       -5    1    3    3    0  502 -0.12851668234E+04  0.51304211311E+01 -0.68509997352E+03  0.14563873623E+04  0.46999998093E+01 0. -1.
</event>
<event>
 5   0  0.4218590E-06  0.2605458E+04  0.7818609E-02  0.8366350E-01
        1   -1    0    0  501    0  0.00000000000E+00  0.00000000000E+00  0.88132166702E+03  0.88132166704E+03  0.50400001928E-02 0.  1.
       -1   -1    0    0    0  501  0.00000000000E+00  0.00000000000E+00 -0.19256339711E+04  0.19256339711E+04  0.50400001928E-02 0. -1.
    10030    2    1    2    0    0  0.00000000000E+00  0.00000000000E+00 -0.10443123040E+04  0.28069556381E+04  0.26054580722E+04 0.  0.
        1    1    3    3  502    0 -0.87430671140E+03  0.85992013748E+03 -0.99572875709E+03  0.15796678848E+04  0.50400001928E-02 0. -1.
       -1    1    3    3    0  502  0.87430671140E+03 -0.85992013748E+03 -0.48583546947E+02  0.12272877533E+04  0.50400001928E-02 0.  1.
</event>
<event>
 5   0  0.4597705E-06  0.2588800E+04  0.7818609E-02  0.8372015E-01
       -1   -1    0    0    0  501  0.00000000000E+00  0.00000000000E+00  0.64549500207E+03  0.64549500209E+03  0.50400001928E-02 0. -1.
        1   -1    0    0  501    0  0.00000000000E+00  0.00000000000E+00 -0.25956383059E+04  0.25956383059E+04  0.50400001928E-02 0.  1.
    10030    2    1    2    0    0  0.00000000000E+00  0.00000000000E+00 -0.19501433039E+04  0.32411333080E+04  0.25888001496E+04 0.  0.
        5    1    3    3  502    0 -0.10420870006E+04  0.70409874902E+03 -0.59173361103E+03  0.13899176672E+04  0.46999998093E+01 0. -1.
       -5    1    3    3    0  502  0.10420870006E+04 -0.70409874902E+03 -0.13584096928E+04  0.18512156408E+04  0.46999998093E+01 0.  1.
</event>
<event>
 5   0  0.4464297E-06  0.2455528E+04  0.7818609E-02  0.8419002E-01
        1   -1    0    0  501    0  0.00000000000E+00  0.00000000000E+00  0.19898618616E+04  0.19898618616E+04  0.50400001928E-02 0. -1.
       -1   -1    0    0    0  501  0.00000000000E+00  0.00000000000E+00 -0.75754233061E+03  0.75754233063E+03  0.50400001928E-02 0.  1.
    10030    2    1    2    0    0  0.00000000000E+00  0.00000000000E+00  0.12323195310E+04  0.27474041923E+04  0.24555281243E+04 0.  0.
        4    1    3    3  502    0 -0.49998825323E+03  0.55192759832E+03  0.17082949226E+04  0.18635679442E+04  0.12699999809E+01 0. -1.
       -4    1    3    3    0  502  0.49998825323E+03 -0.55192759832E+03 -0.47597539156E+03  0.88383624808E+03  0.12699999809E+01 0.  1.
</event>
<event>
 5   0  0.4415080E-06  0.2612610E+04  0.7818609E-02  0.8363931E-01
       -1   -1    0    0    0  501  0.00000000000E+00  0.00000000000E+00  0.90170379088E+03  0.90170379089E+03  0.50400001928E-02 0. -1.
        1   -1    0    0  501    0  0.00000000000E+00  0.00000000000E+00 -0.18924535393E+04  0.18924535393E+04  0.50400001928E-02 0.  1.
    10030    2    1    2    0    0  0.00000000000E+00  0.00000000000E+00 -0.99074974839E+03  0.27941573302E+04  0.26126098296E+04 0.  0.
        2    1    3    3  502    0  0.25207757547E+03  0.12755526354E+04 -0.36070884281E+03  0.13493289069E+04  0.25500000920E-02 0. -1.
       -2    1    3    3    0  502 -0.25207757547E+03 -0.12755526354E+04 -0.63004090558E+03  0.14448284232E+04  0.25500000920E-02 0.  1.
</event>
<event>
 5   0  0.1086507E-05  0.2570379E+04  0.7818609E-02  0.8378333E-01
        2   -1    0    0  501    0  0.00000000000E+00  0.00000000000E+00  0.20472190279E+04  0.20472190279E+04  0.25500000920E-02 0. -1.
       -2   -1    0    0    0  501  0.00000000000E+00  0.00000000000E+00 -0.80680766676E+03  0.80680766676E+03  0.25500000920E-02 0.  1.
    10030    2    1    2    0    0  0.00000000000E+00  0.00000000000E+00  0.12404113612E+04  0.28540266947E+04  0.25703789660E+04 0.  0.
        2    1    3    3  502    0 -0.10520729564E+04  0.38406951358E+03  0.13201198873E+04  0.17312086569E+04  0.25500000920E-02 0. -1.
       -2    1    3    3    0  502  0.10520729564E+04 -0.38406951358E+03 -0.79708526123E+02  0.11228180378E+04  0.25500000920E-02 0.  1.
</event>
<event>
 5   0  0.1136881E-05  0.2564434E+04  0.7818609E-02  0.8380383E-01
        2   -1    0    0  501    0  0.00000000000E+00  0.00000000000E+00  0.98724088750E+03  0.98724088750E+03  0.25500000920E-02 0. -1.
       -2   -1    0    0    0  501  0.00000000000E+00  0.00000000000E+00 -0.16653291707E+04  0.16653291707E+04  0.25500000920E-02 0.  1.
    10030    2    1    2    0    0  0.00000000000E+00  0.00000000000E+00 -0.67808828319E+03  0.26525700582E+04  0.25644344784E+04 0.  0.
        3    1    3    3  502    0 -0.29339078319E+03  0.11306480145E+04  0.20793820959E+03  0.11864574976E+04  0.10100000352E+00 0.  1.
       -3    1    3    3    0  502  0.29339078319E+03 -0.11306480145E+04 -0.88602649278E+03  0.14661125606E+04  0.10100000352E+00 0. -1.
</event>
<event>
 5   0  0.1116310E-05  0.2603209E+04  0.7818609E-02  0.8367112E-01
        2   -1    0    0  501    0  0.00000000000E+00  0.00000000000E+00  0.17169780800E+04  0.17169780800E+04  0.25500000920E-02 0.  1.
       -2   -1    0    0    0  501  0.00000000000E+00  0.00000000000E+00 -0.98671837567E+03  0.98671837567E+03  0.25500000920E-02 0. -1.
    10030    2    1    2    0    0  0.00000000000E+00  0.00000000000E+00  0.73025970437E+03  0.27036964557E+04  0.26032086526E+04 0.  0.
        4    1    3    3  502    0 -0.36009726336E+03  0.12416482437E+04  0.52199585048E+03  0.13942172287E+04  0.12699999809E+01 0.  1.
       -4    1    3    3    0  502  0.36009726336E+03 -0.12416482437E+04  0.20826385388E+03  0.13094792270E+04  0.12699999809E+01 0. -1.
</event>
<event>
 5   0  0.4597705E-06  0.2595800E+04  0.7818609E-02  0.8369629E-01
        1   -1    0    0  501    0  0.00000000000E+00  0.00000000000E+00  0.18147997777E+04  0.18147997777E+04  0.50400001928E-02 0. -1.
       -1   -1    0    0    0  501  0.00000000000E+00  0.00000000000E+00 -0.92822625899E+03  0.92822625900E+03  0.50400001928E-02 0.  1.
    10030    2    1    2    0    0  0.00000000000E+00  0.00000000000E+00  0.88657351867E+03  0.27430260367E+04  0.25958003070E+04 0.  0.
        5    1    3    3  502    0  0.54997769170E+03  0.20199577010E+03 -0.78051959247E+03  0.97596653464E+03  0.46999998093E+01 0.  1.
       -5    1    3    3    0  502 -0.54997769170E+03 -0.20199577010E+03  0.16670931111E+04  0.17670595020E+04  0.46999998093E+01 0. -1.
</event>
<event>
 5   0  0.1085061E-05  0.2604788E+04  0.7818609E-02  0.8366577E-01
       -2   -1    0    0    0  501  0.00000000000E+00  0.00000000000E+00  0.99060973128E+03  0.99060973128E+03  0.25500000920E-02 0.  1.
        2   -1    0    0  501    0  0.00000000000E+00  0.00000000000E+00 -0.17123088901E+04  0.17123088901E+04  0.25500000920E-02 0. -1.
    10030    2    1    2    0    0  0.00000000000E+00  0.00000000000E+00 -0.72169915879E+03  0.27029186214E+04  0.26047877837E+04 0.  0.
        1    1    3    3  502    0  0.20897335919E+03 -0.99460461579E+03  0.48427884318E+03  0.11258038038E+04  0.50400001928E-02 0.  1.
       -1    1    3    3    0  502 -0.20897335919E+03  0.99460461579E+03 -0.12059780020E+04  0.15771148176E+04  0.50400001928E-02 0. -1.
</event>
<event>
 5   0  0.1085255E-05  0.2613785E+04  0.7818609E-02  0.8363534E-01
        2   -1    0    0  501    0  0.00000000000E+00  0.00000000000E+00  0.10178790740E+04  0.10178790740E+04  0.25500000920E-02 0. -1.
       -2   -1    0    0    0  501  0.00000000000E+00  0.00000000000E+00 -0.16779674892E+04  0.16779674892E+04  0.25500000920E-02 0.  1.
    10030    2    1    2    0    0  0.00000000000E+00  0.00000000000E+00 -0.66008841511E+03  0.26958465632E+04  0.26137849905E+04 0.  0.
        5    1    3    3  502    0 -0.82518502439E+03  0.62910611369E+03  0.48940669279E+03  0.11472775722E+04  0.46999998093E+01 0. -1.
       -5    1    3    3    0  502  0.82518502439E+03 -0.62910611369E+03 -0.11494951079E+04  0.15485689910E+04  0.46999998093E+01 0.  1.
</event>
<event>
 5   0  0.4464297E-06  0.2608231E+04  0.7818609E-02  0.8365411E-01
        1   -1    0    0  501    0  0.00000000000E+00  0.00000000000E+00  0.16432744207E+04  0.16432744207E+04  0.50400001928E-02 0.  1.
       -1   -1    0    0    0  501  0.00000000000E+00  0.00000000000E+00 -0.10349564826E+04  0.10349564826E+04  0.50400001928E-02 0. -1.
    10030    2    1    2    0    0  0.00000000000E+00  0.00000000000E+00  0.60831793809E+03  0.26782309034E+04  0.26082312125E+04 0.  0.
        4    1    3    3  502    0  0.61581845942E+03 -0.96631178639E+03  0.94354606044E+03  0.14843421521E+04  0.12699999809E+01 0.  1.
       -4    1    3    3    0  502 -0.61581845942E+03  0.96631178639E+03 -0.33522812235E+03  0.11938887513E+04  0.12699999809E+01 0. -1.
</event>
<event>
 5   0  0.4415080E-06  0.2605001E+04  0.7818609E-02  0.8366504E-01
       -1   -1    0    0    0  501  0.00000000000E+00  0.00000000000E+00  0.10081900347E+04  0.10081900348E+04  0.50400001928E-02 0. -1.
        1   -1    0    0  501    0  0.00000000000E+00  0.00000000000E+00 -0.16827261919E+04  0.16827261919E+04  0.50400001928E-02 0.  1.
    10030    2    1    2    0    0  0.00000000000E+00  0.00000000000E+00 -0.67453615715E+03  0.26909162267E+04  0.26050011731E+04 0.  0.
        2    1    3    3  502    0  0.59691307029E+03  0.18287883276E+03  0.84356856322E+03  0.10494559552E+04  0.25500000920E-02 0. -1.
       -2    1    3    3    0  502 -0.59691307029E+03 -0.18287883276E+03 -0.15181047204E+04  0.16414602715E+04  0.25500000920E-02 0.  1.
</event>
<event>
 5   0  0.4415080E-06  0.2598876E+04  0.7818609E-02  0.8368583E-01
       -1   -1    0    0    0  501  0.00000000000E+00  0.00000000000E+00  0.96475830155E+03  0.96475830157E+03  0.50400001928E-02 0. -1.
        1   -1    0    0  501    0  0.00000000000E+00  0.00000000000E+00 -0.17502200339E+04  0.17502200339E+04  0.50400001928E-02 0.  1.
    10030    2    1    2    0    0  0.00000000000E+00  0.00000000000E+00 -0.78546173233E+03  0.27149783355E+04  0.25988761473E+04 0.  0.
        2    1    3    3  502    0  0.68582952330E+03 -0.10338993521E+04 -0.79629061137E+03  0.14742417519E+04  0.25500000920E-02 0.  1.
       -2    1    3    3    0  502 -0.68582952330E+03  0.10338993521E+04  0.10828879043E+02  0.12407365836E+04  0.25500000920E-02 0. -1.
</event>
<event>
 5   0  0.4597705E-06  0.2597817E+04  0.7818609E-02  0.8368943E-01
       -1   -1    0    0    0  501  0.00000000000E+00  0.00000000000E+00  0.12428460705E+04  0.12428460705E+04  0.50400001928E-02 0. -1.
        1   -1    0    0  501    0  0.00000000000E+00  0.00000000000E+00 -0.13574994466E+04  0.13574994466E+04  0.50400001928E-02 0.  1.
    10030    2    1    2    0    0  0.00000000000E+00  0.00000000000E+00 -0.11465337608E+03  0.26003455171E+04  0.25978166624E+04 0.  0.
        5    1    3    3  502    0 -0.95022709628E+03 -0.73076568722E+03  0.44335092693E+03  0.12780970849E+04  0.46999998093E+01 0. -1.
       -5    1    3    3    0  502  0.95022709628E+03  0.73076568722E+03 -0.55800430301E+03  0.13222484321E+04  0.46999998093E+01 0.  1.
</event>
<event>
 5   0  0.4415080E-06  0.2596690E+04  0.7818609E-02  0.8369326E-01
       -1   -1    0    0    0  501  0.00000000000E+00  0.00000000000E+00  0.16422193358E+04  0.16422193358E+04  0.50400001928E-02 0. -1.
        1   -1    0    0  501    0  0.00000000000E+00  0.00000000000E+00 -0.10264764227E+04  0.10264764227E+04  0.50400001928E-02 0.  1.
    10030    2    1    2    0    0  0.00000000000E+00  0.00000000000E+00  0.61574291312E+03  0.26686957584E+04  0.25966897612E+04 0.  0.
        2    1    3    3  502    0  0.57317380615E+03  0.77069503103E+03  0.12057100934E+04  0.15415044185E+04  0.25500000920E-02 0. -1.
       -2    1    3    3    0  502 -0.57317380615E+03 -0.77069503103E+03 -0.58996718032E+03  0.11271913399E+04  0.25500000920E-02 0.  1.
</event>
<event>
 5   0  0.1086507E-05  0.2607521E+04  0.7818609E-02  0.8365651E-01
        2   -1    0    0  501    0  0.00000000000E+00  0.00000000000E+00  0.96956549794E+03  0.96956549795E+03  0.25500000920E-02 0. -1.
       -2   -1    0    0    0  501  0.00000000000E+00  0.00000000000E+00 -0.17531480326E+04  0.17531480326E+04  0.25500000920E-02 0.  1.
    10030    2    1    2    0    0  0.00000000000E+00  0.00000000000E+00 -0.78358253470E+03  0.27227135306E+04  0.26075213098E+04 0.  0.
        2    1    3    3  502    0  0.80571818399E+03 -0.97021663713E+03 -0.73698568215E+03  0.14607018897E+04  0.25500000920E-02 0.  1.
       -2    1    3    3    0  502 -0.80571818399E+03  0.97021663713E+03 -0.46596852553E+02  0.12620116409E+04  0.25500000920E-02 0. -1.
</event>
<event>
 5   0  0.1086507E-05  0.2540639E+04  0.7818609E-02  0.8388649E-01
       -2   -1    0    0    0  501  0.00000000000E+00  0.00000000000E+00  0.78409339642E+03  0.78409339642E+03  0.25500000920E-02 0.  1.
        2   -1    0    0  501    0  0.00000000000E+00  0.00000000000E+00 -0.20580600601E+04  0.20580600601E+04  0.25500000920E-02 0. -1.
    10030    2    1    2    0    0  0.00000000000E+00  0.00000000000E+00 -0.12739666637E+04  0.28421534566E+04  0.25406387406E+04 0.  0.
        2    1    3    3  502    0 -0.36201347218E+03  0.98720486712E+03  0.16040964951E+03  0.10636533549E+04  0.25500000920E-02 0.  1.
       -2    1    3    3    0  502  0.36201347218E+03 -0.98720486712E+03 -0.14343763132E+04  0.17785001017E+04  0.25500000920E-02 0. -1.
</event>
<event>
 5   0  0.1136881E-05  0.2608349E+04  0.7818609E-02  0.8365371E-01
        2   -1    0    0  501    0  0.00000000000E+00  0.00000000000E+00  0.18264919492E+04  0.18264919492E+04  0.25500000920E-02 0. -1.
       -2   -1    0    0    0  501  0.00000000000E+00  0.00000000000E+00 -0.93122290859E+03  0.93122290859E+03  0.25500000920E-02 0.  1.
    10030    2    1    2    0    0  0.00000000000E+00  0.00000000000E+00  0.89526904063E+03  0.27577148578E+04  0.26083490146E+04 0.  0.
        3    1    3    3  502    0  0.57418679454E+03  0.11201757211E+04  0.80832603025E+03  0.14959529078E+04  0.10100000352E+00 0. -1.
       -3    1    3    3    0  502 -0.57418679454E+03 -0.11201757211E+04  0.86943010376E+02  0.12617619500E+04  0.10100000352E+00 0.  1.
</event>
<event>
 5   0  0.4218590E-06  0.2585024E+04  0.7818609E-02  0.8373306E-01
       -1   -1    0    0    0  501  0.00000000000E+00  0.00000000000E+00  0.68045880315E+03  0.68045880317E+03  0.50400001928E-02 0.  1.
        1   -1    0    0  501    0  0.00000000000E+00  0.00000000000E+00 -0.24550891166E+04  0.24550891166E+04  0.50400001928E-02 0. -1.
    10030    2    1    2    0    0  0.00000000000E+00  0.00000000000E+00 -0.17746303134E+04  0.31355479197E+04  0.25850237925E+04 0.  0.
        1    1    3    3  502    0  0.14176739200E+03 -0.91433227598E+03 -0.19820037068E+04  0.21873363249E+04  0.50400001928E-02 0. -1.
       -1    1    3    3    0  502 -0.14176739200E+03  0.91433227598E+03  0.20737339339E+03  0.94821159487E+03  0.50400001928E-02 0.  1.
</event>
<event>
 5   0  0.4415080E-06  0.2579243E+04  0.7818609E-02  0.8375286E-01
       -1   -1    0    0    0  501  0.00000000000E+00  0.00000000000E+00  0.11251347986E+04  0.11251347986E+04  0.50400001928E-02 0.  1.
        1   -1    0    0  501    0  0.00000000000E+00  0.00000000000E+00 -0.14781544149E+04  0.14781544149E+04  0.50400001928E-02 0. -1.
    10030    2    1    2    0    0  0.00000000000E+00  0.00000000000E+00 -0.35301961632E+03  0.26032892135E+04  0.25792425011E+04 0.  0.
        2    1    3    3  502    0  0.72593401204E+03 -0.75697775859E+03 -0.93392426874E+03  0.14043539641E+04  0.25500000920E-02 0. -1.
       -2    1    3    3    0  502 -0.72593401204E+03  0.75697775859E+03  0.58090465243E+03  0.11989352493E+04  0.25500000920E-02 0.  1.
</event>
<event>
 5   0  0.4415080E-06  0.2640861E+04  0.7818609E-02  0.8354453E-01
       -1   -1    0    0    0  501  0.00000000000E+00  0.00000000000E+00  0.81512802396E+03  0.81512802398E+03  0.50400001928E-02 0.  1.
        1   -1    0    0  501    0  0.00000000000E+00  0.00000000000E+00 -0.21389730399E+04  0.21389730399E+04  0.50400001928E-02 0. -1.
    10030    2    1    2    0    0  0.00000000000E+00  0.00000000000E+00 -0.13238450160E+04  0.29541010639E+04  0.26408611227E+04 0.  0.
        2    1    3    3  502    0 -0.40842462723E+03  0.14755083006E+03 -0.20568084283E+04  0.21021519531E+04  0.25500000920E-02 0. -1.
       -2    1    3    3    0  502  0.40842462723E+03 -0.14755083006E+03  0.73296341228E+03  0.85194911077E+03  0.25500000920E-02 0.  1.
</event>
<event>
 5   0  0.1136881E-05  0.2470146E+04  0.7818609E-02  0.8413699E-01
       -2   -1    0    0    0  501  0.00000000000E+00  0.00000000000E+00  0.28431369219E+04  0.28431369219E+04  0.25500000920E-02 0. -1.
        2   -1    0    0  501    0  0.00000000000E+00  0.00000000000E+00 -0.53652214686E+03  0.53652214687E+03  0.25500000920E-02 0.  1.
    10030    2    1    2    0    0  0.00000000000E+00  0.00000000000E+00  0.23066147750E+04  0.33796590687E+04  0.24701464938E+04 0.  0.
        3    1    3    3  502    0  0.94353975060E+03  0.42832309147E+03  0.23378005557E+03  0.10622528212E+04  0.10100000352E+00 0.  1.
       -3    1    3    3    0  502 -0.94353975060E+03 -0.42832309147E+03  0.20728347194E+04  0.23174062475E+04  0.10100000352E+00 0. -1.
</event>
<event>
 5   0  0.1086507E-05  0.2591900E+04  0.7818609E-02  0.8370958E-01
       -2   -1    0    0    0  501  0.00000000000E+00  0.00000000000E+00  0.15801704044E+04  0.15801704044E+04  0.25500000920E-02 0.  1.
        2   -1    0    0  501    0  0.00000000000E+00  0.00000000000E+00 -0.10628513771E+04  0.10628513771E+04  0.25500000920E-02 0. -1.
    10030    2    1    2    0    0  0.00000000000E+00  0.00000000000E+00  0.51731902729E+03  0.26430217815E+04  0.25918999135E+04 0.  0.
        2    1    3    3  502    0  0.20973280682E+03  0.11017082246E+04 -0.40356246058E+03  0.11918940900E+04  0.25500000920E-02 0. -1.
       -2    1    3    3    0  502 -0.20973280682E+03 -0.11017082246E+04  0.92088148787E+03  0.14511276915E+04  0.25500000920E-02 0.  1.
</event>
<event>
 5   0  0.1086507E-05  0.2570440E+04  0.7818609E-02  0.8378312E-01
       -2   -1    0    0    0  501  0.00000000000E+00  0.00000000000E+00  0.18355770264E+04  0.18355770264E+04  0.25500000920E-02 0. -1.
        2   -1    0    0  501    0  0.00000000000E+00  0.00000000000E+00 -0.89987520719E+03  0.89987520719E+03  0.25500000920E-02 0.  1.
    10030    2    1    2    0    0  0.00000000000E+00  0.00000000000E+00  0.93570181925E+03  0.27354522336E+04  0.25704398511E+04 0.  0.
        2    1    3    3  502    0 -0.36974121127E+03  0.12275033740E+04  0.56490396859E+03  0.14009245484E+04  0.25500000920E-02 0. -1.
       -2    1    3    3    0  502  0.36974121127E+03 -0.12275033740E+04  0.37079785066E+03  0.13345276852E+04  0.25500000920E-02 0.  1.
</event>
<event>
 5   0  0.4464297E-06  0.2596899E+04  0.7818609E-02  0.8369255E-01
        1   -1    0    0  501    0  0.00000000000E+00  0.00000000000E+00  0.11941632338E+04  0.11941632338E+04  0.50400001928E-02 0. -1.
       -1   -1    0    0    0  501  0.00000000000E+00  0.00000000000E+00 -0.14118435371E+04  0.14118435371E+04  0.50400001928E-02 0.  1.
    10030    2    1    2    0    0  0.00000000000E+00  0.00000000000E+00 -0.21768030332E+03  0.26060067710E+04  0.25968994158E+04 0.  0.
        4    1    3    3  502    0 -0.47543455912E+03  0.69413706955E+03 -0.11013008436E+04  0.13859038395E+04  0.12699999809E+01 0.  1.
       -4    1    3    3    0  502  0.47543455912E+03 -0.69413706955E+03  0.88362054026E+03  0.12201029315E+04  0.12699999809E+01 0. -1.
</event>
<event>
 5   0  0.3705250E-06  0.2531001E+04  0.7818609E-02  0.8392024E-01
       -3   -1    0    0    0  501  0.00000000000E+00  0.00000000000E+00  0.11454635086E+04  0.11454635130E+04  0.10100000352E+00 0. -1.
        3   -1    0    0  501    0  0.00000000000E+00  0.00000000000E+00 -0.13981160304E+04  0.13981160340E+04  0.10100000352E+00 0.  1.
    10030    2    1    2    0    0  0.00000000000E+00  0.00000000000E+00 -0.25265252179E+03  0.25435795470E+04  0.25310005167E+04 0.  0.
        1    1    3    3  502    0  0.32443375027E+03  0.29706085717E+03 -0.13188104871E+04  0.13902386529E+04  0.50400001928E-02 0.  1.
       -1    1    3    3    0  502 -0.32443375027E+03 -0.29706085717E+03  0.10661579653E+04  0.11533408942E+04  0.50400001928E-02 0. -1.
</event>
<event>
 5   0  0.1085061E-05  0.2623764E+04  0.7818609E-02  0.8360174E-01
        2   -1    0    0  501    0  0.00000000000E+00  0.00000000000E+00  0.20014988779E+04  0.20014988779E+04  0.25500000920E-02 0. -1.
       -2   -1    0    0    0  501  0.00000000000E+00  0.00000000000E+00 -0.85987249904E+03  0.85987249904E+03  0.25500000920E-02 0.  1.
    10030    2    1    2    0    0  0.00000000000E+00  0.00000000000E+00  0.11416263789E+04  0.28613713770E+04  0.26237635884E+04 0.  0.
        1    1    3    3  502    0 -0.87270454086E+03  0.76191508940E+03  0.12421110792E+04  0.16985192823E+04  0.50400001928E-02 0.  1.
       -1    1    3    3    0  502  0.87270454086E+03 -0.76191508940E+03 -0.10048470035E+03  0.11628520947E+04  0.50400001928E-02 0. -1.
</event>
<event>
 5   0  0.1136881E-05  0.2591586E+04  0.7818609E-02  0.8371065E-01
       -2   -1    0    0    0  501  0.00000000000E+00  0.00000000000E+00  0.96078543135E+03  0.96078543135E+03  0.25500000920E-02 0. -1.
        2   -1    0    0  501    0  0.00000000000E+00  0.00000000000E+00 -0.17476116751E+04  0.17476116751E+04  0.25500000920E-02 0.  1.
    10030    2    1    2    0    0  0.00000000000E+00  0.00000000000E+00 -0.78682624372E+03  0.27083971064E+04  0.25915862610E+04 0.  0.
        3    1    3    3  502    0 -0.89999572492E+03  0.47042314602E+03  0.44771790490E+03  0.11098385350E+04  0.10100000352E+00 0. -1.
       -3    1    3    3    0  502  0.89999572492E+03 -0.47042314602E+03 -0.12345441486E+04  0.15985585714E+04  0.10100000352E+00 0.  1.
</event>
<event>
 5   0  0.4415080E-06  0.2599090E+04  0.7818609E-02  0.8368510E-01
       -1   -1    0    0    0  501  0.00000000000E+00  0.00000000000E+00  0.13779788261E+04  0.13779788261E+04  0.50400001928E-02 0.  1.
        1   -1    0    0  501    0  0.00000000000E+00  0.00000000000E+00 -0.12255757900E+04  0.12255757900E+04  0.50400001928E-02 0. -1.
    10030    2    1    2    0    0  0.00000000000E+00  0.00000000000E+00  0.15240303608E+03  0.26035546161E+04  0.25990902165E+04 0.  0.
        2    1    3    3  502    0  0.21015134223E+02  0.17849019213E+03 -0.12130667692E+04  0.12263080246E+04  0.25500000920E-02 0. -1.
       -2    1    3    3    0  502 -0.21015134223E+02 -0.17849019213E+03  0.13654698053E+04  0.13772465915E+04  0.25500000920E-02 0.  1.
</event>
<event>
 5   0  0.1136881E-05  0.2597242E+04  0.7818609E-02  0.8369139E-01
       -2   -1    0    0    0  501  0.00000000000E+00  0.00000000000E+00  0.65805913058E+03  0.65805913058E+03  0.25500000920E-02 0.  1.
        2   -1    0    0  501    0  0.00000000000E+00  0.00000000000E+00 -0.25627123422E+04  0.25627123422E+04  0.25500000920E-02 0. -1.
    10030    2    1    2    0    0  0.00000000000E+00  0.00000000000E+00 -0.19046532116E+04  0.32207714728E+04  0.25972418107E+04 0.  0.
        3    1    3    3  502    0  0.33094954786E+03  0.51438481559E+03  0.46824646414E+03  0.77030779765E+03  0.10100000352E+00 0.  1.
       -3    1    3    3    0  502 -0.33094954786E+03 -0.51438481559E+03 -0.23728996757E+04  0.24504636751E+04  0.10100000352E+00 0. -1.
</event>
<event>
 5   0  0.1086507E-05  0.2591163E+04  0.7818609E-02  0.8371209E-01
       -2   -1    0    0    0  501  0.00000000000E+00  0.00000000000E+00  0.99474471694E+03  0.99474471694E+03  0.25500000920E-02 0. -1.
        2   -1    0    0  501    0  0.00000000000E+00  0.00000000000E+00 -0.16873988466E+04  0.16873988466E+04  0.25500000920E-02 0.  1.
    10030    2    1    2    0    0  0.00000000000E+00  0.00000000000E+00 -0.69265412968E+03  0.26821435636E+04  0.25911627414E+04 0.  0.
        2    1    3    3  502    0  0.44834589343E+03  0.56505965873E+03  0.76766918240E+03  0.10533861741E+04  0.25500000920E-02 0. -1.
       -2    1    3    3    0  502 -0.44834589343E+03 -0.56505965873E+03 -0.14603233121E+04  0.16287573895E+04  0.25500000920E-02 0.  1.
</event>
<event>
 5   0  0.1085255E-05  0.2598852E+04  0.7818609E-02  0.8368591E-01
        2   -1    0    0  501    0  0.00000000000E+00  0.00000000000E+00  0.10189974720E+04  0.10189974720E+04  0.25500000920E-02 0. -1.
       -2   -1    0    0    0  501  0.00000000000E+00  0.00000000000E+00 -0.16570287751E+04  0.16570287751E+04  0.25500000920E-02 0.  1.
    10030    2    1    2    0    0  0.00000000000E+00  0.00000000000E+00 -0.63803130311E+03  0.26760262471E+04  0.25988521565E+04 0.  0.
        5    1    3    3  502    0 -0.84808460508E+03 -0.81054308683E+03  0.25637909773E+03  0.12008246853E+04  0.46999998093E+01 0. -1.
       -5    1    3    3    0  502  0.84808460508E+03  0.81054308683E+03 -0.89441040084E+03  0.14752015619E+04  0.46999998093E+01 0.  1.
</event>
<event>
 5   0  0.4597705E-06  0.2628866E+04  0.7818609E-02  0.8358462E-01
       -1   -1    0    0    0  501  0.00000000000E+00  0.00000000000E+00  0.86780505800E+03  0.86780505802E+03  0.50400001928E-02 0. -1.
        1   -1    0    0  501    0  0.00000000000E+00  0.00000000000E+00 -0.19909241350E+04  0.19909241350E+04  0.50400001928E-02 0.  1.
    10030    2    1    2    0    0  0.00000000000E+00  0.00000000000E+00 -0.11231190770E+04  0.28587291931E+04  0.26288659414E+04 0.  0.
        5    1    3    3  502    0 -0.11566868841E+04  0.61700260163E+03 -0.45785198878E+03  0.13886206436E+04  0.46999998093E+01 0. -1.
       -5    1    3    3    0  502  0.11566868841E+04 -0.61700260163E+03 -0.66526708826E+03  0.14701085494E+04  0.46999998093E+01 0.  1.
</event>
<event>
 5   0  0.4597705E-06  0.2559971E+04  0.7818609E-02  0.8381927E-01
        1   -1    0    0  501    0  0.00000000000E+00  0.00000000000E+00  0.91598522903E+03  0.91598522904E+03  0.50400001928E-02 0. -1.
       -1   -1    0    0    0  501  0.00000000000E+00  0.00000000000E+00 -0.17886342406E+04  0.17886342406E+04  0.50400001928E-02 0.  1.
    10030    2    1    2    0    0  0.00000000000E+00  0.00000000000E+00 -0.87264901154E+03  0.27046194696E+04  0.25599707377E+04 0.  0.
        5    1    3    3  502    0  0.83882015323E+03  0.34365564642E+03  0.51840799581E+03  0.10442640437E+04  0.46999998093E+01 0. -1.
       -5    1    3    3    0  502 -0.83882015323E+03 -0.34365564642E+03 -0.13910570073E+04  0.16603554259E+04  0.46999998093E+01 0.  1.
</event>
<event>
 5   0  0.1085061E-05  0.2576846E+04  0.7818609E-02  0.8376109E-01
       -2   -1    0    0    0  501  0.00000000000E+00  0.00000000000E+00  0.70172286769E+03  0.70172286769E+03  0.25500000920E-02 0.  1.
        2   -1    0    0  501    0  0.00000000000E+00  0.00000000000E+00 -0.23656541696E+04  0.23656541696E+04  0.25500000920E-02 0. -1.
    10030    2    1    2    0    0  0.00000000000E+00  0.00000000000E+00 -0.16639313019E+04  0.30673770373E+04  0.25768458455E+04 0.  0.
        1    1    3    3  502    0  0.99407558587E+03  0.66791009449E+03 -0.26639571557E+03  0.12268890912E+04  0.50400001928E-02 0.  1.
       -1    1    3    3    0  502 -0.99407558587E+03 -0.66791009449E+03 -0.13975355864E+04  0.18404879462E+04  0.50400001928E-02 0. -1.
</event>
<event>
 5   0  0.4464297E-06  0.2596389E+04  0.7818609E-02  0.8369429E-01
        1   -1    0    0  501    0  0.00000000000E+00  0.00000000000E+00  0.21681175522E+04  0.21681175522E+04  0.50400001928E-02 0.  1.
       -1   -1    0    0    0  501  0.00000000000E+00  0.00000000000E+00 -0.77731449455E+03  0.77731449457E+03  0.50400001928E-02 0. -1.
    10030    2    1    2    0    0  0.00000000000E+00  0.00000000000E+00  0.13908030576E+04  0.29454320467E+04  0.25963891844E+04 0.  0.
        4    1    3    3  502    0  0.11512919480E+03 -0.66449072861E+03 -0.56300480275E+03  0.87850935152E+03  0.12699999809E+01 0. -1.
       -4    1    3    3    0  502 -0.11512919480E+03  0.66449072861E+03  0.19538078604E+04  0.20669226952E+04  0.12699999809E+01 0.  1.
</event>
<event>
 5   0  0.1086507E-05  0.2571319E+04  0.7818609E-02  0.8378009E-01
        2   -1    0    0  501    0  0.00000000000E+00  0.00000000000E+00  0.17211006124E+04  0.17211006124E+04  0.25500000920E-02 0. -1.
       -2   -1    0    0    0  501  0.00000000000E+00  0.00000000000E+00 -0.96038589675E+03  0.96038589676E+03  0.25500000920E-02 0.  1.
    10030    2    1    2    0    0  0.00000000000E+00  0.00000000000E+00  0.76071471560E+03  0.26814865091E+04  0.25713193151E+04 0.  0.
        2    1    3    3  502    0 -0.54540438951E+03 -0.10337289780E+03 -0.82896873830E+03  0.99766781706E+03  0.25500000920E-02 0.  1.
       -2    1    3    3    0  502  0.54540438951E+03  0.10337289780E+03  0.15896834539E+04  0.16838186921E+04  0.25500000920E-02 0. -1.
</event>
<event>
 5   0  0.4218590E-06  0.2481731E+04  0.7818609E-02  0.8409523E-01
        1   -1    0    0  501    0  0.00000000000E+00  0.00000000000E+00  0.18131801395E+04  0.18131801395E+04  0.50400001928E-02 0. -1.
       -1   -1    0    0    0  501  0.00000000000E+00  0.00000000000E+00 -0.84919692131E+03  0.84919692133E+03  0.50400001928E-02 0.  1.
    10030    2    1    2    0    0  0.00000000000E+00  0.00000000000E+00  0.96398321818E+03  0.26623770608E+04  0.24817308414E+04 0.  0.
        1    1    3    3  502    0  0.25967732206E+03 -0.69801828347E+03 -0.58276850084E+03  0.94566429627E+03  0.50400001928E-02 0.  1.
       -1    1    3    3    0  502 -0.25967732206E+03  0.69801828347E+03  0.15467517190E+04  0.17167127645E+04  0.50400001928E-02 0. -1.
</event>
<event>
 5   0  0.1116310E-05  0.2587640E+04  0.7818609E-02  0.8372412E-01
        2   -1    0    0  501    0  0.00000000000E+00  0.00000000000E+00  0.15824262738E+04  0.15824262738E+04  0.25500000920E-02 0. -1.
       -2   -1    0    0    0  501  0.00000000000E+00  0.00000000000E+00 -0.10578504283E+04  0.10578504283E+04  0.25500000920E-02 0.  1.
    10030    2    1    2    0    0  0.00000000000E+00  0.00000000000E+00  0.52457584548E+03  0.26402767021E+04  0.25876400921E+04 0.  0.
        4    1    3    3  502    0  0.24050238021E+03  0.24967019809E+03  0.15341558800E+04  0.15728358083E+04  0.12699999809E+01 0. -1.
       -4    1    3    3    0  502 -0.24050238021E+03 -0.24967019809E+03 -0.10095800346E+04  0.10674408938E+04  0.12699999809E+01 0.  1.
</event>
<event>
 5   0  0.4464297E-06  0.2591305E+04  0.7818609E-02  0.8371161E-01
       -1   -1    0    0    0  501  0.00000000000E+00  0.00000000000E+00  0.16108278726E+04  0.16108278726E+04  0.50400001928E-02 0.  1.
        1   -1    0    0  501    0  0.00000000000E+00  0.00000000000E+00 -0.10421441110E+04  0.10421441110E+04  0.50400001928E-02 0. -1.
    10030    2    1    2    0    0  0.00000000000E+00  0.00000000000E+00  0.56868376158E+03  0.26529719836E+04  0.25913045219E+04 0.  0.
        4    1    3    3  502    0 -0.78507057731E+03 -0.24226492607E+03  0.13100243701E+04  0.15463484630E+04  0.12699999809E+01 0.  1.
       -4    1    3    3    0  502  0.78507057731E+03  0.24226492607E+03 -0.74134060851E+03  0.11066235207E+04  0.12699999809E+01 0. -1.
</event>
<event>
 5   0  0.1085255E-05  0.2612442E+04  0.7818609E-02  0.8363987E-01
       -2   -1    0    0    0  501  0.00000000000E+00  0.00000000000E+00  0.10459562030E+04  0.10459562030E+04  0.25500000920E-02 0.  1.
        2   -1    0    0  501    0  0.00000000000E+00  0.00000000000E+00 -0.16312469332E+04  0.16312469332E+04  0.25500000920E-02 0. -1.
    10030    2    1    2    0    0  0.00000000000E+00  0.00000000000E+00 -0.58529073021E+03  0.26772031362E+04  0.26124416536E+04 0.  0.
        5    1    3    3  502    0  0.74756107648E+03 -0.10697555165E+04 -0.34845953603E+03  0.13508036742E+04  0.46999998093E+01 0. -1.
       -5    1    3    3    0  502 -0.74756107648E+03  0.10697555165E+04 -0.23683119418E+03  0.13263994619E+04  0.46999998093E+01 0.  1.
</event>
<event>
 5   0  0.4464297E-06  0.2605370E+04  0.7818609E-02  0.8366380E-01
        1   -1    0    0  501    0  0.00000000000E+00  0.00000000000E+00  0.96643710198E+03  0.96643710199E+03  0.50400001928E-02 0.  1.
       -1   -1    0    0    0  501  0.00000000000E+00  0.00000000000E+00 -0.17559215122E+04  0.17559215122E+04  0.50400001928E-02 0. -1.
    10030    2    1    2    0    0  0.00000000000E+00  0.00000000000E+00 -0.78948441025E+03  0.27223586142E+04  0.26053696073E+04 0.  0.
        4    1    3    3  502    0 -0.84567958749E+03  0.35268171349E+03 -0.13622951820E+04  0.16417698169E+04  0.12699999809E+01 0. -1.
       -4    1    3    3    0  502  0.84567958749E+03 -0.35268171349E+03  0.57281077180E+03  0.10805887973E+04  0.12699999809E+01 0.  1.
</event>
<event>
 5   0  0.4597705E-06  0.2589139E+04  0.7818609E-02  0.8371900E-01
        1   -1    0    0  501    0  0.00000000000E+00  0.00000000000E+00  0.99681917906E+03  0.99681917907E+03  0.50400001928E-02 0. -1.
       -1   -1    0    0    0  501  0.00000000000E+00  0.00000000000E+00 -0.16812582938E+04  0.16812582938E+04  0.50400001928E-02 0.  1.
    10030    2    1    2    0    0  0.00000000000E+00  0.00000000000E+00 -0.68443911477E+03  0.26780774729E+04  0.25891392487E+04 0.  0.
        5    1    3    3  502    0  0.11816981906E+04  0.50387684341E+03 -0.50767016894E+03  0.13813231256E+04  0.46999998093E+01 0. -1.
       -5    1    3    3    0  502 -0.11816981906E+04 -0.50387684341E+03 -0.17676894583E+03  0.12967543473E+04  0.46999998093E+01 0.  1.
</event>
<event>
 5   0  0.1085061E-05  0.2615461E+04  0.7818609E-02  0.8362968E-01
        2   -1    0    0  501    0  0.00000000000E+00  0.00000000000E+00  0.15150430528E+04  0.15150430528E+04  0.25500000920E-02 0. -1.
       -2   -1    0    0    0  501  0.00000000000E+00  0.00000000000E+00 -0.11287860509E+04  0.11287860509E+04  0.25500000920E-02 0.  1.
    10030    2    1    2    0    0  0.00000000000E+00  0.00000000000E+00  0.38625700195E+03  0.26438291037E+04  0.26154613089E+04 0.  0.
        1    1    3    3  502    0  0.89319423797E+03  0.72941396520E+03 -0.43026025954E+03  0.12308389701E+04  0.50400001928E-02 0.  1.
       -1    1    3    3    0  502 -0.89319423797E+03 -0.72941396520E+03  0.81651726150E+03  0.14129901336E+04  0.50400001928E-02 0. -1.
</event>
<event>
 5   0  0.4361864E-06  0.2303667E+04  0.7818609E-02  0.8476477E-01
       -1   -1    0    0    0  501  0.00000000000E+00  0.00000000000E+00  0.11738501251E+04  0.11738501251E+04  0.50400001928E-02 0.  1.
        1   -1    0    0  501    0  0.00000000000E+00  0.00000000000E+00 -0.11302300266E+04  0.11302300266E+04  0.50400001928E-02 0. -1.
    10030    2    1    2    0    0  0.00000000000E+00  0.00000000000E+00  0.43620098494E+02  0.23040801517E+04  0.23036672139E+04 0.  0.
        3    1    3    3  502    0  0.73872632490E+03 -0.79805915435E+02 -0.85848127518E+03  0.11353746858E+04  0.10100000352E+00 0. -1.
       -3    1    3    3    0  502 -0.73872632490E+03  0.79805915435E+02  0.90210137367E+03  0.11687054658E+04  0.10100000352E+00 0.  1.
</event>
<event>
 5   0  0.1085061E-05  0.2620570E+04  0.7818609E-02  0.8361248E-01
       -2   -1    0    0    0  501  0.00000000000E+00  0.00000000000E+00  0.85069098423E+03  0.85069098423E+03  0.25500000920E-02 0. -1.
        2   -1    0    0  501    0  0.00000000000E+00  0.00000000000E+00 -0.20181787775E+04  0.20181787775E+04  0.25500000920E-02 0.  1.
    10030    2    1    2    0    0  0.00000000000E+00  0.00000000000E+00 -0.11674877933E+04  0.28688697617E+04  0.26205697782E+04 0.  0.
        1    1    3    3  502    0  0.84198370064E+03  0.96005934738E+03 -0.90515333845E+03  0.15652325925E+04  0.50400001928E-02 0.  1.
       -1    1    3    3    0  502 -0.84198370064E+03 -0.96005934738E+03 -0.26233445480E+03  0.13036371692E+04  0.50400001928E-02 0. -1.
</event>
<event>
 5   0  0.4361864E-06  0.2599507E+04  0.7818609E-02  0.8368369E-01
        1   -1    0    0  501    0  0.00000000000E+00  0.00000000000E+00  0.12308984266E+04  0.12308984266E+04  0.50400001928E-02 0. -1.
       -1   -1    0    0    0  501  0.00000000000E+00  0.00000000000E+00 -0.13724607213E+04  0.13724607213E+04  0.50400001928E-02 0.  1.
    10030    2    1    2    0    0  0.00000000000E+00  0.00000000000E+00 -0.14156229468E+03  0.26033591479E+04  0.25995074475E+04 0.  0.
        3    1    3    3  502    0  0.77673491120E+03 -0.24389105639E+03  0.94391296004E+03  0.12465037730E+04  0.10100000352E+00 0. -1.
       -3    1    3    3    0  502 -0.77673491120E+03  0.24389105639E+03 -0.10854752547E+04  0.13568553749E+04  0.10100000352E+00 0.  1.
</event>
<event>
 5   0  0.4597705E-06  0.2596144E+04  0.7818609E-02  0.8369512E-01
       -1   -1    0    0    0  501  0.00000000000E+00  0.00000000000E+00  0.89021836220E+03  0.89021836221E+03  0.50400001928E-02 0.  1.
        1   -1    0    0  501    0  0.00000000000E+00  0.00000000000E+00 -0.18927839859E+04  0.18927839859E+04  0.50400001928E-02 0. -1.
    10030    2    1    2    0    0  0.00000000000E+00  0.00000000000E+00 -0.10025656237E+04  0.27830023481E+04  0.25961441100E+04 0.  0.
        5    1    3    3  502    0 -0.25954897981E+03 -0.82358915709E+03 -0.15402166897E+04  0.17657730075E+04  0.46999998093E+01 0. -1.
       -5    1    3    3    0  502  0.25954897981E+03  0.82358915709E+03  0.53765106605E+03  0.10172293406E+04  0.46999998093E+01 0.  1.
</event>
<event>
 5   0  0.1116310E-05  0.2610900E+04  0.7818609E-02  0.8364508E-01
        2   -1    0    0  501    0  0.00000000000E+00  0.00000000000E+00  0.28610222698E+04  0.28610222698E+04  0.25500000920E-02 0.  1.
       -2   -1    0    0    0  501  0.00000000000E+00  0.00000000000E+00 -0.59566126007E+03  0.59566126008E+03  0.25500000920E-02 0. -1.
    10030    2    1    2    0    0  0.00000000000E+00  0.00000000000E+00  0.22653610098E+04  0.34566835299E+04  0.26109003277E+04 0.  0.
        4    1    3    3  502    0  0.11918529263E+04 -0.47766661790E+03  0.82072477478E+03  0.15238994602E+04  0.12699999809E+01 0.  1.
       -4    1    3    3    0  502 -0.11918529263E+04  0.47766661790E+03  0.14446362350E+04  0.19327840697E+04  0.12699999809E+01 0. -1.
</event>
<event>
 5   0  0.1086507E-05  0.2586022E+04  0.7818609E-02  0.8372965E-01
        2   -1    0    0  501    0  0.00000000000E+00  0.00000000000E+00  0.14008966174E+04  0.14008966174E+04  0.25500000920E-02 0.  1.
       -2   -1    0    0    0  501  0.00000000000E+00  0.00000000000E+00 -0.11934337354E+04  0.11934337354E+04  0.25500000920E-02 0. -1.
    10030    2    1    2    0    0  0.00000000000E+00  0.00000000000E+00  0.20746288202E+03  0.25943303529E+04  0.25860218739E+04 0.  0.
        2    1    3    3  502    0  0.23225156537E+03 -0.64007771628E+03 -0.99899845837E+03  0.12089822961E+04  0.25500000920E-02 0. -1.
       -2    1    3    3    0  502 -0.23225156537E+03  0.64007771628E+03  0.12064613404E+04  0.13853480568E+04  0.25500000920E-02 0.  1.
</event>
<event>
 5   0  0.4464297E-06  0.2596444E+04  0.7818609E-02  0.8369410E-01
       -1   -1    0    0    0  501  0.00000000000E+00  0.00000000000E+00  0.63739129439E+03  0.63739129441E+03  0.50400001928E-02 0.  1.
        1   -1    0    0  501    0  0.00000000000E+00  0.00000000000E+00 -0.26441847543E+04  0.26441847543E+04  0.50400001928E-02 0. -1.
    10030    2    1    2    0    0  0.00000000000E+00  0.00000000000E+00 -0.20067934599E+04  0.32815760487E+04  0.25964439861E+04 0.  0.
        4    1    3    3  502    0 -0.83294573612E+03  0.56231079362E+03  0.35278484141E+02  0.10056034071E+04  0.12699999809E+01 0.  1.
       -4    1    3    3    0  502  0.83294573612E+03 -0.56231079362E+03 -0.20420719440E+04  0.22759726416E+04  0.12699999809E+01 0. -1.
</event>
<event>
 5   0  0.1085255E-05  0.2675551E+04  0.7818609E-02  0.8342982E-01
       -2   -1    0    0    0  501  0.00000000000E+00  0.00000000000E+00  0.74144812166E+03  0.74144812167E+03  0.25500000920E-02 0.  1.
        2   -1    0    0  501    0  0.00000000000E+00  0.00000000000E+00 -0.24137140717E+04  0.24137140717E+04  0.25500000920E-02 0. -1.
    10030    2    1    2    0    0  0.00000000000E+00  0.00000000000E+00 -0.16722659500E+04  0.31551621934E+04  0.26755513560E+04 0.  0.
        5    1    3    3  502    0  0.31968851963E+03 -0.12116955533E+04 -0.28400043295E+03  0.12849456018E+04  0.46999998093E+01 0.  1.
       -5    1    3    3    0  502 -0.31968851963E+03  0.12116955533E+04 -0.13882655171E+04  0.18702165916E+04  0.46999998093E+01 0. -1.
</event>
<event>
 5   0  0.4218590E-06  0.2640025E+04  0.7818609E-02  0.8354732E-01
       -1   -1    0    0    0  501  0.00000000000E+00  0.00000000000E+00  0.11182227927E+04  0.11182227927E+04  0.50400001928E-02 0.  1.
        1   -1    0    0  501    0  0.00000000000E+00  0.00000000000E+00 -0.15582157357E+04  0.15582157357E+04  0.50400001928E-02 0. -1.
    10030    2    1    2    0    0  0.00000000000E+00  0.00000000000E+00 -0.43999294295E+03  0.26764385284E+04  0.26400245087E+04 0.  0.
        1    1    3    3  502    0  0.54267155573E+03 -0.37311282216E+03 -0.13797716376E+04  0.15288804294E+04  0.50400001928E-02 0. -1.
       -1    1    3    3    0  502 -0.54267155573E+03  0.37311282216E+03  0.93977869469E+03  0.11475580990E+04  0.50400001928E-02 0.  1.
</event>
<event>
 5   0  0.1116310E-05  0.2604390E+04  0.7818609E-02  0.8366712E-01
        2   -1    0    0  501    0  0.00000000000E+00  0.00000000000E+00  0.13096785537E+04  0.13096785537E+04  0.25500000920E-02 0. -1.
       -2   -1    0    0    0  501  0.00000000000E+00  0.00000000000E+00 -0.12947541386E+04  0.12947541386E+04  0.25500000920E-02 0.  1.
    10030    2    1    2    0    0  0.00000000000E+00  0.00000000000E+00  0.14924415099E+02  0.26044326923E+04  0.26043899306E+04 0.  0.
        4    1    3    3  502    0 -0.98279892981E+03  0.84875095675E+02 -0.84261798040E+03  0.12973450551E+04  0.12699999809E+01 0.  1.
       -4    1    3    3    0  502  0.98279892981E+03 -0.84875095675E+02  0.85754239550E+03  0.13070876372E+04  0.12699999809E+01 0. -1.
</event>
<event>
 5   0  0.4415080E-06  0.2589401E+04  0.7818609E-02  0.8371810E-01
       -1   -1    0    0    0  501  0.00000000000E+00  0.00000000000E+00  0.89450601418E+03  0.89450601419E+03  0.50400001928E-02 0. -1.
        1   -1    0    0  501    0  0.00000000000E+00  0.00000000000E+00 -0.18739388113E+04  0.18739388113E+04  0.50400001928E-02 0.  1.
    10030    2    1    2    0    0  0.00000000000E+00  0.00000000000E+00 -0.97943279708E+03  0.27684448255E+04  0.25894011176E+04 0.  0.
        2    1    3    3  502    0  0.73561067778E+03 -0.68239964085E+03  0.38506179637E+03  0.10747394690E+04  0.25500000920E-02 0. -1.
       -2    1    3    3    0  502 -0.73561067778E+03  0.68239964085E+03 -0.13644945935E+04  0.16937053565E+04  0.25500000920E-02 0.  1.
</event>
<event>
 5   0  0.4415080E-06  0.2506730E+04  0.7818609E-02  0.8400592E-01
        1   -1    0    0  501    0  0.00000000000E+00  0.00000000000E+00  0.77318204513E+03  0.77318204515E+03  0.50400001928E-02 0. -1.
       -1   -1    0    0    0  501  0.00000000000E+00  0.00000000000E+00 -0.20317644003E+04  0.20317644003E+04  0.50400001928E-02 0.  1.
    10030    2    1    2    0    0  0.00000000000E+00  0.00000000000E+00 -0.12585823552E+04  0.28049464455E+04  0.25067299450E+04 0.  0.
        2    1    3    3  502    0 -0.46737829228E+03 -0.76476179381E+03 -0.16096619589E+04  0.18423666007E+04  0.25500000920E-02 0.  1.
       -2    1    3    3    0  502  0.46737829228E+03  0.76476179381E+03  0.35107960375E+03  0.96257984476E+03  0.25500000920E-02 0. -1.
</event>
<event>
 5   0  0.1086507E-05  0.2625796E+04  0.7818609E-02  0.8359491E-01
       -2   -1    0    0    0  501  0.00000000000E+00  0.00000000000E+00  0.95478936252E+03  0.95478936252E+03  0.25500000920E-02 0.  1.
        2   -1    0    0  501    0  0.00000000000E+00  0.00000000000E+00 -0.18053202278E+04  0.18053202278E+04  0.25500000920E-02 0. -1.
    10030    2    1    2    0    0  0.00000000000E+00  0.00000000000E+00 -0.85053086531E+03  0.27601095904E+04  0.26257955362E+04 0.  0.
        2    1    3    3  502    0  0.52927722417E+03 -0.10118415838E+04  0.25575013064E+03  0.11701990857E+04  0.25500000920E-02 0.  1.
       -2    1    3    3    0  502 -0.52927722417E+03  0.10118415838E+04 -0.11062809959E+04  0.15899105047E+04  0.25500000920E-02 0. -1.
</event>
<event>
 5   0  0.4597705E-06  0.2606907E+04  0.7818609E-02  0.8365859E-01
        1   -1    0    0  501    0  0.00000000000E+00  0.00000000000E+00  0.19741053107E+04  0.19741053107E+04  0.50400001928E-02 0. -1.
       -1   -1    0    0    0  501  0.00000000000E+00  0.00000000000E+00 -0.86063866852E+03  0.86063866853E+03  0.50400001928E-02 0.  1.
    10030    2    1    2    0    0  0.00000000000E+00  0.00000000000E+00  0.11134666422E+04  0.28347439793E+04  0.26069072605E+04 0.  0.
        5    1    3    3  502    0  0.11083445726E+04 -0.74336651528E+02  0.12982519105E+04  0.17086350525E+04  0.46999998093E+01 0. -1.
       -5    1    3    3    0  502 -0.11083445726E+04  0.74336651528E+02 -0.18478526834E+03  0.11261089267E+04  0.46999998093E+01 0.  1.
</event>
<event>
 5   0  0.4218590E-06  0.2622474E+04  0.7818609E-02  0.8360607E-01
        1   -1    0    0  501    0  0.00000000000E+00  0.00000000000E+00  0.12919946582E+04  0.12919946583E+04  0.50400001928E-02 0. -1.
       -1   -1    0    0    0  501  0.00000000000E+00  0.00000000000E+00 -0.13307662367E+04  0.13307662367E+04  0.50400001928E-02 0.  1.
    10030    2    1    2    0    0  0.00000000000E+00  0.00000000000E+00 -0.38771578493E+02  0.26227608950E+04  0.26224743044E+04 0.  0.
        1    1    3    3  502    0  0.85316087549E+03 -0.33410416113E+03 -0.95748285817E+03  0.13252480876E+04  0.50400001928E-02 0.  1.
       -1    1    3    3    0  502 -0.85316087549E+03  0.33410416113E+03  0.91871127968E+03  0.12975128074E+04  0.50400001928E-02 0. -1.
</event>
<event>
 5   0  0.4597705E-06  0.2614379E+04  0.7818609E-02  0.8363333E-01
        1   -1    0    0  501    0  0.00000000000E+00  0.00000000000E+00  0.13121170092E+04  0.13121170092E+04  0.50400001928E-02 0. -1.
       -1   -1    0    0    0  501  0.00000000000E+00  0.00000000000E+00 -0.13022808759E+04  0.13022808759E+04  0.50400001928E-02 0.  1.
    10030    2    1    2    0    0  0.00000000000E+00  0.00000000000E+00  0.98361333037E+01  0.26143978851E+04  0.26143793818E+04 0.  0.
        5    1    3    3  502    0  0.95554745257E+03  0.85312586148E+03 -0.25552211544E+03  0.13062190900E+04  0.46999998093E+01 0.  1.
       -5    1    3    3    0  502 -0.95554745257E+03 -0.85312586148E+03  0.26535824875E+03  0.13081787950E+04  0.46999998093E+01 0. -1.
</event>
<event>
 5   0  0.1086507E-05  0.2596393E+04  0.7818609E-02  0.8369427E-01
        2   -1    0    0  501    0  0.00000000000E+00  0.00000000000E+00  0.10519068903E+04  0.10519068903E+04  0.25500000920E-02 0.  1.
       -2   -1    0    0    0  501  0.00000000000E+00  0.00000000000E+00 -0.16021519750E+04  0.16021519750E+04  0.25500000920E-02 0. -1.
    10030    2    1    2    0    0  0.00000000000E+00  0.00000000000E+00 -0.55024508467E+03  0.26540588653E+04  0.25963934230E+04 0.  0.
        2    1    3    3  502    0  0.10872118758E+04 -0.65697905072E+03 -0.14764456824E+01  0.12702965464E+04  0.25500000920E-02 0.  1.
       -2    1    3    3    0  502 -0.10872118758E+04  0.65697905072E+03 -0.54876863899E+03  0.13837623189E+04  0.25500000920E-02 0. -1.
</event>
<event>
 5   0  0.1086507E-05  0.2633120E+04  0.7818609E-02  0.8357037E-01
       -2   -1    0    0    0  501  0.00000000000E+00  0.00000000000E+00  0.75813906827E+03  0.75813906828E+03  0.25500000920E-02 0.  1.
        2   -1    0    0  501    0  0.00000000000E+00  0.00000000000E+00 -0.22862952757E+04  0.22862952757E+04  0.25500000920E-02 0. -1.
    10030    2    1    2    0    0  0.00000000000E+00  0.00000000000E+00 -0.15281562074E+04  0.30444343440E+04  0.26331196480E+04 0.  0.
        2    1    3    3  502    0 -0.11809094835E+04 -0.35460963670E+03 -0.12977336879E+04  0.17900860112E+04  0.25500000920E-02 0. -1.
       -2    1    3    3    0  502  0.11809094835E+04  0.35460963670E+03 -0.23042251951E+03  0.12543483328E+04  0.25500000920E-02 0.  1.
</event>
<event>
 5   0  0.4218590E-06  0.2647513E+04  0.7818609E-02  0.8352239E-01
        1   -1    0    0  501    0  0.00000000000E+00  0.00000000000E+00  0.19035182423E+04  0.19035182423E+04  0.50400001928E-02 0. -1.
       -1   -1    0    0    0  501  0.00000000000E+00  0.00000000000E+00 -0.92057466131E+03  0.92057466133E+03  0.50400001928E-02 0.  1.
    10030    2    1    2    0    0  0.00000000000E+00  0.00000000000E+00  0.98294358096E+03  0.28240929036E+04  0.26475125391E+04 0.  0.
        1    1    3    3  502    0 -0.54666381984E+03  0.50598639719E+03 -0.67580203728E+03  0.10057693372E+04  0.50400001928E-02 0.  1.
       -1    1    3    3    0  502  0.54666381984E+03 -0.50598639719E+03  0.16587456182E+04  0.18183235664E+04  0.50400001928E-02 0. -1.
</event>
<event>
 5   0  0.1136881E-05  0.2594382E+04  0.7818609E-02  0.8370112E-01
       -2   -1    0    0    0  501  0.00000000000E+00  0.00000000000E+00  0.71143651098E+03  0.71143651098E+03  0.25500000920E-02 0.  1.
        2   -1    0    0  501    0  0.00000000000E+00  0.00000000000E+00 -0.23652209258E+04  0.23652209258E+04  0.25500000920E-02 0. -1.
    10030    2    1    2    0    0  0.00000000000E+00  0.00000000000E+00 -0.16537844148E+04  0.30766574368E+04  0.25943820252E+04 0.  0.
        3    1    3    3  502    0 -0.10077025760E+04 -0.36571197425E+02 -0.17946140976E+04  0.20585047253E+04  0.10100000352E+00 0. -1.
       -3    1    3    3    0  502  0.10077025760E+04  0.36571197425E+02  0.14082968282E+03  0.10181527115E+04  0.10100000352E+00 0.  1.
</event>
<event>
 5   0  0.1136881E-05  0.2603412E+04  0.7818609E-02  0.8367043E-01
       -2   -1    0    0    0  501  0.00000000000E+00  0.00000000000E+00  0.12554577985E+04  0.12554577985E+04  0.25500000920E-02 0. -1.
        2   -1    0    0  501    0  0.00000000000E+00  0.00000000000E+00 -0.13496578105E+04  0.13496578105E+04  0.25500000920E-02 0.  1.
    10030    2    1    2    0    0  0.00000000000E+00  0.00000000000E+00 -0.94200012001E+02  0.26051156090E+04  0.26034119332E+04 0.  0.
        3    1    3    3  502    0 -0.10234018279E+04  0.59080641267E+03  0.49918297104E+03  0.12828044151E+04  0.10100000352E+00 0. -1.
       -3    1    3    3    0  502  0.10234018279E+04 -0.59080641267E+03 -0.59338298304E+03  0.13223111939E+04  0.10100000352E+00 0.  1.
</event>
<event>
 5   0  0.1116310E-05  0.2572705E+04  0.7818609E-02  0.8377532E-01
       -2   -1    0    0    0  501  0.00000000000E+00  0.00000000000E+00  0.71327937722E+03  0.71327937723E+03  0.25500000920E-02 0.  1.
        2   -1    0    0  501    0  0.00000000000E+00  0.00000000000E+00 -0.23198522492E+04  0.23198522492E+04  0.25500000920E-02 0. -1.
    10030    2    1    2    0    0  0.00000000000E+00  0.00000000000E+00 -0.16065728719E+04  0.30331316264E+04  0.25727050103E+04 0.  0.
        4    1    3    3  502    0  0.95827608918E+03 -0.25890691027E+03 -0.17678616714E+04  0.20274768441E+04  0.12699999809E+01 0. -1.
       -4    1    3    3    0  502 -0.95827608918E+03  0.25890691027E+03  0.16128879952E+03  0.10056547822E+04  0.12699999809E+01 0.  1.
</event>
<event>
 5   0  0.4464297E-06  0.2595165E+04  0.7818609E-02  0.8369845E-01
       -1   -1    0    0    0  501  0.00000000000E+00  0.00000000000E+00  0.10015714538E+04  0.10015714538E+04  0.50400001928E-02 0.  1.
        1   -1    0    0  501    0  0.00000000000E+00  0.00000000000E+00 -0.16810782313E+04  0.16810782313E+04  0.50400001928E-02 0. -1.
    10030    2    1    2    0    0  0.00000000000E+00  0.00000000000E+00 -0.67950677755E+03  0.26826496851E+04  0.25951647101E+04 0.  0.
        4    1    3    3  502    0 -0.93958322472E+03  0.69158955800E+03 -0.92688435918E+03  0.14900432816E+04  0.12699999809E+01 0.  1.
       -4    1    3    3    0  502  0.93958322472E+03 -0.69158955800E+03  0.24737758162E+03  0.11926064035E+04  0.12699999809E+01 0. -1.
</event>
<event>
 5   0  0.4464297E-06  0.2584960E+04  0.7818609E-02  0.8373328E-01
       -1   -1    0    0    0  501  0.00000000000E+00  0.00000000000E+00  0.12793635108E+04  0.12793635108E+04  0.50400001928E-02 0. -1.
        1   -1    0    0  501    0  0.00000000000E+00  0.00000000000E+00 -0.13057311803E+04  0.13057311803E+04  0.50400001928E-02 0.  1.
    10030    2    1    2    0    0  0.00000000000E+00  0.00000000000E+00 -0.26367669460E+02  0.25850946911E+04  0.25849602140E+04 0.  0.
        4    1    3    3  502    0 -0.42109319898E+03 -0.10769734783E+03 -0.12304509253E+04  0.13049633303E+04  0.12699999809E+01 0.  1.
       -4    1    3    3    0  502  0.42109319898E+03  0.10769734783E+03  0.12040832558E+04  0.12801313608E+04  0.12699999809E+01 0. -1.
</event>
<event>
 5   0  0.1085255E-05  0.2603070E+04  0.7818609E-02  0.8367159E-01
       -2   -1    0    0    0  501  0.00000000000E+00  0.00000000000E+00  0.17500008724E+04  0.17500008724E+04  0.25500000920E-02 0.  1.
        2   -1    0    0  501    0  0.00000000000E+00  0.00000000000E+00 -0.96799602061E+03  0.96799602061E+03  0.25500000920E-02 0. -1.
    10030    2    1    2    0    0  0.00000000000E+00  0.00000000000E+00  0.78200485179E+03  0.27179968930E+04  0.26030704028E+04 0.  0.
        5    1    3    3  502    0 -0.11359191887E+04 -0.34476203751E+03  0.94822911508E+03  0.15193201804E+04  0.46999998093E+01 0.  1.
       -5    1    3    3    0  502  0.11359191887E+04  0.34476203751E+03 -0.16622426328E+03  0.11986767127E+04  0.46999998093E+01 0. -1.
</event>
<event>
 5   0  0.4464297E-06  0.2595153E+04  0.7818609E-02  0.8369850E-01
       -1   -1    0    0    0  501  0.00000000000E+00  0.00000000000E+00  0.10250837387E+04  0.10250837387E+04  0.50400001928E-02 0.  1.
        1   -1    0    0  501    0  0.00000000000E+00  0.00000000000E+00 -0.16425043592E+04  0.16425043592E+04  0.50400001928E-02 0. -1.
    10030    2    1    2    0    0  0.00000000000E+00  0.00000000000E+00 -0.61742062054E+03  0.26675880979E+04  0.25951527965E+04 0.  0.
        4    1    3    3  502    0  0.21522873170E+03  0.12588001284E+04 -0.54491031313E+03  0.13884631909E+04  0.12699999809E+01 0. -1.
       -4    1    3    3    0  502 -0.21522873170E+03 -0.12588001284E+04 -0.72510307413E+02  0.12791249070E+04  0.12699999809E+01 0.  1.
</event>
<event>
 5   0  0.1136881E-05  0.2560631E+04  0.7818609E-02  0.8381698E-01
       -2   -1    0    0    0  501  0.00000000000E+00  0.00000000000E+00  0.82648352018E+03  0.82648352019E+03  0.25500000920E-02 0. -1.
        2   -1    0    0  501    0  0.00000000000E+00  0.00000000000E+00 -0.19833517917E+04  0.19833517917E+04  0.25500000920E-02 0.  1.
    10030    2    1    2    0    0  0.00000000000E+00  0.00000000000E+00 -0.11568682715E+04  0.28098353119E+04  0.25606308368E+04 0.  0.
        3    1    3    3  502    0  0.91773780834E+03  0.86624236367E+03 -0.34158282679E+03  0.13074009925E+04  0.10100000352E+00 0. -1.
       -3    1    3    3    0  502 -0.91773780834E+03 -0.86624236367E+03 -0.81528544474E+03  0.15024343194E+04  0.10100000352E+00 0.  1.
</event>
<event>
 5   0  0.1085255E-05  0.2601930E+04  0.7818609E-02  0.8367546E-01
        2   -1    0    0  501    0  0.00000000000E+00  0.00000000000E+00  0.13703868711E+04  0.13703868711E+04  0.25500000920E-02 0.  1.
       -2   -1    0    0    0  501  0.00000000000E+00  0.00000000000E+00 -0.12350597216E+04  0.12350597216E+04  0.25500000920E-02 0. -1.
    10030    2    1    2    0    0  0.00000000000E+00  0.00000000000E+00  0.13532714955E+03  0.26054465927E+04  0.26019297666E+04 0.  0.
        5    1    3    3  502    0  0.11806473572E+04  0.46286017614E+03  0.35843479758E+03  0.13178259820E+04  0.46999998093E+01 0.  1.
       -5    1    3    3    0  502 -0.11806473572E+04 -0.46286017614E+03 -0.22310764803E+03  0.12876206108E+04  0.46999998093E+01 0. -1.
</event>
<event>
 5   0  0.4464297E-06  0.2614870E+04  0.7818609E-02  0.8363168E-01
        1   -1    0    0  501    0  0.00000000000E+00  0.00000000000E+00  0.10001491249E+04  0.10001491249E+04  0.50400001928E-02 0.  1.
       -1   -1    0    0    0  501  0.00000000000E+00  0.00000000000E+00 -0.17091308301E+04  0.17091308301E+04  0.50400001928E-02 0. -1.
    10030    2    1    2    0    0  0.00000000000E+00  0.00000000000E+00 -0.70898170521E+03  0.27092799550E+04  0.26148695601E+04 0.  0.
        4    1    3    3  502    0 -0.27406815693E+03 -0.12617561646E+04 -0.56744038741E+03  0.14103659737E+04  0.12699999809E+01 0. -1.
       -4    1    3    3    0  502  0.27406815693E+03  0.12617561646E+04 -0.14154131780E+03  0.12989139814E+04  0.12699999809E+01 0.  1.
</event>
<event>
 5   0  0.4361864E-06  0.2595266E+04  0.7818609E-02  0.8369811E-01
       -1   -1    0    0    0  501  0.00000000000E+00  0.00000000000E+00  0.19821307225E+04  0.19821307226E+04  0.50400001928E-02 0. -1.
        1   -1    0    0  501    0  0.00000000000E+00  0.00000000000E+00 -0.84951594262E+03  0.84951594263E+03  0.50400001928E-02 0.  1.
    10030    2    1    2    0    0  0.00000000000E+00  0.00000000000E+00  0.11326147799E+04  0.28316466652E+04  0.25952661900E+04 0.  0.
        3    1    3    3  502    0  0.10600596500E+04  0.22469481285E+03 -0.21260355331E+03  0.11042710272E+04  0.10100000352E+00 0.  1.
       -3    1    3    3    0  502 -0.10600596500E+04 -0.22469481285E+03  0.13452183332E+04  0.17273756380E+04  0.10100000352E+00 0. -1.
</event>
<event>
 5   0  0.4464297E-06  0.2618432E+04  0.7818609E-02  0.8361967E-01
       -1   -1    0    0    0  501  0.00000000000E+00  0.00000000000E+00  0.92353007272E+03  0.92353007273E+03  0.50400001928E-02 0.  1.
        1   -1    0    0  501    0  0.00000000000E+00  0.00000000000E+00 -0.18559730930E+04  0.18559730930E+04  0.50400001928E-02 0. -1.
    10030    2    1    2    0    0  0.00000000000E+00  0.00000000000E+00 -0.93244302031E+03  0.27795031658E+04  0.26184323292E+04 0.  0.
        4    1    3    3  502    0 -0.62589079826E+03 -0.66158204997E+02 -0.16848514701E+04  0.17985667317E+04  0.12699999809E+01 0. -1.
       -4    1    3    3    0  502  0.62589079826E+03  0.66158204997E+02  0.75240844976E+03  0.98093643403E+03  0.12699999809E+01 0.  1.
</event>
<event>
 5   0  0.1085255E-05  0.2588696E+04  0.7818609E-02  0.8372051E-01
        2   -1    0    0  501    0  0.00000000000E+00  0.00000000000E+00  0.17826368254E+04  0.17826368254E+04  0.25500000920E-02 0.  1.
       -2   -1    0    0    0  501  0.00000000000E+00  0.00000000000E+00 -0.93980833152E+03  0.93980833152E+03  0.25500000920E-02 0. -1.
    10030    2    1    2    0    0  0.00000000000E+00  0.00000000000E+00  0.84282849385E+03  0.27224451569E+04  0.25886961510E+04 0.  0.
        5    1    3    3  502    0 -0.71219068053E+03 -0.63676339021E+03 -0.49699337636E+03  0.10768972498E+04  0.46999998093E+01 0. -1.
       -5    1    3    3    0  502  0.71219068053E+03  0.63676339021E+03  0.13398218702E+04  0.16455479071E+04  0.46999998093E+01 0.  1.
</event>
<event>
 5   0  0.4464297E-06  0.2541958E+04  0.7818609E-02  0.8388188E-01
       -1   -1    0    0    0  501  0.00000000000E+00  0.00000000000E+00  0.93354332721E+03  0.93354332723E+03  0.50400001928E-02 0.  1.
        1   -1    0    0  501    0  0.00000000000E+00  0.00000000000E+00 -0.17303833164E+04  0.17303833164E+04  0.50400001928E-02 0. -1.
    10030    2    1    2    0    0  0.00000000000E+00  0.00000000000E+00 -0.79683998921E+03  0.26639266437E+04  0.25419581417E+04 0.  0.
        4    1    3    3  502    0  0.43325918060E+03 -0.58465821814E+03 -0.14904593045E+04  0.16586166829E+04  0.12699999809E+01 0. -1.
       -4    1    3    3    0  502 -0.43325918060E+03  0.58465821814E+03  0.69361931532E+03  0.10053099607E+04  0.12699999809E+01 0.  1.
</event>
<event>
 5   0  0.4415080E-06  0.2619496E+04  0.7818609E-02  0.8361609E-01
        1   -1    0    0  501    0  0.00000000000E+00  0.00000000000E+00  0.16623104902E+04  0.16623104902E+04  0.50400001928E-02 0. -1.
       -1   -1    0    0    0  501  0.00000000000E+00  0.00000000000E+00 -0.10319607641E+04  0.10319607641E+04  0.50400001928E-02 0.  1.
    10030    2    1    2    0    0  0.00000000000E+00  0.00000000000E+00  0.63034972609E+03  0.26942712543E+04  0.26194955267E+04 0.  0.
        2    1    3    3  502    0 -0.27821743801E+03 -0.37397778205E+03 -0.94376478704E+03  0.10525950302E+04  0.25500000920E-02 0.  1.
       -2    1    3    3    0  502  0.27821743801E+03  0.37397778205E+03  0.15741145131E+04  0.16416762241E+04  0.25500000920E-02 0. -1.
</event>
<event>
 5   0  0.4597705E-06  0.2608488E+04  0.7818609E-02  0.8365324E-01
        1   -1    0    0  501    0  0.00000000000E+00  0.00000000000E+00  0.12071364485E+04  0.12071364485E+04  0.50400001928E-02 0. -1.
       -1   -1    0    0    0  501  0.00000000000E+00  0.00000000000E+00 -0.14091637203E+04  0.14091637203E+04  0.50400001928E-02 0.  1.
    10030    2    1    2    0    0  0.00000000000E+00  0.00000000000E+00 -0.20202727178E+03  0.26163001688E+04  0.26084883658E+04 0.  0.
        5    1    3    3  502    0 -0.42637004488E+03 -0.12310025750E+04 -0.38601535492E+02  0.13033307038E+04  0.46999998093E+01 0. -1.
       -5    1    3    3    0  502  0.42637004488E+03  0.12310025750E+04 -0.16342573628E+03  0.13129694650E+04  0.46999998093E+01 0.  1.
</event>
<event>
 5   0  0.1086507E-05  0.2654062E+04  0.7818609E-02  0.8350066E-01
        2   -1    0    0  501    0  0.00000000000E+00  0.00000000000E+00  0.30256550479E+04  0.30256550479E+04  0.25500000920E-02 0. -1.
       -2   -1    0    0    0  501  0.00000000000E+00  0.00000000000E+00 -0.58202625491E+03  0.58202625491E+03  0.25500000920E-02 0.  1.
    10030    2    1    2    0    0  0.00000000000E+00  0.00000000000E+00  0.24436287930E+04  0.36076813028E+04  0.26540615488E+04 0.  0.
        2    1    3    3  502    0  0.13016462436E+04  0.12062311387E+03  0.91131551117E+03  0.15935271695E+04  0.25500000920E-02 0.  1.
       -2    1    3    3    0  502 -0.13016462436E+04 -0.12062311387E+03  0.15323132818E+04  0.20141541333E+04  0.25500000920E-02 0. -1.
</event>
<event>
 5   0  0.1116310E-05  0.2616353E+04  0.7818609E-02  0.8362668E-01
        2   -1    0    0  501    0  0.00000000000E+00  0.00000000000E+00  0.10813891351E+04  0.10813891352E+04  0.25500000920E-02 0.  1.
       -2   -1    0    0    0  501  0.00000000000E+00  0.00000000000E+00 -0.15825257099E+04  0.15825257099E+04  0.25500000920E-02 0. -1.
    10030    2    1    2    0    0  0.00000000000E+00  0.00000000000E+00 -0.50113657480E+03  0.26639148451E+04  0.26163532704E+04 0.  0.
        4    1    3    3  502    0  0.42874606018E+03 -0.12352550874E+04 -0.29187900284E+03  0.13397288085E+04  0.12699999809E+01 0.  1.
       -4    1    3    3    0  502 -0.42874606018E+03  0.12352550874E+04 -0.20925757196E+03  0.13241860366E+04  0.12699999809E+01 0. -1.
</event>
<event>
 5   0  0.1136881E-05  0.2631192E+04  0.7818609E-02  0.8357682E-01
       -2   -1    0    0    0  501  0.00000000000E+00  0.00000000000E+00  0.88847233150E+03  0.88847233150E+03  0.25500000920E-02 0. -1.
        2   -1    0    0  501    0  0.00000000000E+00  0.00000000000E+00 -0.19480553899E+04  0.19480553899E+04  0.25500000920E-02 0.  1.
    10030    2    1    2    0    0  0.00000000000E+00  0.00000000000E+00 -0.10595830584E+04  0.28365277214E+04  0.26311923641E+04 0.  0.
        3    1    3    3  502    0  0.59607040358E+03 -0.11122063108E+04 -0.12860677189E+03  0.12684015594E+04  0.10100000352E+00 0. -1.
       -3    1    3    3    0  502 -0.59607040358E+03  0.11122063108E+04 -0.93097628652E+03  0.15681261620E+04  0.10100000352E+00 0.  1.
</event>
<event>
 5   0  0.4218590E-06  0.2595513E+04  0.7818609E-02  0.8369727E-01
       -1   -1    0    0    0  501  0.00000000000E+00  0.00000000000E+00  0.87652467621E+03  0.87652467623E+03  0.50400001928E-02 0.  1.
        1   -1    0    0  501    0  0.00000000000E+00  0.00000000000E+00 -0.19214204249E+04  0.19214204249E+04  0.50400001928E-02 0. -1.
    10030    2    1    2    0    0  0.00000000000E+00  0.00000000000E+00 -0.10448957487E+04  0.27979451012E+04  0.25955133718E+04 0.  0.
        1    1    3    3  502    0  0.57380429162E+03 -0.11493094748E+04 -0.72124562041E+03  0.14732137927E+04  0.50400001928E-02 0. -1.
       -1    1    3    3    0  502 -0.57380429162E+03  0.11493094748E+04 -0.32365012830E+03  0.13247313085E+04  0.50400001928E-02 0.  1.
</event>
<event>
 5   0  0.4361864E-06  0.2597768E+04  0.7818609E-02  0.8368960E-01
        1   -1    0    0  501    0  0.00000000000E+00  0.00000000000E+00  0.14991614983E+04  0.14991614983E+04  0.50400001928E-02 0. -1.
       -1   -1    0    0    0  501  0.00000000000E+00  0.00000000000E+00 -0.11253625693E+04  0.11253625693E+04  0.50400001928E-02 0.  1.
    10030    2    1    2    0    0  0.00000000000E+00  0.00000000000E+00  0.37379892905E+03  0.26245240676E+04  0.25977684543E+04 0.  0.
        3    1    3    3  502    0 -0.10041106877E+04  0.66879068370E+03 -0.29928553899E+03  0.12430169330E+04  0.10100000352E+00 0. -1.
       -3    1    3    3    0  502  0.10041106877E+04 -0.66879068370E+03  0.67308446804E+03  0.13815071346E+04  0.10100000352E+00 0.  1.
</event>
<event>
 5   0  0.4597705E-06  0.2572986E+04  0.7818609E-02  0.8377436E-01
        1   -1    0    0  501    0  0.00000000000E+00  0.00000000000E+00  0.11374319693E+04  0.11374319693E+04  0.50400001928E-02 0. -1.
       -1   -1    0    0    0  501  0.00000000000E+00  0.00000000000E+00 -0.14550885169E+04  0.14550885169E+04  0.50400001928E-02 0.  1.
    10030    2    1    2    0    0  0.00000000000E+00  0.00000000000E+00 -0.31765654761E+03  0.25925204862E+04  0.25729859675E+04 0.  0.
        5    1    3    3  502    0  0.10701021832E+04  0.37133663675E+03  0.45574721508E+03  0.12209574908E+04  0.46999998093E+01 0. -1.
       -5    1    3    3    0  502 -0.10701021832E+04 -0.37133663675E+03 -0.77340376268E+03  0.13715629954E+04  0.46999998093E+01 0.  1.
</event>
<event>
 5   0  0.4597705E-06  0.2593974E+04  0.7818609E-02  0.8370251E-01
       -1   -1    0    0    0  501  0.00000000000E+00  0.00000000000E+00  0.13759157220E+04  0.13759157220E+04  0.50400001928E-02 0.  1.
        1   -1    0    0  501    0  0.00000000000E+00  0.00000000000E+00 -0.12225863029E+04  0.12225863029E+04  0.50400001928E-02 0. -1.
    10030    2    1    2    0    0  0.00000000000E+00  0.00000000000E+00  0.15332941911E+03  0.25985020249E+04  0.25939743373E+04 0.  0.
        5    1    3    3  502    0 -0.15102783158E+03  0.52170488334E+03  0.12565015473E+04  0.13688694677E+04  0.46999998093E+01 0.  1.
       -5    1    3    3    0  502  0.15102783158E+03 -0.52170488334E+03 -0.11031721282E+04  0.12296325572E+04  0.46999998093E+01 0. -1.
</event>
<event>
 5   0  0.1086507E-05  0.2601858E+04  0.7818609E-02  0.8367571E-01
       -2   -1    0    0    0  501  0.00000000000E+00  0.00000000000E+00  0.62195950001E+03  0.62195950002E+03  0.25500000920E-02 0.  1.
        2   -1    0    0  501    0  0.00000000000E+00  0.00000000000E+00 -0.27211026546E+04  0.27211026546E+04  0.25500000920E-02 0. -1.
    10030    2    1    2    0    0  0.00000000000E+00  0.00000000000E+00 -0.20991431546E+04  0.33430621546E+04  0.26018575261E+04 0.  0.
        2    1    3    3  502    0  0.14891790819E+03  0.83911053208E+03  0.21335851649E+03  0.87852426545E+03  0.25500000920E-02 0.  1.
       -2    1    3    3    0  502 -0.14891790819E+03 -0.83911053208E+03 -0.23125016711E+04  0.24645378892E+04  0.25500000920E-02 0. -1.
</event>
<event>
 5   0  0.1086507E-05  0.2611674E+04  0.7818609E-02  0.8364246E-01
        2   -1    0    0  501    0  0.00000000000E+00  0.00000000000E+00  0.12846375276E+04  0.12846375276E+04  0.25500000920E-02 0. -1.
       -2   -1    0    0    0  501  0.00000000000E+00  0.00000000000E+00 -0.13273866507E+04  0.13273866507E+04  0.25500000920E-02 0.  1.
    10030    2    1    2    0    0  0.00000000000E+00  0.00000000000E+00 -0.42749123025E+02  0.26120241783E+04  0.26116743328E+04 0.  0.
        2    1    3    3  502    0  0.40887723905E+03  0.12310532350E+04 -0.17152142149E+03  0.13084694349E+04  0.25500000920E-02 0.  1.
       -2    1    3    3    0  502 -0.40887723905E+03 -0.12310532350E+04  0.12877229846E+03  0.13035547434E+04  0.25500000920E-02 0. -1.
</event>
<event>
 5   0  0.4361864E-06  0.2606916E+04  0.7818609E-02  0.8365856E-01
       -1   -1    0    0    0  501  0.00000000000E+00  0.00000000000E+00  0.12238507041E+04  0.12238507041E+04  0.50400001928E-02 0. -1.
        1   -1    0    0  501    0  0.00000000000E+00  0.00000000000E+00 -0.13882434015E+04  0.13882434015E+04  0.50400001928E-02 0.  1.
    10030    2    1    2    0    0  0.00000000000E+00  0.00000000000E+00 -0.16439269741E+03  0.26120941056E+04  0.26069159284E+04 0.  0.
        3    1    3    3  502    0  0.10067393539E+04 -0.76886451144E+03 -0.38993160204E+03  0.13254144363E+04  0.10100000352E+00 0. -1.
       -3    1    3    3    0  502 -0.10067393539E+04  0.76886451144E+03  0.22553890463E+03  0.12866796693E+04  0.10100000352E+00 0.  1.
</event>
<event>
 5   0  0.4218590E-06  0.2760682E+04  0.7818609E-02  0.8315580E-01
       -1   -1    0    0    0  501  0.00000000000E+00  0.00000000000E+00  0.11112016822E+04  0.11112016822E+04  0.50400001928E-02 0. -1.
        1   -1    0    0  501    0  0.00000000000E+00  0.00000000000E+00 -0.17146674220E+04  0.17146674220E+04  0.50400001928E-02 0.  1.
    10030    2    1    2    0    0  0.00000000000E+00  0.00000000000E+00 -0.60346573976E+03  0.28258691042E+04  0.27606820344E+04 0.  0.
        1    1    3    3  502    0  0.10364545968E+04  0.60780414756E+03  0.39377959538E+03  0.12644075224E+04  0.50400001928E-02 0. -1.
       -1    1    3    3    0  502 -0.10364545968E+04 -0.60780414756E+03 -0.99724533514E+03  0.15614615818E+04  0.50400001928E-02 0.  1.
</event>
<event>
 5   0  0.1085061E-05  0.2617344E+04  0.7818609E-02  0.8362334E-01
        2   -1    0    0  501    0  0.00000000000E+00  0.00000000000E+00  0.16858522719E+04  0.16858522719E+04  0.25500000920E-02 0.  1.
       -2   -1    0    0    0  501  0.00000000000E+00  0.00000000000E+00 -0.10158794360E+04  0.10158794360E+04  0.25500000920E-02 0. -1.
    10030    2    1    2    0    0  0.00000000000E+00  0.00000000000E+00  0.66997283585E+03  0.27017317079E+04  0.26173441922E+04 0.  0.
        1    1    3    3  502    0  0.73824090390E+03 -0.10513776474E+04  0.59248481613E+03  0.14147200596E+04  0.50400001928E-02 0.  1.
       -1    1    3    3    0  502 -0.73824090390E+03  0.10513776474E+04  0.77488019725E+02  0.12870116483E+04  0.50400001928E-02 0. -1.
</event>
<event>
 5   0  0.1085255E-05  0.2567618E+04  0.7818609E-02  0.8379284E-01
       -2   -1    0    0    0  501  0.00000000000E+00  0.00000000000E+00  0.18295755833E+04  0.18295755833E+04  0.25500000920E-02 0. -1.
        2   -1    0    0  501    0  0.00000000000E+00  0.00000000000E+00 -0.90084591413E+03  0.90084591413E+03  0.25500000920E-02 0.  1.
    10030    2    1    2    0    0  0.00000000000E+00  0.00000000000E+00  0.92872966919E+03  0.27304214975E+04  0.25676181093E+04 0.  0.
        5    1    3    3  502    0 -0.66454722991E+03  0.13507980719E+03 -0.69483301336E+03  0.97091945162E+03  0.46999998093E+01 0.  1.
       -5    1    3    3    0  502  0.66454722991E+03 -0.13507980719E+03  0.16235626826E+04  0.17595020458E+04  0.46999998093E+01 0. -1.
</event>
<event>
 5   0  0.4415080E-06  0.2626952E+04  0.7818609E-02  0.8359103E-01
        1   -1    0    0  501    0  0.00000000000E+00  0.00000000000E+00  0.20735807466E+04  0.20735807466E+04  0.50400001928E-02 0.  1.
       -1   -1    0    0    0  501  0.00000000000E+00  0.00000000000E+00 -0.83200019524E+03  0.83200019525E+03  0.50400001928E-02 0. -1.
    10030    2    1    2    0    0  0.00000000000E+00  0.00000000000E+00  0.12415805513E+04  0.29055809418E+04  0.26269522919E+04 0.  0.
        2    1    3    3  502    0 -0.10349678923E+04  0.53278727834E+03  0.12937642586E+04  0.17403582329E+04  0.25500000920E-02 0.  1.
       -2    1    3    3    0  502  0.10349678923E+04 -0.53278727834E+03 -0.52183707225E+02  0.11652227089E+04  0.25500000920E-02 0. -1.
</event>
<event>
 5   0  0.4415080E-06  0.2550043E+04  0.7818609E-02  0.8385371E-01
       -1   -1    0    0    0  501  0.00000000000E+00  0.00000000000E+00  0.92457925611E+03  0.92457925612E+03  0.50400001928E-02 0.  1.
        1   -1    0    0  501    0  0.00000000000E+00  0.00000000000E+00 -0.17582913450E+04  0.17582913450E+04  0.50400001928E-02 0. -1.
    10030    2    1    2    0    0  0.00000000000E+00  0.00000000000E+00 -0.83371208891E+03  0.26828706011E+04  0.25500429046E+04 0.  0.
        2    1    3    3  502    0 -0.23968460598E+03 -0.13074256972E+03 -0.17271760448E+04  0.17486221489E+04  0.25500000920E-02 0. -1.
       -2    1    3    3    0  502  0.23968460598E+03  0.13074256972E+03  0.89346395593E+03  0.93424845220E+03  0.25500000920E-02 0.  1.
</event>
<event>
 5   0  0.4361864E-06  0.2593403E+04  0.7818609E-02  0.8370446E-01
       -1   -1    0    0    0  501  0.00000000000E+00  0.00000000000E+00  0.67952600370E+03  0.67952600372E+03  0.50400001928E-02 0. -1.
        1   -1    0    0  501    0  0.00000000000E+00  0.00000000000E+00 -0.24744223811E+04  0.24744223811E+04  0.50400001928E-02 0.  1.
    10030    2    1    2    0    0  0.00000000000E+00  0.00000000000E+00 -0.17948963774E+04  0.31539483848E+04  0.25934026700E+04 0.  0.
        3    1    3    3  502    0 -0.91746123059E+03  0.87408614365E+03 -0.56290353996E+03  0.13865864927E+04  0.10100000352E+00 0.  1.
       -3    1    3    3    0  502  0.91746123059E+03 -0.87408614365E+03 -0.12319928374E+04  0.17673618922E+04  0.10100000352E+00 0. -1.
</event>
<event>
 5   0  0.1136881E-05  0.2545255E+04  0.7818609E-02  0.8387038E-01
       -2   -1    0    0    0  501  0.00000000000E+00  0.00000000000E+00  0.15089669849E+04  0.15089669849E+04  0.25500000920E-02 0. -1.
        2   -1    0    0  501    0  0.00000000000E+00  0.00000000000E+00 -0.10733041956E+04  0.10733041956E+04  0.25500000920E-02 0.  1.
    10030    2    1    2    0    0  0.00000000000E+00  0.00000000000E+00  0.43566278935E+03  0.25822711805E+04  0.25452548760E+04 0.  0.
        3    1    3    3  502    0  0.26870204489E+03 -0.12948237596E+03  0.14730039267E+04  0.15028995485E+04  0.10100000352E+00 0. -1.
       -3    1    3    3    0  502 -0.26870204489E+03  0.12948237596E+03 -0.10373411373E+04  0.10793716320E+04  0.10100000352E+00 0.  1.
</event>
<event>
 5   0  0.4597705E-06  0.2575990E+04  0.7818609E-02  0.8376403E-01
       -1   -1    0    0    0  501  0.00000000000E+00  0.00000000000E+00  0.12083949047E+04  0.12083949047E+04  0.50400001928E-02 0.  1.
        1   -1    0    0  501    0  0.00000000000E+00  0.00000000000E+00 -0.13728389837E+04  0.13728389837E+04  0.50400001928E-02 0. -1.
    10030    2    1    2    0    0  0.00000000000E+00  0.00000000000E+00 -0.16444407904E+03  0.25812338884E+04  0.25759903982E+04 0.  0.
        5    1    3    3  502    0  0.11035049472E+04  0.15576940960E+03  0.56478746848E+03  0.12493975556E+04  0.46999998093E+01 0. -1.
       -5    1    3    3    0  502 -0.11035049472E+04 -0.15576940960E+03 -0.72923154753E+03  0.13318363328E+04  0.46999998093E+01 0.  1.
</event>
<event>
 5   0  0.4464297E-06  0.2575425E+04  0.7818609E-02  0.8376597E-01
        1   -1    0    0  501    0  0.00000000000E+00  0.00000000000E+00  0.15861105814E+04  0.15861105814E+04  0.50400001928E-02 0.  1.
       -1   -1    0    0    0  501  0.00000000000E+00  0.00000000000E+00 -0.10454525227E+04  0.10454525227E+04  0.50400001928E-02 0. -1.
    10030    2    1    2    0    0  0.00000000000E+00  0.00000000000E+00  0.54065805869E+03  0.26315631041E+04  0.25754248649E+04 0.  0.
        4    1    3    3  502    0  0.54248109430E+03  0.15754605169E+03  0.14527459365E+04  0.15587106418E+04  0.12699999809E+01 0.  1.
       -4    1    3    3    0  502 -0.54248109430E+03 -0.15754605169E+03 -0.91208787781E+03  0.10728524623E+04  0.12699999809E+01 0. -1.
</event>
<event>
 5   0  0.1136881E-05  0.2614644E+04  0.7818609E-02  0.8363244E-01
       -2   -1    0    0    0  501  0.00000000000E+00  0.00000000000E+00  0.12077608643E+04  0.12077608643E+04  0.25500000920E-02 0.  1.
        2   -1    0    0  501    0  0.00000000000E+00  0.00000000000E+00 -0.14150905807E+04  0.14150905807E+04  0.25500000920E-02 0. -1.
    10030    2    1    2    0    0  0.00000000000E+00  0.00000000000E+00 -0.20732971641E+03  0.26228514450E+04  0.26146441615E+04 0.  0.
        3    1    3    3  502    0  0.36501722631E+03  0.12509244882E+04 -0.20907257960E+03  0.13197579340E+04  0.10100000352E+00 0.  1.
       -3    1    3    3    0  502 -0.36501722631E+03 -0.12509244882E+04  0.17428631942E+01  0.13030935110E+04  0.10100000352E+00 0. -1.
</event>
<event>
 5   0  0.1085255E-05  0.2591415E+04  0.7818609E-02  0.8371123E-01
        2   -1    0    0  501    0  0.00000000000E+00  0.00000000000E+00  0.10926744614E+04  0.10926744614E+04  0.25500000920E-02 0. -1.
       -2   -1    0    0    0  501  0.00000000000E+00  0.00000000000E+00 -0.15364671291E+04  0.15364671291E+04  0.25500000920E-02 0.  1.
    10030    2    1    2    0    0  0.00000000000E+00  0.00000000000E+00 -0.44379266773E+03  0.26291415906E+04  0.25914153606E+04 0.  0.
        5    1    3    3  502    0 -0.95451988638E+02 -0.97787247002E+03  0.63508446355E+03  0.11699145335E+04  0.46999998093E+01 0. -1.
       -5    1    3    3    0  502  0.95451988638E+02  0.97787247002E+03 -0.10788771313E+04  0.14592270571E+04  0.46999998093E+01 0.  1.
</event>
<event>
 5   0  0.1085255E-05  0.2575721E+04  0.7818609E-02  0.8376495E-01
        2   -1    0    0  501    0  0.00000000000E+00  0.00000000000E+00  0.15129860161E+04  0.15129860161E+04  0.25500000920E-02 0.  1.
       -2   -1    0    0    0  501  0.00000000000E+00  0.00000000000E+00 -0.10962325923E+04  0.10962325923E+04  0.25500000920E-02 0. -1.
    10030    2    1    2    0    0  0.00000000000E+00  0.00000000000E+00  0.41675342383E+03  0.26092186085E+04  0.25757209341E+04 0.  0.
        5    1    3    3  502    0 -0.87793207076E+03 -0.62406717702E+02 -0.74401148832E+03  0.11524905657E+04  0.46999998093E+01 0. -1.
       -5    1    3    3    0  502  0.87793207076E+03  0.62406717702E+02  0.11607649122E+04  0.14567280428E+04  0.46999998093E+01 0.  1.
</event>
<event>
 5   0  0.1085255E-05  0.2600908E+04  0.7818609E-02  0.8367893E-01
        2   -1    0    0  501    0  0.00000000000E+00  0.00000000000E+00  0.14756220010E+04  0.14756220010E+04  0.25500000920E-02 0.  1.
       -2   -1    0    0    0  501  0.00000000000E+00  0.00000000000E+00 -0.11460794562E+04  0.11460794562E+04  0.25500000920E-02 0. -1.
    10030    2    1    2    0    0  0.00000000000E+00  0.00000000000E+00  0.32954254478E+03  0.26217014573E+04  0.26009075805E+04 0.  0.
        5    1    3    3  502    0 -0.24616510892E+03 -0.12767171683E+04  0.14104628118E+03  0.13078685455E+04  0.46999998093E+01 0. -1.
       -5    1    3    3    0  502  0.24616510892E+03  0.12767171683E+04  0.18849626360E+03  0.13138329118E+04  0.46999998093E+01 0.  1.
</event>
<event>
 5   0  0.1086507E-05  0.2594302E+04  0.7818609E-02  0.8370139E-01
        2   -1    0    0  501    0  0.00000000000E+00  0.00000000000E+00  0.19774936794E+04  0.19774936794E+04  0.25500000920E-02 0.  1.
       -2   -1    0    0    0  501  0.00000000000E+00  0.00000000000E+00 -0.85087515095E+03  0.85087515095E+03  0.25500000920E-02 0. -1.
    10030    2    1    2    0    0  0.00000000000E+00  0.00000000000E+00  0.11266185284E+04  0.28283688303E+04  0.25943016270E+04 0.  0.
        2    1    3    3  502    0 -0.12327019552E+04  0.15506036650E+03  0.96977761190E+03  0.15760921433E+04  0.25500000920E-02 0.  1.
       -2    1    3    3    0  502  0.12327019552E+04 -0.15506036650E+03  0.15684091651E+03  0.12522766870E+04  0.25500000920E-02 0. -1.
</event>
<event>
 5   0  0.1116310E-05  0.2597055E+04  0.7818609E-02  0.8369202E-01
       -2   -1    0    0    0  501  0.00000000000E+00  0.00000000000E+00  0.64339096395E+03  0.64339096396E+03  0.25500000920E-02 0. -1.
        2   -1    0    0  501    0  0.00000000000E+00  0.00000000000E+00 -0.26207610648E+04  0.26207610648E+04  0.25500000920E-02 0.  1.
    10030    2    1    2    0    0  0.00000000000E+00  0.00000000000E+00 -0.19773701008E+04  0.32641520287E+04  0.25970552461E+04 0.  0.
        4    1    3    3  502    0  0.72335657178E+03  0.62829305010E+03 -0.20902735979E+04  0.22994004030E+04  0.12699999809E+01 0.  1.
       -4    1    3    3    0  502 -0.72335657178E+03 -0.62829305010E+03  0.11290349703E+03  0.96475162569E+03  0.12699999809E+01 0. -1.
</event>
<event>
 5   0  0.1085255E-05  0.2555518E+04  0.7818609E-02  0.8383470E-01
        2   -1    0    0  501    0  0.00000000000E+00  0.00000000000E+00  0.12886232938E+04  0.12886232938E+04  0.25500000920E-02 0.  1.
       -2   -1    0    0    0  501  0.00000000000E+00  0.00000000000E+00 -0.12669864555E+04  0.12669864555E+04  0.25500000920E-02 0. -1.
    10030    2    1    2    0    0  0.00000000000E+00  0.00000000000E+00  0.21636838343E+02  0.25556097493E+04  0.25555181545E+04 0.  0.
        5    1    3    3  502    0  0.65146539105E+02 -0.84634631715E+03 -0.94425508243E+03  0.12697188314E+04  0.46999998093E+01 0. -1.
       -5    1    3    3    0  502 -0.65146539105E+02  0.84634631715E+03  0.96589192077E+03  0.12858909179E+04  0.46999998093E+01 0.  1.
</event>
<event>
 5   0  0.1085255E-05  0.2580959E+04  0.7818609E-02  0.8374698E-01
       -2   -1    0    0    0  501  0.00000000000E+00  0.00000000000E+00  0.13771619927E+04  0.13771619927E+04  0.25500000920E-02 0.  1.
        2   -1    0    0  501    0  0.00000000000E+00  0.00000000000E+00 -0.12092529474E+04  0.12092529474E+04  0.25500000920E-02 0. -1.
    10030    2    1    2    0    0  0.00000000000E+00  0.00000000000E+00  0.16790904529E+03  0.25864149402E+04  0.25809588906E+04 0.  0.
        5    1    3    3  502    0  0.23876150756E+02 -0.72602929922E+02  0.13748834125E+04  0.13770140682E+04  0.46999998093E+01 0.  1.
       -5    1    3    3    0  502 -0.23876150756E+02  0.72602929922E+02 -0.12069743672E+04  0.12094008720E+04  0.46999998093E+01 0. -1.
</event>
<event>
 5   0  0.1085061E-05  0.2606243E+04  0.7818609E-02  0.8366084E-01
       -2   -1    0    0    0  501  0.00000000000E+00  0.00000000000E+00  0.17827399923E+04  0.17827399923E+04  0.25500000920E-02 0. -1.
        2   -1    0    0  501    0  0.00000000000E+00  0.00000000000E+00 -0.95253681877E+03  0.95253681878E+03  0.25500000920E-02 0.  1.
    10030    2    1    2    0    0  0.00000000000E+00  0.00000000000E+00  0.83020317357E+03  0.27352768111E+04  0.26062428751E+04 0.  0.
        1    1    3    3  502    0 -0.76317666784E+03  0.97541205617E+03 -0.10251800538E+02  0.12385363964E+04  0.50400001928E-02 0.  1.
       -1    1    3    3    0  502  0.76317666784E+03 -0.97541205617E+03  0.84045497411E+03  0.14967404148E+04  0.50400001928E-02 0. -1.
</event>
<event>
 5   0  0.3705250E-06  0.2669287E+04  0.7818609E-02  0.8345040E-01
       -3   -1    0    0    0  501  0.00000000000E+00  0.00000000000E+00  0.19808094276E+04  0.19808094302E+04  0.10100000352E+00 0. -1.
        3   -1    0    0  501    0  0.00000000000E+00  0.00000000000E+00 -0.89926541063E+03  0.89926541631E+03  0.10100000352E+00 0.  1.
    10030    2    1    2    0    0  0.00000000000E+00  0.00000000000E+00  0.10815440170E+04  0.28800748465E+04  0.26692871072E+04 0.  0.
        5    1    3    3  502    0  0.10041782500E+04  0.29626690192E+02  0.14887909848E+04  0.17960435364E+04  0.46999998093E+01 0. -1.
       -5    1    3    3    0  502 -0.10041782500E+04 -0.29626690192E+02 -0.40724696777E+03  0.10840313101E+04  0.46999998093E+01 0.  1.
</event>
<event>
 5   0  0.1085061E-05  0.2601579E+04  0.7818609E-02  0.8367665E-01
       -2   -1    0    0    0  501  0.00000000000E+00  0.00000000000E+00  0.93478595186E+03  0.93478595186E+03  0.25500000920E-02 0.  1.
        2   -1    0    0  501    0  0.00000000000E+00  0.00000000000E+00 -0.18100971066E+04  0.18100971066E+04  0.25500000920E-02 0. -1.
    10030    2    1    2    0    0  0.00000000000E+00  0.00000000000E+00 -0.87531115475E+03  0.27448830585E+04  0.26015790180E+04 0.  0.
        1    1    3    3  502    0  0.83932007331E+01  0.76784535792E+03 -0.15454411889E+04  0.17257014249E+04  0.50400001928E-02 0. -1.
       -1    1    3    3    0  502 -0.83932007331E+01 -0.76784535792E+03  0.67013003415E+03  0.10191816336E+04  0.50400001928E-02 0.  1.
</event>
<event>
 5   0  0.4415080E-06  0.2625936E+04  0.7818609E-02  0.8359444E-01
       -1   -1    0    0    0  501  0.00000000000E+00  0.00000000000E+00  0.87038046030E+03  0.87038046031E+03  0.50400001928E-02 0.  1.
        1   -1    0    0  501    0  0.00000000000E+00  0.00000000000E+00 -0.19806111790E+04  0.19806111790E+04  0.50400001928E-02 0. -1.
    10030    2    1    2    0    0  0.00000000000E+00  0.00000000000E+00 -0.11102307187E+04  0.28509916393E+04  0.26259362290E+04 0.  0.
        2    1    3    3  502    0  0.16730638264E+03 -0.35492945042E+03 -0.19154644846E+04  0.19552418092E+04  0.25500000920E-02 0. -1.
       -2    1    3    3    0  502 -0.16730638264E+03  0.35492945042E+03  0.80523376592E+03  0.89574983016E+03  0.25500000920E-02 0.  1.
</event>
<event>
 5   0  0.1136881E-05  0.2597116E+04  0.7818609E-02  0.8369181E-01
        2   -1    0    0  501    0  0.00000000000E+00  0.00000000000E+00  0.98358868712E+03  0.98358868713E+03  0.25500000920E-02 0.  1.
       -2   -1    0    0    0  501  0.00000000000E+00  0.00000000000E+00 -0.17143885804E+04  0.17143885804E+04  0.25500000920E-02 0. -1.
    10030    2    1    2    0    0  0.00000000000E+00  0.00000000000E+00 -0.73079989330E+03  0.26979772675E+04  0.25971162570E+04 0.  0.
        3    1    3    3  502    0 -0.13675790836E+03  0.11844217670E+04 -0.89986611507E+03  0.14937592453E+04  0.10100000352E+00 0. -1.
       -3    1    3    3    0  502  0.13675790836E+03 -0.11844217670E+04  0.16906622177E+03  0.12042180223E+04  0.10100000352E+00 0.  1.
</event>
<event>
 5   0  0.4464297E-06  0.2589219E+04  0.7818609E-02  0.8371873E-01
        1   -1    0    0  501    0  0.00000000000E+00  0.00000000000E+00  0.15310186218E+04  0.15310186218E+04  0.50400001928E-02 0.  1.
       -1   -1    0    0    0  501  0.00000000000E+00  0.00000000000E+00 -0.10947047768E+04  0.10947047768E+04  0.50400001928E-02 0. -1.
    10030    2    1    2    0    0  0.00000000000E+00  0.00000000000E+00  0.43631384505E+03  0.26257233986E+04  0.25892187228E+04 0.  0.
        4    1    3    3  502    0  0.28535303232E+02 -0.93138682276E+03 -0.69324430185E+03  0.11614150645E+04  0.12699999809E+01 0. -1.
       -4    1    3    3    0  502 -0.28535303232E+02  0.93138682276E+03  0.11295581469E+04  0.14643083341E+04  0.12699999809E+01 0.  1.
</event>
<event>
 5   0  0.4218590E-06  0.2597507E+04  0.7818609E-02  0.8369049E-01
        1   -1    0    0  501    0  0.00000000000E+00  0.00000000000E+00  0.18971410654E+04  0.18971410654E+04  0.50400001928E-02 0.  1.
       -1   -1    0    0    0  501  0.00000000000E+00  0.00000000000E+00 -0.88910636598E+03  0.88910636599E+03  0.50400001928E-02 0. -1.
    10030    2    1    2    0    0  0.00000000000E+00  0.00000000000E+00  0.10080346994E+04  0.27862474314E+04  0.25975066494E+04 0.  0.
        1    1    3    3  502    0 -0.10674256851E+04  0.36303842116E+03 -0.18746781266E+03  0.11429517353E+04  0.50400001928E-02 0. -1.
       -1    1    3    3    0  502  0.10674256851E+04 -0.36303842116E+03  0.11955025121E+04  0.16432956961E+04  0.50400001928E-02 0.  1.
</event>
<event>
 5   0  0.4597705E-06  0.2603461E+04  0.7818609E-02  0.8367026E-01
       -1   -1    0    0    0  501  0.00000000000E+00  0.00000000000E+00  0.11947086216E+04  0.11947086216E+04  0.50400001928E-02 0.  1.
        1   -1    0    0  501    0  0.00000000000E+00  0.00000000000E+00 -0.14183397238E+04  0.14183397238E+04  0.50400001928E-02 0. -1.
    10030    2    1    2    0    0  0.00000000000E+00  0.00000000000E+00 -0.22363110217E+03  0.26130483454E+04  0.26034613087E+04 0.  0.
        5    1    3    3  502    0 -0.68812120316E+01 -0.12848375849E+04  0.97821094678E+02  0.12885829531E+04  0.46999998093E+01 0. -1.
       -5    1    3    3    0  502  0.68812120316E+01  0.12848375849E+04 -0.32145219685E+03  0.13244653923E+04  0.46999998093E+01 0.  1.
</event>
<event>
 5   0  0.1116310E-05  0.2573779E+04  0.7818609E-02  0.8377163E-01
       -2   -1    0    0    0  501  0.00000000000E+00  0.00000000000E+00  0.12000742727E+04  0.12000742727E+04  0.25500000920E-02 0. -1.
        2   -1    0    0  501    0  0.00000000000E+00  0.00000000000E+00 -0.13799854183E+04  0.13799854183E+04  0.25500000920E-02 0.  1.
    10030    2    1    2    0    0  0.00000000000E+00  0.00000000000E+00 -0.17991114563E+03  0.25800596910E+04  0.25737793201E+04 0.  0.
        4    1    3    3  502    0  0.90683634507E+03  0.50612587469E+03 -0.85178885726E+03  0.13431535385E+04  0.12699999809E+01 0.  1.
       -4    1    3    3    0  502 -0.90683634507E+03 -0.50612587469E+03  0.67187771163E+03  0.12369061525E+04  0.12699999809E+01 0. -1.
</event>
<event>
 5   0  0.4415080E-06  0.2592678E+04  0.7818609E-02  0.8370693E-01
        1   -1    0    0  501    0  0.00000000000E+00  0.00000000000E+00  0.19808922870E+04  0.19808922870E+04  0.50400001928E-02 0.  1.
       -1   -1    0    0    0  501  0.00000000000E+00  0.00000000000E+00 -0.84835253828E+03  0.84835253830E+03  0.50400001928E-02 0. -1.
    10030    2    1    2    0    0  0.00000000000E+00  0.00000000000E+00  0.11325397487E+04  0.28292448253E+04  0.25926781518E+04 0.  0.
        2    1    3    3  502    0 -0.45464983990E+03  0.77402153449E+03  0.15868481477E+04  0.18231573867E+04  0.25500000920E-02 0.  1.
       -2    1    3    3    0  502  0.45464983990E+03 -0.77402153449E+03 -0.45430839896E+03  0.10060874386E+04  0.25500000920E-02 0. -1.
</event>
<event>
 5   0  0.1086507E-05  0.2590829E+04  0.7818609E-02  0.8371323E-01
        2   -1    0    0  501    0  0.00000000000E+00  0.00000000000E+00  0.14373695327E+04  0.14373695327E+04  0.25500000920E-02 0.  1.
       -2   -1    0    0    0  501  0.00000000000E+00  0.00000000000E+00 -0.11674786983E+04  0.11674786983E+04  0.25500000920E-02 0. -1.
    10030    2    1    2    0    0  0.00000000000E+00  0.00000000000E+00  0.26989083442E+03  0.26048482311E+04  0.25908286791E+04 0.  0.
        2    1    3    3  502    0 -0.10921915470E+03 -0.11660489908E+04  0.69156493235E+03  0.13600959997E+04  0.25500000920E-02 0.  1.
       -2    1    3    3    0  502  0.10921915470E+03  0.11660489908E+04 -0.42167409793E+03  0.12447522314E+04  0.25500000920E-02 0. -1.
</event>
<event>
 5   0  0.1085061E-05  0.2560036E+04  0.7818609E-02  0.8381904E-01
       -2   -1    0    0    0  501  0.00000000000E+00  0.00000000000E+00  0.75808825382E+03  0.75808825382E+03  0.25500000920E-02 0.  1.
        2   -1    0    0  501    0  0.00000000000E+00  0.00000000000E+00 -0.21612872189E+04  0.21612872189E+04  0.25500000920E-02 0. -1.
    10030    2    1    2    0    0  0.00000000000E+00  0.00000000000E+00 -0.14031989650E+04  0.29193754727E+04  0.25600362917E+04 0.  0.
        1    1    3    3  502    0 -0.36599059766E+02  0.10091074486E+04  0.19546195054E+03  0.10285148070E+04  0.50400001928E-02 0.  1.
       -1    1    3    3    0  502  0.36599059766E+02 -0.10091074486E+04 -0.15986609156E+04  0.18908606657E+04  0.50400001928E-02 0. -1.
</event>
<event>
 5   0  0.1085255E-05  0.2599827E+04  0.7818609E-02  0.8368260E-01
       -2   -1    0    0    0  501  0.00000000000E+00  0.00000000000E+00  0.90778557795E+03  0.90778557796E+03  0.25500000920E-02 0.  1.
        2   -1    0    0  501    0  0.00000000000E+00  0.00000000000E+00 -0.18614253958E+04  0.18614253958E+04  0.25500000920E-02 0. -1.
    10030    2    1    2    0    0  0.00000000000E+00  0.00000000000E+00 -0.95363981789E+03  0.27692109738E+04  0.25998270164E+04 0.  0.
        5    1    3    3  502    0 -0.19262881053E+03  0.52148514438E+03  0.77476788963E+03  0.95359319799E+03  0.46999998093E+01 0.  1.
       -5    1    3    3    0  502  0.19262881053E+03 -0.52148514438E+03 -0.17284077075E+04  0.18156177758E+04  0.46999998093E+01 0. -1.
</event>
<event>
 5   0  0.4415080E-06  0.2604446E+04  0.7818609E-02  0.8366693E-01
        1   -1    0    0  501    0  0.00000000000E+00  0.00000000000E+00  0.82250364738E+03  0.82250364739E+03  0.50400001928E-02 0.  1.
       -1   -1    0    0    0  501  0.00000000000E+00  0.00000000000E+00 -0.20617345638E+04  0.20617345638E+04  0.50400001928E-02 0. -1.
    10030    2    1    2    0    0  0.00000000000E+00  0.00000000000E+00 -0.12392309164E+04  0.28842382112E+04  0.26044455830E+04 0.  0.
        2    1    3    3  502    0  0.94910166916E+03 -0.82276648407E+03 -0.10001031539E+04  0.16055980145E+04  0.25500000920E-02 0.  1.
       -2    1    3    3    0  502 -0.94910166916E+03  0.82276648407E+03 -0.23912776246E+03  0.12786401967E+04  0.25500000920E-02 0. -1.
</event>
<event>
 5   0  0.4464297E-06  0.2597420E+04  0.7818609E-02  0.8369078E-01
       -1   -1    0    0    0  501  0.00000000000E+00  0.00000000000E+00  0.14288309387E+04  0.14288309387E+04  0.50400001928E-02 0. -1.
        1   -1    0    0  501    0  0.00000000000E+00  0.00000000000E+00 -0.11804385890E+04  0.11804385890E+04  0.50400001928E-02 0.  1.
    10030    2    1    2    0    0  0.00000000000E+00  0.00000000000E+00  0.24839234973E+03  0.26092695277E+04  0.25974196251E+04 0.  0.
        4    1    3    3  502    0  0.11036149208E+04  0.31945755428E+03 -0.48406315074E+03  0.12467308327E+04  0.12699999809E+01 0. -1.
       -4    1    3    3    0  502 -0.11036149208E+04 -0.31945755428E+03  0.73245550047E+03  0.13625386950E+04  0.12699999809E+01 0.  1.
</event>
<event>
 5   0  0.1116310E-05  0.2484747E+04  0.7818609E-02  0.8408440E-01
        2   -1    0    0  501    0  0.00000000000E+00  0.00000000000E+00  0.12091421729E+04  0.12091421729E+04  0.25500000920E-02 0.  1.
       -2   -1    0    0    0  501  0.00000000000E+00  0.00000000000E+00 -0.12765177350E+04  0.12765177350E+04  0.25500000920E-02 0. -1.
    10030    2    1    2    0    0  0.00000000000E+00  0.00000000000E+00 -0.67375562133E+02  0.24856599079E+04  0.24847466090E+04 0.  0.
        4    1    3    3  502    0  0.38030018168E+03  0.94419806438E+03  0.67886020817E+03  0.12235158389E+04  0.12699999809E+01 0.  1.
       -4    1    3    3    0  502 -0.38030018168E+03 -0.94419806438E+03 -0.74623577031E+03  0.12621440689E+04  0.12699999809E+01 0. -1.
</event>
<event>
 5   0  0.1136881E-05  0.2627750E+04  0.7818609E-02  0.8358836E-01
       -2   -1    0    0    0  501  0.00000000000E+00  0.00000000000E+00  0.16591255800E+04  0.16591255800E+04  0.25500000920E-02 0. -1.
        2   -1    0    0  501    0  0.00000000000E+00  0.00000000000E+00 -0.10404679259E+04  0.10404679259E+04  0.25500000920E-02 0.  1.
    10030    2    1    2    0    0  0.00000000000E+00  0.00000000000E+00  0.61865765416E+03  0.26995935059E+04  0.26277495703E+04 0.  0.
        3    1    3    3  502    0  0.11338474704E+04 -0.52640581270E+03 -0.10614597270E+03  0.12545836535E+04  0.10100000352E+00 0.  1.
       -3    1    3    3    0  502 -0.11338474704E+04  0.52640581270E+03  0.72480362686E+03  0.14450098524E+04  0.10100000352E+00 0. -1.
</event>
<event>
 5   0  0.4218590E-06  0.2578981E+04  0.7818609E-02  0.8375376E-01
       -1   -1    0    0    0  501  0.00000000000E+00  0.00000000000E+00  0.11033035785E+04  0.11033035785E+04  0.50400001928E-02 0.  1.
        1   -1    0    0  501    0  0.00000000000E+00  0.00000000000E+00 -0.15070977415E+04  0.15070977416E+04  0.50400001928E-02 0. -1.
    10030    2    1    2    0    0  0.00000000000E+00  0.00000000000E+00 -0.40379416304E+03  0.26104013201E+04  0.25789814512E+04 0.  0.
        1    1    3    3  502    0  0.12333087192E+04  0.16497783329E+03  0.14063118105E+03  0.12522161201E+04  0.50400001928E-02 0.  1.
       -1    1    3    3    0  502 -0.12333087192E+04 -0.16497783329E+03 -0.54442534409E+03  0.13581852000E+04  0.50400001928E-02 0. -1.
</event>
<event>
 5   0  0.4361864E-06  0.2564431E+04  0.7818609E-02  0.8380385E-01
        1   -1    0    0  501    0  0.00000000000E+00  0.00000000000E+00  0.12016825981E+04  0.12016825981E+04  0.50400001928E-02 0. -1.
       -1   -1    0    0    0  501  0.00000000000E+00  0.00000000000E+00 -0.13681453487E+04  0.13681453487E+04  0.50400001928E-02 0.  1.
    10030    2    1    2    0    0  0.00000000000E+00  0.00000000000E+00 -0.16646275060E+03  0.25698279468E+04  0.25644308977E+04 0.  0.
        3    1    3    3  502    0  0.15877679629E+03  0.87445837854E+03  0.84293714118E+03  0.12249206346E+04  0.10100000352E+00 0. -1.
       -3    1    3    3    0  502 -0.15877679629E+03 -0.87445837854E+03 -0.10093998918E+04  0.13449073123E+04  0.10100000352E+00 0.  1.
</event>
<event>
 5   0  0.4415080E-06  0.2671050E+04  0.7818609E-02  0.8344460E-01
       -1   -1    0    0    0  501  0.00000000000E+00  0.00000000000E+00  0.12246401276E+04  0.12246401277E+04  0.50400001928E-02 0.  1.
        1   -1    0    0  501    0  0.00000000000E+00  0.00000000000E+00 -0.14564496445E+04  0.14564496445E+04  0.50400001928E-02 0. -1.
    10030    2    1    2    0    0  0.00000000000E+00  0.00000000000E+00 -0.23180951682E+03  0.26810897721E+04  0.26710497401E+04 0.  0.
        2    1    3    3  502    0 -0.11793981868E+04 -0.52052027821E+03  0.23426933339E+03  0.13102685082E+04  0.25500000920E-02 0. -1.
       -2    1    3    3    0  502  0.11793981868E+04  0.52052027821E+03 -0.46607885022E+03  0.13708212639E+04  0.25500000920E-02 0.  1.
</event>
<event>
 5   0  0.4415080E-06  0.2590622E+04  0.7818609E-02  0.8371394E-01
       -1   -1    0    0    0  501  0.00000000000E+00  0.00000000000E+00  0.21295774003E+04  0.21295774003E+04  0.50400001928E-02 0. -1.
        1   -1    0    0  501    0  0.00000000000E+00  0.00000000000E+00 -0.78787021979E+03  0.78787021981E+03  0.50400001928E-02 0.  1.
    10030    2    1    2    0    0  0.00000000000E+00  0.00000000000E+00  0.13417071805E+04  0.29174476201E+04  0.25906220214E+04 0.  0.
        2    1    3    3  502    0 -0.34859776699E+03  0.72743760941E+03 -0.47048588112E+03  0.93383234206E+03  0.25500000920E-02 0.  1.
       -2    1    3    3    0  502  0.34859776699E+03 -0.72743760941E+03  0.18121930617E+04  0.19836152781E+04  0.25500000920E-02 0. -1.
</event>
<event>
 5   0  0.1085255E-05  0.2599442E+04  0.7818609E-02  0.8368391E-01
        2   -1    0    0  501    0  0.00000000000E+00  0.00000000000E+00  0.22306759648E+04  0.22306759648E+04  0.25500000920E-02 0.  1.
       -2   -1    0    0    0  501  0.00000000000E+00  0.00000000000E+00 -0.75729288757E+03  0.75729288757E+03  0.25500000920E-02 0. -1.
    10030    2    1    2    0    0  0.00000000000E+00  0.00000000000E+00  0.14733830773E+04  0.29879688524E+04  0.25994422807E+04 0.  0.
        5    1    3    3  502    0  0.22720082161E+03  0.97680785216E+03  0.16869867167E+04  0.19625799514E+04  0.46999998093E+01 0.  1.
       -5    1    3    3    0  502 -0.22720082161E+03 -0.97680785216E+03 -0.21360363948E+03  0.10253889009E+04  0.46999998093E+01 0. -1.
</event>
<event>
 5   0  0.4597705E-06  0.2532181E+04  0.7818609E-02  0.8391610E-01
       -1   -1    0    0    0  501  0.00000000000E+00  0.00000000000E+00  0.12972061580E+04  0.12972061580E+04  0.50400001928E-02 0. -1.
        1   -1    0    0  501    0  0.00000000000E+00  0.00000000000E+00 -0.12357210066E+04  0.12357210066E+04  0.50400001928E-02 0.  1.
    10030    2    1    2    0    0  0.00000000000E+00  0.00000000000E+00  0.61485151417E+02  0.25329271647E+04  0.25321807988E+04 0.  0.
        5    1    3    3  502    0 -0.92791651143E+03  0.23387510545E+03  0.85998402473E+03  0.12865928765E+04  0.46999998093E+01 0. -1.
       -5    1    3    3    0  502  0.92791651143E+03 -0.23387510545E+03 -0.79849887331E+03  0.12463342881E+04  0.46999998093E+01 0.  1.
</event>
<event>
 5   0  0.4361864E-06  0.2609378E+04  0.7818609E-02  0.8365023E-01
        1   -1    0    0  501    0  0.00000000000E+00  0.00000000000E+00  0.21249761411E+04  0.21249761412E+04  0.50400001928E-02 0. -1.
       -1   -1    0    0    0  501  0.00000000000E+00  0.00000000000E+00 -0.80105059147E+03  0.80105059148E+03  0.50400001928E-02 0.  1.
    10030    2    1    2    0    0  0.00000000000E+00  0.00000000000E+00  0.13239255497E+04  0.29260267326E+04  0.26093780062E+04 0.  0.
        3    1    3    3  502    0  0.28328670231E+03 -0.72868399571E+03  0.18332138908E+04  0.19929638484E+04  0.10100000352E+00 0. -1.
       -3    1    3    3    0  502 -0.28328670231E+03  0.72868399571E+03 -0.50928834115E+03  0.93306288424E+03  0.10100000352E+00 0.  1.
</event>
<event>
 5   0  0.4597705E-06  0.2604589E+04  0.7818609E-02  0.8366644E-01
        1   -1    0    0  501    0  0.00000000000E+00  0.00000000000E+00  0.15990653541E+04  0.15990653541E+04  0.50400001928E-02 0. -1.
       -1   -1    0    0    0  501  0.00000000000E+00  0.00000000000E+00 -0.10606014656E+04  0.10606014656E+04  0.50400001928E-02 0.  1.
    10030    2    1    2    0    0  0.00000000000E+00  0.00000000000E+00  0.53846388849E+03  0.26596668197E+04  0.26045890717E+04 0.  0.
        5    1    3    3  502    0 -0.98027567737E+03  0.12581413218E+03  0.11352094904E+04  0.15051552334E+04  0.46999998093E+01 0. -1.
       -5    1    3    3    0  502  0.98027567737E+03 -0.12581413218E+03 -0.59674560191E+03  0.11545115863E+04  0.46999998093E+01 0.  1.
</event>
<event>
 5   0  0.4218590E-06  0.2597966E+04  0.7818609E-02  0.8368892E-01
       -1   -1    0    0    0  501  0.00000000000E+00  0.00000000000E+00  0.13375316403E+04  0.13375316403E+04  0.50400001928E-02 0.  1.
        1   -1    0    0  501    0  0.00000000000E+00  0.00000000000E+00 -0.12615456607E+04  0.12615456607E+04  0.50400001928E-02 0. -1.
    10030    2    1    2    0    0  0.00000000000E+00  0.00000000000E+00  0.75985979595E+02  0.25990773009E+04  0.25979663098E+04 0.  0.
        1    1    3    3  502    0  0.40320320169E+03  0.74622742880E+03 -0.94626158314E+03  0.12707632278E+04  0.50400001928E-02 0. -1.
       -1    1    3    3    0  502 -0.40320320169E+03 -0.74622742880E+03  0.10222475627E+04  0.13283140731E+04  0.50400001928E-02 0.  1.
</event>
<event>
 5   0  0.1086507E-05  0.2610071E+04  0.7818609E-02  0.8364788E-01
        2   -1    0    0  501    0  0.00000000000E+00  0.00000000000E+00  0.11785713794E+04  0.11785713794E+04  0.25500000920E-02 0.  1.
       -2   -1    0    0    0  501  0.00000000000E+00  0.00000000000E+00 -0.14450692421E+04  0.14450692422E+04  0.25500000920E-02 0. -1.
    10030    2    1    2    0    0  0.00000000000E+00  0.00000000000E+00 -0.26649786275E+03  0.26236406215E+04  0.26100706887E+04 0.  0.
        2    1    3    3  502    0  0.10858910443E+04  0.28491573951E+02 -0.86029776373E+03  0.13856707301E+04  0.25500000920E-02 0. -1.
       -2    1    3    3    0  502 -0.10858910443E+04 -0.28491573951E+02  0.59379990098E+03  0.12379698915E+04  0.25500000920E-02 0.  1.
</event>
<event>
 5   0  0.1085061E-05  0.2608716E+04  0.7818609E-02  0.8365247E-01
       -2   -1    0    0    0  501  0.00000000000E+00  0.00000000000E+00  0.10426571170E+04  0.10426571170E+04  0.25500000920E-02 0.  1.
        2   -1    0    0  501    0  0.00000000000E+00  0.00000000000E+00 -0.16317439597E+04  0.16317439597E+04  0.25500000920E-02 0. -1.
    10030    2    1    2    0    0  0.00000000000E+00  0.00000000000E+00 -0.58908684264E+03  0.26744010767E+04  0.26087157398E+04 0.  0.
        1    1    3    3  502    0 -0.10927643527E+04 -0.71088445680E+03 -0.33874292869E+03  0.13469363063E+04  0.50400001928E-02 0.  1.
       -1    1    3    3    0  502  0.10927643527E+04  0.71088445680E+03 -0.25034391395E+03  0.13274647704E+04  0.50400001928E-02 0. -1.
</event>
<event>
 5   0  0.3705250E-06  0.2588055E+04  0.7818609E-02  0.8372270E-01
        3   -1    0    0  501    0  0.00000000000E+00  0.00000000000E+00  0.18926888803E+04  0.18926888830E+04  0.10100000352E+00 0.  1.
       -3   -1    0    0    0  501  0.00000000000E+00  0.00000000000E+00 -0.88472426329E+03  0.88472426905E+03  0.10100000352E+00 0. -1.
    10030    2    1    2    0    0  0.00000000000E+00  0.00000000000E+00  0.10079646171E+04  0.27774131521E+04  0.25880554762E+04 0.  0.
        2    1    3    3  502    0 -0.55940445098E+01 -0.10309883587E+03  0.18882612636E+04  0.18910820349E+04  0.25500000920E-02 0.  1.
       -2    1    3    3    0  502  0.55940445098E+01  0.10309883587E+03 -0.88029664654E+03  0.88633111714E+03  0.25500000920E-02 0. -1.
</event>
<event>
 5   0  0.4415080E-06  0.2616681E+04  0.7818609E-02  0.8362557E-01
        1   -1    0    0  501    0  0.00000000000E+00  0.00000000000E+00  0.12278163093E+04  0.12278163093E+04  0.50400001928E-02 0.  1.
       -1   -1    0    0    0  501  0.00000000000E+00  0.00000000000E+00 -0.13941461297E+04  0.13941461297E+04  0.50400001928E-02 0. -1.
    10030    2    1    2    0    0  0.00000000000E+00  0.00000000000E+00 -0.16632982035E+03  0.26219624390E+04  0.26166813758E+04 0.  0.
        2    1    3    3  502    0  0.73357829730E+02 -0.32269709702E+03  0.11851861738E+04  0.12305206435E+04  0.25500000920E-02 0.  1.
       -2    1    3    3    0  502 -0.73357829730E+02  0.32269709702E+03 -0.13515159942E+04  0.13914417954E+04  0.25500000920E-02 0. -1.
</event>
<event>
 5   0  0.4361864E-06  0.2617978E+04  0.7818609E-02  0.8362120E-01
        1   -1    0    0  501    0  0.00000000000E+00  0.00000000000E+00  0.13376222788E+04  0.13376222788E+04  0.50400001928E-02 0. -1.
       -1   -1    0    0    0  501  0.00000000000E+00  0.00000000000E+00 -0.12809686663E+04  0.12809686663E+04  0.50400001928E-02 0.  1.
    10030    2    1    2    0    0  0.00000000000E+00  0.00000000000E+00  0.56653612459E+02  0.26185909451E+04  0.26179780186E+04 0.  0.
        3    1    3    3  502    0  0.17809882337E+03 -0.11685200786E+04  0.59085855764E+03  0.13214659323E+04  0.10100000352E+00 0. -1.
       -3    1    3    3    0  502 -0.17809882337E+03  0.11685200786E+04 -0.53420494518E+03  0.12971250127E+04  0.10100000352E+00 0.  1.
</event>
<event>
 5   0  0.1086507E-05  0.2610234E+04  0.7818609E-02  0.8364733E-01
       -2   -1    0    0    0  501  0.00000000000E+00  0.00000000000E+00  0.17452759707E+04  0.17452759707E+04  0.25500000920E-02 0. -1.
        2   -1    0    0  501    0  0.00000000000E+00  0.00000000000E+00 -0.97596636132E+03  0.97596636133E+03  0.25500000920E-02 0.  1.
    10030    2    1    2    0    0  0.00000000000E+00  0.00000000000E+00  0.76930960939E+03  0.27212423320E+04  0.26102341954E+04 0.  0.
        2    1    3    3  502    0  0.70695036773E+03  0.58485822099E+03  0.13522941939E+04  0.16341779426E+04  0.25500000920E-02 0. -1.
       -2    1    3    3    0  502 -0.70695036773E+03 -0.58485822099E+03 -0.58298458451E+03  0.10870643895E+04  0.25500000920E-02 0.  1.
</event>
<event>
 5   0  0.1085061E-05  0.2468532E+04  0.7818609E-02  0.8414283E-01
        2   -1    0    0  501    0  0.00000000000E+00  0.00000000000E+00  0.95200953547E+03  0.95200953548E+03  0.25500000920E-02 0.  1.
       -2   -1    0    0    0  501  0.00000000000E+00  0.00000000000E+00 -0.16002069530E+04  0.16002069530E+04  0.25500000920E-02 0. -1.
    10030    2    1    2    0    0  0.00000000000E+00  0.00000000000E+00 -0.64819741755E+03  0.25522164885E+04  0.24685317725E+04 0.  0.
        1    1    3    3  502    0  0.56405304531E+03  0.47159481725E+03  0.70090034197E+03  0.10157848192E+04  0.50400001928E-02 0.  1.
       -1    1    3    3    0  502 -0.56405304531E+03 -0.47159481725E+03 -0.13490977595E+04  0.15364316693E+04  0.50400001928E-02 0. -1.
</event>
<event>
 5   0  0.4218590E-06  0.2598525E+04  0.7818609E-02  0.8368702E-01
        1   -1    0    0  501    0  0.00000000000E+00  0.00000000000E+00  0.11022579001E+04  0.11022579001E+04  0.50400001928E-02 0. -1.
       -1   -1    0    0    0  501  0.00000000000E+00  0.00000000000E+00 -0.15314774265E+04  0.15314774265E+04  0.50400001928E-02 0.  1.
    10030    2    1    2    0    0  0.00000000000E+00  0.00000000000E+00 -0.42921952646E+03  0.26337353266E+04  0.25985250372E+04 0.  0.
        1    1    3    3  502    0 -0.42319667631E+02 -0.10936703639E+04  0.49500363873E+03  0.12012220533E+04  0.50400001928E-02 0. -1.
       -1    1    3    3    0  502  0.42319667631E+02  0.10936703639E+04 -0.92422316519E+03  0.14325132733E+04  0.50400001928E-02 0.  1.
</event>
<event>
 5   0  0.1086507E-05  0.2472902E+04  0.7818609E-02  0.8412704E-01
        2   -1    0    0  501    0  0.00000000000E+00  0.00000000000E+00  0.24941569304E+04  0.24941569304E+04  0.25500000920E-02 0.  1.
       -2   -1    0    0    0  501  0.00000000000E+00  0.00000000000E+00 -0.61295689158E+03  0.61295689158E+03  0.25500000920E-02 0. -1.
    10030    2    1    2    0    0  0.00000000000E+00  0.00000000000E+00  0.18812000389E+04  0.31071138220E+04  0.24729016796E+04 0.  0.
        2    1    3    3  502    0 -0.36573605113E+03 -0.83405091334E+03 -0.11018837573E+03  0.91735776189E+03  0.25500000920E-02 0. -1.
       -2    1    3    3    0  502  0.36573605113E+03  0.83405091334E+03  0.19913884146E+04  0.21897560601E+04  0.25500000920E-02 0.  1.
</event>
<event>
 5   0  0.4464297E-06  0.2470053E+04  0.7818609E-02  0.8413733E-01
       -1   -1    0    0    0  501  0.00000000000E+00  0.00000000000E+00  0.68684137432E+03  0.68684137434E+03  0.50400001928E-02 0. -1.
        1   -1    0    0  501    0  0.00000000000E+00  0.00000000000E+00 -0.22207322164E+04  0.22207322164E+04  0.50400001928E-02 0.  1.
    10030    2    1    2    0    0  0.00000000000E+00  0.00000000000E+00 -0.15338908421E+04  0.29075735908E+04  0.24700532525E+04 0.  0.
        4    1    3    3  502    0 -0.62896329687E+03 -0.59723959048E+03  0.26799159551E+03  0.90780563195E+03  0.12699999809E+01 0. -1.
       -4    1    3    3    0  502  0.62896329687E+03  0.59723959048E+03 -0.18018824376E+04  0.19997679588E+04  0.12699999809E+01 0.  1.
</event>
<event>
 5   0  0.4361864E-06  0.2607657E+04  0.7818609E-02  0.8365605E-01
        1   -1    0    0  501    0  0.00000000000E+00  0.00000000000E+00  0.17869407936E+04  0.17869407936E+04  0.50400001928E-02 0. -1.
       -1   -1    0    0    0  501  0.00000000000E+00  0.00000000000E+00 -0.95132944620E+03  0.95132944622E+03  0.50400001928E-02 0.  1.
    10030    2    1    2    0    0  0.00000000000E+00  0.00000000000E+00  0.83561134739E+03  0.27382702398E+04  0.26076574895E+04 0.  0.
        3    1    3    3  502    0  0.57055607819E+02 -0.10984107831E+04  0.11530232242E+04  0.15934943227E+04  0.10100000352E+00 0.  1.
       -3    1    3    3    0  502 -0.57055607819E+02  0.10984107831E+04 -0.31741187676E+03  0.11447759171E+04  0.10100000352E+00 0. -1.
</event>
<event>
 5   0  0.1085255E-05  0.2588141E+04  0.7818609E-02  0.8372241E-01
       -2   -1    0    0    0  501  0.00000000000E+00  0.00000000000E+00  0.10220476517E+04  0.10220476517E+04  0.25500000920E-02 0. -1.
        2   -1    0    0  501    0  0.00000000000E+00  0.00000000000E+00 -0.16384937770E+04  0.16384937770E+04  0.25500000920E-02 0.  1.
    10030    2    1    2    0    0  0.00000000000E+00  0.00000000000E+00 -0.61644612532E+03  0.26605414288E+04  0.25881411995E+04 0.  0.
        5    1    3    3  502    0 -0.10209303717E+04 -0.64760156718E+03 -0.78255252762E+03  0.14401726154E+04  0.46999998093E+01 0.  1.
       -5    1    3    3    0  502  0.10209303717E+04  0.64760156718E+03  0.16610640231E+03  0.12203688134E+04  0.46999998093E+01 0. -1.
</event>
<event>
 5   0  0.1086507E-05  0.2601884E+04  0.7818609E-02  0.8367562E-01
        2   -1    0    0  501    0  0.00000000000E+00  0.00000000000E+00  0.16912879542E+04  0.16912879542E+04  0.25500000920E-02 0.  1.
       -2   -1    0    0    0  501  0.00000000000E+00  0.00000000000E+00 -0.10006868839E+04  0.10006868840E+04  0.25500000920E-02 0. -1.
    10030    2    1    2    0    0  0.00000000000E+00  0.00000000000E+00  0.69060107029E+03  0.26919748382E+04  0.26018836813E+04 0.  0.
        2    1    3    3  502    0  0.11976570483E+03 -0.31112167055E+03  0.16463431192E+04  0.16797577755E+04  0.25500000920E-02 0.  1.
       -2    1    3    3    0  502 -0.11976570483E+03  0.31112167055E+03 -0.95574204895E+03  0.10122170627E+04  0.25500000920E-02 0. -1.
</event>
<event>
 5   0  0.3705250E-06  0.2585145E+04  0.7818609E-02  0.8373265E-01
        3   -1    0    0  501    0  0.00000000000E+00  0.00000000000E+00  0.11905905321E+04  0.11905905364E+04  0.10100000352E+00 0. -1.
       -3   -1    0    0    0  501  0.00000000000E+00  0.00000000000E+00 -0.14032894775E+04  0.14032894811E+04  0.10100000352E+00 0.  1.
    10030    2    1    2    0    0  0.00000000000E+00  0.00000000000E+00 -0.21269894535E+03  0.25938800175E+04  0.25851446195E+04 0.  0.
        3    1    3    3  502    0  0.43925387188E+03 -0.10794211354E+04  0.45469037849E+03  0.12509345714E+04  0.10100000352E+00 0. -1.
       -3    1    3    3    0  502 -0.43925387188E+03  0.10794211354E+04 -0.66738932384E+03  0.13429454461E+04  0.10100000352E+00 0.  1.
</event>
<event>
 5   0  0.4597705E-06  0.2596136E+04  0.7818609E-02  0.8369515E-01
       -1   -1    0    0    0  501  0.00000000000E+00  0.00000000000E+00  0.84222020775E+03  0.84222020777E+03  0.50400001928E-02 0.  1.
        1   -1    0    0  501    0  0.00000000000E+00  0.00000000000E+00 -0.20006414419E+04  0.20006414419E+04  0.50400001928E-02 0. -1.
    10030    2    1    2    0    0  0.00000000000E+00  0.00000000000E+00 -0.11584212341E+04  0.28428616497E+04  0.25961360911E+04 0.  0.
        5    1    3    3  502    0 -0.81280560863E+02 -0.12835779803E+04 -0.38709629001E+03  0.13431472700E+04  0.46999998093E+01 0. -1.
       -5    1    3    3    0  502  0.81280560863E+02  0.12835779803E+04 -0.77132494413E+03  0.14997143797E+04  0.46999998093E+01 0.  1.
</event>
<event>
 5   0  0.4415080E-06  0.2591328E+04  0.7818609E-02  0.8371153E-01
        1   -1    0    0  501    0  0.00000000000E+00  0.00000000000E+00  0.11829342298E+04  0.11829342298E+04  0.50400001928E-02 0. -1.
       -1   -1    0    0    0  501  0.00000000000E+00  0.00000000000E+00 -0.14191369779E+04  0.14191369779E+04  0.50400001928E-02 0.  1.
    10030    2    1    2    0    0  0.00000000000E+00  0.00000000000E+00 -0.23620274812E+03  0.26020712077E+04  0.25913283914E+04 0.  0.
        2    1    3    3  502    0 -0.10268368273E+04 -0.75390647281E+03 -0.35567652986E+03  0.13226014644E+04  0.25500000920E-02 0.  1.
       -2    1    3    3    0  502  0.10268368273E+04  0.75390647281E+03  0.11947378174E+03  0.12794697434E+04  0.25500000920E-02 0. -1.
</event>
<event>
 5   0  0.4218590E-06  0.2591459E+04  0.7818609E-02  0.8371108E-01
       -1   -1    0    0    0  501  0.00000000000E+00  0.00000000000E+00  0.12336277833E+04  0.12336277833E+04  0.50400001928E-02 0.  1.
        1   -1    0    0  501    0  0.00000000000E+00  0.00000000000E+00 -0.13609574079E+04  0.13609574079E+04  0.50400001928E-02 0. -1.
    10030    2    1    2    0    0  0.00000000000E+00  0.00000000000E+00 -0.12732962459E+03  0.25945851913E+04  0.25914589484E+04 0.  0.
        1    1    3    3  502    0 -0.43906579374E+03  0.76324856722E+03 -0.10153838623E+04  0.13439983387E+04  0.50400001928E-02 0. -1.
       -1    1    3    3    0  502  0.43906579374E+03 -0.76324856722E+03  0.88805423773E+03  0.12505868525E+04  0.50400001928E-02 0.  1.
</event>
<event>
 5   0  0.1086507E-05  0.2612866E+04  0.7818609E-02  0.8363844E-01
        2   -1    0    0  501    0  0.00000000000E+00  0.00000000000E+00  0.29834428701E+04  0.29834428701E+04  0.25500000920E-02 0.  1.
       -2   -1    0    0    0  501  0.00000000000E+00  0.00000000000E+00 -0.57207954757E+03  0.57207954758E+03  0.25500000920E-02 0. -1.
    10030    2    1    2    0    0  0.00000000000E+00  0.00000000000E+00  0.24113633226E+04  0.35555224177E+04  0.26128655896E+04 0.  0.
        2    1    3    3  502    0 -0.27629946056E+03  0.12082697265E+04  0.17675837833E+04  0.21588444953E+04  0.25500000920E-02 0.  1.
       -2    1    3    3    0  502  0.27629946056E+03 -0.12082697265E+04  0.64377953927E+03  0.13966779224E+04  0.25500000920E-02 0. -1.
</event>
<event>
 5   0  0.4218590E-06  0.2589032E+04  0.7818609E-02  0.8371936E-01
        1   -1    0    0  501    0  0.00000000000E+00  0.00000000000E+00  0.10240654721E+04  0.10240654721E+04  0.50400001928E-02 0.  1.
       -1   -1    0    0    0  501  0.00000000000E+00  0.00000000000E+00 -0.16363917249E+04  0.16363917249E+04  0.50400001928E-02 0. -1.
    10030    2    1    2    0    0  0.00000000000E+00  0.00000000000E+00 -0.61232625275E+03  0.26604571970E+04  0.25890324558E+04 0.  0.
        1    1    3    3  502    0 -0.99389209279E+03  0.73183015988E+03  0.94958608957E+02  0.12379071098E+04  0.50400001928E-02 0.  1.
       -1    1    3    3    0  502  0.99389209279E+03 -0.73183015988E+03 -0.70728486171E+03  0.14225500872E+04  0.50400001928E-02 0. -1.
</event>
<event>
 5   0  0.1085255E-05  0.2685582E+04  0.7818609E-02  0.8339698E-01
        2   -1    0    0  501    0  0.00000000000E+00  0.00000000000E+00  0.11780925637E+04  0.11780925637E+04  0.25500000920E-02 0.  1.
       -2   -1    0    0    0  501  0.00000000000E+00  0.00000000000E+00 -0.15305145250E+04  0.15305145250E+04  0.25500000920E-02 0. -1.
    10030    2    1    2    0    0  0.00000000000E+00  0.00000000000E+00 -0.35242196130E+03  0.27086070887E+04  0.26855820825E+04 0.  0.
        5    1    3    3  502    0 -0.23409863634E+03  0.15750463852E+03 -0.15002709508E+04  0.15265794767E+04  0.46999998093E+01 0. -1.
       -5    1    3    3    0  502  0.23409863634E+03 -0.15750463852E+03  0.11478489895E+04  0.11820276120E+04  0.46999998093E+01 0.  1.
</event>
<event>
 5   0  0.4361864E-06  0.2573247E+04  0.7818609E-02  0.8377346E-01
       -1   -1    0    0    0  501  0.00000000000E+00  0.00000000000E+00  0.12322641356E+04  0.12322641356E+04  0.50400001928E-02 0.  1.
        1   -1    0    0  501    0  0.00000000000E+00  0.00000000000E+00 -0.13433807974E+04  0.13433807974E+04  0.50400001928E-02 0. -1.
    10030    2    1    2    0    0  0.00000000000E+00  0.00000000000E+00 -0.11111666185E+03  0.25756449330E+04  0.25732469583E+04 0.  0.
        3    1    3    3  502    0 -0.10779663365E+04 -0.73977028603E+02  0.64360240308E+03  0.12576597660E+04  0.10100000352E+00 0.  1.
       -3    1    3    3    0  502  0.10779663365E+04  0.73977028603E+02 -0.75471906492E+03  0.13179851671E+04  0.10100000352E+00 0. -1.
</event>
<event>
 5   0  0.3705250E-06  0.2591562E+04  0.7818609E-02  0.8371073E-01
        3   -1    0    0  501    0  0.00000000000E+00  0.00000000000E+00  0.18993072695E+04  0.18993072722E+04  0.10100000352E+00 0. -1.
       -3   -1    0    0    0  501  0.00000000000E+00  0.00000000000E+00 -0.88403169907E+03  0.88403170484E+03  0.10100000352E+00 0.  1.
    10030    2    1    2    0    0  0.00000000000E+00  0.00000000000E+00  0.10152755705E+04  0.27833389771E+04  0.25915615712E+04 0.  0.
        1    1    3    3  502    0 -0.11881325705E+03 -0.11414611388E+04  0.11538237030E+04  0.16273780320E+04  0.50400001928E-02 0. -1.
       -1    1    3    3    0  502  0.11881325705E+03  0.11414611388E+04 -0.13854813256E+03  0.11559609450E+04  0.50400001928E-02 0.  1.
</event>
<event>
 5   0  0.4597705E-06  0.2602231E+04  0.7818609E-02  0.8367444E-01
       -1   -1    0    0    0  501  0.00000000000E+00  0.00000000000E+00  0.15187813781E+04  0.15187813781E+04  0.50400001928E-02 0.  1.
        1   -1    0    0  501    0  0.00000000000E+00  0.00000000000E+00 -0.11146449140E+04  0.11146449140E+04  0.50400001928E-02 0. -1.
    10030    2    1    2    0    0  0.00000000000E+00  0.00000000000E+00  0.40413646417E+03  0.26334262921E+04  0.26022313030E+04 0.  0.
        5    1    3    3  502    0  0.82570298958E+03  0.96878775492E+03  0.47463828436E+03  0.13585428709E+04  0.46999998093E+01 0.  1.
       -5    1    3    3    0  502 -0.82570298958E+03 -0.96878775492E+03 -0.70501820192E+02  0.12748834212E+04  0.46999998093E+01 0. -1.
</event>
<event>
 5   0  0.1086507E-05  0.2591607E+04  0.7818609E-02  0.8371058E-01
        2   -1    0    0  501    0  0.00000000000E+00  0.00000000000E+00  0.13256144476E+04  0.13256144476E+04  0.25500000920E-02 0.  1.
       -2   -1    0    0    0  501  0.00000000000E+00  0.00000000000E+00 -0.12666626595E+04  0.12666626595E+04  0.25500000920E-02 0. -1.
    10030    2    1    2    0    0  0.00000000000E+00  0.00000000000E+00  0.58951788155E+02  0.25922771071E+04  0.25916066998E+04 0.  0.
        2    1    3    3  502    0 -0.39681637516E+03  0.99130602763E+03  0.76380165288E+03  0.13128380863E+04  0.25500000920E-02 0.  1.
       -2    1    3    3    0  502  0.39681637516E+03 -0.99130602763E+03 -0.70484986472E+03  0.12794390208E+04  0.25500000920E-02 0. -1.
</event>
<event>
 5   0  0.3705250E-06  0.2592788E+04  0.7818609E-02  0.8370655E-01
        3   -1    0    0  501    0  0.00000000000E+00  0.00000000000E+00  0.21841261622E+04  0.21841261645E+04  0.10100000352E+00 0.  1.
       -3   -1    0    0    0  501  0.00000000000E+00  0.00000000000E+00 -0.76947791677E+03  0.76947792340E+03  0.10100000352E+00 0. -1.
    10030    2    1    2    0    0  0.00000000000E+00  0.00000000000E+00  0.14146482454E+04  0.29536040879E+04  0.25927875829E+04 0.  0.
        3    1    3    3  502    0  0.57989754058E+03  0.98125176202E+03  0.37125123012E+01  0.11398026018E+04  0.10100000352E+00 0. -1.
       -3    1    3    3    0  502 -0.57989754058E+03 -0.98125176202E+03  0.14109357331E+04  0.18138014862E+04  0.10100000352E+00 0.  1.
</event>
<event>
 5   0  0.4218590E-06  0.2608183E+04  0.7818609E-02  0.8365427E-01
        1   -1    0    0  501    0  0.00000000000E+00  0.00000000000E+00  0.10729001215E+04  0.10729001215E+04  0.50400001928E-02 0. -1.
       -1   -1    0    0    0  501  0.00000000000E+00  0.00000000000E+00 -0.15851011400E+04  0.15851011400E+04  0.50400001928E-02 0.  1.
    10030    2    1    2    0    0  0.00000000000E+00  0.00000000000E+00 -0.51220101848E+03  0.26580012615E+04  0.26081834335E+04 0.  0.
        1    1    3    3  502    0 -0.89892023747E+03  0.69030322993E+03 -0.91346309467E+03  0.14556754336E+04  0.50400001928E-02 0.  1.
       -1    1    3    3    0  502  0.89892023747E+03 -0.69030322993E+03  0.40126207619E+03  0.12023258279E+04  0.50400001928E-02 0. -1.
</event>
<event>
 5   0  0.1086507E-05  0.2593879E+04  0.7818609E-02  0.8370283E-01
        2   -1    0    0  501    0  0.00000000000E+00  0.00000000000E+00  0.93223385459E+03  0.93223385459E+03  0.25500000920E-02 0. -1.
       -2   -1    0    0    0  501  0.00000000000E+00  0.00000000000E+00 -0.18043234990E+04  0.18043234990E+04  0.25500000920E-02 0.  1.
    10030    2    1    2    0    0  0.00000000000E+00  0.00000000000E+00 -0.87208964442E+03  0.27365573536E+04  0.25938785249E+04 0.  0.
        2    1    3    3  502    0  0.12511404993E+04 -0.26081178791E+03 -0.20328240140E+03  0.12941016468E+04  0.25500000920E-02 0. -1.
       -2    1    3    3    0  502 -0.12511404993E+04  0.26081178791E+03 -0.66880724302E+03  0.14424557068E+04  0.25500000920E-02 0.  1.
</event>
<event>
 5   0  0.4415080E-06  0.2653765E+04  0.7818609E-02  0.8350165E-01
       -1   -1    0    0    0  501  0.00000000000E+00  0.00000000000E+00  0.10952990462E+04  0.10952990462E+04  0.50400001928E-02 0.  1.
        1   -1    0    0  501    0  0.00000000000E+00  0.00000000000E+00 -0.16074301930E+04  0.16074301930E+04  0.50400001928E-02 0. -1.
    10030    2    1    2    0    0  0.00000000000E+00  0.00000000000E+00 -0.51213114676E+03  0.27027292392E+04  0.26537646898E+04 0.  0.
        2    1    3    3  502    0 -0.50799525530E+03 -0.85019948032E+03 -0.11553747526E+04  0.15217717157E+04  0.25500000920E-02 0. -1.
       -2    1    3    3    0  502  0.50799525530E+03  0.85019948032E+03  0.64324360588E+03  0.11809575235E+04  0.25500000920E-02 0.  1.
</event>
<event>
 5   0  0.4415080E-06  0.2636043E+04  0.7818609E-02  0.8356060E-01
        1   -1    0    0  501    0  0.00000000000E+00  0.00000000000E+00  0.17094191285E+04  0.17094191285E+04  0.50400001928E-02 0.  1.
       -1   -1    0    0    0  501  0.00000000000E+00  0.00000000000E+00 -0.10162401503E+04  0.10162401503E+04  0.50400001928E-02 0. -1.
    10030    2    1    2    0    0  0.00000000000E+00  0.00000000000E+00  0.69317897817E+03  0.27256592788E+04  0.26360427554E+04 0.  0.
        2    1    3    3  502    0 -0.23691048548E+03 -0.88106314499E+03 -0.63694812570E+03  0.11127002105E+04  0.25500000920E-02 0. -1.
       -2    1    3    3    0  502  0.23691048548E+03  0.88106314499E+03  0.13301271039E+04  0.16129590683E+04  0.25500000920E-02 0.  1.
</event>
<event>
 5   0  0.4464297E-06  0.2583945E+04  0.7818609E-02  0.8373675E-01
        1   -1    0    0  501    0  0.00000000000E+00  0.00000000000E+00  0.16115478767E+04  0.16115478767E+04  0.50400001928E-02 0.  1.
       -1   -1    0    0    0  501  0.00000000000E+00  0.00000000000E+00 -0.10357702684E+04  0.10357702684E+04  0.50400001928E-02 0. -1.
    10030    2    1    2    0    0  0.00000000000E+00  0.00000000000E+00  0.57577760824E+03  0.26473181451E+04  0.25839453375E+04 0.  0.
        4    1    3    3  502    0 -0.72880001155E+03  0.42240140514E+03 -0.71573814619E+03  0.11053755519E+04  0.12699999809E+01 0. -1.
       -4    1    3    3    0  502  0.72880001155E+03 -0.42240140514E+03  0.12915157544E+04  0.15419425932E+04  0.12699999809E+01 0.  1.
</event>
<event>
 5   0  0.4464297E-06  0.2597276E+04  0.7818609E-02  0.8369127E-01
        1   -1    0    0  501    0  0.00000000000E+00  0.00000000000E+00  0.30862034620E+04  0.30862034620E+04  0.50400001928E-02 0. -1.
       -1   -1    0    0    0  501  0.00000000000E+00  0.00000000000E+00 -0.54645169168E+03  0.54645169171E+03  0.50400001928E-02 0.  1.
    10030    2    1    2    0    0  0.00000000000E+00  0.00000000000E+00  0.25397517703E+04  0.36326551537E+04  0.25972763447E+04 0.  0.
        4    1    3    3  502    0  0.65834979126E+03 -0.47136424536E+03  0.26899268016E+04  0.28091487163E+04  0.12699999809E+01 0. -1.
       -4    1    3    3    0  502 -0.65834979126E+03  0.47136424536E+03 -0.15017503132E+03  0.82350643737E+03  0.12699999809E+01 0.  1.
</event>
<event>
 5   0  0.4597705E-06  0.2604622E+04  0.7818609E-02  0.8366633E-01
        1   -1    0    0  501    0  0.00000000000E+00  0.00000000000E+00  0.14599043293E+04  0.14599043293E+04  0.50400001928E-02 0. -1.
       -1   -1    0    0    0  501  0.00000000000E+00  0.00000000000E+00 -0.11617290852E+04  0.11617290852E+04  0.50400001928E-02 0.  1.
    10030    2    1    2    0    0  0.00000000000E+00  0.00000000000E+00  0.29817524416E+03  0.26216334145E+04  0.26046215241E+04 0.  0.
        5    1    3    3  502    0  0.31079875642E+03  0.77633465827E+03 -0.85578158435E+03  0.11965264639E+04  0.46999998093E+01 0.  1.
       -5    1    3    3    0  502 -0.31079875642E+03 -0.77633465827E+03  0.11539568285E+04  0.14251069506E+04  0.46999998093E+01 0. -1.
</event>
<event>
 5   0  0.4361864E-06  0.2603357E+04  0.7818609E-02  0.8367062E-01
       -1   -1    0    0    0  501  0.00000000000E+00  0.00000000000E+00  0.11190160087E+04  0.11190160087E+04  0.50400001928E-02 0.  1.
        1   -1    0    0  501    0  0.00000000000E+00  0.00000000000E+00 -0.15141577498E+04  0.15141577498E+04  0.50400001928E-02 0. -1.
    10030    2    1    2    0    0  0.00000000000E+00  0.00000000000E+00 -0.39514174109E+03  0.26331737585E+04  0.26033568804E+04 0.  0.
        3    1    3    3  502    0 -0.27931265985E+03 -0.58817930653E+03  0.94245687183E+03  0.11455109882E+04  0.10100000352E+00 0. -1.
       -3    1    3    3    0  502  0.27931265985E+03  0.58817930653E+03 -0.13375986129E+04  0.14876627703E+04  0.10100000352E+00 0.  1.
</event>
<event>
 5   0  0.1085255E-05  0.2597131E+04  0.7818609E-02  0.8369176E-01
        2   -1    0    0  501    0  0.00000000000E+00  0.00000000000E+00  0.17697837350E+04  0.17697837350E+04  0.25500000920E-02 0. -1.
       -2   -1    0    0    0  501  0.00000000000E+00  0.00000000000E+00 -0.95281281378E+03  0.95281281379E+03  0.25500000920E-02 0.  1.
    10030    2    1    2    0    0  0.00000000000E+00  0.00000000000E+00  0.81697092120E+03  0.27225965488E+04  0.25971312022E+04 0.  0.
        5    1    3    3  502    0  0.10822691522E+04  0.42572887379E+03 -0.19708796994E+03  0.11795835493E+04  0.46999998093E+01 0. -1.
       -5    1    3    3    0  502 -0.10822691522E+04 -0.42572887379E+03  0.10140588911E+04  0.15430129995E+04  0.46999998093E+01 0.  1.
</event>
<event>
 5   0  0.4597705E-06  0.2583247E+04  0.7818609E-02  0.8373914E-01
        1   -1    0    0  501    0  0.00000000000E+00  0.00000000000E+00  0.18980981969E+04  0.18980981969E+04  0.50400001928E-02 0.  1.
       -1   -1    0    0    0  501  0.00000000000E+00  0.00000000000E+00 -0.87892789154E+03  0.87892789155E+03  0.50400001928E-02 0. -1.
    10030    2    1    2    0    0  0.00000000000E+00  0.00000000000E+00  0.10191703054E+04  0.27770260885E+04  0.25832471397E+04 0.  0.
        5    1    3    3  502    0  0.82454942244E+03  0.49109852079E+03 -0.41967068138E+03  0.10474755739E+04  0.46999998093E+01 0. -1.
       -5    1    3    3    0  502 -0.82454942244E+03 -0.49109852079E+03  0.14388409867E+04  0.17295505145E+04  0.46999998093E+01 0.  1.
</event>
<event>
 5   0  0.1085061E-05  0.2581100E+04  0.7818609E-02  0.8374650E-01
        2   -1    0    0  501    0  0.00000000000E+00  0.00000000000E+00  0.13702916753E+04  0.13702916753E+04  0.25500000920E-02 0. -1.
       -2   -1    0    0    0  501  0.00000000000E+00  0.00000000000E+00 -0.12154486972E+04  0.12154486972E+04  0.25500000920E-02 0.  1.
    10030    2    1    2    0    0  0.00000000000E+00  0.00000000000E+00  0.15484297813E+03  0.25857403725E+04  0.25810999450E+04 0.  0.
        1    1    3    3  502    0  0.22809224104E+03 -0.79586060214E+03  0.10692008853E+04  0.13522613289E+04  0.50400001928E-02 0. -1.
       -1    1    3    3    0  502 -0.22809224104E+03  0.79586060214E+03 -0.91435790721E+03  0.12334790436E+04  0.50400001928E-02 0.  1.
</event>
<event>
 5   0  0.4361864E-06  0.2598306E+04  0.7818609E-02  0.8368777E-01
       -1   -1    0    0    0  501  0.00000000000E+00  0.00000000000E+00  0.83201762620E+03  0.83201762621E+03  0.50400001928E-02 0. -1.
        1   -1    0    0  501    0  0.00000000000E+00  0.00000000000E+00 -0.20285603726E+04  0.20285603726E+04  0.50400001928E-02 0.  1.
    10030    2    1    2    0    0  0.00000000000E+00  0.00000000000E+00 -0.11965427464E+04  0.28605779988E+04  0.25983055908E+04 0.  0.
        3    1    3    3  502    0 -0.54986981371E+03  0.22455935955E+03 -0.18703282151E+04  0.19623739094E+04  0.10100000352E+00 0.  1.
       -3    1    3    3    0  502  0.54986981371E+03 -0.22455935955E+03  0.67378546876E+03  0.89820408934E+03  0.10100000352E+00 0. -1.
</event>
<event>
 5   0  0.4464297E-06  0.2606197E+04  0.7818609E-02  0.8366099E-01
       -1   -1    0    0    0  501  0.00000000000E+00  0.00000000000E+00  0.10996217445E+04  0.10996217445E+04  0.50400001928E-02 0.  1.
        1   -1    0    0  501    0  0.00000000000E+00  0.00000000000E+00 -0.15442268551E+04  0.15442268551E+04  0.50400001928E-02 0. -1.
    10030    2    1    2    0    0  0.00000000000E+00  0.00000000000E+00 -0.44460511065E+03  0.26438485996E+04  0.26061967910E+04 0.  0.
        4    1    3    3  502    0 -0.18262072778E+03 -0.38314651794E+03 -0.14721376237E+04  0.15321039065E+04  0.12699999809E+01 0. -1.
       -4    1    3    3    0  502  0.18262072778E+03  0.38314651794E+03  0.10275325130E+04  0.11117446931E+04  0.12699999809E+01 0.  1.
</event>
<event>
 5   0  0.1085061E-05  0.2580936E+04  0.7818609E-02  0.8374706E-01
        2   -1    0    0  501    0  0.00000000000E+00  0.00000000000E+00  0.11506327475E+04  0.11506327475E+04  0.25500000920E-02 0. -1.
       -2   -1    0    0    0  501  0.00000000000E+00  0.00000000000E+00 -0.14472967496E+04  0.14472967496E+04  0.25500000920E-02 0.  1.
    10030    2    1    2    0    0  0.00000000000E+00  0.00000000000E+00 -0.29666400211E+03  0.25979294970E+04  0.25809355167E+04 0.  0.
        1    1    3    3  502    0  0.10728294482E+04  0.53422679513E+03  0.33330128324E+03  0.12439658512E+04  0.50400001928E-02 0. -1.
       -1    1    3    3    0  502 -0.10728294482E+04 -0.53422679513E+03 -0.62996528535E+03  0.13539636458E+04  0.50400001928E-02 0.  1.
</event>
<event>
 5   0  0.1136881E-05  0.2579596E+04  0.7818609E-02  0.8375165E-01
        2   -1    0    0  501    0  0.00000000000E+00  0.00000000000E+00  0.13876747140E+04  0.13876747140E+04  0.25500000920E-02 0. -1.
       -2   -1    0    0    0  501  0.00000000000E+00  0.00000000000E+00 -0.11988251481E+04  0.11988251481E+04  0.25500000920E-02 0.  1.
    10030    2    1    2    0    0  0.00000000000E+00  0.00000000000E+00  0.18884956594E+03  0.25864998621E+04  0.25795963596E+04 0.  0.
        3    1    3    3  502    0  0.10959832600E+04  0.67338672283E+03 -0.43468932218E+00  0.12863239032E+04  0.10100000352E+00 0.  1.
       -3    1    3    3    0  502 -0.10959832600E+04 -0.67338672283E+03  0.18928425526E+03  0.13001759590E+04  0.10100000352E+00 0. -1.
</event>
<event>
 5   0  0.1085061E-05  0.2596491E+04  0.7818609E-02  0.8369394E-01
        2   -1    0    0  501    0  0.00000000000E+00  0.00000000000E+00  0.10218550078E+04  0.10218550078E+04  0.25500000920E-02 0. -1.
       -2   -1    0    0    0  501  0.00000000000E+00  0.00000000000E+00 -0.16493942216E+04  0.16493942216E+04  0.25500000920E-02 0.  1.
    10030    2    1    2    0    0  0.00000000000E+00  0.00000000000E+00 -0.62753921376E+03  0.26712492293E+04  0.25964912826E+04 0.  0.
        1    1    3    3  502    0 -0.33184206534E+03 -0.31334949220E+03 -0.15641368540E+04  0.16293652625E+04  0.50400001928E-02 0.  1.
       -1    1    3    3    0  502  0.33184206534E+03  0.31334949220E+03  0.93659764025E+03  0.10418839668E+04  0.50400001928E-02 0. -1.
</event>
<event>
 5   0  0.1136881E-05  0.2590061E+04  0.7818609E-02  0.8371585E-01
       -2   -1    0    0    0  501  0.00000000000E+00  0.00000000000E+00  0.86962623240E+03  0.86962623241E+03  0.25500000920E-02 0.  1.
        2   -1    0    0  501    0  0.00000000000E+00  0.00000000000E+00 -0.19285340226E+04  0.19285340226E+04  0.25500000920E-02 0. -1.
    10030    2    1    2    0    0  0.00000000000E+00  0.00000000000E+00 -0.10589077902E+04  0.27981602550E+04  0.25900608303E+04 0.  0.
        3    1    3    3  502    0 -0.25978628949E+03  0.10780908562E+04 -0.12520224164E+04  0.16725217343E+04  0.10100000352E+00 0. -1.
       -3    1    3    3    0  502  0.25978628949E+03 -0.10780908562E+04  0.19311462613E+03  0.11256385208E+04  0.10100000352E+00 0.  1.
</event>
<event>
 5   0  0.1086507E-05  0.2598111E+04  0.7818609E-02  0.8368843E-01
        2   -1    0    0  501    0  0.00000000000E+00  0.00000000000E+00  0.13432527783E+04  0.13432527783E+04  0.25500000920E-02 0. -1.
       -2   -1    0    0    0  501  0.00000000000E+00  0.00000000000E+00 -0.12563128865E+04  0.12563128865E+04  0.25500000920E-02 0.  1.
    10030    2    1    2    0    0  0.00000000000E+00  0.00000000000E+00  0.86939891822E+02  0.25995656648E+04  0.25981114489E+04 0.  0.
        2    1    3    3  502    0 -0.12519916639E+04  0.52214359817E+02 -0.29926566212E+03  0.12883203804E+04  0.25500000920E-02 0.  1.
       -2    1    3    3    0  502  0.12519916639E+04 -0.52214359817E+02  0.38620555394E+03  0.13112452844E+04  0.25500000920E-02 0. -1.
</event>
<event>
 5   0  0.1085061E-05  0.2603812E+04  0.7818609E-02  0.8366908E-01
       -2   -1    0    0    0  501  0.00000000000E+00  0.00000000000E+00  0.19419917301E+04  0.19419917301E+04  0.25500000920E-02 0.  1.
        2   -1    0    0  501    0  0.00000000000E+00  0.00000000000E+00 -0.87279424469E+03  0.87279424469E+03  0.25500000920E-02 0. -1.
    10030    2    1    2    0    0  0.00000000000E+00  0.00000000000E+00  0.10691974854E+04  0.28147859748E+04  0.26038119788E+04 0.  0.
        1    1    3    3  502    0 -0.71781481931E+03  0.63841936081E+03  0.14845004491E+04  0.17682134991E+04  0.50400001928E-02 0.  1.
       -1    1    3    3    0  502  0.71781481931E+03 -0.63841936081E+03 -0.41530296372E+03  0.10465724756E+04  0.50400001928E-02 0. -1.
</event>
<event>
 5   0  0.4597705E-06  0.2625570E+04  0.7818609E-02  0.8359567E-01
        1   -1    0    0  501    0  0.00000000000E+00  0.00000000000E+00  0.73468822317E+03  0.73468822319E+03  0.50400001928E-02 0. -1.
       -1   -1    0    0    0  501  0.00000000000E+00  0.00000000000E+00 -0.23457629731E+04  0.23457629731E+04  0.50400001928E-02 0.  1.
    10030    2    1    2    0    0  0.00000000000E+00  0.00000000000E+00 -0.16110747499E+04  0.30804511963E+04  0.26255699806E+04 0.  0.
        5    1    3    3  502    0  0.69728882838E+03  0.26551843757E+03  0.46172009364E+03  0.87745044632E+03  0.46999998093E+01 0. -1.
       -5    1    3    3    0  502 -0.69728882838E+03 -0.26551843757E+03 -0.20727948436E+04  0.22030007500E+04  0.46999998093E+01 0.  1.
</event>
<event>
 5   0  0.4597705E-06  0.2589389E+04  0.7818609E-02  0.8371814E-01
       -1   -1    0    0    0  501  0.00000000000E+00  0.00000000000E+00  0.90714600830E+03  0.90714600831E+03  0.50400001928E-02 0.  1.
        1   -1    0    0  501    0  0.00000000000E+00  0.00000000000E+00 -0.18478102806E+04  0.18478102806E+04  0.50400001928E-02 0. -1.
    10030    2    1    2    0    0  0.00000000000E+00  0.00000000000E+00 -0.94066427228E+03  0.27549562889E+04  0.25893889010E+04 0.  0.
        5    1    3    3  502    0  0.23420754663E+03  0.31160767549E+03  0.84321853412E+03  0.92897368348E+03  0.46999998093E+01 0.  1.
       -5    1    3    3    0  502 -0.23420754663E+03 -0.31160767549E+03 -0.17838828064E+04  0.18259826054E+04  0.46999998093E+01 0. -1.
</event>
<event>
 5   0  0.1086507E-05  0.2534640E+04  0.7818609E-02  0.8390748E-01
        2   -1    0    0  501    0  0.00000000000E+00  0.00000000000E+00  0.17999427751E+04  0.17999427751E+04  0.25500000920E-02 0. -1.
       -2   -1    0    0    0  501  0.00000000000E+00  0.00000000000E+00 -0.89230595626E+03  0.89230595627E+03  0.25500000920E-02 0.  1.
    10030    2    1    2    0    0  0.00000000000E+00  0.00000000000E+00  0.90763681886E+03  0.26922487314E+04  0.25346397450E+04 0.  0.
        2    1    3    3  502    0  0.93838090012E+03 -0.84555835551E+03  0.56303227576E+03  0.13829435960E+04  0.25500000920E-02 0. -1.
       -2    1    3    3    0  502 -0.93838090012E+03  0.84555835551E+03  0.34460454309E+03  0.13093051353E+04  0.25500000920E-02 0.  1.
</event>
<event>
 5   0  0.4361864E-06  0.2592205E+04  0.7818609E-02  0.8370854E-01
        1   -1    0    0  501    0  0.00000000000E+00  0.00000000000E+00  0.23847264165E+04  0.23847264165E+04  0.50400001928E-02 0.  1.
       -1   -1    0    0    0  501  0.00000000000E+00  0.00000000000E+00 -0.70443386452E+03  0.70443386454E+03  0.50400001928E-02 0. -1.
    10030    2    1    2    0    0  0.00000000000E+00  0.00000000000E+00  0.16802925520E+04  0.30891602811E+04  0.25922052739E+04 0.  0.
        3    1    3    3  502    0  0.11491744463E+04  0.30475131166E+03  0.14552433727E+04  0.18791510195E+04  0.10100000352E+00 0. -1.
       -3    1    3    3    0  502 -0.11491744463E+04 -0.30475131166E+03  0.22504917929E+03  0.12100092616E+04  0.10100000352E+00 0.  1.
</event>
<event>
 5   0  0.4597705E-06  0.2592809E+04  0.7818609E-02  0.8370648E-01
        1   -1    0    0  501    0  0.00000000000E+00  0.00000000000E+00  0.29199052377E+04  0.29199052377E+04  0.50400001928E-02 0. -1.
       -1   -1    0    0    0  501  0.00000000000E+00  0.00000000000E+00 -0.57558897647E+03  0.57558897650E+03  0.50400001928E-02 0.  1.
    10030    2    1    2    0    0  0.00000000000E+00  0.00000000000E+00  0.23443162612E+04  0.34954942142E+04  0.25928094934E+04 0.  0.
        5    1    3    3  502    0  0.37406172600E+03 -0.41693457803E+03 -0.40401607568E+03  0.69065743797E+03  0.46999998093E+01 0.  1.
       -5    1    3    3    0  502 -0.37406172600E+03  0.41693457803E+03  0.27483323369E+04  0.28048367762E+04  0.46999998093E+01 0. -1.
</event>
<event>
 5   0  0.3705250E-06  0.2594609E+04  0.7818609E-02  0.8370035E-01
       -4   -1    0    0    0  501  0.00000000000E+00  0.00000000000E+00  0.13732657889E+04  0.13732663761E+04  0.12699999809E+01 0. -1.
        4   -1    0    0  501    0  0.00000000000E+00  0.00000000000E+00 -0.12255436458E+04  0.12255443038E+04  0.12699999809E+01 0.  1.
    10030    2    1    2    0    0  0.00000000000E+00  0.00000000000E+00  0.14772214309E+03  0.25988106800E+04  0.25946088566E+04 0.  0.
        1    1    3    3  502    0 -0.71533596023E+03 -0.10771537663E+04  0.17906929894E+03  0.13053856082E+04  0.50400001928E-02 0.  1.
       -1    1    3    3    0  502  0.71533596023E+03  0.10771537663E+04 -0.31347155855E+02  0.12934250718E+04  0.50400001928E-02 0. -1.
</event>
<event>
 5   0  0.1136881E-05  0.2601520E+04  0.7818609E-02  0.8367685E-01
       -2   -1    0    0    0  501  0.00000000000E+00  0.00000000000E+00  0.11033034931E+04  0.11033034931E+04  0.25500000920E-02 0.  1.
        2   -1    0    0  501    0  0.00000000000E+00  0.00000000000E+00 -0.15335545176E+04  0.15335545176E+04  0.25500000920E-02 0. -1.
    10030    2    1    2    0    0  0.00000000000E+00  0.00000000000E+00 -0.43025102452E+03  0.26368580107E+04  0.26015195991E+04 0.  0.
        3    1    3    3  502    0  0.43276152992E+02  0.73771270171E+03  0.86987468395E+03  0.11413916206E+04  0.10100000352E+00 0.  1.
       -3    1    3    3    0  502 -0.43276152992E+02 -0.73771270171E+03 -0.13001257085E+04  0.14954663900E+04  0.10100000352E+00 0. -1.
</event>
<event>
 5   0  0.4597705E-06  0.2583889E+04  0.7818609E-02  0.8373694E-01
        1   -1    0    0  501    0  0.00000000000E+00  0.00000000000E+00  0.16872409302E+04  0.16872409302E+04  0.50400001928E-02 0. -1.
       -1   -1    0    0    0  501  0.00000000000E+00  0.00000000000E+00 -0.98926045869E+03  0.98926045870E+03  0.50400001928E-02 0.  1.
    10030    2    1    2    0    0  0.00000000000E+00  0.00000000000E+00  0.69798047153E+03  0.26765013889E+04  0.25838891126E+04 0.  0.
        5    1    3    3  502    0  0.11680121577E+04  0.38764704774E+03  0.75624357217E+03  0.14444545907E+04  0.46999998093E+01 0.  1.
       -5    1    3    3    0  502 -0.11680121577E+04 -0.38764704774E+03 -0.58263100646E+02  0.12320467982E+04  0.46999998093E+01 0. -1.
</event>
<event>
 5   0  0.1086507E-05  0.2617894E+04  0.7818609E-02  0.8362148E-01
        2   -1    0    0  501    0  0.00000000000E+00  0.00000000000E+00  0.65270092803E+03  0.65270092803E+03  0.25500000920E-02 0. -1.
       -2   -1    0    0    0  501  0.00000000000E+00  0.00000000000E+00 -0.26250038744E+04  0.26250038744E+04  0.25500000920E-02 0.  1.
    10030    2    1    2    0    0  0.00000000000E+00  0.00000000000E+00 -0.19723029464E+04  0.32777048025E+04  0.26178941651E+04 0.  0.
        2    1    3    3  502    0  0.64138554162E+03  0.40443694867E+03  0.34972031256E+03  0.83501434447E+03  0.25500000920E-02 0. -1.
       -2    1    3    3    0  502 -0.64138554162E+03 -0.40443694867E+03 -0.23220232590E+04  0.24426904580E+04  0.25500000920E-02 0.  1.
</event>
<event>
 5   0  0.4218590E-06  0.2517651E+04  0.7818609E-02  0.8396724E-01
       -1   -1    0    0    0  501  0.00000000000E+00  0.00000000000E+00  0.14227860445E+04  0.14227860445E+04  0.50400001928E-02 0. -1.
        1   -1    0    0  501    0  0.00000000000E+00  0.00000000000E+00 -0.11137595257E+04  0.11137595257E+04  0.50400001928E-02 0.  1.
    10030    2    1    2    0    0  0.00000000000E+00  0.00000000000E+00  0.30902651881E+03  0.25365455702E+04  0.25176508973E+04 0.  0.
        1    1    3    3  502    0  0.41396399215E+03  0.53984631556E+03 -0.91260577685E+03  0.11382660213E+04  0.50400001928E-02 0.  1.
       -1    1    3    3    0  502 -0.41396399215E+03 -0.53984631556E+03  0.12216322957E+04  0.13982795490E+04  0.50400001928E-02 0. -1.
</event>
<event>
 5   0  0.1136881E-05  0.2607165E+04  0.7818609E-02  0.8365771E-01
        2   -1    0    0  501    0  0.00000000000E+00  0.00000000000E+00  0.15492842571E+04  0.15492842571E+04  0.25500000920E-02 0.  1.
       -2   -1    0    0    0  501  0.00000000000E+00  0.00000000000E+00 -0.10968469716E+04  0.10968469716E+04  0.25500000920E-02 0. -1.
    10030    2    1    2    0    0  0.00000000000E+00  0.00000000000E+00  0.45243728555E+03  0.26461312287E+04  0.26071653154E+04 0.  0.
        3    1    3    3  502    0  0.16437582748E+03 -0.34749789790E+03 -0.10380116450E+04  0.11069066750E+04  0.10100000352E+00 0. -1.
       -3    1    3    3    0  502 -0.16437582748E+03  0.34749789790E+03  0.14904489306E+04  0.15392245537E+04  0.10100000352E+00 0.  1.
</event>
<event>
 5   0  0.4415080E-06  0.2601674E+04  0.7818609E-02  0.8367633E-01
        1   -1    0    0  501    0  0.00000000000E+00  0.00000000000E+00  0.10082676106E+04  0.10082676106E+04  0.50400001928E-02 0. -1.
       -1   -1    0    0    0  501  0.00000000000E+00  0.00000000000E+00 -0.16783014033E+04  0.16783014033E+04  0.50400001928E-02 0.  1.
    10030    2    1    2    0    0  0.00000000000E+00  0.00000000000E+00 -0.67003379269E+03  0.26865690139E+04  0.26016740348E+04 0.  0.
        2    1    3    3  502    0 -0.79262036986E+03 -0.60941036966E+03  0.52433361468E+03  0.11289613762E+04  0.25500000920E-02 0. -1.
       -2    1    3    3    0  502  0.79262036986E+03  0.60941036966E+03 -0.11943674074E+04  0.15576076377E+04  0.25500000920E-02 0.  1.
</event>
<event>
 5   0  0.4361864E-06  0.2602917E+04  0.7818609E-02  0.8367211E-01
       -1   -1    0    0    0  501  0.00000000000E+00  0.00000000000E+00  0.11239831995E+04  0.11239831995E+04  0.50400001928E-02 0. -1.
        1   -1    0    0  501    0  0.00000000000E+00  0.00000000000E+00 -0.15069573279E+04  0.15069573279E+04  0.50400001928E-02 0.  1.
    10030    2    1    2    0    0  0.00000000000E+00  0.00000000000E+00 -0.38297412839E+03  0.26309405274E+04  0.26029173778E+04 0.  0.
        3    1    3    3  502    0  0.91736876859E+03 -0.83203391202E+03 -0.59572881749E+03  0.13743139097E+04  0.10100000352E+00 0.  1.
       -3    1    3    3    0  502 -0.91736876859E+03  0.83203391202E+03  0.21275468910E+03  0.12566266177E+04  0.10100000352E+00 0. -1.
</event>
<event>
 5   0  0.4597705E-06  0.2602654E+04  0.7818609E-02  0.8367300E-01
        1   -1    0    0  501    0  0.00000000000E+00  0.00000000000E+00  0.10032933438E+04  0.10032933438E+04  0.50400001928E-02 0.  1.
       -1   -1    0    0    0  501  0.00000000000E+00  0.00000000000E+00 -0.16878935587E+04  0.16878935587E+04  0.50400001928E-02 0. -1.
    10030    2    1    2    0    0  0.00000000000E+00  0.00000000000E+00 -0.68460021494E+03  0.26911869025E+04  0.26026543163E+04 0.  0.
        5    1    3    3  502    0 -0.14060509865E+03 -0.42597537281E+02 -0.16792819176E+04  0.16857028780E+04  0.46999998093E+01 0. -1.
       -5    1    3    3    0  502  0.14060509865E+03  0.42597537281E+02  0.99468170269E+03  0.10054840245E+04  0.46999998093E+01 0.  1.
</event>
<event>
 5   0  0.4415080E-06  0.2596017E+04  0.7818609E-02  0.8369555E-01
       -1   -1    0    0    0  501  0.00000000000E+00  0.00000000000E+00  0.88627404093E+03  0.88627404094E+03  0.50400001928E-02 0. -1.
        1   -1    0    0  501    0  0.00000000000E+00  0.00000000000E+00 -0.19010214075E+04  0.19010214075E+04  0.50400001928E-02 0.  1.
    10030    2    1    2    0    0  0.00000000000E+00  0.00000000000E+00 -0.10147473666E+04  0.27872954485E+04  0.25960168911E+04 0.  0.
        2    1    3    3  502    0  0.71059079231E+03 -0.60731759296E+03  0.45956701360E+03  0.10416217033E+04  0.25500000920E-02 0.  1.
       -2    1    3    3    0  502 -0.71059079231E+03  0.60731759296E+03 -0.14743143802E+04  0.17456737451E+04  0.25500000920E-02 0. -1.
</event>
<event>
 5   0  0.1116310E-05  0.2574220E+04  0.7818609E-02  0.8377011E-01
        2   -1    0    0  501    0  0.00000000000E+00  0.00000000000E+00  0.22985656920E+04  0.22985656920E+04  0.25500000920E-02 0. -1.
       -2   -1    0    0    0  501  0.00000000000E+00  0.00000000000E+00 -0.72073283474E+03  0.72073283474E+03  0.25500000920E-02 0.  1.
    10030    2    1    2    0    0  0.00000000000E+00  0.00000000000E+00  0.15778328572E+04  0.30192985267E+04  0.25742197008E+04 0.  0.
        4    1    3    3  502    0 -0.65033721715E+03 -0.66896348001E+03  0.18289008475E+04  0.20531270191E+04  0.12699999809E+01 0. -1.
       -4    1    3    3    0  502  0.65033721715E+03  0.66896348001E+03 -0.25106799024E+03  0.96617150766E+03  0.12699999809E+01 0.  1.
</event>
<event>
 5   0  0.4464297E-06  0.2580461E+04  0.7818609E-02  0.8374869E-01
        1   -1    0    0  501    0  0.00000000000E+00  0.00000000000E+00  0.20821364131E+04  0.20821364131E+04  0.50400001928E-02 0.  1.
       -1   -1    0    0    0  501  0.00000000000E+00  0.00000000000E+00 -0.79951272393E+03  0.79951272394E+03  0.50400001928E-02 0. -1.
    10030    2    1    2    0    0  0.00000000000E+00  0.00000000000E+00  0.12826236891E+04  0.28816491370E+04  0.25804608544E+04 0.  0.
        4    1    3    3  502    0  0.37824830677E+03  0.34678540564E+03  0.19632734624E+04  0.20292304453E+04  0.12699999809E+01 0.  1.
       -4    1    3    3    0  502 -0.37824830677E+03 -0.34678540564E+03 -0.68064977329E+03  0.85241869167E+03  0.12699999809E+01 0. -1.
</event>
<event>
 5   0  0.4597705E-06  0.2574761E+04  0.7818609E-02  0.8376825E-01
       -1   -1    0    0    0  501  0.00000000000E+00  0.00000000000E+00  0.92271535375E+03  0.92271535376E+03  0.50400001928E-02 0. -1.
        1   -1    0    0  501    0  0.00000000000E+00  0.00000000000E+00 -0.17961639724E+04  0.17961639724E+04  0.50400001928E-02 0.  1.
    10030    2    1    2    0    0  0.00000000000E+00  0.00000000000E+00 -0.87344861862E+03  0.27188793261E+04  0.25747606298E+04 0.  0.
        5    1    3    3  502    0 -0.10727104862E+04 -0.68952828993E+03 -0.62315356096E+03  0.14193306523E+04  0.46999998093E+01 0. -1.
       -5    1    3    3    0  502  0.10727104862E+04  0.68952828993E+03 -0.25029505766E+03  0.12995486739E+04  0.46999998093E+01 0.  1.
</event>
<event>
 5   0  0.4415080E-06  0.2593036E+04  0.7818609E-02  0.8370570E-01
       -1   -1    0    0    0  501  0.00000000000E+00  0.00000000000E+00  0.77055391438E+03  0.77055391440E+03  0.50400001928E-02 0. -1.
        1   -1    0    0  501    0  0.00000000000E+00  0.00000000000E+00 -0.21814947383E+04  0.21814947384E+04  0.50400001928E-02 0.  1.
    10030    2    1    2    0    0  0.00000000000E+00  0.00000000000E+00 -0.14109408240E+04  0.29520486527E+04  0.25930362974E+04 0.  0.
        2    1    3    3  502    0 -0.12398122514E+04 -0.19393116745E+03 -0.33444038791E+03  0.12986893738E+04  0.25500000920E-02 0. -1.
       -2    1    3    3    0  502  0.12398122514E+04  0.19393116745E+03 -0.10765004361E+04  0.16533592790E+04  0.25500000920E-02 0.  1.
</event>
<event>
 5   0  0.1085061E-05  0.2595665E+04  0.7818609E-02  0.8369675E-01
        2   -1    0    0  501    0  0.00000000000E+00  0.00000000000E+00  0.11602801149E+04  0.11602801149E+04  0.25500000920E-02 0.  1.
       -2   -1    0    0    0  501  0.00000000000E+00  0.00000000000E+00 -0.14516918449E+04  0.14516918449E+04  0.25500000920E-02 0. -1.
    10030    2    1    2    0    0  0.00000000000E+00  0.00000000000E+00 -0.29141172995E+03  0.26119719598E+04  0.25956649866E+04 0.  0.
        1    1    3    3  502    0 -0.49958313423E+03 -0.11845873782E+04  0.33000979680E+02  0.12860480665E+04  0.50400001928E-02 0.  1.
       -1    1    3    3    0  502  0.49958313423E+03  0.11845873782E+04 -0.32441270963E+03  0.13259238933E+04  0.50400001928E-02 0. -1.
</event>
<event>
 5   0  0.1136881E-05  0.2611569E+04  0.7818609E-02  0.8364282E-01
        2   -1    0    0  501    0  0.00000000000E+00  0.00000000000E+00  0.21004817650E+04  0.21004817650E+04  0.25500000920E-02 0.  1.
       -2   -1    0    0    0  501  0.00000000000E+00  0.00000000000E+00 -0.81175341539E+03  0.81175341539E+03  0.25500000920E-02 0. -1.
    10030    2    1    2    0    0  0.00000000000E+00  0.00000000000E+00  0.12887283496E+04  0.29122351804E+04  0.26115690661E+04 0.  0.
        3    1    3    3  502    0  0.66751949230E+03 -0.41865886073E+03 -0.51677099192E+03  0.94228964897E+03  0.10100000352E+00 0. -1.
       -3    1    3    3    0  502 -0.66751949230E+03  0.41865886073E+03  0.18054993415E+04  0.19699455314E+04  0.10100000352E+00 0.  1.
</event>
<event>
 5   0  0.1136881E-05  0.2585529E+04  0.7818609E-02  0.8373133E-01
       -2   -1    0    0    0  501  0.00000000000E+00  0.00000000000E+00  0.91206326700E+03  0.91206326700E+03  0.25500000920E-02 0. -1.
        2   -1    0    0  501    0  0.00000000000E+00  0.00000000000E+00 -0.18323728770E+04  0.18323728770E+04  0.25500000920E-02 0.  1.
    10030    2    1    2    0    0  0.00000000000E+00  0.00000000000E+00 -0.92030961005E+03  0.27444361441E+04  0.25855289537E+04 0.  0.
        3    1    3    3  502    0 -0.11703583563E+04 -0.33892869140E+03 -0.15982846527E+01  0.12184473336E+04  0.10100000352E+00 0. -1.
       -3    1    3    3    0  502  0.11703583563E+04  0.33892869140E+03 -0.91871132539E+03  0.15259888105E+04  0.10100000352E+00 0.  1.
</event>
<event>
 5   0  0.4464297E-06  0.2599453E+04  0.7818609E-02  0.8368387E-01
       -1   -1    0    0    0  501  0.00000000000E+00  0.00000000000E+00  0.10359543323E+04  0.10359543323E+04  0.50400001928E-02 0.  1.
        1   -1    0    0  501    0  0.00000000000E+00  0.00000000000E+00 -0.16306602057E+04  0.16306602057E+04  0.50400001928E-02 0. -1.
    10030    2    1    2    0    0  0.00000000000E+00  0.00000000000E+00 -0.59470587336E+03  0.26666145380E+04  0.25994534076E+04 0.  0.
        4    1    3    3  502    0  0.85617655983E+02 -0.19416156803E+03  0.10180635827E+04  0.10399443105E+04  0.12699999809E+01 0.  1.
       -4    1    3    3    0  502 -0.85617655983E+02  0.19416156803E+03 -0.16127694561E+04  0.16266702275E+04  0.12699999809E+01 0. -1.
</event>
<event>
 5   0  0.1085061E-05  0.2600107E+04  0.7818609E-02  0.8368165E-01
       -2   -1    0    0    0  501  0.00000000000E+00  0.00000000000E+00  0.85432027627E+03  0.85432027628E+03  0.25500000920E-02 0. -1.
        2   -1    0    0  501    0  0.00000000000E+00  0.00000000000E+00 -0.19783441007E+04  0.19783441007E+04  0.25500000920E-02 0.  1.
    10030    2    1    2    0    0  0.00000000000E+00  0.00000000000E+00 -0.11240238244E+04  0.28326643769E+04  0.26001072891E+04 0.  0.
        1    1    3    3  502    0  0.85839153611E+03 -0.87123350370E+03 -0.81846734644E+02  0.12257988152E+04  0.50400001928E-02 0. -1.
       -1    1    3    3    0  502 -0.85839153611E+03  0.87123350370E+03 -0.10421770897E+04  0.16068655618E+04  0.50400001928E-02 0.  1.
</event>
<event>
 5   0  0.4415080E-06  0.2603457E+04  0.7818609E-02  0.8367028E-01
        1   -1    0    0  501    0  0.00000000000E+00  0.00000000000E+00  0.16358811038E+04  0.16358811038E+04  0.50400001928E-02 0.  1.
       -1   -1    0    0    0  501  0.00000000000E+00  0.00000000000E+00 -0.10358313348E+04  0.10358313349E+04  0.50400001928E-02 0. -1.
    10030    2    1    2    0    0  0.00000000000E+00  0.00000000000E+00  0.60004976900E+03  0.26717124387E+04  0.26034568615E+04 0.  0.
        2    1    3    3  502    0  0.38775076679E+03  0.79816999822E+02  0.15726069391E+04  0.16216701254E+04  0.25500000920E-02 0.  1.
       -2    1    3    3    0  502 -0.38775076679E+03 -0.79816999822E+02 -0.97255717011E+03  0.10500423133E+04  0.25500000920E-02 0. -1.
</event>
<event>
 5   0  0.4218590E-06  0.2606753E+04  0.7818609E-02  0.8365911E-01
       -1   -1    0    0    0  501  0.00000000000E+00  0.00000000000E+00  0.17783305544E+04  0.17783305544E+04  0.50400001928E-02 0. -1.
        1   -1    0    0  501    0  0.00000000000E+00  0.00000000000E+00 -0.95527222589E+03  0.95527222590E+03  0.50400001928E-02 0.  1.
    10030    2    1    2    0    0  0.00000000000E+00  0.00000000000E+00  0.82305832855E+03  0.27336027803E+04  0.26067526059E+04 0.  0.
        1    1    3    3  502    0 -0.10817781040E+04  0.64445860972E+03  0.58674965878E+02  0.12605607948E+04  0.50400001928E-02 0.  1.
       -1    1    3    3    0  502  0.10817781040E+04 -0.64445860972E+03  0.76438336267E+03  0.14730419855E+04  0.50400001928E-02 0. -1.
</event>
<event>
 5   0  0.4597705E-06  0.2596205E+04  0.7818609E-02  0.8369491E-01
        1   -1    0    0  501    0  0.00000000000E+00  0.00000000000E+00  0.18491734902E+04  0.18491734902E+04  0.50400001928E-02 0. -1.
       -1   -1    0    0    0  501  0.00000000000E+00  0.00000000000E+00 -0.91125598039E+03  0.91125598041E+03  0.50400001928E-02 0.  1.
    10030    2    1    2    0    0  0.00000000000E+00  0.00000000000E+00  0.93791750977E+03  0.27604294706E+04  0.25962052320E+04 0.  0.
        5    1    3    3  502    0 -0.62073421141E+02  0.68365478497E+03 -0.70246284916E+03  0.98219810582E+03  0.46999998093E+01 0.  1.
       -5    1    3    3    0  502  0.62073421141E+02 -0.68365478497E+03  0.16403803589E+04  0.17782313648E+04  0.46999998093E+01 0. -1.
</event>
<event>
 5   0  0.1086507E-05  0.2571678E+04  0.7818609E-02  0.8377886E-01
       -2   -1    0    0    0  501  0.00000000000E+00  0.00000000000E+00  0.11048866373E+04  0.11048866373E+04  0.25500000920E-02 0. -1.
        2   -1    0    0  501    0  0.00000000000E+00  0.00000000000E+00 -0.14964271118E+04  0.14964271119E+04  0.25500000920E-02 0.  1.
    10030    2    1    2    0    0  0.00000000000E+00  0.00000000000E+00 -0.39154047459E+03  0.26013137491E+04  0.25716782999E+04 0.  0.
        2    1    3    3  502    0 -0.48517752108E+03 -0.14992287920E+03  0.99915929873E+03  0.11208003394E+04  0.25500000920E-02 0. -1.
       -2    1    3    3    0  502  0.48517752108E+03  0.14992287920E+03 -0.13906997733E+04  0.14805134097E+04  0.25500000920E-02 0.  1.
</event>
<event>
 5   0  0.1085061E-05  0.2530092E+04  0.7818609E-02  0.8392343E-01
       -2   -1    0    0    0  501  0.00000000000E+00  0.00000000000E+00  0.79089582500E+03  0.79089582501E+03  0.25500000920E-02 0.  1.
        2   -1    0    0  501    0  0.00000000000E+00  0.00000000000E+00 -0.20234542265E+04  0.20234542265E+04  0.25500000920E-02 0. -1.
    10030    2    1    2    0    0  0.00000000000E+00  0.00000000000E+00 -0.12325584015E+04  0.28143500515E+04  0.25300920931E+04 0.  0.
        1    1    3    3  502    0  0.18577905229E+02  0.57365980753E+03  0.63772594284E+03  0.85797732577E+03  0.50400001928E-02 0.  1.
       -1    1    3    3    0  502 -0.18577905229E+02 -0.57365980753E+03 -0.18702843443E+04  0.19563727258E+04  0.50400001928E-02 0. -1.
</event>
<event>
 5   0  0.1085255E-05  0.2457049E+04  0.7818609E-02  0.8418449E-01
       -2   -1    0    0    0  501  0.00000000000E+00  0.00000000000E+00  0.13825952931E+04  0.13825952931E+04  0.25500000920E-02 0. -1.
        2   -1    0    0  501    0  0.00000000000E+00  0.00000000000E+00 -0.10916229308E+04  0.10916229308E+04  0.25500000920E-02 0.  1.
    10030    2    1    2    0    0  0.00000000000E+00  0.00000000000E+00  0.29097236238E+03  0.24742182239E+04  0.24570492270E+04 0.  0.
        5    1    3    3  502    0 -0.53275860415E+03  0.49342706871E+03  0.11433436879E+04  0.13544588886E+04  0.46999998093E+01 0. -1.
       -5    1    3    3    0  502  0.53275860415E+03 -0.49342706871E+03 -0.85237132547E+03  0.11197593353E+04  0.46999998093E+01 0.  1.
</event>
<event>
 5   0  0.3705250E-06  0.2590707E+04  0.7818609E-02  0.8371365E-01
        3   -1    0    0  501    0  0.00000000000E+00  0.00000000000E+00  0.66195275301E+03  0.66195276072E+03  0.10100000352E+00 0.  1.
       -3   -1    0    0    0  501  0.00000000000E+00  0.00000000000E+00 -0.25348354228E+04  0.25348354248E+04  0.10100000352E+00 0. -1.
    10030    2    1    2    0    0  0.00000000000E+00  0.00000000000E+00 -0.18728826698E+04  0.31967881855E+04  0.25907074725E+04 0.  0.
        5    1    3    3  502    0 -0.10574421837E+04 -0.79507509265E+02 -0.18543943962E+04  0.21361896176E+04  0.46999998093E+01 0. -1.
       -5    1    3    3    0  502  0.10574421837E+04  0.79507509265E+02 -0.18488273572E+02  0.10605985679E+04  0.46999998093E+01 0.  1.
</event>
<event>
 5   0  0.4415080E-06  0.2599806E+04  0.7818609E-02  0.8368267E-01
       -1   -1    0    0    0  501  0.00000000000E+00  0.00000000000E+00  0.14345636331E+04  0.14345636331E+04  0.50400001928E-02 0. -1.
        1   -1    0    0  501    0  0.00000000000E+00  0.00000000000E+00 -0.11778824786E+04  0.11778824786E+04  0.50400001928E-02 0.  1.
    10030    2    1    2    0    0  0.00000000000E+00  0.00000000000E+00  0.25668115454E+03  0.26124461117E+04  0.25998056604E+04 0.  0.
        2    1    3    3  502    0  0.39850045906E+03 -0.28326380232E+03  0.13386494438E+04  0.14251397584E+04  0.25500000920E-02 0. -1.
       -2    1    3    3    0  502 -0.39850045906E+03  0.28326380232E+03 -0.10819682893E+04  0.11873063533E+04  0.25500000920E-02 0.  1.
</event>
<event>
 5   0  0.1116310E-05  0.2598318E+04  0.7818609E-02  0.8368773E-01
       -2   -1    0    0    0  501  0.00000000000E+00  0.00000000000E+00  0.15119286466E+04  0.15119286466E+04  0.25500000920E-02 0.  1.
        2   -1    0    0  501    0  0.00000000000E+00  0.00000000000E+00 -0.11163314867E+04  0.11163314867E+04  0.25500000920E-02 0. -1.
    10030    2    1    2    0    0  0.00000000000E+00  0.00000000000E+00  0.39559715990E+03  0.26282601334E+04  0.25983175741E+04 0.  0.
        4    1    3    3  502    0 -0.25360845974E+03  0.94183424696E+03 -0.67025327359E+03  0.11834737273E+04  0.12699999809E+01 0.  1.
       -4    1    3    3    0  502  0.25360845974E+03 -0.94183424696E+03  0.10658504335E+04  0.14447864060E+04  0.12699999809E+01 0. -1.
</event>
<event>
 5   0  0.1085061E-05  0.2654066E+04  0.7818609E-02  0.8350065E-01
       -2   -1    0    0    0  501  0.00000000000E+00  0.00000000000E+00  0.63002246604E+03  0.63002246604E+03  0.25500000920E-02 0. -1.
        2   -1    0    0  501    0  0.00000000000E+00  0.00000000000E+00 -0.27951637188E+04  0.27951637188E+04  0.25500000920E-02 0.  1.
    10030    2    1    2    0    0  0.00000000000E+00  0.00000000000E+00 -0.21651412528E+04  0.34251861849E+04  0.26540655147E+04 0.  0.
        1    1    3    3  502    0 -0.19428219023E+03  0.11696954898E+04 -0.18515901777E+04  0.21987085515E+04  0.50400001928E-02 0.  1.
       -1    1    3    3    0  502  0.19428219023E+03 -0.11696954898E+04 -0.31355107508E+03  0.12264776333E+04  0.50400001928E-02 0. -1.
</event>
<event>
 5   0  0.4218590E-06  0.2614622E+04  0.7818609E-02  0.8363251E-01
        1   -1    0    0  501    0  0.00000000000E+00  0.00000000000E+00  0.10098646696E+04  0.10098646696E+04  0.50400001928E-02 0. -1.
       -1   -1    0    0    0  501  0.00000000000E+00  0.00000000000E+00 -0.16923671868E+04  0.16923671868E+04  0.50400001928E-02 0.  1.
    10030    2    1    2    0    0  0.00000000000E+00  0.00000000000E+00 -0.68250251722E+03  0.27022318565E+04  0.26146218312E+04 0.  0.
        1    1    3    3  502    0  0.92204505162E+02  0.98533462501E+03 -0.12240845637E+04  0.15740930764E+04  0.50400001928E-02 0.  1.
       -1    1    3    3    0  502 -0.92204505162E+02 -0.98533462501E+03  0.54158204650E+03  0.11281387801E+04  0.50400001928E-02 0. -1.
</event>
<event>
 5   0  0.4597705E-06  0.2609271E+04  0.7818609E-02  0.8365059E-01
       -1   -1    0    0    0  501  0.00000000000E+00  0.00000000000E+00  0.97452308790E+03  0.97452308791E+03  0.50400001928E-02 0. -1.
        1   -1    0    0  501    0  0.00000000000E+00  0.00000000000E+00 -0.17465707914E+04  0.17465707914E+04  0.50400001928E-02 0.  1.
    10030    2    1    2    0    0  0.00000000000E+00  0.00000000000E+00 -0.77204770351E+03  0.27210938793E+04  0.26092708260E+04 0.  0.
        5    1    3    3  502    0  0.10448019737E+02 -0.58919813211E+03  0.82781215722E+03  0.10161489348E+04  0.46999998093E+01 0. -1.
       -5    1    3    3    0  502 -0.10448019737E+02  0.58919813211E+03 -0.15998598607E+04  0.17049449446E+04  0.46999998093E+01 0.  1.
</event>
<event>
 5   0  0.1085255E-05  0.2603377E+04  0.7818609E-02  0.8367055E-01
       -2   -1    0    0    0  501  0.00000000000E+00  0.00000000000E+00  0.10159415499E+04  0.10159415499E+04  0.25500000920E-02 0. -1.
        2   -1    0    0  501    0  0.00000000000E+00  0.00000000000E+00 -0.16678058671E+04  0.16678058671E+04  0.25500000920E-02 0.  1.
    10030    2    1    2    0    0  0.00000000000E+00  0.00000000000E+00 -0.65186431712E+03  0.26837474170E+04  0.26033772509E+04 0.  0.
        5    1    3    3  502    0 -0.70560104490E+03 -0.87437072295E+03 -0.10034698099E+04  0.15064430773E+04  0.46999998093E+01 0.  1.
       -5    1    3    3    0  502  0.70560104490E+03  0.87437072295E+03  0.35160549280E+03  0.11773043397E+04  0.46999998093E+01 0. -1.
</event>
<event>
 5   0  0.1085255E-05  0.2604440E+04  0.7818609E-02  0.8366695E-01
       -2   -1    0    0    0  501  0.00000000000E+00  0.00000000000E+00  0.66420747799E+03  0.66420747800E+03  0.25500000920E-02 0. -1.
        2   -1    0    0  501    0  0.00000000000E+00  0.00000000000E+00 -0.25530837268E+04  0.25530837268E+04  0.25500000920E-02 0.  1.
    10030    2    1    2    0    0  0.00000000000E+00  0.00000000000E+00 -0.18888762488E+04  0.32172912048E+04  0.26044402879E+04 0.  0.
        5    1    3    3  502    0  0.51883811968E+03  0.58557201474E+03 -0.22303879333E+04  0.23636285668E+04  0.46999998093E+01 0.  1.
       -5    1    3    3    0  502 -0.51883811968E+03 -0.58557201474E+03  0.34151168448E+03  0.85366263800E+03  0.46999998093E+01 0. -1.
</event>
<event>
 5   0  0.1085255E-05  0.2586671E+04  0.7818609E-02  0.8372743E-01
       -2   -1    0    0    0  501  0.00000000000E+00  0.00000000000E+00  0.75722400214E+03  0.75722400215E+03  0.25500000920E-02 0. -1.
        2   -1    0    0  501    0  0.00000000000E+00  0.00000000000E+00 -0.22090109846E+04  0.22090109846E+04  0.25500000920E-02 0.  1.
    10030    2    1    2    0    0  0.00000000000E+00  0.00000000000E+00 -0.14517869825E+04  0.29662349868E+04  0.25866705539E+04 0.  0.
        5    1    3    3  502    0 -0.11157112250E+04  0.56480350113E+03 -0.11042816394E+04  0.16683148868E+04  0.46999998093E+01 0. -1.
       -5    1    3    3    0  502  0.11157112250E+04 -0.56480350113E+03 -0.34750534306E+03  0.12979201000E+04  0.46999998093E+01 0.  1.
</event>
<event>
 5   0  0.1116310E-05  0.2601083E+04  0.7818609E-02  0.8367833E-01
        2   -1    0    0  501    0  0.00000000000E+00  0.00000000000E+00  0.10205136258E+04  0.10205136258E+04  0.25500000920E-02 0.  1.
       -2   -1    0    0    0  501  0.00000000000E+00  0.00000000000E+00 -0.16574089822E+04  0.16574089822E+04  0.25500000920E-02 0. -1.
    10030    2    1    2    0    0  0.00000000000E+00  0.00000000000E+00 -0.63689535634E+03  0.26779226080E+04  0.26010831974E+04 0.  0.
        4    1    3    3  502    0  0.88440330815E+03  0.95345854504E+03 -0.30565364629E+03  0.13359184754E+04  0.12699999809E+01 0.  1.
       -4    1    3    3    0  502 -0.88440330815E+03 -0.95345854504E+03 -0.33124171005E+03  0.13420041326E+04  0.12699999809E+01 0. -1.
</event>
<event>
 5   0  0.1116310E-05  0.2604401E+04  0.7818609E-02  0.8366708E-01
        2   -1    0    0  501    0  0.00000000000E+00  0.00000000000E+00  0.19667184344E+04  0.19667184344E+04  0.25500000920E-02 0. -1.
       -2   -1    0    0    0  501  0.00000000000E+00  0.00000000000E+00 -0.86221092770E+03  0.86221092770E+03  0.25500000920E-02 0.  1.
    10030    2    1    2    0    0  0.00000000000E+00  0.00000000000E+00  0.11045075067E+04  0.28289293621E+04  0.26044009875E+04 0.  0.
        4    1    3    3  502    0  0.90556098752E+03  0.88567924235E+03  0.22412432517E+03  0.12863521091E+04  0.12699999809E+01 0. -1.
       -4    1    3    3    0  502 -0.90556098752E+03 -0.88567924235E+03  0.88038318156E+03  0.15425772531E+04  0.12699999809E+01 0.  1.
</event>
<event>
 5   0  0.4597705E-06  0.2634240E+04  0.7818609E-02  0.8356663E-01
       -1   -1    0    0    0  501  0.00000000000E+00  0.00000000000E+00  0.54781102817E+03  0.54781102819E+03  0.50400001928E-02 0.  1.
        1   -1    0    0  501    0  0.00000000000E+00  0.00000000000E+00 -0.31667944219E+04  0.31667944219E+04  0.50400001928E-02 0. -1.
    10030    2    1    2    0    0  0.00000000000E+00  0.00000000000E+00 -0.26189833937E+04  0.37146054501E+04  0.26342398587E+04 0.  0.
        5    1    3    3  502    0  0.79151468188E+03  0.60046753314E+02 -0.27915864076E+04  0.29022539285E+04  0.46999998093E+01 0. -1.
       -5    1    3    3    0  502 -0.79151468188E+03 -0.60046753314E+02  0.17260301390E+03  0.81235152159E+03  0.46999998093E+01 0.  1.
</event>
<event>
 5   0  0.1136881E-05  0.2602130E+04  0.7818609E-02  0.8367478E-01
        2   -1    0    0  501    0  0.00000000000E+00  0.00000000000E+00  0.20027797793E+04  0.20027797793E+04  0.25500000920E-02 0. -1.
       -2   -1    0    0    0  501  0.00000000000E+00  0.00000000000E+00 -0.84521060006E+03  0.84521060006E+03  0.25500000920E-02 0.  1.
    10030    2    1    2    0    0  0.00000000000E+00  0.00000000000E+00  0.11575691792E+04  0.28479903794E+04  0.26021304341E+04 0.  0.
        3    1    3    3  502    0 -0.85891577087E+03 -0.26728970914E+03 -0.45002498874E+03  0.10058342760E+04  0.10100000352E+00 0.  1.
       -3    1    3    3    0  502  0.85891577087E+03  0.26728970914E+03  0.16075941680E+04  0.18421561034E+04  0.10100000352E+00 0. -1.
</event>
<event>
 5   0  0.1086507E-05  0.2562709E+04  0.7818609E-02  0.8380980E-01
        2   -1    0    0  501    0  0.00000000000E+00  0.00000000000E+00  0.17539118264E+04  0.17539118264E+04  0.25500000920E-02 0. -1.
       -2   -1    0    0    0  501  0.00000000000E+00  0.00000000000E+00 -0.93611849746E+03  0.93611849746E+03  0.25500000920E-02 0.  1.
    10030    2    1    2    0    0  0.00000000000E+00  0.00000000000E+00  0.81779332896E+03  0.26900303239E+04  0.25627089602E+04 0.  0.
        2    1    3    3  502    0 -0.92611386817E+03 -0.84124110717E+03  0.69921649523E+03  0.14332749926E+04  0.25500000920E-02 0. -1.
       -2    1    3    3    0  502  0.92611386817E+03  0.84124110717E+03  0.11857683373E+03  0.12567553313E+04  0.25500000920E-02 0.  1.
</event>
<event>
 5   0  0.4361864E-06  0.2614164E+04  0.7818609E-02  0.8363406E-01
        1   -1    0    0  501    0  0.00000000000E+00  0.00000000000E+00  0.18196418396E+04  0.18196418396E+04  0.50400001928E-02 0. -1.
       -1   -1    0    0    0  501  0.00000000000E+00  0.00000000000E+00 -0.93890116265E+03  0.93890116267E+03  0.50400001928E-02 0.  1.
    10030    2    1    2    0    0  0.00000000000E+00  0.00000000000E+00  0.88074067692E+03  0.27585430022E+04  0.26141643704E+04 0.  0.
        3    1    3    3  502    0  0.73890478645E+03  0.69355547575E+03  0.13114711874E+04  0.16573943909E+04  0.10100000352E+00 0. -1.
       -3    1    3    3    0  502 -0.73890478645E+03 -0.69355547575E+03 -0.43073051050E+03  0.11011486113E+04  0.10100000352E+00 0.  1.
</event>
<event>
 5   0  0.1085255E-05  0.2610732E+04  0.7818609E-02  0.8364565E-01
       -2   -1    0    0    0  501  0.00000000000E+00  0.00000000000E+00  0.10890719388E+04  0.10890719388E+04  0.25500000920E-02 0.  1.
        2   -1    0    0  501    0  0.00000000000E+00  0.00000000000E+00 -0.15646164346E+04  0.15646164346E+04  0.25500000920E-02 0. -1.
    10030    2    1    2    0    0  0.00000000000E+00  0.00000000000E+00 -0.47554449580E+03  0.26536883734E+04  0.26107315863E+04 0.  0.
        5    1    3    3  502    0  0.12561273977E+04  0.35504133719E+03 -0.24476833875E+03  0.13280978955E+04  0.46999998093E+01 0. -1.
       -5    1    3    3    0  502 -0.12561273977E+04 -0.35504133719E+03 -0.23077615705E+03  0.13255904779E+04  0.46999998093E+01 0.  1.
</event>
<event>
 5   0  0.1086507E-05  0.2569661E+04  0.7818609E-02  0.8378580E-01
        2   -1    0    0  501    0  0.00000000000E+00  0.00000000000E+00  0.15036485811E+04  0.15036485811E+04  0.25500000920E-02 0.  1.
       -2   -1    0    0    0  501  0.00000000000E+00  0.00000000000E+00 -0.10978559174E+04  0.10978559174E+04  0.25500000920E-02 0. -1.
    10030    2    1    2    0    0  0.00000000000E+00  0.00000000000E+00  0.40579266371E+03  0.26015044986E+04  0.25696610614E+04 0.  0.
        2    1    3    3  502    0 -0.23030593977E+03 -0.28530634293E+02  0.14822549894E+04  0.15003115265E+04  0.25500000920E-02 0.  1.
       -2    1    3    3    0  502  0.23030593977E+03  0.28530634293E+02 -0.10764623257E+04  0.11011929720E+04  0.25500000920E-02 0. -1.
</event>
<event>
 5   0  0.4218590E-06  0.2613737E+04  0.7818609E-02  0.8363550E-01
        1   -1    0    0  501    0  0.00000000000E+00  0.00000000000E+00  0.13656477428E+04  0.13656477428E+04  0.50400001928E-02 0. -1.
       -1   -1    0    0    0  501  0.00000000000E+00  0.00000000000E+00 -0.12506192040E+04  0.12506192040E+04  0.50400001928E-02 0.  1.
    10030    2    1    2    0    0  0.00000000000E+00  0.00000000000E+00  0.11502853876E+03  0.26162669468E+04  0.26137370128E+04 0.  0.
        1    1    3    3  502    0  0.88729918821E+03  0.94974802517E+03  0.19396985274E+03  0.13141329706E+04  0.50400001928E-02 0.  1.
       -1    1    3    3    0  502 -0.88729918821E+03 -0.94974802517E+03 -0.78941313976E+02  0.13021339761E+04  0.50400001928E-02 0. -1.
</event>
<event>
 5   0  0.1085255E-05  0.2601267E+04  0.7818609E-02  0.8367771E-01
       -2   -1    0    0    0  501  0.00000000000E+00  0.00000000000E+00  0.14206283610E+04  0.14206283610E+04  0.25500000920E-02 0.  1.
        2   -1    0    0  501    0  0.00000000000E+00  0.00000000000E+00 -0.11907745555E+04  0.11907745555E+04  0.25500000920E-02 0. -1.
    10030    2    1    2    0    0  0.00000000000E+00  0.00000000000E+00  0.22985380545E+03  0.26114029165E+04  0.26012674642E+04 0.  0.
        5    1    3    3  502    0 -0.11765967328E+04 -0.78480549094E+02 -0.43592498206E+03  0.12572158718E+04  0.46999998093E+01 0. -1.
       -5    1    3    3    0  502  0.11765967328E+04  0.78480549094E+02  0.66577878751E+03  0.13541870447E+04  0.46999998093E+01 0.  1.
</event>
<event>
 5   0  0.3705250E-06  0.2598150E+04  0.7818609E-02  0.8368830E-01
       -4   -1    0    0    0  501  0.00000000000E+00  0.00000000000E+00  0.12779292136E+04  0.12779298446E+04  0.12699999809E+01 0.  1.
        4   -1    0    0  501    0  0.00000000000E+00  0.00000000000E+00 -0.13205690462E+04  0.13205696569E+04  0.12699999809E+01 0. -1.
    10030    2    1    2    0    0  0.00000000000E+00  0.00000000000E+00 -0.42639832624E+02  0.25984995015E+04  0.25981496308E+04 0.  0.
        4    1    3    3  502    0 -0.70272352928E+03  0.74488203252E+03  0.77811504080E+03  0.12861314982E+04  0.12699999809E+01 0.  1.
       -4    1    3    3    0  502  0.70272352928E+03 -0.74488203252E+03 -0.82075487342E+03  0.13123680033E+04  0.12699999809E+01 0. -1.
</event>
<event>
 5   0  0.1136881E-05  0.2621926E+04  0.7818609E-02  0.8360791E-01
       -2   -1    0    0    0  501  0.00000000000E+00  0.00000000000E+00  0.18783656587E+04  0.18783656587E+04  0.25500000920E-02 0.  1.
        2   -1    0    0  501    0  0.00000000000E+00  0.00000000000E+00 -0.91495744339E+03  0.91495744339E+03  0.25500000920E-02 0. -1.
    10030    2    1    2    0    0  0.00000000000E+00  0.00000000000E+00  0.96340821527E+03  0.27933231021E+04  0.26219264984E+04 0.  0.
        3    1    3    3  502    0 -0.30394502722E+03 -0.12543162248E+04  0.23659280547E+03  0.13121234459E+04  0.10100000352E+00 0. -1.
       -3    1    3    3    0  502  0.30394502722E+03  0.12543162248E+04  0.72681540980E+03  0.14811996562E+04  0.10100000352E+00 0.  1.
</event>
<event>
 5   0  0.4415080E-06  0.2595887E+04  0.7818609E-02  0.8369600E-01
       -1   -1    0    0    0  501  0.00000000000E+00  0.00000000000E+00  0.74917043613E+03  0.74917043615E+03  0.50400001928E-02 0.  1.
        1   -1    0    0  501    0  0.00000000000E+00  0.00000000000E+00 -0.22486975532E+04  0.22486975532E+04  0.50400001928E-02 0. -1.
    10030    2    1    2    0    0  0.00000000000E+00  0.00000000000E+00 -0.14995271171E+04  0.29978679894E+04  0.25958873063E+04 0.  0.
        2    1    3    3  502    0 -0.70220852310E+03  0.10134602344E+04 -0.28142938438E+03  0.12646742486E+04  0.25500000920E-02 0.  1.
       -2    1    3    3    0  502  0.70220852310E+03 -0.10134602344E+04 -0.12180977327E+04  0.17331937408E+04  0.25500000920E-02 0. -1.
</event>
<event>
 5   0  0.4597705E-06  0.2603445E+04  0.7818609E-02  0.8367032E-01
        1   -1    0    0  501    0  0.00000000000E+00  0.00000000000E+00  0.21879342936E+04  0.21879342936E+04  0.50400001928E-02 0.  1.
       -1   -1    0    0    0  501  0.00000000000E+00  0.00000000000E+00 -0.77446606616E+03  0.77446606618E+03  0.50400001928E-02 0. -1.
    10030    2    1    2    0    0  0.00000000000E+00  0.00000000000E+00  0.14134682275E+04  0.29624003598E+04  0.26034445379E+04 0.  0.
        5    1    3    3  502    0  0.43519455628E+03  0.11215318591E+04  0.12725129210E+04  0.17511536875E+04  0.46999998093E+01 0.  1.
       -5    1    3    3    0  502 -0.43519455628E+03 -0.11215318591E+04  0.14095530643E+03  0.12112466724E+04  0.46999998093E+01 0. -1.
</event>
<event>
 5   0  0.1086507E-05  0.2597744E+04  0.7818609E-02  0.8368968E-01
       -2   -1    0    0    0  501  0.00000000000E+00  0.00000000000E+00  0.18874308390E+04  0.18874308390E+04  0.25500000920E-02 0. -1.
        2   -1    0    0  501    0  0.00000000000E+00  0.00000000000E+00 -0.89384410155E+03  0.89384410155E+03  0.25500000920E-02 0.  1.
    10030    2    1    2    0    0  0.00000000000E+00  0.00000000000E+00  0.99358673744E+03  0.27812749405E+04  0.25977443466E+04 0.  0.
        2    1    3    3  502    0 -0.37705548212E+03 -0.12220877287E+04  0.73952572797E+03  0.14773515342E+04  0.25500000920E-02 0. -1.
       -2    1    3    3    0  502  0.37705548212E+03  0.12220877287E+04  0.25406100947E+03  0.13039234064E+04  0.25500000920E-02 0.  1.
</event>
<event>
 5   0  0.1085061E-05  0.2625596E+04  0.7818609E-02  0.8359559E-01
       -2   -1    0    0    0  501  0.00000000000E+00  0.00000000000E+00  0.12972338185E+04  0.12972338185E+04  0.25500000920E-02 0. -1.
        2   -1    0    0  501    0  0.00000000000E+00  0.00000000000E+00 -0.13285486743E+04  0.13285486743E+04  0.25500000920E-02 0.  1.
    10030    2    1    2    0    0  0.00000000000E+00  0.00000000000E+00 -0.31314855831E+02  0.26257824928E+04  0.26255957570E+04 0.  0.
        1    1    3    3  502    0 -0.31927523066E+02 -0.45556528065E+03 -0.12465492453E+04  0.13275707562E+04  0.50400001928E-02 0.  1.
       -1    1    3    3    0  502  0.31927523066E+02  0.45556528065E+03  0.12152343895E+04  0.12982117366E+04  0.50400001928E-02 0. -1.
</event>
<event>
 5   0  0.4464297E-06  0.2690867E+04  0.7818609E-02  0.8337974E-01
       -1   -1    0    0    0  501  0.00000000000E+00  0.00000000000E+00  0.12764762401E+04  0.12764762401E+04  0.50400001928E-02 0.  1.
        1   -1    0    0  501    0  0.00000000000E+00  0.00000000000E+00 -0.14181158674E+04  0.14181158674E+04  0.50400001928E-02 0. -1.
    10030    2    1    2    0    0  0.00000000000E+00  0.00000000000E+00 -0.14163962734E+03  0.26945921076E+04  0.26908669313E+04 0.  0.
        4    1    3    3  502    0 -0.12391314618E+03  0.13287707134E+04 -0.24194676798E+03  0.13562912401E+04  0.12699999809E+01 0.  1.
       -4    1    3    3    0  502  0.12391314618E+03 -0.13287707134E+04  0.10030714065E+03  0.13383008675E+04  0.12699999809E+01 0. -1.
</event>
<event>
 5   0  0.4361864E-06  0.2580498E+04  0.7818609E-02  0.8374856E-01
        1   -1    0    0  501    0  0.00000000000E+00  0.00000000000E+00  0.19498828945E+04  0.19498828945E+04  0.50400001928E-02 0.  1.
       -1   -1    0    0    0  501  0.00000000000E+00  0.00000000000E+00 -0.85376511511E+03  0.85376511513E+03  0.50400001928E-02 0. -1.
    10030    2    1    2    0    0  0.00000000000E+00  0.00000000000E+00  0.10961177794E+04  0.28036480096E+04  0.25804976217E+04 0.  0.
        3    1    3    3  502    0 -0.70542110996E+03  0.37798810443E+03 -0.55151038199E+03  0.97193500868E+03  0.10100000352E+00 0. -1.
       -3    1    3    3    0  502  0.70542110996E+03 -0.37798810443E+03  0.16476281613E+04  0.18317130009E+04  0.10100000352E+00 0.  1.
</event>
<event>
 5   0  0.1086507E-05  0.2578268E+04  0.7818609E-02  0.8375621E-01
        2   -1    0    0  501    0  0.00000000000E+00  0.00000000000E+00  0.22787094617E+04  0.22787094617E+04  0.25500000920E-02 0. -1.
       -2   -1    0    0    0  501  0.00000000000E+00  0.00000000000E+00 -0.72930175125E+03  0.72930175125E+03  0.25500000920E-02 0.  1.
    10030    2    1    2    0    0  0.00000000000E+00  0.00000000000E+00  0.15494077105E+04  0.30080112130E+04  0.25782682568E+04 0.  0.
        2    1    3    3  502    0  0.65080912028E+03 -0.76055303407E+03 -0.17301964782E+03  0.10158391739E+04  0.25500000920E-02 0.  1.
       -2    1    3    3    0  502 -0.65080912028E+03  0.76055303407E+03  0.17224273583E+04  0.19921720391E+04  0.25500000920E-02 0. -1.
</event>
<event>
 5   0  0.4218590E-06  0.2602469E+04  0.7818609E-02  0.8367363E-01
       -1   -1    0    0    0  501  0.00000000000E+00  0.00000000000E+00  0.18195512406E+04  0.18195512406E+04  0.50400001928E-02 0.  1.
        1   -1    0    0  501    0  0.00000000000E+00  0.00000000000E+00 -0.93056504924E+03  0.93056504925E+03  0.50400001928E-02 0. -1.
    10030    2    1    2    0    0  0.00000000000E+00  0.00000000000E+00  0.88898619139E+03  0.27501162899E+04  0.26024686664E+04 0.  0.
        1    1    3    3  502    0 -0.81991509237E+03 -0.21259171055E+03 -0.59935161870E+03  0.10376311276E+04  0.50400001928E-02 0. -1.
       -1    1    3    3    0  502  0.81991509237E+03  0.21259171055E+03  0.14883378101E+04  0.17124851623E+04  0.50400001928E-02 0.  1.
</event>
<event>
 5   0  0.4218590E-06  0.2603748E+04  0.7818609E-02  0.8366929E-01
       -1   -1    0    0    0  501  0.00000000000E+00  0.00000000000E+00  0.89102625139E+03  0.89102625140E+03  0.50400001928E-02 0. -1.
        1   -1    0    0  501    0  0.00000000000E+00  0.00000000000E+00 -0.19021620508E+04  0.19021620508E+04  0.50400001928E-02 0.  1.
    10030    2    1    2    0    0  0.00000000000E+00  0.00000000000E+00 -0.10111357994E+04  0.27931883022E+04  0.26037483148E+04 0.  0.
        1    1    3    3  502    0 -0.76947751993E+03  0.99038499379E+03 -0.88014009890E+03  0.15321895063E+04  0.50400001928E-02 0. -1.
       -1    1    3    3    0  502  0.76947751993E+03 -0.99038499379E+03 -0.13099570052E+03  0.12609987959E+04  0.50400001928E-02 0.  1.
</event>
<event>
 5   0  0.4415080E-06  0.2595347E+04  0.7818609E-02  0.8369783E-01
       -1   -1    0    0    0  501  0.00000000000E+00  0.00000000000E+00  0.85917396519E+03  0.85917396521E+03  0.50400001928E-02 0.  1.
        1   -1    0    0  501    0  0.00000000000E+00  0.00000000000E+00 -0.19599717927E+04  0.19599717927E+04  0.50400001928E-02 0. -1.
    10030    2    1    2    0    0  0.00000000000E+00  0.00000000000E+00 -0.11007978275E+04  0.28191457579E+04  0.25953471728E+04 0.  0.
        2    1    3    3  502    0 -0.25457297255E+03  0.99322920904E+03 -0.14143758248E+04  0.17469317771E+04  0.25500000920E-02 0. -1.
       -2    1    3    3    0  502  0.25457297255E+03 -0.99322920904E+03  0.31357799737E+03  0.10722139807E+04  0.25500000920E-02 0.  1.
</event>
<event>
 5   0  0.1116310E-05  0.2605305E+04  0.7818609E-02  0.8366402E-01
       -2   -1    0    0    0  501  0.00000000000E+00  0.00000000000E+00  0.11895098998E+04  0.11895098998E+04  0.25500000920E-02 0. -1.
        2   -1    0    0  501    0  0.00000000000E+00  0.00000000000E+00 -0.14265565452E+04  0.14265565452E+04  0.25500000920E-02 0.  1.
    10030    2    1    2    0    0  0.00000000000E+00  0.00000000000E+00 -0.23704664546E+03  0.26160664450E+04  0.26053046909E+04 0.  0.
        4    1    3    3  502    0  0.10839384739E+04  0.65223178109E+03 -0.43056832453E+03  0.13363082004E+04  0.12699999809E+01 0.  1.
       -4    1    3    3    0  502 -0.10839384739E+04 -0.65223178109E+03  0.19352167907E+03  0.12797582446E+04  0.12699999809E+01 0. -1.
</event>
<event>
 5   0  0.3705250E-06  0.2605223E+04  0.7818609E-02  0.8366429E-01
       -4   -1    0    0    0  501  0.00000000000E+00  0.00000000000E+00  0.15572857488E+04  0.15572862667E+04  0.12699999809E+01 0. -1.
        4   -1    0    0  501    0  0.00000000000E+00  0.00000000000E+00 -0.10895849221E+04  0.10895856622E+04  0.12699999809E+01 0.  1.
    10030    2    1    2    0    0  0.00000000000E+00  0.00000000000E+00  0.46770082670E+03  0.26468719289E+04  0.26052230125E+04 0.  0.
        3    1    3    3  502    0 -0.33603459685E+03 -0.41040462319E+03 -0.97489433892E+03  0.11098514258E+04  0.10100000352E+00 0.  1.
       -3    1    3    3    0  502  0.33603459685E+03  0.41040462319E+03  0.14425951656E+04  0.15370205031E+04  0.10100000352E+00 0. -1.
</event>
<event>
 5   0  0.1116310E-05  0.2599903E+04  0.7818609E-02  0.8368234E-01
       -2   -1    0    0    0  501  0.00000000000E+00  0.00000000000E+00  0.10210296952E+04  0.10210296952E+04  0.25500000920E-02 0. -1.
        2   -1    0    0  501    0  0.00000000000E+00  0.00000000000E+00 -0.16550684763E+04  0.16550684763E+04  0.25500000920E-02 0.  1.
    10030    2    1    2    0    0  0.00000000000E+00  0.00000000000E+00 -0.63403878110E+03  0.26760981715E+04  0.25999031228E+04 0.  0.
        4    1    3    3  502    0  0.20065244914E+03 -0.25182872550E+03 -0.16133713732E+04  0.16451893244E+04  0.12699999809E+01 0.  1.
       -4    1    3    3    0  502 -0.20065244914E+03  0.25182872550E+03  0.97933259208E+03  0.10309088472E+04  0.12699999809E+01 0. -1.
</event>
<event>
 5   0  0.1085061E-05  0.2592094E+04  0.7818609E-02  0.8370892E-01
        2   -1    0    0  501    0  0.00000000000E+00  0.00000000000E+00  0.17887033339E+04  0.17887033339E+04  0.25500000920E-02 0. -1.
       -2   -1    0    0    0  501  0.00000000000E+00  0.00000000000E+00 -0.93908130001E+03  0.93908130002E+03  0.25500000920E-02 0.  1.
    10030    2    1    2    0    0  0.00000000000E+00  0.00000000000E+00  0.84962203387E+03  0.27277846339E+04  0.25920940200E+04 0.  0.
        1    1    3    3  502    0 -0.10186427958E+04  0.80008381191E+03  0.47152626282E+03  0.13784426967E+04  0.50400001928E-02 0.  1.
       -1    1    3    3    0  502  0.10186427958E+04 -0.80008381191E+03  0.37809577105E+03  0.13493419372E+04  0.50400001928E-02 0. -1.
</event>
<event>
 5   0  0.1085255E-05  0.2564690E+04  0.7818609E-02  0.8380295E-01
       -2   -1    0    0    0  501  0.00000000000E+00  0.00000000000E+00  0.10645699293E+04  0.10645699293E+04  0.25500000920E-02 0.  1.
        2   -1    0    0  501    0  0.00000000000E+00  0.00000000000E+00 -0.15446692416E+04  0.15446692416E+04  0.25500000920E-02 0. -1.
    10030    2    1    2    0    0  0.00000000000E+00  0.00000000000E+00 -0.48009931231E+03  0.26092391709E+04  0.25646897865E+04 0.  0.
        5    1    3    3  502    0  0.22441204751E+03  0.31644111687E+03  0.10034293085E+04  0.10758197872E+04  0.46999998093E+01 0.  1.
       -5    1    3    3    0  502 -0.22441204751E+03 -0.31644111687E+03 -0.14835286208E+04  0.15334193837E+04  0.46999998093E+01 0. -1.
</event>
<event>
 5   0  0.1136881E-05  0.2556490E+04  0.7818609E-02  0.8383132E-01
       -2   -1    0    0    0  501  0.00000000000E+00  0.00000000000E+00  0.11988973581E+04  0.11988973581E+04  0.25500000920E-02 0. -1.
        2   -1    0    0  501    0  0.00000000000E+00  0.00000000000E+00 -0.13628443930E+04  0.13628443930E+04  0.25500000920E-02 0.  1.
    10030    2    1    2    0    0  0.00000000000E+00  0.00000000000E+00 -0.16394703493E+03  0.25617417511E+04  0.25564902052E+04 0.  0.
        3    1    3    3  502    0  0.13723825463E+01  0.93749690479E+03  0.78872348267E+03  0.12251477757E+04  0.10100000352E+00 0. -1.
       -3    1    3    3    0  502 -0.13723825463E+01 -0.93749690479E+03 -0.95267051759E+03  0.13365939755E+04  0.10100000352E+00 0.  1.
</event>
<event>
 5   0  0.1116310E-05  0.2565720E+04  0.7818609E-02  0.8379940E-01
       -2   -1    0    0    0  501  0.00000000000E+00  0.00000000000E+00  0.11003542176E+04  0.11003542176E+04  0.25500000920E-02 0. -1.
        2   -1    0    0  501    0  0.00000000000E+00  0.00000000000E+00 -0.14956358992E+04  0.14956358992E+04  0.25500000920E-02 0.  1.
    10030    2    1    2    0    0  0.00000000000E+00  0.00000000000E+00 -0.39528168161E+03  0.25959901168E+04  0.25657196025E+04 0.  0.
        4    1    3    3  502    0  0.19868590519E+03 -0.46589818654E+03 -0.13901857330E+04  0.14795793978E+04  0.12699999809E+01 0.  1.
       -4    1    3    3    0  502 -0.19868590519E+03  0.46589818654E+03  0.99490405141E+03  0.11164107190E+04  0.12699999809E+01 0. -1.
</event>
<event>
 5   0  0.4361864E-06  0.2588116E+04  0.7818609E-02  0.8372249E-01
       -1   -1    0    0    0  501  0.00000000000E+00  0.00000000000E+00  0.11189864595E+04  0.11189864595E+04  0.50400001928E-02 0. -1.
        1   -1    0    0  501    0  0.00000000000E+00  0.00000000000E+00 -0.14965208671E+04  0.14965208671E+04  0.50400001928E-02 0.  1.
    10030    2    1    2    0    0  0.00000000000E+00  0.00000000000E+00 -0.37753440756E+03  0.26155073266E+04  0.25881163703E+04 0.  0.
        3    1    3    3  502    0  0.99052725441E+03 -0.34900560071E+03 -0.95283600790E+03  0.14180428834E+04  0.10100000352E+00 0.  1.
       -3    1    3    3    0  502 -0.99052725441E+03  0.34900560071E+03  0.57530160034E+03  0.11974644431E+04  0.10100000352E+00 0. -1.
</event>
<event>
 5   0  0.4415080E-06  0.2596667E+04  0.7818609E-02  0.8369334E-01
        1   -1    0    0  501    0  0.00000000000E+00  0.00000000000E+00  0.10993156027E+04  0.10993156027E+04  0.50400001928E-02 0.  1.
       -1   -1    0    0    0  501  0.00000000000E+00  0.00000000000E+00 -0.15333815204E+04  0.15333815204E+04  0.50400001928E-02 0. -1.
    10030    2    1    2    0    0  0.00000000000E+00  0.00000000000E+00 -0.43406591764E+03  0.26326971231E+04  0.25966672719E+04 0.  0.
        2    1    3    3  502    0 -0.10805622923E+04 -0.43268714443E+03  0.36613245826E+03  0.12201991680E+04  0.25500000920E-02 0.  1.
       -2    1    3    3    0  502  0.10805622923E+04  0.43268714443E+03 -0.80019837590E+03  0.14124979552E+04  0.25500000920E-02 0. -1.
</event>
<event>
 5   0  0.4597705E-06  0.2593160E+04  0.7818609E-02  0.8370528E-01
       -1   -1    0    0    0  501  0.00000000000E+00  0.00000000000E+00  0.11537922974E+04  0.11537922974E+04  0.50400001928E-02 0.  1.
        1   -1    0    0  501    0  0.00000000000E+00  0.00000000000E+00 -0.14570382007E+04  0.14570382007E+04  0.50400001928E-02 0. -1.
    10030    2    1    2    0    0  0.00000000000E+00  0.00000000000E+00 -0.30324590333E+03  0.26108304982E+04  0.25931598123E+04 0.  0.
        5    1    3    3  502    0  0.13547550018E+03 -0.55293835279E+03 -0.13244657013E+04  0.14416400095E+04  0.46999998093E+01 0. -1.
       -5    1    3    3    0  502 -0.13547550018E+03  0.55293835279E+03  0.10212197979E+04  0.11691904887E+04  0.46999998093E+01 0.  1.
</event>
<event>
 5   0  0.1116310E-05  0.2600483E+04  0.7818609E-02  0.8368037E-01
        2   -1    0    0  501    0  0.00000000000E+00  0.00000000000E+00  0.14764581162E+04  0.14764581162E+04  0.25500000920E-02 0. -1.
       -2   -1    0    0    0  501  0.00000000000E+00  0.00000000000E+00 -0.11450562469E+04  0.11450562469E+04  0.25500000920E-02 0.  1.
    10030    2    1    2    0    0  0.00000000000E+00  0.00000000000E+00  0.33140186935E+03  0.26215143631E+04  0.26004827162E+04 0.  0.
        4    1    3    3  502    0  0.84984872444E+00 -0.12229158382E+04  0.61097689553E+03  0.13670472740E+04  0.12699999809E+01 0. -1.
       -4    1    3    3    0  502 -0.84984872444E+00  0.12229158382E+04 -0.27957502618E+03  0.12544670891E+04  0.12699999809E+01 0.  1.
</event>
<event>
 5   0  0.4218590E-06  0.2604657E+04  0.7818609E-02  0.8366621E-01
        1   -1    0    0  501    0  0.00000000000E+00  0.00000000000E+00  0.10373700767E+04  0.10373700767E+04  0.50400001928E-02 0.  1.
       -1   -1    0    0    0  501  0.00000000000E+00  0.00000000000E+00 -0.16349603667E+04  0.16349603667E+04  0.50400001928E-02 0. -1.
    10030    2    1    2    0    0  0.00000000000E+00  0.00000000000E+00 -0.59759029004E+03  0.26723304434E+04  0.26046565693E+04 0.  0.
        1    1    3    3  502    0 -0.10794330169E+04 -0.70301069916E+03 -0.49523592750E+03  0.13800935856E+04  0.50400001928E-02 0.  1.
       -1    1    3    3    0  502  0.10794330169E+04  0.70301069916E+03 -0.10235436254E+03  0.12922368578E+04  0.50400001928E-02 0. -1.
</event>
<event>
 5   0  0.4597705E-06  0.2569897E+04  0.7818609E-02  0.8378499E-01
       -1   -1    0    0    0  501  0.00000000000E+00  0.00000000000E+00  0.83786066310E+03  0.83786066312E+03  0.50400001928E-02 0.  1.
        1   -1    0    0  501    0  0.00000000000E+00  0.00000000000E+00 -0.19706059125E+04  0.19706059125E+04  0.50400001928E-02 0. -1.
    10030    2    1    2    0    0  0.00000000000E+00  0.00000000000E+00 -0.11327452493E+04  0.28084665756E+04  0.25698974116E+04 0.  0.
        5    1    3    3  502    0 -0.67244077848E+03 -0.59364758928E+03 -0.15718239717E+04  0.18097642800E+04  0.46999998093E+01 0. -1.
       -5    1    3    3    0  502  0.67244077848E+03  0.59364758928E+03  0.43907872240E+03  0.99870229563E+03  0.46999998093E+01 0.  1.
</event>
<event>
 5   0  0.4218590E-06  0.2604988E+04  0.7818609E-02  0.8366509E-01
       -1   -1    0    0    0  501  0.00000000000E+00  0.00000000000E+00  0.13927501420E+04  0.13927501420E+04  0.50400001928E-02 0. -1.
        1   -1    0    0  501    0  0.00000000000E+00  0.00000000000E+00 -0.12180866111E+04  0.12180866111E+04  0.50400001928E-02 0.  1.
    10030    2    1    2    0    0  0.00000000000E+00  0.00000000000E+00  0.17466353096E+03  0.26108367531E+04  0.26049877547E+04 0.  0.
        1    1    3    3  502    0 -0.86422475154E+02  0.95454621690E+03  0.97127745425E+03  0.13645538529E+04  0.50400001928E-02 0. -1.
       -1    1    3    3    0  502  0.86422475154E+02 -0.95454621690E+03 -0.79661392329E+03  0.12462829002E+04  0.50400001928E-02 0.  1.
</event>
<event>
 5   0  0.4415080E-06  0.2592812E+04  0.7818609E-02  0.8370647E-01
       -1   -1    0    0    0  501  0.00000000000E+00  0.00000000000E+00  0.75184071792E+03  0.75184071794E+03  0.50400001928E-02 0. -1.
        1   -1    0    0  501    0  0.00000000000E+00  0.00000000000E+00 -0.22354044331E+04  0.22354044332E+04  0.50400001928E-02 0.  1.
    10030    2    1    2    0    0  0.00000000000E+00  0.00000000000E+00 -0.14835637152E+04  0.29872451511E+04  0.25928116583E+04 0.  0.
        2    1    3    3  502    0 -0.25016775432E+03 -0.12076932608E+04 -0.12019997314E+04  0.17221818347E+04  0.25500000920E-02 0. -1.
       -2    1    3    3    0  502  0.25016775432E+03  0.12076932608E+04 -0.28156398385E+03  0.12650633164E+04  0.25500000920E-02 0.  1.
</event>
<event>
 5   0  0.1085255E-05  0.2436537E+04  0.7818609E-02  0.8425950E-01
        2   -1    0    0  501    0  0.00000000000E+00  0.00000000000E+00  0.13618633241E+04  0.13618633241E+04  0.25500000920E-02 0.  1.
       -2   -1    0    0    0  501  0.00000000000E+00  0.00000000000E+00 -0.10898142940E+04  0.10898142940E+04  0.25500000920E-02 0. -1.
    10030    2    1    2    0    0  0.00000000000E+00  0.00000000000E+00  0.27204903018E+03  0.24516776181E+04  0.24365369828E+04 0.  0.
        5    1    3    3  502    0  0.10946808515E+04  0.50480523171E+03 -0.41142136898E+02  0.12061796110E+04  0.46999998093E+01 0.  1.
       -5    1    3    3    0  502 -0.10946808515E+04 -0.50480523171E+03  0.31319116708E+03  0.12454980071E+04  0.46999998093E+01 0. -1.
</event>
<event>
 5   0  0.1116310E-05  0.2423767E+04  0.7818609E-02  0.8430659E-01
        2   -1    0    0  501    0  0.00000000000E+00  0.00000000000E+00  0.86503303727E+03  0.86503303728E+03  0.25500000920E-02 0.  1.
       -2   -1    0    0    0  501  0.00000000000E+00  0.00000000000E+00 -0.16978094461E+04  0.16978094461E+04  0.25500000920E-02 0. -1.
    10030    2    1    2    0    0  0.00000000000E+00  0.00000000000E+00 -0.83277640883E+03  0.25628424834E+04  0.24237667065E+04 0.  0.
        4    1    3    3  502    0 -0.10489354207E+04 -0.28422869646E+02  0.22468960043E+03  0.10731078258E+04  0.12699999809E+01 0.  1.
       -4    1    3    3    0  502  0.10489354207E+04  0.28422869646E+02 -0.10574660093E+04  0.14897346576E+04  0.12699999809E+01 0. -1.
</event>
<event>
 5   0  0.4361864E-06  0.2609369E+04  0.7818609E-02  0.8365026E-01
       -1   -1    0    0    0  501  0.00000000000E+00  0.00000000000E+00  0.10954670881E+04  0.10954670881E+04  0.50400001928E-02 0. -1.
        1   -1    0    0  501    0  0.00000000000E+00  0.00000000000E+00 -0.15538589561E+04  0.15538589561E+04  0.50400001928E-02 0.  1.
    10030    2    1    2    0    0  0.00000000000E+00  0.00000000000E+00 -0.45839186800E+03  0.26493260443E+04  0.26093687712E+04 0.  0.
        3    1    3    3  502    0  0.33351665255E+03 -0.97809995198E+03 -0.10378138402E+04  0.14645717636E+04  0.10100000352E+00 0.  1.
       -3    1    3    3    0  502 -0.33351665255E+03  0.97809995198E+03  0.57942197220E+03  0.11847542807E+04  0.10100000352E+00 0. -1.
</event>
<event>
 5   0  0.4415080E-06  0.2609465E+04  0.7818609E-02  0.8364993E-01
       -1   -1    0    0    0  501  0.00000000000E+00  0.00000000000E+00  0.11401778527E+04  0.11401778527E+04  0.50400001928E-02 0. -1.
        1   -1    0    0  501    0  0.00000000000E+00  0.00000000000E+00 -0.14930357285E+04  0.14930357285E+04  0.50400001928E-02 0.  1.
    10030    2    1    2    0    0  0.00000000000E+00  0.00000000000E+00 -0.35285787581E+03  0.26332135812E+04  0.26094645205E+04 0.  0.
        2    1    3    3  502    0 -0.19584847455E+03 -0.86682506943E+03  0.78755789515E+03  0.11874298986E+04  0.25500000920E-02 0. -1.
       -2    1    3    3    0  502  0.19584847455E+03  0.86682506943E+03 -0.11404157710E+04  0.14457836825E+04  0.25500000920E-02 0.  1.
</event>
<event>
 5   0  0.1116310E-05  0.2583020E+04  0.7818609E-02  0.8373992E-01
        2   -1    0    0  501    0  0.00000000000E+00  0.00000000000E+00  0.17439207869E+04  0.17439207869E+04  0.25500000920E-02 0. -1.
       -2   -1    0    0    0  501  0.00000000000E+00  0.00000000000E+00 -0.95646445566E+03  0.95646445566E+03  0.25500000920E-02 0.  1.
    10030    2    1    2    0    0  0.00000000000E+00  0.00000000000E+00  0.78745633127E+03  0.27003852426E+04  0.25830201286E+04 0.  0.
        4    1    3    3  502    0  0.61727378318E+03  0.88825353915E+03 -0.34400933931E+03  0.11350618096E+04  0.12699999809E+01 0.  1.
       -4    1    3    3    0  502 -0.61727378318E+03 -0.88825353915E+03  0.11314656706E+04  0.15653234330E+04  0.12699999809E+01 0. -1.
</event>
<event>
 5   0  0.4218590E-06  0.2574743E+04  0.7818609E-02  0.8376831E-01
        1   -1    0    0  501    0  0.00000000000E+00  0.00000000000E+00  0.16040673206E+04  0.16040673206E+04  0.50400001928E-02 0.  1.
       -1   -1    0    0    0  501  0.00000000000E+00  0.00000000000E+00 -0.10332015986E+04  0.10332015986E+04  0.50400001928E-02 0. -1.
    10030    2    1    2    0    0  0.00000000000E+00  0.00000000000E+00  0.57086572196E+03  0.26372689193E+04  0.25747426434E+04 0.  0.
        1    1    3    3  502    0  0.11640325041E+04 -0.29055454332E+02 -0.27700008442E+03  0.11968896929E+04  0.50400001928E-02 0. -1.
       -1    1    3    3    0  502 -0.11640325041E+04  0.29055454332E+02  0.84786580638E+03  0.14403792264E+04  0.50400001928E-02 0.  1.
</event>
<event>
 5   0  0.1085061E-05  0.2597448E+04  0.7818609E-02  0.8369069E-01
       -2   -1    0    0    0  501  0.00000000000E+00  0.00000000000E+00  0.11565775284E+04  0.11565775284E+04  0.25500000920E-02 0. -1.
        2   -1    0    0  501    0  0.00000000000E+00  0.00000000000E+00 -0.14583403011E+04  0.14583403011E+04  0.25500000920E-02 0.  1.
    10030    2    1    2    0    0  0.00000000000E+00  0.00000000000E+00 -0.30176277267E+03  0.26149178295E+04  0.25974476865E+04 0.  0.
        1    1    3    3  502    0 -0.12208659993E+04 -0.85422858287E+02 -0.58839937058E+03  0.13579487001E+04  0.50400001928E-02 0.  1.
       -1    1    3    3    0  502  0.12208659993E+04  0.85422858287E+02  0.28663659791E+03  0.12569691294E+04  0.50400001928E-02 0. -1.
</event>
<event>
 5   0  0.4218590E-06  0.2590844E+04  0.7818609E-02  0.8371318E-01
        1   -1    0    0  501    0  0.00000000000E+00  0.00000000000E+00  0.16310946442E+04  0.16310946442E+04  0.50400001928E-02 0. -1.
       -1   -1    0    0    0  501  0.00000000000E+00  0.00000000000E+00 -0.10288293683E+04  0.10288293683E+04  0.50400001928E-02 0.  1.
    10030    2    1    2    0    0  0.00000000000E+00  0.00000000000E+00  0.60226527590E+03  0.26599240124E+04  0.25908439338E+04 0.  0.
        1    1    3    3  502    0 -0.39801878406E+03  0.12101982691E+04  0.60097863650E+02  0.12753864341E+04  0.50400001928E-02 0.  1.
       -1    1    3    3    0  502  0.39801878406E+03 -0.12101982691E+04  0.54216741225E+03  0.13845375784E+04  0.50400001928E-02 0. -1.
</event>
<event>
 5   0  0.4218590E-06  0.2592705E+04  0.7818609E-02  0.8370683E-01
        1   -1    0    0  501    0  0.00000000000E+00  0.00000000000E+00  0.16659060797E+04  0.16659060797E+04  0.50400001928E-02 0. -1.
       -1   -1    0    0    0  501  0.00000000000E+00  0.00000000000E+00 -0.10087779362E+04  0.10087779362E+04  0.50400001928E-02 0.  1.
    10030    2    1    2    0    0  0.00000000000E+00  0.00000000000E+00  0.65712814356E+03  0.26746840159E+04  0.25927046087E+04 0.  0.
        1    1    3    3  502    0  0.58402781816E+03 -0.57916810811E+03  0.13622471426E+04  0.15913018153E+04  0.50400001928E-02 0. -1.
       -1    1    3    3    0  502 -0.58402781816E+03  0.57916810811E+03 -0.70511899901E+03  0.10833822006E+04  0.50400001928E-02 0.  1.
</event>
<event>
 5   0  0.1085255E-05  0.2587183E+04  0.7818609E-02  0.8372568E-01
        2   -1    0    0  501    0  0.00000000000E+00  0.00000000000E+00  0.20272778712E+04  0.20272778712E+04  0.25500000920E-02 0.  1.
       -2   -1    0    0    0  501  0.00000000000E+00  0.00000000000E+00 -0.82543177223E+03  0.82543177223E+03  0.25500000920E-02 0. -1.
    10030    2    1    2    0    0  0.00000000000E+00  0.00000000000E+00  0.12018460990E+04  0.28527096434E+04  0.25871834616E+04 0.  0.
        5    1    3    3  502    0  0.91828911967E+03 -0.90601078864E+03  0.49489244605E+03  0.13816841461E+04  0.46999998093E+01 0. -1.
       -5    1    3    3    0  502 -0.91828911967E+03  0.90601078864E+03  0.70695365293E+03  0.14710254973E+04  0.46999998093E+01 0.  1.
</event>
<event>
 5   0  0.4597705E-06  0.2585519E+04  0.7818609E-02  0.8373137E-01
        1   -1    0    0  501    0  0.00000000000E+00  0.00000000000E+00  0.16272180764E+04  0.16272180764E+04  0.50400001928E-02 0.  1.
       -1   -1    0    0    0  501  0.00000000000E+00  0.00000000000E+00 -0.10270452246E+04  0.10270452247E+04  0.50400001928E-02 0. -1.
    10030    2    1    2    0    0  0.00000000000E+00  0.00000000000E+00  0.60017285177E+03  0.26542633011E+04  0.25855185591E+04 0.  0.
        5    1    3    3  502    0 -0.47955134907E+03 -0.41819737742E+03  0.14553272320E+04  0.15883507123E+04  0.46999998093E+01 0.  1.
       -5    1    3    3    0  502  0.47955134907E+03  0.41819737742E+03 -0.85515438028E+03  0.10659125888E+04  0.46999998093E+01 0. -1.
</event>
<event>
 5   0  0.1136881E-05  0.2603957E+04  0.7818609E-02  0.8366858E-01
        2   -1    0    0  501    0  0.00000000000E+00  0.00000000000E+00  0.12124852073E+04  0.12124852073E+04  0.25500000920E-02 0.  1.
       -2   -1    0    0    0  501  0.00000000000E+00  0.00000000000E+00 -0.13980776955E+04  0.13980776955E+04  0.25500000920E-02 0. -1.
    10030    2    1    2    0    0  0.00000000000E+00  0.00000000000E+00 -0.18559248819E+03  0.26105629028E+04  0.26039573917E+04 0.  0.
        3    1    3    3  502    0 -0.54976533053E+03 -0.36522207604E+03 -0.12179262953E+04  0.13852702100E+04  0.10100000352E+00 0. -1.
       -3    1    3    3    0  502  0.54976533053E+03  0.36522207604E+03  0.10323338072E+04  0.12252926928E+04  0.10100000352E+00 0.  1.
</event>
<event>
 5   0  0.1116310E-05  0.2605284E+04  0.7818609E-02  0.8366408E-01
       -2   -1    0    0    0  501  0.00000000000E+00  0.00000000000E+00  0.14912063626E+04  0.14912063626E+04  0.25500000920E-02 0.  1.
        2   -1    0    0  501    0  0.00000000000E+00  0.00000000000E+00 -0.11379220839E+04  0.11379220839E+04  0.25500000920E-02 0. -1.
    10030    2    1    2    0    0  0.00000000000E+00  0.00000000000E+00  0.35328427863E+03  0.26291284465E+04  0.26052843619E+04 0.  0.
        4    1    3    3  502    0  0.24261107800E+03 -0.76070533913E+03 -0.86202125654E+03  0.11749957480E+04  0.12699999809E+01 0. -1.
       -4    1    3    3    0  502 -0.24261107800E+03  0.76070533913E+03  0.12153055352E+04  0.14541326985E+04  0.12699999809E+01 0.  1.
</event>
<event>
 5   0  0.1136881E-05  0.2391483E+04  0.7818609E-02  0.8442699E-01
       -2   -1    0    0    0  501  0.00000000000E+00  0.00000000000E+00  0.86702595382E+03  0.86702595383E+03  0.25500000920E-02 0.  1.
        2   -1    0    0  501    0  0.00000000000E+00  0.00000000000E+00 -0.16490824349E+04  0.16490824349E+04  0.25500000920E-02 0. -1.
    10030    2    1    2    0    0  0.00000000000E+00  0.00000000000E+00 -0.78205648105E+03  0.25161083887E+04  0.23914826121E+04 0.  0.
        3    1    3    3  502    0 -0.10949539792E+04  0.29940804529E+03 -0.78641517837E+03  0.13809483108E+04  0.10100000352E+00 0. -1.
       -3    1    3    3    0  502  0.10949539792E+04 -0.29940804529E+03  0.43586973259E+01  0.11351600779E+04  0.10100000352E+00 0.  1.
</event>
<event>
 5   0  0.1085061E-05  0.2583491E+04  0.7818609E-02  0.8373831E-01
       -2   -1    0    0    0  501  0.00000000000E+00  0.00000000000E+00  0.10354418637E+04  0.10354418637E+04  0.25500000920E-02 0.  1.
        2   -1    0    0  501    0  0.00000000000E+00  0.00000000000E+00 -0.16114917172E+04  0.16114917172E+04  0.25500000920E-02 0. -1.
    10030    2    1    2    0    0  0.00000000000E+00  0.00000000000E+00 -0.57604985347E+03  0.26469335809E+04  0.25834906518E+04 0.  0.
        1    1    3    3  502    0 -0.82291027439E+03 -0.30932511805E+03 -0.12577034419E+04  0.15344970825E+04  0.50400001928E-02 0. -1.
       -1    1    3    3    0  502  0.82291027439E+03  0.30932511805E+03  0.68165358844E+03  0.11124364984E+04  0.50400001928E-02 0.  1.
</event>
<event>
 5   0  0.4415080E-06  0.2619150E+04  0.7818609E-02  0.8361725E-01
        1   -1    0    0  501    0  0.00000000000E+00  0.00000000000E+00  0.12857318764E+04  0.12857318764E+04  0.50400001928E-02 0. -1.
       -1   -1    0    0    0  501  0.00000000000E+00  0.00000000000E+00 -0.13338602789E+04  0.13338602789E+04  0.50400001928E-02 0.  1.
    10030    2    1    2    0    0  0.00000000000E+00  0.00000000000E+00 -0.48128402497E+02  0.26195921554E+04  0.26191499990E+04 0.  0.
        2    1    3    3  502    0 -0.24993321993E+03  0.12723059052E+04 -0.20782803647E+03  0.13131722749E+04  0.25500000920E-02 0. -1.
       -2    1    3    3    0  502  0.24993321993E+03 -0.12723059052E+04  0.15969963397E+03  0.13064198804E+04  0.25500000920E-02 0.  1.
</event>
<event>
 5   0  0.4464297E-06  0.2549923E+04  0.7818609E-02  0.8385413E-01
       -1   -1    0    0    0  501  0.00000000000E+00  0.00000000000E+00  0.13390061706E+04  0.13390061706E+04  0.50400001928E-02 0. -1.
        1   -1    0    0  501    0  0.00000000000E+00  0.00000000000E+00 -0.12139796733E+04  0.12139796733E+04  0.50400001928E-02 0.  1.
    10030    2    1    2    0    0  0.00000000000E+00  0.00000000000E+00  0.12502649727E+03  0.25529858439E+04  0.25499225663E+04 0.  0.
        4    1    3    3  502    0 -0.56898556003E+03 -0.10556358185E+03  0.11999398288E+04  0.13321957225E+04  0.12699999809E+01 0. -1.
       -4    1    3    3    0  502  0.56898556003E+03  0.10556358185E+03 -0.10749133316E+04  0.12207901214E+04  0.12699999809E+01 0.  1.
</event>
<event>
 5   0  0.1085255E-05  0.2516170E+04  0.7818609E-02  0.8397248E-01
       -2   -1    0    0    0  501  0.00000000000E+00  0.00000000000E+00  0.11734810606E+04  0.11734810606E+04  0.25500000920E-02 0. -1.
        2   -1    0    0  501    0  0.00000000000E+00  0.00000000000E+00 -0.13487882304E+04  0.13487882304E+04  0.25500000920E-02 0.  1.
    10030    2    1    2    0    0  0.00000000000E+00  0.00000000000E+00 -0.17530716982E+03  0.25222692909E+04  0.25161696628E+04 0.  0.
        5    1    3    3  502    0 -0.11070882061E+03 -0.78520132456E+03 -0.10667289199E+04  0.13291840511E+04  0.46999998093E+01 0.  1.
       -5    1    3    3    0  502  0.11070882061E+03  0.78520132456E+03  0.89142175009E+03  0.11930852399E+04  0.46999998093E+01 0. -1.
</event>
<event>
 5   0  0.4218590E-06  0.2599978E+04  0.7818609E-02  0.8368209E-01
        1   -1    0    0  501    0  0.00000000000E+00  0.00000000000E+00  0.98480681158E+03  0.98480681159E+03  0.50400001928E-02 0.  1.
       -1   -1    0    0    0  501  0.00000000000E+00  0.00000000000E+00 -0.17160439170E+04  0.17160439170E+04  0.50400001928E-02 0. -1.
    10030    2    1    2    0    0  0.00000000000E+00  0.00000000000E+00 -0.73123710538E+03  0.27008507286E+04  0.25999782602E+04 0.  0.
        1    1    3    3  502    0 -0.11452280653E+04  0.51794360467E+03 -0.71039734264E+03  0.14437718946E+04  0.50400001928E-02 0.  1.
       -1    1    3    3    0  502  0.11452280653E+04 -0.51794360467E+03 -0.20839762742E+02  0.12570788340E+04  0.50400001928E-02 0. -1.
</event>
<event>
 5   0  0.4464297E-06  0.2602655E+04  0.7818609E-02  0.8367300E-01
        1   -1    0    0  501    0  0.00000000000E+00  0.00000000000E+00  0.11552780702E+04  0.11552780702E+04  0.50400001928E-02 0.  1.
       -1   -1    0    0    0  501  0.00000000000E+00  0.00000000000E+00 -0.14658406189E+04  0.14658406189E+04  0.50400001928E-02 0. -1.
    10030    2    1    2    0    0  0.00000000000E+00  0.00000000000E+00 -0.31056254866E+03  0.26211186891E+04  0.26026551991E+04 0.  0.
        4    1    3    3  502    0 -0.27889602582E+03 -0.37598119368E+03  0.10675429198E+04  0.11656733461E+04  0.12699999809E+01 0.  1.
       -4    1    3    3    0  502  0.27889602582E+03  0.37598119368E+03 -0.13781054685E+04  0.14554453430E+04  0.12699999809E+01 0. -1.
</event>
<event>
 5   0  0.4597705E-06  0.2613229E+04  0.7818609E-02  0.8363721E-01
       -1   -1    0    0    0  501  0.00000000000E+00  0.00000000000E+00  0.20800578642E+04  0.20800578642E+04  0.50400001928E-02 0.  1.
        1   -1    0    0  501    0  0.00000000000E+00  0.00000000000E+00 -0.82076643476E+03  0.82076643478E+03  0.50400001928E-02 0. -1.
    10030    2    1    2    0    0  0.00000000000E+00  0.00000000000E+00  0.12592914294E+04  0.29008242990E+04  0.26132291727E+04 0.  0.
        5    1    3    3  502    0  0.16337833183E+03  0.12815375337E+03 -0.80232495638E+03  0.82877215774E+03  0.46999998093E+01 0. -1.
       -5    1    3    3    0  502 -0.16337833183E+03 -0.12815375337E+03  0.20616163858E+04  0.20720521412E+04  0.46999998093E+01 0.  1.
</event>
<event>
 5   0  0.1116310E-05  0.2607538E+04  0.7818609E-02  0.8365645E-01
        2   -1    0    0  501    0  0.00000000000E+00  0.00000000000E+00  0.17209561261E+04  0.17209561261E+04  0.25500000920E-02 0. -1.
       -2   -1    0    0    0  501  0.00000000000E+00  0.00000000000E+00 -0.98771456871E+03  0.98771456871E+03  0.25500000920E-02 0.  1.
    10030    2    1    2    0    0  0.00000000000E+00  0.00000000000E+00  0.73324155742E+03  0.27086706948E+04  0.26075378716E+04 0.  0.
        4    1    3    3  502    0 -0.12307327066E+04  0.23157271688E+03 -0.10048527973E+02  0.12523703542E+04  0.12699999809E+01 0.  1.
       -4    1    3    3    0  502  0.12307327066E+04 -0.23157271688E+03  0.74329008539E+03  0.14563003407E+04  0.12699999809E+01 0. -1.
</event>
<event>
 5   0  0.4218590E-06  0.2599238E+04  0.7818609E-02  0.8368460E-01
       -1   -1    0    0    0  501  0.00000000000E+00  0.00000000000E+00  0.76556446030E+03  0.76556446032E+03  0.50400001928E-02 0. -1.
        1   -1    0    0  501    0  0.00000000000E+00  0.00000000000E+00 -0.22062279378E+04  0.22062279378E+04  0.50400001928E-02 0.  1.
    10030    2    1    2    0    0  0.00000000000E+00  0.00000000000E+00 -0.14406634775E+04  0.29717923982E+04  0.25992381196E+04 0.  0.
        1    1    3    3  502    0 -0.81688485376E+03  0.74631097342E+03  0.59089396349E+02  0.11080489566E+04  0.50400001928E-02 0. -1.
       -1    1    3    3    0  502  0.81688485376E+03 -0.74631097342E+03 -0.14997528739E+04  0.18637434416E+04  0.50400001928E-02 0.  1.
</event>
<event>
 5   0  0.1086507E-05  0.2610677E+04  0.7818609E-02  0.8364584E-01
       -2   -1    0    0    0  501  0.00000000000E+00  0.00000000000E+00  0.88816451857E+03  0.88816451857E+03  0.25500000920E-02 0.  1.
        2   -1    0    0  501    0  0.00000000000E+00  0.00000000000E+00 -0.19184598524E+04  0.19184598524E+04  0.25500000920E-02 0. -1.
    10030    2    1    2    0    0  0.00000000000E+00  0.00000000000E+00 -0.10302953338E+04  0.28066243710E+04  0.26106765186E+04 0.  0.
        2    1    3    3  502    0  0.48354633046E+02  0.80877885164E+03 -0.16154123386E+04  0.18072128887E+04  0.25500000920E-02 0. -1.
       -2    1    3    3    0  502 -0.48354633046E+02 -0.80877885164E+03  0.58511700484E+03  0.99941148220E+03  0.25500000920E-02 0.  1.
</event>
<event>
 5   0  0.1085255E-05  0.2607040E+04  0.7818609E-02  0.8365814E-01
        2   -1    0    0  501    0  0.00000000000E+00  0.00000000000E+00  0.23755326225E+04  0.23755326225E+04  0.25500000920E-02 0. -1.
       -2   -1    0    0    0  501  0.00000000000E+00  0.00000000000E+00 -0.71527730182E+03  0.71527730182E+03  0.25500000920E-02 0.  1.
    10030    2    1    2    0    0  0.00000000000E+00  0.00000000000E+00  0.16602553207E+04  0.30908099243E+04  0.26070401337E+04 0.  0.
        5    1    3    3  502    0  0.35313541281E+03 -0.92960633846E+03 -0.16903521594E+03  0.10086959693E+04  0.46999998093E+01 0.  1.
       -5    1    3    3    0  502 -0.35313541281E+03  0.92960633846E+03  0.18292905366E+04  0.20821139550E+04  0.46999998093E+01 0. -1.
</event>
<event>
 5   0  0.4361864E-06  0.2621208E+04  0.7818609E-02  0.8361033E-01
       -1   -1    0    0    0  501  0.00000000000E+00  0.00000000000E+00  0.13813674815E+04  0.13813674815E+04  0.50400001928E-02 0. -1.
        1   -1    0    0  501    0  0.00000000000E+00  0.00000000000E+00 -0.12434657514E+04  0.12434657514E+04  0.50400001928E-02 0.  1.
    10030    2    1    2    0    0  0.00000000000E+00  0.00000000000E+00  0.13790173008E+03  0.26248332329E+04  0.26212082354E+04 0.  0.
        3    1    3    3  502    0  0.10827794485E+04 -0.60539339295E+03  0.49234837565E+03  0.13346607912E+04  0.10100000352E+00 0.  1.
       -3    1    3    3    0  502 -0.10827794485E+04  0.60539339295E+03 -0.35444664557E+03  0.12901724416E+04  0.10100000352E+00 0. -1.
</event>
<event>
 5   0  0.4597705E-06  0.2598410E+04  0.7818609E-02  0.8368741E-01
       -1   -1    0    0    0  501  0.00000000000E+00  0.00000000000E+00  0.11530291511E+04  0.11530291511E+04  0.50400001928E-02 0. -1.
        1   -1    0    0  501    0  0.00000000000E+00  0.00000000000E+00 -0.14639124479E+04  0.14639124479E+04  0.50400001928E-02 0.  1.
    10030    2    1    2    0    0  0.00000000000E+00  0.00000000000E+00 -0.31088329679E+03  0.26169415991E+04  0.25984100732E+04 0.  0.
        5    1    3    3  502    0  0.76360465210E+03 -0.35557076625E+02 -0.12134360839E+04  0.14341567522E+04  0.46999998093E+01 0.  1.
       -5    1    3    3    0  502 -0.76360465210E+03  0.35557076625E+02  0.90255278706E+03  0.11827848468E+04  0.46999998093E+01 0. -1.
</event>
<event>
 5   0  0.1086507E-05  0.2604140E+04  0.7818609E-02  0.8366796E-01
       -2   -1    0    0    0  501  0.00000000000E+00  0.00000000000E+00  0.10477996557E+04  0.10477996557E+04  0.25500000920E-02 0.  1.
        2   -1    0    0  501    0  0.00000000000E+00  0.00000000000E+00 -0.16180442328E+04  0.16180442328E+04  0.25500000920E-02 0. -1.
    10030    2    1    2    0    0  0.00000000000E+00  0.00000000000E+00 -0.57024457712E+03  0.26658438884E+04  0.26041399271E+04 0.  0.
        2    1    3    3  502    0  0.18159807566E+03 -0.10038761521E+04  0.54314783862E+03  0.11557485732E+04  0.25500000920E-02 0. -1.
       -2    1    3    3    0  502 -0.18159807566E+03  0.10038761521E+04 -0.11133924157E+04  0.15100953153E+04  0.25500000920E-02 0.  1.
</event>
<event>
 5   0  0.4464297E-06  0.2617952E+04  0.7818609E-02  0.8362129E-01
        1   -1    0    0  501    0  0.00000000000E+00  0.00000000000E+00  0.12428085861E+04  0.12428085861E+04  0.50400001928E-02 0. -1.
       -1   -1    0    0    0  501  0.00000000000E+00  0.00000000000E+00 -0.13786666915E+04  0.13786666915E+04  0.50400001928E-02 0.  1.
    10030    2    1    2    0    0  0.00000000000E+00  0.00000000000E+00 -0.13585810542E+03  0.26214752776E+04  0.26179524836E+04 0.  0.
        4    1    3    3  502    0 -0.20664771974E+03 -0.18212524155E+03  0.12134586037E+04  0.12443296506E+04  0.12699999809E+01 0. -1.
       -4    1    3    3    0  502  0.20664771974E+03  0.18212524155E+03 -0.13493167091E+04  0.13771456270E+04  0.12699999809E+01 0.  1.
</event>
<event>
 5   0  0.1136881E-05  0.2597224E+04  0.7818609E-02  0.8369145E-01
        2   -1    0    0  501    0  0.00000000000E+00  0.00000000000E+00  0.18704720207E+04  0.18704720207E+04  0.25500000920E-02 0.  1.
       -2   -1    0    0    0  501  0.00000000000E+00  0.00000000000E+00 -0.90158673098E+03  0.90158673099E+03  0.25500000920E-02 0. -1.
    10030    2    1    2    0    0  0.00000000000E+00  0.00000000000E+00  0.96888528970E+03  0.27720587517E+04  0.25972237135E+04 0.  0.
        3    1    3    3  502    0  0.36248506373E+02  0.16740340500E+03 -0.88947758578E+03  0.90581909895E+03  0.10100000352E+00 0. -1.
       -3    1    3    3    0  502 -0.36248506373E+02 -0.16740340500E+03  0.18583628755E+04  0.18662396527E+04  0.10100000352E+00 0.  1.
</event>
<event>
 5   0  0.1085255E-05  0.2605178E+04  0.7818609E-02  0.8366444E-01
       -2   -1    0    0    0  501  0.00000000000E+00  0.00000000000E+00  0.12302398235E+04  0.12302398235E+04  0.25500000920E-02 0. -1.
        2   -1    0    0  501    0  0.00000000000E+00  0.00000000000E+00 -0.13791931208E+04  0.13791931208E+04  0.25500000920E-02 0.  1.
    10030    2    1    2    0    0  0.00000000000E+00  0.00000000000E+00 -0.14895329732E+03  0.26094329443E+04  0.26051781524E+04 0.  0.
        5    1    3    3  502    0 -0.34393857748E+02 -0.75334863956E+03 -0.11382842531E+04  0.13654414088E+04  0.46999998093E+01 0.  1.
       -5    1    3    3    0  502  0.34393857748E+02  0.75334863956E+03  0.98933095575E+03  0.12439915354E+04  0.46999998093E+01 0. -1.
</event>
<event>
 5   0  0.1085061E-05  0.2581962E+04  0.7818609E-02  0.8374354E-01
        2   -1    0    0  501    0  0.00000000000E+00  0.00000000000E+00  0.20236378450E+04  0.20236378450E+04  0.25500000920E-02 0. -1.
       -2   -1    0    0    0  501  0.00000000000E+00  0.00000000000E+00 -0.82358187423E+03  0.82358187423E+03  0.25500000920E-02 0.  1.
    10030    2    1    2    0    0  0.00000000000E+00  0.00000000000E+00  0.12000559708E+04  0.28472197192E+04  0.25819616180E+04 0.  0.
        1    1    3    3  502    0 -0.62599985010E+03  0.10435938069E+03  0.18397419765E+04  0.19461287812E+04  0.50400001928E-02 0. -1.
       -1    1    3    3    0  502  0.62599985010E+03 -0.10435938069E+03 -0.63968600576E+03  0.90109093806E+03  0.50400001928E-02 0.  1.
</event>
<event>
 5   0  0.4218590E-06  0.2600247E+04  0.7818609E-02  0.8368117E-01
       -1   -1    0    0    0  501  0.00000000000E+00  0.00000000000E+00  0.16241339349E+04  0.16241339349E+04  0.50400001928E-02 0.  1.
        1   -1    0    0  501    0  0.00000000000E+00  0.00000000000E+00 -0.10407520444E+04  0.10407520445E+04  0.50400001928E-02 0. -1.
    10030    2    1    2    0    0  0.00000000000E+00  0.00000000000E+00  0.58338189049E+03  0.26648859794E+04  0.26002466908E+04 0.  0.
        1    1    3    3  502    0 -0.10257825925E+03 -0.83886136583E+03 -0.72085203158E+03  0.11107827609E+04  0.50400001928E-02 0. -1.
       -1    1    3    3    0  502  0.10257825925E+03  0.83886136583E+03  0.13042339221E+04  0.15541032185E+04  0.50400001928E-02 0.  1.
</event>
<event>
 5   0  0.1085061E-05  0.2616574E+04  0.7818609E-02  0.8362593E-01
       -2   -1    0    0    0  501  0.00000000000E+00  0.00000000000E+00  0.12314741912E+04  0.12314741912E+04  0.25500000920E-02 0. -1.
        2   -1    0    0  501    0  0.00000000000E+00  0.00000000000E+00 -0.13898913340E+04  0.13898913340E+04  0.25500000920E-02 0.  1.
    10030    2    1    2    0    0  0.00000000000E+00  0.00000000000E+00 -0.15841714278E+03  0.26213655251E+04  0.26165743302E+04 0.  0.
        1    1    3    3  502    0 -0.73158000828E+03  0.17377691379E+02 -0.11656776562E+04  0.13763414151E+04  0.50400001928E-02 0.  1.
       -1    1    3    3    0  502  0.73158000828E+03 -0.17377691379E+02  0.10072605134E+04  0.12450241101E+04  0.50400001928E-02 0. -1.
</event>
<event>
 5   0  0.4218590E-06  0.2588591E+04  0.7818609E-02  0.8372087E-01
        1   -1    0    0  501    0  0.00000000000E+00  0.00000000000E+00  0.19605299874E+04  0.19605299874E+04  0.50400001928E-02 0. -1.
       -1   -1    0    0    0  501  0.00000000000E+00  0.00000000000E+00 -0.85446335865E+03  0.85446335867E+03  0.50400001928E-02 0.  1.
    10030    2    1    2    0    0  0.00000000000E+00  0.00000000000E+00  0.11060666287E+04  0.28149933461E+04  0.25885911518E+04 0.  0.
        1    1    3    3  502    0 -0.15063723378E+03  0.26587646943E+03 -0.81467134596E+03  0.87009842843E+03  0.50400001928E-02 0.  1.
       -1    1    3    3    0  502  0.15063723378E+03 -0.26587646943E+03  0.19207379747E+04  0.19448949176E+04  0.50400001928E-02 0. -1.
</event>
<event>
 5   0  0.1116310E-05  0.2614221E+04  0.7818609E-02  0.8363387E-01
        2   -1    0    0  501    0  0.00000000000E+00  0.00000000000E+00  0.16039232318E+04  0.16039232318E+04  0.25500000920E-02 0. -1.
       -2   -1    0    0    0  501  0.00000000000E+00  0.00000000000E+00 -0.10652244943E+04  0.10652244943E+04  0.25500000920E-02 0.  1.
    10030    2    1    2    0    0  0.00000000000E+00  0.00000000000E+00  0.53869873750E+03  0.26691477261E+04  0.26142213476E+04 0.  0.
        4    1    3    3  502    0  0.74681598483E+03 -0.77898854177E+03  0.10223953510E+04  0.14865568035E+04  0.12699999809E+01 0. -1.
       -4    1    3    3    0  502 -0.74681598483E+03  0.77898854177E+03 -0.48369661352E+03  0.11825909226E+04  0.12699999809E+01 0.  1.
</event>
<event>
 5   0  0.4218590E-06  0.2591471E+04  0.7818609E-02  0.8371104E-01
        1   -1    0    0  501    0  0.00000000000E+00  0.00000000000E+00  0.16406866708E+04  0.16406866708E+04  0.50400001928E-02 0. -1.
       -1   -1    0    0    0  501  0.00000000000E+00  0.00000000000E+00 -0.10233094481E+04  0.10233094481E+04  0.50400001928E-02 0.  1.
    10030    2    1    2    0    0  0.00000000000E+00  0.00000000000E+00  0.61737722275E+03  0.26639961189E+04  0.25914707574E+04 0.  0.
        1    1    3    3  502    0 -0.12724865188E+04 -0.24377402815E+03  0.29141189043E+03  0.13279942045E+04  0.50400001928E-02 0.  1.
       -1    1    3    3    0  502  0.12724865188E+04  0.24377402815E+03  0.32596533233E+03  0.13360019144E+04  0.50400001928E-02 0. -1.
</event>
<event>
 5   0  0.1085255E-05  0.2605544E+04  0.7818609E-02  0.8366320E-01
        2   -1    0    0  501    0  0.00000000000E+00  0.00000000000E+00  0.17302211053E+04  0.17302211053E+04  0.25500000920E-02 0. -1.
       -2   -1    0    0    0  501  0.00000000000E+00  0.00000000000E+00 -0.98092386244E+03  0.98092386244E+03  0.25500000920E-02 0.  1.
    10030    2    1    2    0    0  0.00000000000E+00  0.00000000000E+00  0.74929724290E+03  0.27111449678E+04  0.26055442192E+04 0.  0.
        5    1    3    3  502    0 -0.54818703528E+03  0.30608553082E+03 -0.81310341543E+03  0.10273055203E+04  0.46999998093E+01 0.  1.
       -5    1    3    3    0  502  0.54818703528E+03 -0.30608553082E+03  0.15624006583E+04  0.16838394475E+04  0.46999998093E+01 0. -1.
</event>
<event>
 5   0  0.1085255E-05  0.2513301E+04  0.7818609E-02  0.8398262E-01
        2   -1    0    0  501    0  0.00000000000E+00  0.00000000000E+00  0.13834349377E+04  0.13834349377E+04  0.25500000920E-02 0. -1.
       -2   -1    0    0    0  501  0.00000000000E+00  0.00000000000E+00 -0.11414849205E+04  0.11414849205E+04  0.25500000920E-02 0.  1.
    10030    2    1    2    0    0  0.00000000000E+00  0.00000000000E+00  0.24195001717E+03  0.25249198582E+04  0.25133007141E+04 0.  0.
        5    1    3    3  502    0  0.61663701865E+02  0.68456426991E+03 -0.93589484002E+03  0.11611855551E+04  0.46999998093E+01 0.  1.
       -5    1    3    3    0  502 -0.61663701865E+02 -0.68456426991E+03  0.11778448572E+04  0.13637343031E+04  0.46999998093E+01 0. -1.
</event>
<event>
 5   0  0.1086507E-05  0.2596166E+04  0.7818609E-02  0.8369505E-01
       -2   -1    0    0    0  501  0.00000000000E+00  0.00000000000E+00  0.99979443671E+03  0.99979443672E+03  0.25500000920E-02 0. -1.
        2   -1    0    0  501    0  0.00000000000E+00  0.00000000000E+00 -0.16853664334E+04  0.16853664334E+04  0.25500000920E-02 0.  1.
    10030    2    1    2    0    0  0.00000000000E+00  0.00000000000E+00 -0.68557199669E+03  0.26851608701E+04  0.25961663922E+04 0.  0.
        2    1    3    3  502    0  0.11747514256E+04 -0.10530808652E+03  0.21791284194E+03  0.11994234914E+04  0.25500000920E-02 0. -1.
       -2    1    3    3    0  502 -0.11747514256E+04  0.10530808652E+03 -0.90348483863E+03  0.14857373787E+04  0.25500000920E-02 0.  1.
</event>
<event>
 5   0  0.1086507E-05  0.2604595E+04  0.7818609E-02  0.8366642E-01
        2   -1    0    0  501    0  0.00000000000E+00  0.00000000000E+00  0.12701370511E+04  0.12701370512E+04  0.25500000920E-02 0.  1.
       -2   -1    0    0    0  501  0.00000000000E+00  0.00000000000E+00 -0.13352725882E+04  0.13352725882E+04  0.25500000920E-02 0. -1.
    10030    2    1    2    0    0  0.00000000000E+00  0.00000000000E+00 -0.65135537034E+02  0.26054096393E+04  0.26045953142E+04 0.  0.
        2    1    3    3  502    0  0.10773590886E+04  0.68033581830E+03  0.23662555849E+03  0.12959749559E+04  0.25500000920E-02 0.  1.
       -2    1    3    3    0  502 -0.10773590886E+04 -0.68033581830E+03 -0.30176109552E+03  0.13094346834E+04  0.25500000920E-02 0. -1.
</event>
<event>
 5   0  0.1085061E-05  0.2596458E+04  0.7818609E-02  0.8369405E-01
       -2   -1    0    0    0  501  0.00000000000E+00  0.00000000000E+00  0.66280580544E+03  0.66280580545E+03  0.25500000920E-02 0.  1.
        2   -1    0    0  501    0  0.00000000000E+00  0.00000000000E+00 -0.25428239415E+04  0.25428239415E+04  0.25500000920E-02 0. -1.
    10030    2    1    2    0    0  0.00000000000E+00  0.00000000000E+00 -0.18800181360E+04  0.32056297469E+04  0.25964579493E+04 0.  0.
        1    1    3    3  502    0 -0.83872553048E+02 -0.12764070740E+04 -0.12137178502E+04  0.17633379267E+04  0.50400001928E-02 0. -1.
       -1    1    3    3    0  502  0.83872553048E+02  0.12764070740E+04 -0.66630028577E+03  0.14422918202E+04  0.50400001928E-02 0.  1.
</event>
<event>
 5   0  0.4597705E-06  0.2564166E+04  0.7818609E-02  0.8380476E-01
       -1   -1    0    0    0  501  0.00000000000E+00  0.00000000000E+00  0.10337958077E+04  0.10337958077E+04  0.50400001928E-02 0.  1.
        1   -1    0    0  501    0  0.00000000000E+00  0.00000000000E+00 -0.15900011385E+04  0.15900011385E+04  0.50400001928E-02 0. -1.
    10030    2    1    2    0    0  0.00000000000E+00  0.00000000000E+00 -0.55620533075E+03  0.26237969462E+04  0.25641657600E+04 0.  0.
        5    1    3    3  502    0  0.13415010834E+03  0.95954944571E+02 -0.15790910925E+04  0.15876883735E+04  0.46999998093E+01 0. -1.
       -5    1    3    3    0  502 -0.13415010834E+03 -0.95954944571E+02  0.10228857617E+04  0.10361085727E+04  0.46999998093E+01 0.  1.
</event>
<event>
 5   0  0.4361864E-06  0.2636076E+04  0.7818609E-02  0.8356049E-01
       -1   -1    0    0    0  501  0.00000000000E+00  0.00000000000E+00  0.14553005865E+04  0.14553005866E+04  0.50400001928E-02 0. -1.
        1   -1    0    0  501    0  0.00000000000E+00  0.00000000000E+00 -0.11937220170E+04  0.11937220170E+04  0.50400001928E-02 0.  1.
    10030    2    1    2    0    0  0.00000000000E+00  0.00000000000E+00  0.26157856955E+03  0.26490226036E+04  0.26360761381E+04 0.  0.
        3    1    3    3  502    0  0.22201363441E+03  0.10758573733E+03 -0.11703126020E+04  0.11960335870E+04  0.10100000352E+00 0.  1.
       -3    1    3    3    0  502 -0.22201363441E+03 -0.10758573733E+03  0.14318911715E+04  0.14529890165E+04  0.10100000352E+00 0. -1.
</event>
<event>
 5   0  0.1136881E-05  0.2534576E+04  0.7818609E-02  0.8390770E-01
        2   -1    0    0  501    0  0.00000000000E+00  0.00000000000E+00  0.20976506119E+04  0.20976506119E+04  0.25500000920E-02 0.  1.
       -2   -1    0    0    0  501  0.00000000000E+00  0.00000000000E+00 -0.76562741458E+03  0.76562741459E+03  0.25500000920E-02 0. -1.
    10030    2    1    2    0    0  0.00000000000E+00  0.00000000000E+00  0.13320231973E+04  0.28632780265E+04  0.25345759525E+04 0.  0.
        3    1    3    3  502    0 -0.82630937393E+03 -0.85561892088E+03  0.11599160715E+04  0.16614079037E+04  0.10100000352E+00 0. -1.
       -3    1    3    3    0  502  0.82630937393E+03  0.85561892088E+03  0.17210712583E+03  0.12018701228E+04  0.10100000352E+00 0.  1.
</event>
<event>
 5   0  0.4218590E-06  0.2611543E+04  0.7818609E-02  0.8364291E-01
        1   -1    0    0  501    0  0.00000000000E+00  0.00000000000E+00  0.16358391992E+04  0.16358391993E+04  0.50400001928E-02 0.  1.
       -1   -1    0    0    0  501  0.00000000000E+00  0.00000000000E+00 -0.10423021534E+04  0.10423021534E+04  0.50400001928E-02 0. -1.
    10030    2    1    2    0    0  0.00000000000E+00  0.00000000000E+00  0.59353704584E+03  0.26781413527E+04  0.26115426246E+04 0.  0.
        1    1    3    3  502    0  0.55886404963E+03  0.45436483153E+03 -0.82016349333E+03  0.10915331337E+04  0.50400001928E-02 0. -1.
       -1    1    3    3    0  502 -0.55886404963E+03 -0.45436483153E+03  0.14137005392E+04  0.15866082190E+04  0.50400001928E-02 0.  1.
</event>
<event>
 5   0  0.1086507E-05  0.2661985E+04  0.7818609E-02  0.8347446E-01
       -2   -1    0    0    0  501  0.00000000000E+00  0.00000000000E+00  0.82811978658E+03  0.82811978658E+03  0.25500000920E-02 0.  1.
        2   -1    0    0  501    0  0.00000000000E+00  0.00000000000E+00 -0.21392329566E+04  0.21392329566E+04  0.25500000920E-02 0. -1.
    10030    2    1    2    0    0  0.00000000000E+00  0.00000000000E+00 -0.13111131700E+04  0.29673527432E+04  0.26619850784E+04 0.  0.
        2    1    3    3  502    0  0.51163645851E+03  0.62208207219E+03 -0.18367241324E+04  0.20055706192E+04  0.25500000920E-02 0. -1.
       -2    1    3    3    0  502 -0.51163645851E+03 -0.62208207219E+03  0.52561096235E+03  0.96178212396E+03  0.25500000920E-02 0.  1.
</event>
<event>
 5   0  0.4464297E-06  0.2624510E+04  0.7818609E-02  0.8359923E-01
       -1   -1    0    0    0  501  0.00000000000E+00  0.00000000000E+00  0.11133787419E+04  0.11133787419E+04  0.50400001928E-02 0.  1.
        1   -1    0    0  501    0  0.00000000000E+00  0.00000000000E+00 -0.15466554838E+04  0.15466554838E+04  0.50400001928E-02 0. -1.
    10030    2    1    2    0    0  0.00000000000E+00  0.00000000000E+00 -0.43327674191E+03  0.26600342257E+04  0.26245101156E+04 0.  0.
        4    1    3    3  502    0  0.11345842141E+04  0.52029139192E+03  0.19384633337E+03  0.12631557644E+04  0.12699999809E+01 0. -1.
       -4    1    3    3    0  502 -0.11345842141E+04 -0.52029139192E+03 -0.62712307528E+03  0.13968784613E+04  0.12699999809E+01 0.  1.
</event>
<event>
 5   0  0.4218590E-06  0.2600501E+04  0.7818609E-02  0.8368031E-01
       -1   -1    0    0    0  501  0.00000000000E+00  0.00000000000E+00  0.15858396755E+04  0.15858396755E+04  0.50400001928E-02 0.  1.
        1   -1    0    0  501    0  0.00000000000E+00  0.00000000000E+00 -0.10660918660E+04  0.10660918660E+04  0.50400001928E-02 0. -1.
    10030    2    1    2    0    0  0.00000000000E+00  0.00000000000E+00  0.51974780947E+03  0.26519315415E+04  0.26005005509E+04 0.  0.
        1    1    3    3  502    0 -0.12860500746E+04  0.87837059579E+02  0.43356756953E+03  0.13600077135E+04  0.50400001928E-02 0.  1.
       -1    1    3    3    0  502  0.12860500746E+04 -0.87837059579E+02  0.86180239939E+02  0.12919238279E+04  0.50400001928E-02 0. -1.
</event>
<event>
 5   0  0.4415080E-06  0.2600523E+04  0.7818609E-02  0.8368023E-01
        1   -1    0    0  501    0  0.00000000000E+00  0.00000000000E+00  0.13570329460E+04  0.13570329460E+04  0.50400001928E-02 0. -1.
       -1   -1    0    0    0  501  0.00000000000E+00  0.00000000000E+00 -0.12458653679E+04  0.12458653679E+04  0.50400001928E-02 0.  1.
    10030    2    1    2    0    0  0.00000000000E+00  0.00000000000E+00  0.11116757807E+03  0.26028983139E+04  0.26005232939E+04 0.  0.
        2    1    3    3  502    0  0.63522996765E+03 -0.27411263995E+03  0.11575095400E+04  0.13485114707E+04  0.25500000920E-02 0. -1.
       -2    1    3    3    0  502 -0.63522996765E+03  0.27411263995E+03 -0.10463419620E+04  0.12543868433E+04  0.25500000920E-02 0.  1.
</event>
<event>
 5   0  0.4361864E-06  0.2523507E+04  0.7818609E-02  0.8394659E-01
        1   -1    0    0  501    0  0.00000000000E+00  0.00000000000E+00  0.26369795587E+04  0.26369795587E+04  0.50400001928E-02 0.  1.
       -1   -1    0    0    0  501  0.00000000000E+00  0.00000000000E+00 -0.60372940952E+03  0.60372940954E+03  0.50400001928E-02 0. -1.
    10030    2    1    2    0    0  0.00000000000E+00  0.00000000000E+00  0.20332501492E+04  0.32407089682E+04  0.25235071721E+04 0.  0.
        3    1    3    3  502    0  0.16129980982E+03 -0.11983393226E+04  0.14796304333E+04  0.19108482384E+04  0.10100000352E+00 0.  1.
       -3    1    3    3    0  502 -0.16129980982E+03  0.11983393226E+04  0.55361971592E+03  0.13298607299E+04  0.10100000352E+00 0. -1.
</event>
<event>
 5   0  0.1116310E-05  0.2602985E+04  0.7818609E-02  0.8367188E-01
        2   -1    0    0  501    0  0.00000000000E+00  0.00000000000E+00  0.24539718916E+04  0.24539718916E+04  0.25500000920E-02 0.  1.
       -2   -1    0    0    0  501  0.00000000000E+00  0.00000000000E+00 -0.69026157007E+03  0.69026157007E+03  0.25500000920E-02 0. -1.
    10030    2    1    2    0    0  0.00000000000E+00  0.00000000000E+00  0.17637103215E+04  0.31442334617E+04  0.26029848181E+04 0.  0.
        4    1    3    3  502    0  0.27845869145E+03 -0.51724568692E+02 -0.65258515949E+03  0.71139558414E+03  0.12699999809E+01 0. -1.
       -4    1    3    3    0  502 -0.27845869145E+03  0.51724568692E+02  0.24162954810E+04  0.24328378775E+04  0.12699999809E+01 0.  1.
</event>
<event>
 5   0  0.1116310E-05  0.2613646E+04  0.7818609E-02  0.8363581E-01
        2   -1    0    0  501    0  0.00000000000E+00  0.00000000000E+00  0.12706523280E+04  0.12706523280E+04  0.25500000920E-02 0.  1.
       -2   -1    0    0    0  501  0.00000000000E+00  0.00000000000E+00 -0.13440235850E+04  0.13440235850E+04  0.25500000920E-02 0. -1.
    10030    2    1    2    0    0  0.00000000000E+00  0.00000000000E+00 -0.73371257031E+02  0.26146759130E+04  0.26136462631E+04 0.  0.
        4    1    3    3  502    0  0.29545607139E+03  0.51654422151E+03 -0.12006184592E+04  0.13399994479E+04  0.12699999809E+01 0. -1.
       -4    1    3    3    0  502 -0.29545607139E+03 -0.51654422151E+03  0.11272472022E+04  0.12746764651E+04  0.12699999809E+01 0.  1.
</event>
<event>
 5   0  0.4415080E-06  0.2607944E+04  0.7818609E-02  0.8365508E-01
        1   -1    0    0  501    0  0.00000000000E+00  0.00000000000E+00  0.16322978098E+04  0.16322978098E+04  0.50400001928E-02 0.  1.
       -1   -1    0    0    0  501  0.00000000000E+00  0.00000000000E+00 -0.10416870176E+04  0.10416870176E+04  0.50400001928E-02 0. -1.
    10030    2    1    2    0    0  0.00000000000E+00  0.00000000000E+00  0.59061079216E+03  0.26739848274E+04  0.26079443532E+04 0.  0.
        2    1    3    3  502    0 -0.13314653072E+03  0.95744545135E+02 -0.10310709972E+04  0.10440318089E+04  0.25500000920E-02 0. -1.
       -2    1    3    3    0  502  0.13314653072E+03 -0.95744545135E+02  0.16216817894E+04  0.16299530185E+04  0.25500000920E-02 0.  1.
</event>
<event>
 5   0  0.1116310E-05  0.2576807E+04  0.7818609E-02  0.8376122E-01
       -2   -1    0    0    0  501  0.00000000000E+00  0.00000000000E+00  0.11346876546E+04  0.11346876546E+04  0.25500000920E-02 0. -1.
        2   -1    0    0  501    0  0.00000000000E+00  0.00000000000E+00 -0.14629431577E+04  0.14629431577E+04  0.25500000920E-02 0.  1.
    10030    2    1    2    0    0  0.00000000000E+00  0.00000000000E+00 -0.32825550313E+03  0.25976308122E+04  0.25768069701E+04 0.  0.
        4    1    3    3  502    0 -0.81054051954E+03 -0.82770343197E+03  0.40426652932E+03  0.12269889750E+04  0.12699999809E+01 0. -1.
       -4    1    3    3    0  502  0.81054051954E+03  0.82770343197E+03 -0.73252203245E+03  0.13706418373E+04  0.12699999809E+01 0.  1.
</event>
<event>
 5   0  0.1085061E-05  0.2589303E+04  0.7818609E-02  0.8371844E-01
        2   -1    0    0  501    0  0.00000000000E+00  0.00000000000E+00  0.96163289605E+03  0.96163289606E+03  0.25500000920E-02 0. -1.
       -2   -1    0    0    0  501  0.00000000000E+00  0.00000000000E+00 -0.17429964915E+04  0.17429964915E+04  0.25500000920E-02 0.  1.
    10030    2    1    2    0    0  0.00000000000E+00  0.00000000000E+00 -0.78136359544E+03  0.27046293876E+04  0.25893031989E+04 0.  0.
        1    1    3    3  502    0 -0.11711478312E+04  0.35821544269E+03  0.47797430861E+02  0.12256386663E+04  0.50400001928E-02 0. -1.
       -1    1    3    3    0  502  0.11711478312E+04 -0.35821544269E+03 -0.82916102630E+03  0.14789907212E+04  0.50400001928E-02 0.  1.
</event>
<event>
 5   0  0.1116310E-05  0.2592777E+04  0.7818609E-02  0.8370659E-01
       -2   -1    0    0    0  501  0.00000000000E+00  0.00000000000E+00  0.81033730481E+03  0.81033730481E+03  0.25500000920E-02 0.  1.
        2   -1    0    0  501    0  0.00000000000E+00  0.00000000000E+00 -0.20739790455E+04  0.20739790455E+04  0.25500000920E-02 0. -1.
    10030    2    1    2    0    0  0.00000000000E+00  0.00000000000E+00 -0.12636417407E+04  0.28843163503E+04  0.25927765735E+04 0.  0.
        4    1    3    3  502    0 -0.10421408107E+04 -0.41691780757E+03 -0.13534038371E+04  0.17582893638E+04  0.12699999809E+01 0. -1.
       -4    1    3    3    0  502  0.10421408107E+04  0.41691780757E+03  0.89762096395E+02  0.11260269865E+04  0.12699999809E+01 0.  1.
</event>
<event>
 5   0  0.4597705E-06  0.2609644E+04  0.7818609E-02  0.8364933E-01
        1   -1    0    0  501    0  0.00000000000E+00  0.00000000000E+00  0.19537910483E+04  0.19537910483E+04  0.50400001928E-02 0.  1.
       -1   -1    0    0    0  501  0.00000000000E+00  0.00000000000E+00 -0.87141366192E+03  0.87141366193E+03  0.50400001928E-02 0. -1.
    10030    2    1    2    0    0  0.00000000000E+00  0.00000000000E+00  0.10823773863E+04  0.28252047102E+04  0.26096438163E+04 0.  0.
        5    1    3    3  502    0 -0.41433803635E+03 -0.48182533957E+03  0.17749302277E+04  0.18852668430E+04  0.46999998093E+01 0.  1.
       -5    1    3    3    0  502  0.41433803635E+03  0.48182533957E+03 -0.69255284132E+03  0.93993786722E+03  0.46999998093E+01 0. -1.
</event>
<event>
 5   0  0.1085255E-05  0.2591736E+04  0.7818609E-02  0.8371014E-01
       -2   -1    0    0    0  501  0.00000000000E+00  0.00000000000E+00  0.13500093533E+04  0.13500093533E+04  0.25500000920E-02 0. -1.
        2   -1    0    0  501    0  0.00000000000E+00  0.00000000000E+00 -0.12438983246E+04  0.12438983246E+04  0.25500000920E-02 0.  1.
    10030    2    1    2    0    0  0.00000000000E+00  0.00000000000E+00  0.10611102870E+03  0.25939076779E+04  0.25917363853E+04 0.  0.
        5    1    3    3  502    0 -0.25442619042E+03 -0.76744507473E+03 -0.96048616230E+03  0.12554920896E+04  0.46999998093E+01 0.  1.
       -5    1    3    3    0  502  0.25442619042E+03  0.76744507473E+03  0.10665971910E+04  0.13384155883E+04  0.46999998093E+01 0. -1.
</event>
<event>
 5   0  0.4597705E-06  0.2350393E+04  0.7818609E-02  0.8458313E-01
       -1   -1    0    0    0  501  0.00000000000E+00  0.00000000000E+00  0.10733584002E+04  0.10733584002E+04  0.50400001928E-02 0.  1.
        1   -1    0    0  501    0  0.00000000000E+00  0.00000000000E+00 -0.12866966255E+04  0.12866966255E+04  0.50400001928E-02 0. -1.
    10030    2    1    2    0    0  0.00000000000E+00  0.00000000000E+00 -0.21333822532E+03  0.23600550258E+04  0.23503928451E+04 0.  0.
        5    1    3    3  502    0  0.80679036324E+03  0.26953276139E+03  0.70753166607E+03  0.11064274708E+04  0.46999998093E+01 0.  1.
       -5    1    3    3    0  502 -0.80679036324E+03 -0.26953276139E+03 -0.92086989139E+03  0.12536275550E+04  0.46999998093E+01 0. -1.
</event>
<event>
 5   0  0.4361864E-06  0.2602879E+04  0.7818609E-02  0.8367224E-01
       -1   -1    0    0    0  501  0.00000000000E+00  0.00000000000E+00  0.16563721346E+04  0.16563721346E+04  0.50400001928E-02 0.  1.
        1   -1    0    0  501    0  0.00000000000E+00  0.00000000000E+00 -0.10225630637E+04  0.10225630638E+04  0.50400001928E-02 0. -1.
    10030    2    1    2    0    0  0.00000000000E+00  0.00000000000E+00  0.63380907090E+03  0.26789351984E+04  0.26028791480E+04 0.  0.
        3    1    3    3  502    0 -0.61320241386E+03  0.23508505889E+03  0.14733295943E+04  0.16130661142E+04  0.10100000352E+00 0.  1.
       -3    1    3    3    0  502  0.61320241386E+03 -0.23508505889E+03 -0.83952052337E+03  0.10658690842E+04  0.10100000352E+00 0. -1.
</event>
<event>
 5   0  0.1085255E-05  0.2633924E+04  0.7818609E-02  0.8356768E-01
        2   -1    0    0  501    0  0.00000000000E+00  0.00000000000E+00  0.26315848660E+04  0.26315848660E+04  0.25500000920E-02 0. -1.
       -2   -1    0    0    0  501  0.00000000000E+00  0.00000000000E+00 -0.65906628680E+03  0.65906628680E+03  0.25500000920E-02 0.  1.
    10030    2    1    2    0    0  0.00000000000E+00  0.00000000000E+00  0.19725185792E+04  0.32906511528E+04  0.26339239671E+04 0.  0.
        5    1    3    3  502    0 -0.38572225889E+03  0.63884182441E+03  0.23419257203E+04  0.24579541710E+04  0.46999998093E+01 0. -1.
       -5    1    3    3    0  502  0.38572225889E+03 -0.63884182441E+03 -0.36940714106E+03  0.83269698179E+03  0.46999998093E+01 0.  1.
</event>
<event>
 5   0  0.4218590E-06  0.2666862E+04  0.7818609E-02  0.8345838E-01
        1   -1    0    0  501    0  0.00000000000E+00  0.00000000000E+00  0.22161028264E+04  0.22161028264E+04  0.50400001928E-02 0. -1.
       -1   -1    0    0    0  501  0.00000000000E+00  0.00000000000E+00 -0.80232634773E+03  0.80232634775E+03  0.50400001928E-02 0.  1.
    10030    2    1    2    0    0  0.00000000000E+00  0.00000000000E+00  0.14137764787E+04  0.30184291742E+04  0.26668615914E+04 0.  0.
        1    1    3    3  502    0  0.12053253916E+04 -0.48860541880E+03  0.10397556862E+04  0.16651235515E+04  0.50400001928E-02 0.  1.
       -1    1    3    3    0  502 -0.12053253916E+04  0.48860541880E+03  0.37402079250E+03  0.13533056226E+04  0.50400001928E-02 0. -1.
</event>
<event>
 5   0  0.4464297E-06  0.2603126E+04  0.7818609E-02  0.8367140E-01
        1   -1    0    0  501    0  0.00000000000E+00  0.00000000000E+00  0.17395032765E+04  0.17395032765E+04  0.50400001928E-02 0. -1.
       -1   -1    0    0    0  501  0.00000000000E+00  0.00000000000E+00 -0.97387903015E+03  0.97387903016E+03  0.50400001928E-02 0.  1.
    10030    2    1    2    0    0  0.00000000000E+00  0.00000000000E+00  0.76562424639E+03  0.27133823067E+04  0.26031256319E+04 0.  0.
        4    1    3    3  502    0 -0.89815691024E+03 -0.92005066170E+03  0.59357706284E+03  0.14161618544E+04  0.12699999809E+01 0. -1.
       -4    1    3    3    0  502  0.89815691024E+03  0.92005066170E+03  0.17204718354E+03  0.12972204523E+04  0.12699999809E+01 0.  1.
</event>
<event>
 5   0  0.4597705E-06  0.2601193E+04  0.7818609E-02  0.8367796E-01
        1   -1    0    0  501    0  0.00000000000E+00  0.00000000000E+00  0.21378713757E+04  0.21378713758E+04  0.50400001928E-02 0.  1.
       -1   -1    0    0    0  501  0.00000000000E+00  0.00000000000E+00 -0.79123175694E+03  0.79123175695E+03  0.50400001928E-02 0. -1.
    10030    2    1    2    0    0  0.00000000000E+00  0.00000000000E+00  0.13466396188E+04  0.29291031327E+04  0.26011933606E+04 0.  0.
        5    1    3    3  502    0 -0.11134786886E+04  0.58972965445E+03  0.10363130992E+04  0.16314358047E+04  0.46999998093E+01 0. -1.
       -5    1    3    3    0  502  0.11134786886E+04 -0.58972965445E+03  0.31032651963E+03  0.12976673280E+04  0.46999998093E+01 0.  1.
</event>
<event>
 5   0  0.4218590E-06  0.2618836E+04  0.7818609E-02  0.8361831E-01
        1   -1    0    0  501    0  0.00000000000E+00  0.00000000000E+00  0.86306195795E+03  0.86306195797E+03  0.50400001928E-02 0. -1.
       -1   -1    0    0    0  501  0.00000000000E+00  0.00000000000E+00 -0.19866185213E+04  0.19866185213E+04  0.50400001928E-02 0.  1.
    10030    2    1    2    0    0  0.00000000000E+00  0.00000000000E+00 -0.11235565633E+04  0.28496804793E+04  0.26188355204E+04 0.  0.
        1    1    3    3  502    0 -0.82687281942E+03 -0.81712507105E+03  0.93972233052E+02  0.11662944833E+04  0.50400001928E-02 0. -1.
       -1    1    3    3    0  502  0.82687281942E+03  0.81712507105E+03 -0.12175287964E+04  0.16833859959E+04  0.50400001928E-02 0.  1.
</event>
<event>
 5   0  0.4218590E-06  0.2609859E+04  0.7818609E-02  0.8364860E-01
        1   -1    0    0  501    0  0.00000000000E+00  0.00000000000E+00  0.20763947167E+04  0.20763947167E+04  0.50400001928E-02 0.  1.
       -1   -1    0    0    0  501  0.00000000000E+00  0.00000000000E+00 -0.82009509250E+03  0.82009509251E+03  0.50400001928E-02 0. -1.
    10030    2    1    2    0    0  0.00000000000E+00  0.00000000000E+00  0.12562996242E+04  0.28964898092E+04  0.26098590899E+04 0.  0.
        1    1    3    3  502    0 -0.54588570189E+03 -0.10281752426E+04  0.12825761663E+04  0.17320903993E+04  0.50400001928E-02 0. -1.
       -1    1    3    3    0  502  0.54588570189E+03  0.10281752426E+04 -0.26276542130E+02  0.11643994099E+04  0.50400001928E-02 0.  1.
</event>
<event>
 5   0  0.1116310E-05  0.2590742E+04  0.7818609E-02  0.8371353E-01
       -2   -1    0    0    0  501  0.00000000000E+00  0.00000000000E+00  0.19962541145E+04  0.19962541145E+04  0.25500000920E-02 0.  1.
        2   -1    0    0  501    0  0.00000000000E+00  0.00000000000E+00 -0.84056754375E+03  0.84056754376E+03  0.25500000920E-02 0. -1.
    10030    2    1    2    0    0  0.00000000000E+00  0.00000000000E+00  0.11556865707E+04  0.28368216583E+04  0.25907423011E+04 0.  0.
        4    1    3    3  502    0 -0.30881490430E+03  0.88213431098E+03  0.15599513875E+04  0.18185097008E+04  0.12699999809E+01 0.  1.
       -4    1    3    3    0  502  0.30881490430E+03 -0.88213431098E+03 -0.40426481674E+03  0.10183119574E+04  0.12699999809E+01 0. -1.
</event>
<event>
 5   0  0.4464297E-06  0.2596776E+04  0.7818609E-02  0.8369297E-01
       -1   -1    0    0    0  501  0.00000000000E+00  0.00000000000E+00  0.15675185702E+04  0.15675185702E+04  0.50400001928E-02 0.  1.
        1   -1    0    0  501    0  0.00000000000E+00  0.00000000000E+00 -0.10754650225E+04  0.10754650225E+04  0.50400001928E-02 0. -1.
    10030    2    1    2    0    0  0.00000000000E+00  0.00000000000E+00  0.49205354769E+03  0.26429835928E+04  0.25967759969E+04 0.  0.
        4    1    3    3  502    0 -0.10701454322E+02  0.12807037306E+04  0.46311351211E+03  0.13619075977E+04  0.12699999809E+01 0. -1.
       -4    1    3    3    0  502  0.10701454322E+02 -0.12807037306E+04  0.28940035577E+02  0.12810759951E+04  0.12699999809E+01 0.  1.
</event>
<event>
 5   0  0.4218590E-06  0.2581691E+04  0.7818609E-02  0.8374447E-01
        1   -1    0    0  501    0  0.00000000000E+00  0.00000000000E+00  0.26898860427E+04  0.26898860427E+04  0.50400001928E-02 0. -1.
       -1   -1    0    0    0  501  0.00000000000E+00  0.00000000000E+00 -0.61946200955E+03  0.61946200958E+03  0.50400001928E-02 0.  1.
    10030    2    1    2    0    0  0.00000000000E+00  0.00000000000E+00  0.20704240331E+04  0.33093480523E+04  0.25816910842E+04 0.  0.
        1    1    3    3  502    0 -0.20233976987E+03 -0.48796535463E+03  0.25449879816E+04  0.25992336171E+04  0.50400001928E-02 0. -1.
       -1    1    3    3    0  502  0.20233976987E+03  0.48796535463E+03 -0.47456394848E+03  0.71011443515E+03  0.50400001928E-02 0.  1.
</event>
<event>
 5   0  0.4361864E-06  0.2603233E+04  0.7818609E-02  0.8367104E-01
        1   -1    0    0  501    0  0.00000000000E+00  0.00000000000E+00  0.14717653254E+04  0.14717653254E+04  0.50400001928E-02 0.  1.
       -1   -1    0    0    0  501  0.00000000000E+00  0.00000000000E+00 -0.11511385062E+04  0.11511385062E+04  0.50400001928E-02 0. -1.
    10030    2    1    2    0    0  0.00000000000E+00  0.00000000000E+00  0.32062681917E+03  0.26229038316E+04  0.26032331729E+04 0.  0.
        3    1    3    3  502    0  0.75187939830E+03  0.76154784246E+03 -0.58618172696E+03  0.12201994809E+04  0.10100000352E+00 0. -1.
       -3    1    3    3    0  502 -0.75187939830E+03 -0.76154784246E+03  0.90680854613E+03  0.14027043507E+04  0.10100000352E+00 0.  1.
</event>
<event>
 5   0  0.4361864E-06  0.2286587E+04  0.7818609E-02  0.8483229E-01
       -1   -1    0    0    0  501  0.00000000000E+00  0.00000000000E+00  0.15429722642E+04  0.15429722642E+04  0.50400001928E-02 0.  1.
        1   -1    0    0  501    0  0.00000000000E+00  0.00000000000E+00 -0.84714398224E+03  0.84714398226E+03  0.50400001928E-02 0. -1.
    10030    2    1    2    0    0  0.00000000000E+00  0.00000000000E+00  0.69582828197E+03  0.23901162465E+04  0.22865866862E+04 0.  0.
        3    1    3    3  502    0  0.69629743995E+03 -0.79323592223E+03  0.80720160946E+03  0.13287692808E+04  0.10100000352E+00 0.  1.
       -3    1    3    3    0  502 -0.69629743995E+03  0.79323592223E+03 -0.11137332749E+03  0.10613469656E+04  0.10100000352E+00 0. -1.
</event>
<event>
 5   0  0.1116310E-05  0.2631969E+04  0.7818609E-02  0.8357422E-01
       -2   -1    0    0    0  501  0.00000000000E+00  0.00000000000E+00  0.92030758712E+03  0.92030758712E+03  0.25500000920E-02 0.  1.
        2   -1    0    0  501    0  0.00000000000E+00  0.00000000000E+00 -0.18817786852E+04  0.18817786852E+04  0.25500000920E-02 0. -1.
    10030    2    1    2    0    0  0.00000000000E+00  0.00000000000E+00 -0.96147109810E+03  0.28020862723E+04  0.26319689978E+04 0.  0.
        4    1    3    3  502    0  0.69763603551E+03  0.95711893597E+03  0.12996128778E+03  0.11914966407E+04  0.12699999809E+01 0.  1.
       -4    1    3    3    0  502 -0.69763603551E+03 -0.95711893597E+03 -0.10914323859E+04  0.16105896316E+04  0.12699999809E+01 0. -1.
</event>
<event>
 5   0  0.4415080E-06  0.2621914E+04  0.7818609E-02  0.8360796E-01
        1   -1    0    0  501    0  0.00000000000E+00  0.00000000000E+00  0.15931336684E+04  0.15931336684E+04  0.50400001928E-02 0. -1.
       -1   -1    0    0    0  501  0.00000000000E+00  0.00000000000E+00 -0.10787593303E+04  0.10787593303E+04  0.50400001928E-02 0.  1.
    10030    2    1    2    0    0  0.00000000000E+00  0.00000000000E+00  0.51437433809E+03  0.26718929987E+04  0.26219136593E+04 0.  0.
        2    1    3    3  502    0 -0.27827005039E+03  0.12763503625E+04  0.14507485945E+03  0.13143634139E+04  0.25500000920E-02 0. -1.
       -2    1    3    3    0  502  0.27827005039E+03 -0.12763503625E+04  0.36929947864E+03  0.13575295849E+04  0.25500000920E-02 0.  1.
</event>
<event>
 5   0  0.4464297E-06  0.2578477E+04  0.7818609E-02  0.8375549E-01
       -1   -1    0    0    0  501  0.00000000000E+00  0.00000000000E+00  0.95494628830E+03  0.95494628831E+03  0.50400001928E-02 0. -1.
        1   -1    0    0  501    0  0.00000000000E+00  0.00000000000E+00 -0.17405541977E+04  0.17405541977E+04  0.50400001928E-02 0.  1.
    10030    2    1    2    0    0  0.00000000000E+00  0.00000000000E+00 -0.78560790936E+03  0.26955004860E+04  0.25784768920E+04 0.  0.
        4    1    3    3  502    0  0.18610601496E+03  0.22984947601E+03  0.91900521323E+03  0.96542137187E+03  0.12699999809E+01 0. -1.
       -4    1    3    3    0  502 -0.18610601496E+03 -0.22984947601E+03 -0.17046131226E+04  0.17300791141E+04  0.12699999809E+01 0.  1.
</event>
<event>
 5   0  0.1116310E-05  0.2597471E+04  0.7818609E-02  0.8369061E-01
       -2   -1    0    0    0  501  0.00000000000E+00  0.00000000000E+00  0.10015251864E+04  0.10015251864E+04  0.25500000920E-02 0.  1.
        2   -1    0    0  501    0  0.00000000000E+00  0.00000000000E+00 -0.16841454685E+04  0.16841454685E+04  0.25500000920E-02 0. -1.
    10030    2    1    2    0    0  0.00000000000E+00  0.00000000000E+00 -0.68262028203E+03  0.26856706549E+04  0.25974711581E+04 0.  0.
        4    1    3    3  502    0  0.90033871629E+03  0.39794366919E+02  0.62560123182E+03  0.10970742499E+04  0.12699999809E+01 0.  1.
       -4    1    3    3    0  502 -0.90033871629E+03 -0.39794366919E+02 -0.13082215138E+04  0.15885964050E+04  0.12699999809E+01 0. -1.
</event>
<event>
 5   0  0.1085255E-05  0.2614599E+04  0.7818609E-02  0.8363259E-01
        2   -1    0    0  501    0  0.00000000000E+00  0.00000000000E+00  0.23542709753E+04  0.23542709753E+04  0.25500000920E-02 0.  1.
       -2   -1    0    0    0  501  0.00000000000E+00  0.00000000000E+00 -0.72592857558E+03  0.72592857558E+03  0.25500000920E-02 0. -1.
    10030    2    1    2    0    0  0.00000000000E+00  0.00000000000E+00  0.16283423997E+04  0.30801995509E+04  0.26145994536E+04 0.  0.
        5    1    3    3  502    0  0.96171142017E+03 -0.31788980233E+03  0.17878272414E+04  0.20548214319E+04  0.46999998093E+01 0.  1.
       -5    1    3    3    0  502 -0.96171142017E+03  0.31788980233E+03 -0.15948484166E+03  0.10253781189E+04  0.46999998093E+01 0. -1.
</event>
<event>
 5   0  0.4464297E-06  0.2608253E+04  0.7818609E-02  0.8365403E-01
       -1   -1    0    0    0  501  0.00000000000E+00  0.00000000000E+00  0.12423630034E+04  0.12423630034E+04  0.50400001928E-02 0. -1.
        1   -1    0    0  501    0  0.00000000000E+00  0.00000000000E+00 -0.13689608824E+04  0.13689608824E+04  0.50400001928E-02 0.  1.
    10030    2    1    2    0    0  0.00000000000E+00  0.00000000000E+00 -0.12659787902E+03  0.26113238858E+04  0.26082533262E+04 0.  0.
        4    1    3    3  502    0  0.60750643800E+03 -0.90092648209E+03  0.65866866975E+03  0.12706607052E+04  0.12699999809E+01 0.  1.
       -4    1    3    3    0  502 -0.60750643800E+03  0.90092648209E+03 -0.78526654877E+03  0.13406631806E+04  0.12699999809E+01 0. -1.
</event>
<event>
 5   0  0.1116310E-05  0.2602797E+04  0.7818609E-02  0.8367252E-01
        2   -1    0    0  501    0  0.00000000000E+00  0.00000000000E+00  0.21203963524E+04  0.21203963524E+04  0.25500000920E-02 0.  1.
       -2   -1    0    0    0  501  0.00000000000E+00  0.00000000000E+00 -0.79873638929E+03  0.79873638929E+03  0.25500000920E-02 0. -1.
    10030    2    1    2    0    0  0.00000000000E+00  0.00000000000E+00  0.13216599631E+04  0.29191327417E+04  0.26027967469E+04 0.  0.
        4    1    3    3  502    0 -0.15275676045E+03 -0.12135930756E+04  0.11592434940E+04  0.16852269498E+04  0.12699999809E+01 0. -1.
       -4    1    3    3    0  502  0.15275676045E+03  0.12135930756E+04  0.16241646912E+03  0.12339057919E+04  0.12699999809E+01 0.  1.
</event>
<event>
 5   0  0.1136881E-05  0.2600775E+04  0.7818609E-02  0.8367938E-01
       -2   -1    0    0    0  501  0.00000000000E+00  0.00000000000E+00  0.12433831758E+04  0.12433831758E+04  0.25500000920E-02 0. -1.
        2   -1    0    0  501    0  0.00000000000E+00  0.00000000000E+00 -0.13600053385E+04  0.13600053385E+04  0.25500000920E-02 0.  1.
    10030    2    1    2    0    0  0.00000000000E+00  0.00000000000E+00 -0.11662216266E+03  0.26033885143E+04  0.26007750820E+04 0.  0.
        3    1    3    3  502    0  0.10260517445E+04  0.23418529549E+03 -0.82287359981E+03  0.13359438261E+04  0.10100000352E+00 0.  1.
       -3    1    3    3    0  502 -0.10260517445E+04 -0.23418529549E+03  0.70625143716E+03  0.12674446882E+04  0.10100000352E+00 0. -1.
</event>
<event>
 5   0  0.4597705E-06  0.2597237E+04  0.7818609E-02  0.8369140E-01
       -1   -1    0    0    0  501  0.00000000000E+00  0.00000000000E+00  0.14666537279E+04  0.14666537279E+04  0.50400001928E-02 0.  1.
        1   -1    0    0  501    0  0.00000000000E+00  0.00000000000E+00 -0.11498347885E+04  0.11498347885E+04  0.50400001928E-02 0. -1.
    10030    2    1    2    0    0  0.00000000000E+00  0.00000000000E+00  0.31681893936E+03  0.26164885164E+04  0.25972365923E+04 0.  0.
        5    1    3    3  502    0 -0.43260152763E+03 -0.10729037361E+04  0.75280064986E+03  0.13802164385E+04  0.46999998093E+01 0.  1.
       -5    1    3    3    0  502  0.43260152763E+03  0.10729037361E+04 -0.43598171050E+03  0.12362720779E+04  0.46999998093E+01 0. -1.
</event>
<event>
 5   0  0.1086507E-05  0.2587923E+04  0.7818609E-02  0.8372315E-01
       -2   -1    0    0    0  501  0.00000000000E+00  0.00000000000E+00  0.11991880252E+04  0.11991880252E+04  0.25500000920E-02 0. -1.
        2   -1    0    0  501    0  0.00000000000E+00  0.00000000000E+00 -0.13962246442E+04  0.13962246442E+04  0.25500000920E-02 0.  1.
    10030    2    1    2    0    0  0.00000000000E+00  0.00000000000E+00 -0.19703661901E+03  0.25954126694E+04  0.25879226216E+04 0.  0.
        2    1    3    3  502    0  0.10747847072E+04 -0.52865974317E+03 -0.58951937112E+03  0.13349817901E+04  0.25500000920E-02 0.  1.
       -2    1    3    3    0  502 -0.10747847072E+04  0.52865974317E+03  0.39248275212E+03  0.12604308793E+04  0.25500000920E-02 0. -1.
</event>
<event>
 5   0  0.3705250E-06  0.2587082E+04  0.7818609E-02  0.8372602E-01
        3   -1    0    0  501    0  0.00000000000E+00  0.00000000000E+00  0.10452918394E+04  0.10452918443E+04  0.10100000352E+00 0. -1.
       -3   -1    0    0    0  501  0.00000000000E+00  0.00000000000E+00 -0.16007477552E+04  0.16007477584E+04  0.10100000352E+00 0.  1.
    10030    2    1    2    0    0  0.00000000000E+00  0.00000000000E+00 -0.55545591575E+03  0.26460396027E+04  0.25870821990E+04 0.  0.
        4    1    3    3  502    0  0.41142650325E+02 -0.65124410715E+03  0.86461139213E+03  0.10832202348E+04  0.12699999809E+01 0. -1.
       -4    1    3    3    0  502 -0.41142650325E+02  0.65124410715E+03 -0.14200673079E+04  0.15628193679E+04  0.12699999809E+01 0.  1.
</event>
<event>
 5   0  0.1086507E-05  0.2587860E+04  0.7818609E-02  0.8372336E-01
        2   -1    0    0  501    0  0.00000000000E+00  0.00000000000E+00  0.85497971649E+03  0.85497971650E+03  0.25500000920E-02 0.  1.
       -2   -1    0    0    0  501  0.00000000000E+00  0.00000000000E+00 -0.19582399401E+04  0.19582399401E+04  0.25500000920E-02 0. -1.
    10030    2    1    2    0    0  0.00000000000E+00  0.00000000000E+00 -0.11032602236E+04  0.28132196566E+04  0.25878604513E+04 0.  0.
        2    1    3    3  502    0  0.10931553600E+03 -0.12488454156E+03 -0.19466206797E+04  0.19536832153E+04  0.25500000920E-02 0. -1.
       -2    1    3    3    0  502 -0.10931553600E+03  0.12488454156E+03  0.84336045605E+03  0.85953644133E+03  0.25500000920E-02 0.  1.
</event>
<event>
 5   0  0.4361864E-06  0.2593573E+04  0.7818609E-02  0.8370388E-01
       -1   -1    0    0    0  501  0.00000000000E+00  0.00000000000E+00  0.93538495166E+03  0.93538495168E+03  0.50400001928E-02 0. -1.
        1   -1    0    0  501    0  0.00000000000E+00  0.00000000000E+00 -0.17978209866E+04  0.17978209866E+04  0.50400001928E-02 0.  1.
    10030    2    1    2    0    0  0.00000000000E+00  0.00000000000E+00 -0.86243603495E+03  0.27332059383E+04  0.25935725914E+04 0.  0.
        3    1    3    3  502    0  0.46473416182E+03 -0.11296232184E+03  0.83904675597E+03  0.96578351417E+03  0.10100000352E+00 0. -1.
       -3    1    3    3    0  502 -0.46473416182E+03  0.11296232184E+03 -0.17014827909E+04  0.17674224241E+04  0.10100000352E+00 0.  1.
</event>
<event>
 5   0  0.1136881E-05  0.2609324E+04  0.7818609E-02  0.8365041E-01
        2   -1    0    0  501    0  0.00000000000E+00  0.00000000000E+00  0.21072967516E+04  0.21072967516E+04  0.25500000920E-02 0. -1.
       -2   -1    0    0    0  501  0.00000000000E+00  0.00000000000E+00 -0.80773768072E+03  0.80773768073E+03  0.25500000920E-02 0.  1.
    10030    2    1    2    0    0  0.00000000000E+00  0.00000000000E+00  0.12995590709E+04  0.29150344323E+04  0.26093240433E+04 0.  0.
        3    1    3    3  502    0 -0.12488301273E+04  0.83620044060E+02  0.23843678400E+03  0.12741354358E+04  0.10100000352E+00 0.  1.
       -3    1    3    3    0  502  0.12488301273E+04 -0.83620044060E+02  0.10611222868E+04  0.16408989965E+04  0.10100000352E+00 0. -1.
</event>
<event>
 5   0  0.4464297E-06  0.2604225E+04  0.7818609E-02  0.8366767E-01
        1   -1    0    0  501    0  0.00000000000E+00  0.00000000000E+00  0.13774304046E+04  0.13774304046E+04  0.50400001928E-02 0. -1.
       -1   -1    0    0    0  501  0.00000000000E+00  0.00000000000E+00 -0.12309131280E+04  0.12309131280E+04  0.50400001928E-02 0.  1.
    10030    2    1    2    0    0  0.00000000000E+00  0.00000000000E+00  0.14651727658E+03  0.26083435326E+04  0.26042251576E+04 0.  0.
        4    1    3    3  502    0 -0.11209951358E+04 -0.13494908898E+03  0.72286291652E+03  0.13406616874E+04  0.12699999809E+01 0. -1.
       -4    1    3    3    0  502  0.11209951358E+04  0.13494908898E+03 -0.57634563994E+03  0.12676818452E+04  0.12699999809E+01 0.  1.
</event>
<event>
 5   0  0.4218590E-06  0.2615517E+04  0.7818609E-02  0.8362950E-01
       -1   -1    0    0    0  501  0.00000000000E+00  0.00000000000E+00  0.10393223434E+04  0.10393223434E+04  0.50400001928E-02 0.  1.
        1   -1    0    0  501    0  0.00000000000E+00  0.00000000000E+00 -0.16455259978E+04  0.16455259978E+04  0.50400001928E-02 0. -1.
    10030    2    1    2    0    0  0.00000000000E+00  0.00000000000E+00 -0.60620365433E+03  0.26848483412E+04  0.26155167261E+04 0.  0.
        1    1    3    3  502    0 -0.23190211861E+03 -0.12818186245E+04 -0.42190367634E+03  0.13692480750E+04  0.50400001928E-02 0. -1.
       -1    1    3    3    0  502  0.23190211861E+03  0.12818186245E+04 -0.18429997798E+03  0.13156002662E+04  0.50400001928E-02 0.  1.
</event>
<event>
 5   0  0.1086507E-05  0.2610897E+04  0.7818609E-02  0.8364509E-01
        2   -1    0    0  501    0  0.00000000000E+00  0.00000000000E+00  0.17988782398E+04  0.17988782398E+04  0.25500000920E-02 0. -1.
       -2   -1    0    0    0  501  0.00000000000E+00  0.00000000000E+00 -0.94736584399E+03  0.94736584399E+03  0.25500000920E-02 0.  1.
    10030    2    1    2    0    0  0.00000000000E+00  0.00000000000E+00  0.85151239583E+03  0.27462440838E+04  0.26108970121E+04 0.  0.
        2    1    3    3  502    0  0.67267157366E+03 -0.96632890923E+03  0.10188268070E+04  0.15570120968E+04  0.25500000920E-02 0. -1.
       -2    1    3    3    0  502 -0.67267157366E+03  0.96632890923E+03 -0.16731441114E+03  0.11892319870E+04  0.25500000920E-02 0.  1.
</event>
<event>
 5   0  0.4361864E-06  0.2613045E+04  0.7818609E-02  0.8363784E-01
       -1   -1    0    0    0  501  0.00000000000E+00  0.00000000000E+00  0.13326240346E+04  0.13326240346E+04  0.50400001928E-02 0.  1.
        1   -1    0    0  501    0  0.00000000000E+00  0.00000000000E+00 -0.12809320740E+04  0.12809320740E+04  0.50400001928E-02 0. -1.
    10030    2    1    2    0    0  0.00000000000E+00  0.00000000000E+00  0.51691960617E+02  0.26135561087E+04  0.26130448665E+04 0.  0.
        3    1    3    3  502    0  0.10233500689E+04  0.79923970501E+03 -0.11899736862E+03  0.13039132845E+04  0.10100000352E+00 0.  1.
       -3    1    3    3    0  502 -0.10233500689E+04 -0.79923970501E+03  0.17068932924E+03  0.13096428242E+04  0.10100000352E+00 0. -1.
</event>
<event>
 5   0  0.1116310E-05  0.2607397E+04  0.7818609E-02  0.8365693E-01
        2   -1    0    0  501    0  0.00000000000E+00  0.00000000000E+00  0.21376978858E+04  0.21376978858E+04  0.25500000920E-02 0.  1.
       -2   -1    0    0    0  501  0.00000000000E+00  0.00000000000E+00 -0.79507503860E+03  0.79507503860E+03  0.25500000920E-02 0. -1.
    10030    2    1    2    0    0  0.00000000000E+00  0.00000000000E+00  0.13426228472E+04  0.29327729245E+04  0.26073973453E+04 0.  0.
        4    1    3    3  502    0  0.33394575052E+03  0.12170811421E+04  0.30368876292E+03  0.12980888831E+04  0.12699999809E+01 0. -1.
       -4    1    3    3    0  502 -0.33394575052E+03 -0.12170811421E+04  0.10389340843E+04  0.16346840414E+04  0.12699999809E+01 0.  1.
</event>
<event>
 5   0  0.1136881E-05  0.2606088E+04  0.7818609E-02  0.8366136E-01
        2   -1    0    0  501    0  0.00000000000E+00  0.00000000000E+00  0.16746967020E+04  0.16746967020E+04  0.25500000920E-02 0. -1.
       -2   -1    0    0    0  501  0.00000000000E+00  0.00000000000E+00 -0.10138690569E+04  0.10138690569E+04  0.25500000920E-02 0.  1.
    10030    2    1    2    0    0  0.00000000000E+00  0.00000000000E+00  0.66082764514E+03  0.26885657590E+04  0.26060876163E+04 0.  0.
        3    1    3    3  502    0 -0.61119752865E+03  0.11472720991E+04  0.42341945821E+03  0.13671429100E+04  0.10100000352E+00 0.  1.
       -3    1    3    3    0  502  0.61119752865E+03 -0.11472720991E+04  0.23740818693E+03  0.13214228490E+04  0.10100000352E+00 0. -1.
</event>
<event>
 5   0  0.1085255E-05  0.2614988E+04  0.7818609E-02  0.8363128E-01
        2   -1    0    0  501    0  0.00000000000E+00  0.00000000000E+00  0.24204507929E+04  0.24204507929E+04  0.25500000920E-02 0. -1.
       -2   -1    0    0    0  501  0.00000000000E+00  0.00000000000E+00 -0.70629024487E+03  0.70629024487E+03  0.25500000920E-02 0.  1.
    10030    2    1    2    0    0  0.00000000000E+00  0.00000000000E+00  0.17141605481E+04  0.31267410378E+04  0.26149881707E+04 0.  0.
        5    1    3    3  502    0  0.60391300946E+03  0.99333901970E+03  0.15725898809E+04  0.19556314465E+04  0.46999998093E+01 0.  1.
       -5    1    3    3    0  502 -0.60391300946E+03 -0.99333901970E+03  0.14157066717E+03  0.11711095913E+04  0.46999998093E+01 0. -1.
</event>
<event>
 5   0  0.4464297E-06  0.2597568E+04  0.7818609E-02  0.8369028E-01
       -1   -1    0    0    0  501  0.00000000000E+00  0.00000000000E+00  0.10245053355E+04  0.10245053355E+04  0.50400001928E-02 0. -1.
        1   -1    0    0  501    0  0.00000000000E+00  0.00000000000E+00 -0.16464926107E+04  0.16464926107E+04  0.50400001928E-02 0.  1.
    10030    2    1    2    0    0  0.00000000000E+00  0.00000000000E+00 -0.62198727525E+03  0.26709979462E+04  0.25975684511E+04 0.  0.
        4    1    3    3  502    0  0.85944770603E+03 -0.96868094840E+03 -0.20896311150E+03  0.13117394307E+04  0.12699999809E+01 0. -1.
       -4    1    3    3    0  502 -0.85944770603E+03  0.96868094840E+03 -0.41302416375E+03  0.13592585155E+04  0.12699999809E+01 0.  1.
</event>
<event>
 5   0  0.4361864E-06  0.2558809E+04  0.7818609E-02  0.8382329E-01
        1   -1    0    0  501    0  0.00000000000E+00  0.00000000000E+00  0.10560348285E+04  0.10560348285E+04  0.50400001928E-02 0.  1.
       -1   -1    0    0    0  501  0.00000000000E+00  0.00000000000E+00 -0.15500208106E+04  0.15500208106E+04  0.50400001928E-02 0. -1.
    10030    2    1    2    0    0  0.00000000000E+00  0.00000000000E+00 -0.49398598211E+03  0.26060556391E+04  0.25588090674E+04 0.  0.
        3    1    3    3  502    0  0.77085052988E+03  0.13121002410E+03  0.78434949239E+03  0.11075336321E+04  0.10100000352E+00 0.  1.
       -3    1    3    3    0  502 -0.77085052988E+03 -0.13121002410E+03 -0.12783354745E+04  0.14985220070E+04  0.10100000352E+00 0. -1.
</event>
<event>
 5   0  0.4597705E-06  0.2582163E+04  0.7818609E-02  0.8374285E-01
        1   -1    0    0  501    0  0.00000000000E+00  0.00000000000E+00  0.15691398014E+04  0.15691398014E+04  0.50400001928E-02 0. -1.
       -1   -1    0    0    0  501  0.00000000000E+00  0.00000000000E+00 -0.10622966641E+04  0.10622966641E+04  0.50400001928E-02 0.  1.
    10030    2    1    2    0    0  0.00000000000E+00  0.00000000000E+00  0.50684313736E+03  0.26314364655E+04  0.25821634159E+04 0.  0.
        5    1    3    3  502    0 -0.11321092822E+04 -0.12136990469E+03  0.87369674607E+03  0.14351899438E+04  0.46999998093E+01 0. -1.
       -5    1    3    3    0  502  0.11321092822E+04  0.12136990469E+03 -0.36685360871E+03  0.11962465218E+04  0.46999998093E+01 0.  1.
</event>
<event>
 5   0  0.1116310E-05  0.2594442E+04  0.7818609E-02  0.8370092E-01
        2   -1    0    0  501    0  0.00000000000E+00  0.00000000000E+00  0.12845602701E+04  0.12845602702E+04  0.25500000920E-02 0.  1.
       -2   -1    0    0    0  501  0.00000000000E+00  0.00000000000E+00 -0.13100065307E+04  0.13100065307E+04  0.25500000920E-02 0. -1.
    10030    2    1    2    0    0  0.00000000000E+00  0.00000000000E+00 -0.25446260539E+02  0.25945668008E+04  0.25944420155E+04 0.  0.
        4    1    3    3  502    0  0.11691214457E+04  0.32371597310E+03 -0.47224903306E+03  0.13017902090E+04  0.12699999809E+01 0.  1.
       -4    1    3    3    0  502 -0.11691214457E+04 -0.32371597310E+03  0.44680277253E+03  0.12927765919E+04  0.12699999809E+01 0. -1.
</event>
<event>
 5   0  0.1085061E-05  0.2596696E+04  0.7818609E-02  0.8369324E-01
        2   -1    0    0  501    0  0.00000000000E+00  0.00000000000E+00  0.15891858621E+04  0.15891858621E+04  0.25500000920E-02 0. -1.
       -2   -1    0    0    0  501  0.00000000000E+00  0.00000000000E+00 -0.10607363023E+04  0.10607363023E+04  0.25500000920E-02 0.  1.
    10030    2    1    2    0    0  0.00000000000E+00  0.00000000000E+00  0.52844955985E+03  0.26499221644E+04  0.25966956965E+04 0.  0.
        1    1    3    3  502    0 -0.11632623114E+04  0.15265050784E+03 -0.30325434048E+03  0.12117939502E+04  0.50400001928E-02 0.  1.
       -1    1    3    3    0  502  0.11632623114E+04 -0.15265050784E+03  0.83170390033E+03  0.14381282142E+04  0.50400001928E-02 0. -1.
</event>
<event>
 5   0  0.1085255E-05  0.2599415E+04  0.7818609E-02  0.8368400E-01
        2   -1    0    0  501    0  0.00000000000E+00  0.00000000000E+00  0.13557621885E+04  0.13557621885E+04  0.25500000920E-02 0.  1.
       -2   -1    0    0    0  501  0.00000000000E+00  0.00000000000E+00 -0.12459700627E+04  0.12459700627E+04  0.25500000920E-02 0. -1.
    10030    2    1    2    0    0  0.00000000000E+00  0.00000000000E+00  0.10979212575E+03  0.26017322512E+04  0.25994146256E+04 0.  0.
        5    1    3    3  502    0 -0.10621544824E+04  0.69672018146E+03  0.33014280450E+03  0.13124814349E+04  0.46999998093E+01 0.  1.
       -5    1    3    3    0  502  0.10621544824E+04 -0.69672018146E+03 -0.22035067874E+03  0.12892508163E+04  0.46999998093E+01 0. -1.
</event>
<event>
 5   0  0.1116310E-05  0.2599915E+04  0.7818609E-02  0.8368230E-01
        2   -1    0    0  501    0  0.00000000000E+00  0.00000000000E+00  0.24534380027E+04  0.24534380027E+04  0.25500000920E-02 0. -1.
       -2   -1    0    0    0  501  0.00000000000E+00  0.00000000000E+00 -0.68878418118E+03  0.68878418118E+03  0.25500000920E-02 0.  1.
    10030    2    1    2    0    0  0.00000000000E+00  0.00000000000E+00  0.17646538216E+04  0.31422221839E+04  0.25999148338E+04 0.  0.
        4    1    3    3  502    0  0.10024335526E+04  0.52348380919E+03  0.10753020170E+03  0.11359897372E+04  0.12699999809E+01 0.  1.
       -4    1    3    3    0  502 -0.10024335526E+04 -0.52348380919E+03  0.16571236199E+04  0.20062324467E+04  0.12699999809E+01 0. -1.
</event>
<event>
 5   0  0.1086507E-05  0.2598346E+04  0.7818609E-02  0.8368763E-01
        2   -1    0    0  501    0  0.00000000000E+00  0.00000000000E+00  0.18362752519E+04  0.18362752519E+04  0.25500000920E-02 0.  1.
       -2   -1    0    0    0  501  0.00000000000E+00  0.00000000000E+00 -0.91917086467E+03  0.91917086467E+03  0.25500000920E-02 0. -1.
    10030    2    1    2    0    0  0.00000000000E+00  0.00000000000E+00  0.91710438721E+03  0.27554461166E+04  0.25983461748E+04 0.  0.
        2    1    3    3  502    0  0.41478950205E+03  0.25949244048E+03  0.17348404478E+04  0.18025143653E+04  0.25500000920E-02 0.  1.
       -2    1    3    3    0  502 -0.41478950205E+03 -0.25949244048E+03 -0.81773606063E+03  0.95293175125E+03  0.25500000920E-02 0. -1.
</event>
<event>
 5   0  0.1085255E-05  0.2594506E+04  0.7818609E-02  0.8370070E-01
        2   -1    0    0  501    0  0.00000000000E+00  0.00000000000E+00  0.17172202538E+04  0.17172202538E+04  0.25500000920E-02 0.  1.
       -2   -1    0    0    0  501  0.00000000000E+00  0.00000000000E+00 -0.97999355622E+03  0.97999355623E+03  0.25500000920E-02 0. -1.
    10030    2    1    2    0    0  0.00000000000E+00  0.00000000000E+00  0.73722669762E+03  0.26972138101E+04  0.25945055663E+04 0.  0.
        5    1    3    3  502    0  0.12119046431E+04  0.41514974612E+03  0.58110784033E+03  0.14066878075E+04  0.46999998093E+01 0.  1.
       -5    1    3    3    0  502 -0.12119046431E+04 -0.41514974612E+03  0.15611885729E+03  0.12905260026E+04  0.46999998093E+01 0. -1.
</event>
<event>
 5   0  0.1085255E-05  0.2525036E+04  0.7818609E-02  0.8394120E-01
        2   -1    0    0  501    0  0.00000000000E+00  0.00000000000E+00  0.10752832161E+04  0.10752832161E+04  0.25500000920E-02 0. -1.
       -2   -1    0    0    0  501  0.00000000000E+00  0.00000000000E+00 -0.14823549504E+04  0.14823549504E+04  0.25500000920E-02 0.  1.
    10030    2    1    2    0    0  0.00000000000E+00  0.00000000000E+00 -0.40707173432E+03  0.25576381666E+04  0.25250357610E+04 0.  0.
        5    1    3    3  502    0 -0.17825089177E+03  0.11810842360E+04 -0.61771141437E+03  0.13447389466E+04  0.46999998093E+01 0. -1.
       -5    1    3    3    0  502  0.17825089177E+03 -0.11810842360E+04  0.21063968005E+03  0.12128992200E+04  0.46999998093E+01 0.  1.
</event>
<event>
 5   0  0.4415080E-06  0.2598128E+04  0.7818609E-02  0.8368837E-01
       -1   -1    0    0    0  501  0.00000000000E+00  0.00000000000E+00  0.15784500655E+04  0.15784500655E+04  0.50400001928E-02 0.  1.
        1   -1    0    0  501    0  0.00000000000E+00  0.00000000000E+00 -0.10691293850E+04  0.10691293850E+04  0.50400001928E-02 0. -1.
    10030    2    1    2    0    0  0.00000000000E+00  0.00000000000E+00  0.50932068054E+03  0.26475794505E+04  0.25981280552E+04 0.  0.
        2    1    3    3  502    0 -0.38924072842E+03 -0.19529677989E+03  0.15018499773E+04  0.15637143381E+04  0.25500000920E-02 0.  1.
       -2    1    3    3    0  502  0.38924072842E+03  0.19529677989E+03 -0.99252929678E+03  0.10838651124E+04  0.25500000920E-02 0. -1.
</event>
<event>
 5   0  0.4415080E-06  0.2602792E+04  0.7818609E-02  0.8367253E-01
       -1   -1    0    0    0  501  0.00000000000E+00  0.00000000000E+00  0.11110999529E+04  0.11110999529E+04  0.50400001928E-02 0.  1.
        1   -1    0    0  501    0  0.00000000000E+00  0.00000000000E+00 -0.15242841049E+04  0.15242841049E+04  0.50400001928E-02 0. -1.
    10030    2    1    2    0    0  0.00000000000E+00  0.00000000000E+00 -0.41318415201E+03  0.26353840578E+04  0.26027923445E+04 0.  0.
        2    1    3    3  502    0 -0.11708485465E+03 -0.12267206303E+04  0.21707254892E+03  0.12512685001E+04  0.25500000920E-02 0.  1.
       -2    1    3    3    0  502  0.11708485465E+03  0.12267206303E+04 -0.63025670093E+03  0.13841155577E+04  0.25500000920E-02 0. -1.
</event>
<event>
 5   0  0.4415080E-06  0.2636736E+04  0.7818609E-02  0.8355829E-01
        1   -1    0    0  501    0  0.00000000000E+00  0.00000000000E+00  0.14362696526E+04  0.14362696526E+04  0.50400001928E-02 0. -1.
       -1   -1    0    0    0  501  0.00000000000E+00  0.00000000000E+00 -0.12101450547E+04  0.12101450548E+04  0.50400001928E-02 0.  1.
    10030    2    1    2    0    0  0.00000000000E+00  0.00000000000E+00  0.22612459785E+03  0.26464147074E+04  0.26367363292E+04 0.  0.
        2    1    3    3  502    0 -0.11163443579E+04 -0.52524194544E+03  0.57951629256E+03  0.13630638136E+04  0.25500000920E-02 0. -1.
       -2    1    3    3    0  502  0.11163443579E+04  0.52524194544E+03 -0.35339169470E+03  0.12833508938E+04  0.25500000920E-02 0.  1.
</event>
<event>
 5   0  0.4597705E-06  0.2599585E+04  0.7818609E-02  0.8368342E-01
       -1   -1    0    0    0  501  0.00000000000E+00  0.00000000000E+00  0.11230638182E+04  0.11230638182E+04  0.50400001928E-02 0.  1.
        1   -1    0    0  501    0  0.00000000000E+00  0.00000000000E+00 -0.15043322497E+04  0.15043322497E+04  0.50400001928E-02 0. -1.
    10030    2    1    2    0    0  0.00000000000E+00  0.00000000000E+00 -0.38126843150E+03  0.26273960679E+04  0.25995854440E+04 0.  0.
        5    1    3    3  502    0  0.11502418711E+04  0.15053744325E+03 -0.78318363240E+03  0.13996844558E+04  0.46999998093E+01 0. -1.
       -5    1    3    3    0  502 -0.11502418711E+04 -0.15053744325E+03  0.40191520090E+03  0.12277116121E+04  0.46999998093E+01 0.  1.
</event>
<event>
 5   0  0.1136881E-05  0.2621859E+04  0.7818609E-02  0.8360814E-01
        2   -1    0    0  501    0  0.00000000000E+00  0.00000000000E+00  0.28583588724E+04  0.28583588724E+04  0.25500000920E-02 0. -1.
       -2   -1    0    0    0  501  0.00000000000E+00  0.00000000000E+00 -0.60123182913E+03  0.60123182914E+03  0.25500000920E-02 0.  1.
    10030    2    1    2    0    0  0.00000000000E+00  0.00000000000E+00  0.22571270432E+04  0.34595907015E+04  0.26218591367E+04 0.  0.
        3    1    3    3  502    0 -0.11540737750E+03 -0.17038861767E+03 -0.57978456054E+03  0.61522458554E+03  0.10100000352E+00 0.  1.
       -3    1    3    3    0  502  0.11540737750E+03  0.17038861767E+03  0.28369116038E+04  0.28443661160E+04  0.10100000352E+00 0. -1.
</event>
<event>
 5   0  0.4218590E-06  0.2565266E+04  0.7818609E-02  0.8380096E-01
        1   -1    0    0  501    0  0.00000000000E+00  0.00000000000E+00  0.12085430171E+04  0.12085430171E+04  0.50400001928E-02 0. -1.
       -1   -1    0    0    0  501  0.00000000000E+00  0.00000000000E+00 -0.13612654490E+04  0.13612654490E+04  0.50400001928E-02 0.  1.
    10030    2    1    2    0    0  0.00000000000E+00  0.00000000000E+00 -0.15272243190E+03  0.25698084661E+04  0.25652663431E+04 0.  0.
        1    1    3    3  502    0  0.91595115498E+03  0.58306836883E+02  0.82120605920E+03  0.12315622588E+04  0.50400001928E-02 0. -1.
       -1    1    3    3    0  502 -0.91595115498E+03 -0.58306836883E+02 -0.97392849110E+03  0.13382462073E+04  0.50400001928E-02 0.  1.
</event>
<event>
 5   0  0.4415080E-06  0.2498473E+04  0.7818609E-02  0.8403530E-01
       -1   -1    0    0    0  501  0.00000000000E+00  0.00000000000E+00  0.96107147876E+03  0.96107147877E+03  0.50400001928E-02 0. -1.
        1   -1    0    0  501    0  0.00000000000E+00  0.00000000000E+00 -0.16238037173E+04  0.16238037174E+04  0.50400001928E-02 0.  1.
    10030    2    1    2    0    0  0.00000000000E+00  0.00000000000E+00 -0.66273223859E+03  0.25848751961E+04  0.24984726854E+04 0.  0.
        2    1    3    3  502    0  0.87839054286E+03  0.33702648498E+03  0.51890345563E+03  0.10744382689E+04  0.25500000920E-02 0. -1.
       -2    1    3    3    0  502 -0.87839054286E+03 -0.33702648498E+03 -0.11816356942E+04  0.15104369273E+04  0.25500000920E-02 0.  1.
</event>
<event>
 5   0  0.4597705E-06  0.2596656E+04  0.7818609E-02  0.8369338E-01
        1   -1    0    0  501    0  0.00000000000E+00  0.00000000000E+00  0.16059127009E+04  0.16059127009E+04  0.50400001928E-02 0.  1.
       -1   -1    0    0    0  501  0.00000000000E+00  0.00000000000E+00 -0.10496554754E+04  0.10496554754E+04  0.50400001928E-02 0. -1.
    10030    2    1    2    0    0  0.00000000000E+00  0.00000000000E+00  0.55625722550E+03  0.26555681763E+04  0.25966555871E+04 0.  0.
        5    1    3    3  502    0  0.81328499952E+03  0.21131746040E+03  0.12903031146E+04  0.15398025123E+04  0.46999998093E+01 0.  1.
       -5    1    3    3    0  502 -0.81328499952E+03 -0.21131746040E+03 -0.73404588907E+03  0.11157656639E+04  0.46999998093E+01 0. -1.
</event>
<event>
 5   0  0.1086507E-05  0.2591209E+04  0.7818609E-02  0.8371193E-01
       -2   -1    0    0    0  501  0.00000000000E+00  0.00000000000E+00  0.11877255182E+04  0.11877255182E+04  0.25500000920E-02 0.  1.
        2   -1    0    0  501    0  0.00000000000E+00  0.00000000000E+00 -0.14132819908E+04  0.14132819908E+04  0.25500000920E-02 0. -1.
    10030    2    1    2    0    0  0.00000000000E+00  0.00000000000E+00 -0.22555647263E+03  0.26010075090E+04  0.25912090497E+04 0.  0.
        2    1    3    3  502    0 -0.32007867510E+03  0.57101533286E+03 -0.12350768919E+04  0.13978282432E+04  0.25500000920E-02 0. -1.
       -2    1    3    3    0  502  0.32007867510E+03 -0.57101533286E+03  0.10095204193E+04  0.12031792658E+04  0.25500000920E-02 0.  1.
</event>
<event>
 5   0  0.1116310E-05  0.2605007E+04  0.7818609E-02  0.8366502E-01
        2   -1    0    0  501    0  0.00000000000E+00  0.00000000000E+00  0.25246401896E+04  0.25246401896E+04  0.25500000920E-02 0. -1.
       -2   -1    0    0    0  501  0.00000000000E+00  0.00000000000E+00 -0.67198310235E+03  0.67198310235E+03  0.25500000920E-02 0.  1.
    10030    2    1    2    0    0  0.00000000000E+00  0.00000000000E+00  0.18526570872E+04  0.31966232919E+04  0.26050071377E+04 0.  0.
        4    1    3    3  502    0  0.11606208781E+03  0.33177770338E+03  0.24653417938E+04  0.24902728015E+04  0.12699999809E+01 0. -1.
       -4    1    3    3    0  502 -0.11606208781E+03 -0.33177770338E+03 -0.61268470660E+03  0.70635049041E+03  0.12699999809E+01 0.  1.
</event>
<event>
 5   0  0.4361864E-06  0.2603378E+04  0.7818609E-02  0.8367055E-01
        1   -1    0    0  501    0  0.00000000000E+00  0.00000000000E+00  0.21498588681E+04  0.21498588681E+04  0.50400001928E-02 0. -1.
       -1   -1    0    0    0  501  0.00000000000E+00  0.00000000000E+00 -0.78814236782E+03  0.78814236783E+03  0.50400001928E-02 0.  1.
    10030    2    1    2    0    0  0.00000000000E+00  0.00000000000E+00  0.13617165002E+04  0.29380012359E+04  0.26033784656E+04 0.  0.
        3    1    3    3  502    0  0.54425819327E+03 -0.32506010552E+03 -0.60215830301E+03  0.87434300204E+03  0.10100000352E+00 0.  1.
       -3    1    3    3    0  502 -0.54425819327E+03  0.32506010552E+03  0.19638748033E+04  0.20636582339E+04  0.10100000352E+00 0. -1.
</event>
<event>
 5   0  0.1086507E-05  0.2605414E+04  0.7818609E-02  0.8366365E-01
       -2   -1    0    0    0  501  0.00000000000E+00  0.00000000000E+00  0.10226218245E+04  0.10226218245E+04  0.25500000920E-02 0.  1.
        2   -1    0    0  501    0  0.00000000000E+00  0.00000000000E+00 -0.16595041462E+04  0.16595041462E+04  0.25500000920E-02 0. -1.
    10030    2    1    2    0    0  0.00000000000E+00  0.00000000000E+00 -0.63688232167E+03  0.26821259707E+04  0.26054137160E+04 0.  0.
        2    1    3    3  502    0 -0.62615562146E+03 -0.10977573366E+04  0.69397076593E+01  0.12637999018E+04  0.25500000920E-02 0.  1.
       -2    1    3    3    0  502  0.62615562146E+03  0.10977573366E+04 -0.64382202933E+03  0.14183260689E+04  0.25500000920E-02 0. -1.
</event>
<event>
 5   0  0.4597705E-06  0.2602433E+04  0.7818609E-02  0.8367375E-01
        1   -1    0    0  501    0  0.00000000000E+00  0.00000000000E+00  0.15679889963E+04  0.15679889963E+04  0.50400001928E-02 0. -1.
       -1   -1    0    0    0  501  0.00000000000E+00  0.00000000000E+00 -0.10798319673E+04  0.10798319674E+04  0.50400001928E-02 0.  1.
    10030    2    1    2    0    0  0.00000000000E+00  0.00000000000E+00  0.48815702895E+03  0.26478209637E+04  0.26024332020E+04 0.  0.
        5    1    3    3  502    0 -0.49866824592E+03 -0.12000224590E+04  0.17644641035E+03  0.13114417056E+04  0.46999998093E+01 0.  1.
       -5    1    3    3    0  502  0.49866824592E+03  0.12000224590E+04  0.31171061860E+03  0.13363792580E+04  0.46999998093E+01 0. -1.
</event>
<event>
 5   0  0.4464297E-06  0.2618480E+04  0.7818609E-02  0.8361951E-01
        1   -1    0    0  501    0  0.00000000000E+00  0.00000000000E+00  0.91328526044E+03  0.91328526046E+03  0.50400001928E-02 0. -1.
       -1   -1    0    0    0  501  0.00000000000E+00  0.00000000000E+00 -0.18768612023E+04  0.18768612023E+04  0.50400001928E-02 0.  1.
    10030    2    1    2    0    0  0.00000000000E+00  0.00000000000E+00 -0.96357594182E+03  0.27901464627E+04  0.26184802248E+04 0.  0.
        4    1    3    3  502    0 -0.30588641052E+03 -0.30712765858E+03  0.83460466075E+03  0.94045757344E+03  0.12699999809E+01 0. -1.
       -4    1    3    3    0  502  0.30588641052E+03  0.30712765858E+03 -0.17981806026E+04  0.18496888893E+04  0.12699999809E+01 0.  1.
</event>
<event>
 5   0  0.4415080E-06  0.2584976E+04  0.7818609E-02  0.8373322E-01
        1   -1    0    0  501    0  0.00000000000E+00  0.00000000000E+00  0.18600078494E+04  0.18600078494E+04  0.50400001928E-02 0.  1.
       -1   -1    0    0    0  501  0.00000000000E+00  0.00000000000E+00 -0.89812833659E+03  0.89812833660E+03  0.50400001928E-02 0. -1.
    10030    2    1    2    0    0  0.00000000000E+00  0.00000000000E+00  0.96187951281E+03  0.27581361860E+04  0.25849764067E+04 0.  0.
        2    1    3    3  502    0  0.47491359661E+03 -0.20746343887E+03  0.17442909868E+04  0.18196524529E+04  0.25500000920E-02 0.  1.
       -2    1    3    3    0  502 -0.47491359661E+03  0.20746343887E+03 -0.78241147398E+03  0.93848373312E+03  0.25500000920E-02 0. -1.
</event>
<event>
 5   0  0.4597705E-06  0.2605944E+04  0.7818609E-02  0.8366185E-01
        1   -1    0    0  501    0  0.00000000000E+00  0.00000000000E+00  0.18651458039E+04  0.18651458039E+04  0.50400001928E-02 0. -1.
       -1   -1    0    0    0  501  0.00000000000E+00  0.00000000000E+00 -0.91024292713E+03  0.91024292714E+03  0.50400001928E-02 0.  1.
    10030    2    1    2    0    0  0.00000000000E+00  0.00000000000E+00  0.95490287681E+03  0.27753887311E+04  0.26059438030E+04 0.  0.
        5    1    3    3  502    0 -0.99686972880E+02 -0.20407975051E+03 -0.88898844430E+03  0.91755576464E+03  0.46999998093E+01 0.  1.
       -5    1    3    3    0  502  0.99686972880E+02  0.20407975051E+03  0.18438913211E+04  0.18578329664E+04  0.46999998093E+01 0. -1.
</event>
<event>
 5   0  0.4218590E-06  0.2589295E+04  0.7818609E-02  0.8371846E-01
        1   -1    0    0  501    0  0.00000000000E+00  0.00000000000E+00  0.75145883517E+03  0.75145883519E+03  0.50400001928E-02 0.  1.
       -1   -1    0    0    0  501  0.00000000000E+00  0.00000000000E+00 -0.22304781274E+04  0.22304781274E+04  0.50400001928E-02 0. -1.
    10030    2    1    2    0    0  0.00000000000E+00  0.00000000000E+00 -0.14790192922E+04  0.29819369626E+04  0.25892952675E+04 0.  0.
        1    1    3    3  502    0 -0.11018204416E+04  0.21401300670E+03  0.35462160001E+01  0.11224181165E+04  0.50400001928E-02 0. -1.
       -1    1    3    3    0  502  0.11018204416E+04 -0.21401300670E+03 -0.14825655082E+04  0.18595188461E+04  0.50400001928E-02 0.  1.
</event>
<event>
 5   0  0.1136881E-05  0.2701246E+04  0.7818609E-02  0.8334601E-01
        2   -1    0    0  501    0  0.00000000000E+00  0.00000000000E+00  0.27760907020E+04  0.27760907020E+04  0.25500000920E-02 0.  1.
       -2   -1    0    0    0  501  0.00000000000E+00  0.00000000000E+00 -0.65710496366E+03  0.65710496366E+03  0.25500000920E-02 0. -1.
    10030    2    1    2    0    0  0.00000000000E+00  0.00000000000E+00  0.21189857383E+04  0.34331956656E+04  0.27012463641E+04 0.  0.
        3    1    3    3  502    0  0.10335391194E+04 -0.49135624038E+03  0.14780182470E+03  0.11538975066E+04  0.10100000352E+00 0. -1.
       -3    1    3    3    0  502 -0.10335391194E+04  0.49135624038E+03  0.19711839136E+04  0.22792981590E+04  0.10100000352E+00 0.  1.
</event>
<event>
 5   0  0.1136881E-05  0.2273982E+04  0.7818609E-02  0.8488251E-01
       -2   -1    0    0    0  501  0.00000000000E+00  0.00000000000E+00  0.12890978655E+04  0.12890978655E+04  0.25500000920E-02 0. -1.
        2   -1    0    0  501    0  0.00000000000E+00  0.00000000000E+00 -0.10028322013E+04  0.10028322013E+04  0.25500000920E-02 0.  1.
    10030    2    1    2    0    0  0.00000000000E+00  0.00000000000E+00  0.28626566417E+03  0.22919300668E+04  0.22739822780E+04 0.  0.
        3    1    3    3  502    0 -0.79821710801E+02  0.19159628192E+03 -0.98357586165E+03  0.10052373484E+04  0.10100000352E+00 0.  1.
       -3    1    3    3    0  502  0.79821710801E+02 -0.19159628192E+03  0.12698415258E+04  0.12866927184E+04  0.10100000352E+00 0. -1.
</event>
<event>
 5   0  0.4597705E-06  0.2603202E+04  0.7818609E-02  0.8367115E-01
       -1   -1    0    0    0  501  0.00000000000E+00  0.00000000000E+00  0.83520068271E+03  0.83520068273E+03  0.50400001928E-02 0. -1.
        1   -1    0    0  501    0  0.00000000000E+00  0.00000000000E+00 -0.20284521165E+04  0.20284521165E+04  0.50400001928E-02 0.  1.
    10030    2    1    2    0    0  0.00000000000E+00  0.00000000000E+00 -0.11932514338E+04  0.28636527993E+04  0.26032015616E+04 0.  0.
        5    1    3    3  502    0 -0.55266983491E+03 -0.30216474892E+01  0.69970296285E+03  0.89166103593E+03  0.46999998093E+01 0. -1.
       -5    1    3    3    0  502  0.55266983491E+03  0.30216474892E+01 -0.18929543967E+04  0.19719917633E+04  0.46999998093E+01 0.  1.
</event>
<event>
 5   0  0.4361864E-06  0.2591533E+04  0.7818609E-02  0.8371083E-01
        1   -1    0    0  501    0  0.00000000000E+00  0.00000000000E+00  0.17834312512E+04  0.17834312512E+04  0.50400001928E-02 0. -1.
       -1   -1    0    0    0  501  0.00000000000E+00  0.00000000000E+00 -0.94144949660E+03  0.94144949661E+03  0.50400001928E-02 0.  1.
    10030    2    1    2    0    0  0.00000000000E+00  0.00000000000E+00  0.84198175460E+03  0.27248807478E+04  0.25915327154E+04 0.  0.
        3    1    3    3  502    0  0.58959471201E+03  0.76917240243E+03  0.13253416465E+04  0.16418826387E+04  0.10100000352E+00 0. -1.
       -3    1    3    3    0  502 -0.58959471201E+03 -0.76917240243E+03 -0.48335989189E+03  0.10829981091E+04  0.10100000352E+00 0.  1.
</event>
<event>
 5   0  0.4361864E-06  0.2608581E+04  0.7818609E-02  0.8365292E-01
        1   -1    0    0  501    0  0.00000000000E+00  0.00000000000E+00  0.12489749517E+04  0.12489749517E+04  0.50400001928E-02 0.  1.
       -1   -1    0    0    0  501  0.00000000000E+00  0.00000000000E+00 -0.13620561142E+04  0.13620561142E+04  0.50400001928E-02 0. -1.
    10030    2    1    2    0    0  0.00000000000E+00  0.00000000000E+00 -0.11308116251E+03  0.26110310659E+04  0.26085812002E+04 0.  0.
        3    1    3    3  502    0  0.12264448130E+03  0.10522736959E+04  0.70499742553E+03  0.12725340782E+04  0.10100000352E+00 0.  1.
       -3    1    3    3    0  502 -0.12264448130E+03 -0.10522736959E+04 -0.81807858804E+03  0.13384969878E+04  0.10100000352E+00 0. -1.
</event>
<event>
 5   0  0.1086507E-05  0.2597383E+04  0.7818609E-02  0.8369091E-01
       -2   -1    0    0    0  501  0.00000000000E+00  0.00000000000E+00  0.68655616811E+03  0.68655616811E+03  0.25500000920E-02 0. -1.
        2   -1    0    0  501    0  0.00000000000E+00  0.00000000000E+00 -0.24566092663E+04  0.24566092663E+04  0.25500000920E-02 0.  1.
    10030    2    1    2    0    0  0.00000000000E+00  0.00000000000E+00 -0.17700530982E+04  0.31431654344E+04  0.25973834868E+04 0.  0.
        2    1    3    3  502    0  0.40463387679E+03  0.55840577235E+03 -0.22167469043E+04  0.23215323428E+04  0.25500000920E-02 0.  1.
       -2    1    3    3    0  502 -0.40463387679E+03 -0.55840577235E+03  0.44669380611E+03  0.82163309163E+03  0.25500000920E-02 0. -1.
</event>
<event>
 5   0  0.1086507E-05  0.2285434E+04  0.7818609E-02  0.8483686E-01
       -2   -1    0    0    0  501  0.00000000000E+00  0.00000000000E+00  0.82779373820E+03  0.82779373821E+03  0.25500000920E-02 0. -1.
        2   -1    0    0  501    0  0.00000000000E+00  0.00000000000E+00 -0.15774488448E+04  0.15774488448E+04  0.25500000920E-02 0.  1.
    10030    2    1    2    0    0  0.00000000000E+00  0.00000000000E+00 -0.74965510662E+03  0.24052425830E+04  0.22854341173E+04 0.  0.
        2    1    3    3  502    0 -0.77267776805E+02 -0.34558107176E+03 -0.15182476600E+04  0.15589972879E+04  0.25500000920E-02 0.  1.
       -2    1    3    3    0  502  0.77267776805E+02  0.34558107176E+03  0.76859255337E+03  0.84624529517E+03  0.25500000920E-02 0. -1.
</event>
<event>
 5   0  0.4464297E-06  0.2348872E+04  0.7818609E-02  0.8458897E-01
        1   -1    0    0  501    0  0.00000000000E+00  0.00000000000E+00  0.88592795043E+03  0.88592795045E+03  0.50400001928E-02 0.  1.
       -1   -1    0    0    0  501  0.00000000000E+00  0.00000000000E+00 -0.15568980885E+04  0.15568980886E+04  0.50400001928E-02 0. -1.
    10030    2    1    2    0    0  0.00000000000E+00  0.00000000000E+00 -0.67097013811E+03  0.24428260390E+04  0.23488716718E+04 0.  0.
        4    1    3    3  502    0 -0.95113499081E+03 -0.67481916121E+03 -0.19115629568E+03  0.11817702879E+04  0.12699999809E+01 0. -1.
       -4    1    3    3    0  502  0.95113499081E+03  0.67481916121E+03 -0.47981384243E+03  0.12610557511E+04  0.12699999809E+01 0.  1.
</event>
<event>
 5   0  0.1085061E-05  0.2607380E+04  0.7818609E-02  0.8365699E-01
        2   -1    0    0  501    0  0.00000000000E+00  0.00000000000E+00  0.99080349542E+03  0.99080349543E+03  0.25500000920E-02 0.  1.
       -2   -1    0    0    0  501  0.00000000000E+00  0.00000000000E+00 -0.17153826054E+04  0.17153826054E+04  0.25500000920E-02 0. -1.
    10030    2    1    2    0    0  0.00000000000E+00  0.00000000000E+00 -0.72457910998E+03  0.27061861008E+04  0.26073795899E+04 0.  0.
        1    1    3    3  502    0  0.56880558548E+03 -0.76543226079E+03  0.56031717419E+03  0.11060658550E+04  0.50400001928E-02 0.  1.
       -1    1    3    3    0  502 -0.56880558548E+03  0.76543226079E+03 -0.12848962842E+04  0.16001202458E+04  0.50400001928E-02 0. -1.
</event>
<event>
 5   0  0.1085255E-05  0.2607170E+04  0.7818609E-02  0.8365770E-01
       -2   -1    0    0    0  501  0.00000000000E+00  0.00000000000E+00  0.14070489731E+04  0.14070489731E+04  0.25500000920E-02 0. -1.
        2   -1    0    0  501    0  0.00000000000E+00  0.00000000000E+00 -0.12077286879E+04  0.12077286879E+04  0.25500000920E-02 0.  1.
    10030    2    1    2    0    0  0.00000000000E+00  0.00000000000E+00  0.19932028525E+03  0.26147776610E+04  0.26071696609E+04 0.  0.
        5    1    3    3  502    0 -0.10077944884E+04  0.12265571021E+03 -0.72041610531E+03  0.12448757404E+04  0.46999998093E+01 0.  1.
       -5    1    3    3    0  502  0.10077944884E+04 -0.12265571021E+03  0.91973639057E+03  0.13699019207E+04  0.46999998093E+01 0. -1.
</event>
<event>
 5   0  0.1085255E-05  0.2614512E+04  0.7818609E-02  0.8363288E-01
       -2   -1    0    0    0  501  0.00000000000E+00  0.00000000000E+00  0.13019863507E+04  0.13019863507E+04  0.25500000920E-02 0. -1.
        2   -1    0    0  501    0  0.00000000000E+00  0.00000000000E+00 -0.13125469182E+04  0.13125469182E+04  0.25500000920E-02 0.  1.
    10030    2    1    2    0    0  0.00000000000E+00  0.00000000000E+00 -0.10560567482E+02  0.26145332689E+04  0.26145119408E+04 0.  0.
        5    1    3    3  502    0 -0.41526534697E+03 -0.73431852983E+03  0.99334043529E+03  0.13032330268E+04  0.46999998093E+01 0. -1.
       -5    1    3    3    0  502  0.41526534697E+03  0.73431852983E+03 -0.10039010028E+04  0.13113002421E+04  0.46999998093E+01 0.  1.
</event>
<event>
 5   0  0.1086507E-05  0.2614694E+04  0.7818609E-02  0.8363227E-01
        2   -1    0    0  501    0  0.00000000000E+00  0.00000000000E+00  0.12088891672E+04  0.12088891672E+04  0.25500000920E-02 0.  1.
       -2   -1    0    0    0  501  0.00000000000E+00  0.00000000000E+00 -0.14138238685E+04  0.14138238685E+04  0.25500000920E-02 0. -1.
    10030    2    1    2    0    0  0.00000000000E+00  0.00000000000E+00 -0.20493470129E+03  0.26227130357E+04  0.26146941381E+04 0.  0.
        2    1    3    3  502    0  0.11802599429E+04  0.50338163993E+03 -0.35373459899E+03  0.13309901483E+04  0.25500000920E-02 0. -1.
       -2    1    3    3    0  502 -0.11802599429E+04 -0.50338163993E+03  0.14879989771E+03  0.12917228874E+04  0.25500000920E-02 0.  1.
</event>
<event>
 5   0  0.4597705E-06  0.2590355E+04  0.7818609E-02  0.8371485E-01
        1   -1    0    0  501    0  0.00000000000E+00  0.00000000000E+00  0.11669317984E+04  0.11669317984E+04  0.50400001928E-02 0. -1.
       -1   -1    0    0    0  501  0.00000000000E+00  0.00000000000E+00 -0.14375168677E+04  0.14375168677E+04  0.50400001928E-02 0.  1.
    10030    2    1    2    0    0  0.00000000000E+00  0.00000000000E+00 -0.27058506928E+03  0.26044486661E+04  0.25903545268E+04 0.  0.
        5    1    3    3  502    0  0.28927105343E+03 -0.95895808089E+03 -0.96084698289E+03  0.13879940050E+04  0.46999998093E+01 0. -1.
       -5    1    3    3    0  502 -0.28927105343E+03  0.95895808089E+03  0.69026191361E+03  0.12164546612E+04  0.46999998093E+01 0.  1.
</event>
<event>
 5   0  0.1136881E-05  0.2601190E+04  0.7818609E-02  0.8367797E-01
       -2   -1    0    0    0  501  0.00000000000E+00  0.00000000000E+00  0.15597530144E+04  0.15597530144E+04  0.25500000920E-02 0.  1.
        2   -1    0    0  501    0  0.00000000000E+00  0.00000000000E+00 -0.10844968349E+04  0.10844968349E+04  0.25500000920E-02 0. -1.
    10030    2    1    2    0    0  0.00000000000E+00  0.00000000000E+00  0.47525617955E+03  0.26442498494E+04  0.26011898873E+04 0.  0.
        3    1    3    3  502    0  0.12860412156E+04 -0.13140981166E+03  0.38273791782E+03  0.13482057969E+04  0.10100000352E+00 0.  1.
       -3    1    3    3    0  502 -0.12860412156E+04  0.13140981166E+03  0.92518261727E+02  0.12960440524E+04  0.10100000352E+00 0. -1.
</event>
<event>
 5   0  0.4361864E-06  0.2563634E+04  0.7818609E-02  0.8380660E-01
       -1   -1    0    0    0  501  0.00000000000E+00  0.00000000000E+00  0.70386002709E+03  0.70386002711E+03  0.50400001928E-02 0.  1.
        1   -1    0    0  501    0  0.00000000000E+00  0.00000000000E+00 -0.23343489566E+04  0.23343489566E+04  0.50400001928E-02 0. -1.
    10030    2    1    2    0    0  0.00000000000E+00  0.00000000000E+00 -0.16304889295E+04  0.30382089837E+04  0.25636340767E+04 0.  0.
        3    1    3    3  502    0 -0.10219592405E+04  0.76196638770E+03 -0.65597304631E+03  0.14336296987E+04  0.10100000352E+00 0. -1.
       -3    1    3    3    0  502  0.10219592405E+04 -0.76196638770E+03 -0.97451588316E+03  0.16045792850E+04  0.10100000352E+00 0.  1.
</event>
<event>
 5   0  0.1116310E-05  0.2552936E+04  0.7818609E-02  0.8384366E-01
        2   -1    0    0  501    0  0.00000000000E+00  0.00000000000E+00  0.20749368212E+04  0.20749368212E+04  0.25500000920E-02 0.  1.
       -2   -1    0    0    0  501  0.00000000000E+00  0.00000000000E+00 -0.78526266339E+03  0.78526266340E+03  0.25500000920E-02 0. -1.
    10030    2    1    2    0    0  0.00000000000E+00  0.00000000000E+00  0.12896741578E+04  0.28601994846E+04  0.25529358900E+04 0.  0.
        4    1    3    3  502    0 -0.10295020598E+04 -0.11129378614E+03 -0.19139363398E+03  0.10530403287E+04  0.12699999809E+01 0. -1.
       -4    1    3    3    0  502  0.10295020598E+04  0.11129378614E+03  0.14810677918E+04  0.18071591559E+04  0.12699999809E+01 0.  1.
</event>
<event>
 5   0  0.4415080E-06  0.2600990E+04  0.7818609E-02  0.8367865E-01
       -1   -1    0    0    0  501  0.00000000000E+00  0.00000000000E+00  0.90556368576E+03  0.90556368577E+03  0.50400001928E-02 0. -1.
        1   -1    0    0  501    0  0.00000000000E+00  0.00000000000E+00 -0.18676617687E+04  0.18676617687E+04  0.50400001928E-02 0.  1.
    10030    2    1    2    0    0  0.00000000000E+00  0.00000000000E+00 -0.96209808292E+03  0.27732254545E+04  0.26009895617E+04 0.  0.
        2    1    3    3  502    0  0.94883006759E+03  0.26880590483E+03 -0.13849814756E+04  0.17002084576E+04  0.25500000920E-02 0.  1.
       -2    1    3    3    0  502 -0.94883006759E+03 -0.26880590483E+03  0.42288339269E+03  0.10730169968E+04  0.25500000920E-02 0. -1.
</event>
<event>
 5   0  0.4218590E-06  0.2605408E+04  0.7818609E-02  0.8366366E-01
        1   -1    0    0  501    0  0.00000000000E+00  0.00000000000E+00  0.12629952415E+04  0.12629952415E+04  0.50400001928E-02 0.  1.
       -1   -1    0    0    0  501  0.00000000000E+00  0.00000000000E+00 -0.13436614020E+04  0.13436614020E+04  0.50400001928E-02 0. -1.
    10030    2    1    2    0    0  0.00000000000E+00  0.00000000000E+00 -0.80666160482E+02  0.26066566436E+04  0.26054081884E+04 0.  0.
        1    1    3    3  502    0 -0.21474723454E+03  0.12137834336E+04 -0.46202212776E+03  0.13163780023E+04  0.50400001928E-02 0. -1.
       -1    1    3    3    0  502  0.21474723454E+03 -0.12137834336E+04  0.38135596728E+03  0.12902786413E+04  0.50400001928E-02 0.  1.
</event>
<event>
 5   0  0.1085255E-05  0.2614146E+04  0.7818609E-02  0.8363412E-01
       -2   -1    0    0    0  501  0.00000000000E+00  0.00000000000E+00  0.97747906986E+03  0.97747906987E+03  0.25500000920E-02 0. -1.
        2   -1    0    0  501    0  0.00000000000E+00  0.00000000000E+00 -0.17478016071E+04  0.17478016071E+04  0.25500000920E-02 0.  1.
    10030    2    1    2    0    0  0.00000000000E+00  0.00000000000E+00 -0.77032253721E+03  0.27252806769E+04  0.26141457413E+04 0.  0.
        5    1    3    3  502    0 -0.77576905109E+03  0.10210308527E+04 -0.64909575934E+03  0.14372435484E+04  0.46999998093E+01 0. -1.
       -5    1    3    3    0  502  0.77576905109E+03 -0.10210308527E+04 -0.12122677788E+03  0.12880371285E+04  0.46999998093E+01 0.  1.
</event>
<event>
 5   0  0.4597705E-06  0.2598123E+04  0.7818609E-02  0.8368839E-01
        1   -1    0    0  501    0  0.00000000000E+00  0.00000000000E+00  0.18611541540E+04  0.18611541540E+04  0.50400001928E-02 0. -1.
       -1   -1    0    0    0  501  0.00000000000E+00  0.00000000000E+00 -0.90672821042E+03  0.90672821043E+03  0.50400001928E-02 0.  1.
    10030    2    1    2    0    0  0.00000000000E+00  0.00000000000E+00  0.95442594362E+03  0.27678823645E+04  0.25981231498E+04 0.  0.
        5    1    3    3  502    0 -0.42069595337E+03  0.29664710560E+03  0.17478523829E+04  0.18220852430E+04  0.46999998093E+01 0. -1.
       -5    1    3    3    0  502  0.42069595337E+03 -0.29664710560E+03 -0.79342643927E+03  0.94579712147E+03  0.46999998093E+01 0.  1.
</event>
<event>
 5   0  0.1136881E-05  0.2599135E+04  0.7818609E-02  0.8368495E-01
        2   -1    0    0  501    0  0.00000000000E+00  0.00000000000E+00  0.15899740717E+04  0.15899740717E+04  0.25500000920E-02 0.  1.
       -2   -1    0    0    0  501  0.00000000000E+00  0.00000000000E+00 -0.10622033018E+04  0.10622033018E+04  0.25500000920E-02 0. -1.
    10030    2    1    2    0    0  0.00000000000E+00  0.00000000000E+00  0.52777076986E+03  0.26521773735E+04  0.25991350167E+04 0.  0.
        3    1    3    3  502    0 -0.52014508534E+03  0.63953848956E+03  0.12890347703E+04  0.15300885722E+04  0.10100000352E+00 0.  1.
       -3    1    3    3    0  502  0.52014508534E+03 -0.63953848956E+03 -0.76126400047E+03  0.11220888013E+04  0.10100000352E+00 0. -1.
</event>
<event>
 5   0  0.1085061E-05  0.2592096E+04  0.7818609E-02  0.8370891E-01
        2   -1    0    0  501    0  0.00000000000E+00  0.00000000000E+00  0.21690167740E+04  0.21690167740E+04  0.25500000920E-02 0.  1.
       -2   -1    0    0    0  501  0.00000000000E+00  0.00000000000E+00 -0.77442506189E+03  0.77442506189E+03  0.25500000920E-02 0. -1.
    10030    2    1    2    0    0  0.00000000000E+00  0.00000000000E+00  0.13945917121E+04  0.29434418359E+04  0.25920964098E+04 0.  0.
        1    1    3    3  502    0  0.10253990520E+04 -0.25598763354E+03 -0.15456572155E+03  0.10681120946E+04  0.50400001928E-02 0. -1.
       -1    1    3    3    0  502 -0.10253990520E+04  0.25598763354E+03  0.15491574336E+04  0.18753297413E+04  0.50400001928E-02 0.  1.
</event>
<event>
 5   0  0.4415080E-06  0.2570424E+04  0.7818609E-02  0.8378317E-01
        1   -1    0    0  501    0  0.00000000000E+00  0.00000000000E+00  0.53126013086E+03  0.53126013088E+03  0.50400001928E-02 0.  1.
       -1   -1    0    0    0  501  0.00000000000E+00  0.00000000000E+00 -0.31091543854E+04  0.31091543854E+04  0.50400001928E-02 0. -1.
    10030    2    1    2    0    0  0.00000000000E+00  0.00000000000E+00 -0.25778942546E+04  0.36404145163E+04  0.25704239072E+04 0.  0.
        2    1    3    3  502    0  0.11607298175E+04  0.32257630866E+03 -0.65490626983E+03  0.13712225955E+04  0.25500000920E-02 0.  1.
       -2    1    3    3    0  502 -0.11607298175E+04 -0.32257630866E+03 -0.19229879847E+04  0.22691919208E+04  0.25500000920E-02 0. -1.
</event>
<event>
 5   0  0.4415080E-06  0.2602717E+04  0.7818609E-02  0.8367279E-01
        1   -1    0    0  501    0  0.00000000000E+00  0.00000000000E+00  0.76116237459E+03  0.76116237461E+03  0.50400001928E-02 0.  1.
       -1   -1    0    0    0  501  0.00000000000E+00  0.00000000000E+00 -0.22249306578E+04  0.22249306578E+04  0.50400001928E-02 0. -1.
    10030    2    1    2    0    0  0.00000000000E+00  0.00000000000E+00 -0.14637682832E+04  0.29860930324E+04  0.26027166598E+04 0.  0.
        2    1    3    3  502    0 -0.26579481708E+03 -0.61083877030E+03 -0.20144811031E+04  0.21217693095E+04  0.25500000920E-02 0. -1.
       -2    1    3    3    0  502  0.26579481708E+03  0.61083877030E+03  0.55071281985E+03  0.86432372294E+03  0.25500000920E-02 0.  1.
</event>
<event>
 5   0  0.1136881E-05  0.2598814E+04  0.7818609E-02  0.8368604E-01
        2   -1    0    0  501    0  0.00000000000E+00  0.00000000000E+00  0.12555237377E+04  0.12555237377E+04  0.25500000920E-02 0.  1.
       -2   -1    0    0    0  501  0.00000000000E+00  0.00000000000E+00 -0.13448242906E+04  0.13448242906E+04  0.25500000920E-02 0. -1.
    10030    2    1    2    0    0  0.00000000000E+00  0.00000000000E+00 -0.89300552849E+02  0.26003480283E+04  0.25988142064E+04 0.  0.
        3    1    3    3  502    0 -0.11730914852E+04  0.11061992399E+02  0.51442166074E+03  0.12809744945E+04  0.10100000352E+00 0.  1.
       -3    1    3    3    0  502  0.11730914852E+04 -0.11061992399E+02 -0.60372221359E+03  0.13193735338E+04  0.10100000352E+00 0. -1.
</event>
<event>
 5   0  0.1085255E-05  0.2571350E+04  0.7818609E-02  0.8377999E-01
       -2   -1    0    0    0  501  0.00000000000E+00  0.00000000000E+00  0.11520748452E+04  0.11520748452E+04  0.25500000920E-02 0.  1.
        2   -1    0    0  501    0  0.00000000000E+00  0.00000000000E+00 -0.14347681149E+04  0.14347681149E+04  0.25500000920E-02 0. -1.
    10030    2    1    2    0    0  0.00000000000E+00  0.00000000000E+00 -0.28269326968E+03  0.25868429602E+04  0.25713500376E+04 0.  0.
        5    1    3    3  502    0 -0.20608321487E+03 -0.75434148477E+03  0.88531024746E+03  0.11812271972E+04  0.46999998093E+01 0.  1.
       -5    1    3    3    0  502  0.20608321487E+03  0.75434148477E+03 -0.11680035171E+04  0.14056157630E+04  0.46999998093E+01 0. -1.
</event>
<event>
 5   0  0.4464297E-06  0.2598303E+04  0.7818609E-02  0.8368778E-01
        1   -1    0    0  501    0  0.00000000000E+00  0.00000000000E+00  0.17356119812E+04  0.17356119812E+04  0.50400001928E-02 0. -1.
       -1   -1    0    0    0  501  0.00000000000E+00  0.00000000000E+00 -0.97244893479E+03  0.97244893481E+03  0.50400001928E-02 0.  1.
    10030    2    1    2    0    0  0.00000000000E+00  0.00000000000E+00  0.76316304641E+03  0.27080609160E+04  0.25983025400E+04 0.  0.
        4    1    3    3  502    0 -0.36152151761E+03  0.29083480608E+03 -0.88314840628E+03  0.99761486183E+03  0.12699999809E+01 0.  1.
       -4    1    3    3    0  502  0.36152151761E+03 -0.29083480608E+03  0.16463114527E+04  0.17104460542E+04  0.12699999809E+01 0. -1.
</event>
<event>
 5   0  0.4464297E-06  0.2612372E+04  0.7818609E-02  0.8364011E-01
        1   -1    0    0  501    0  0.00000000000E+00  0.00000000000E+00  0.15657778309E+04  0.15657778309E+04  0.50400001928E-02 0. -1.
       -1   -1    0    0    0  501  0.00000000000E+00  0.00000000000E+00 -0.10896319847E+04  0.10896319847E+04  0.50400001928E-02 0.  1.
    10030    2    1    2    0    0  0.00000000000E+00  0.00000000000E+00  0.47614584618E+03  0.26554098156E+04  0.26123718001E+04 0.  0.
        4    1    3    3  502    0 -0.12579601897E+03 -0.99933695178E+03  0.10834114417E+04  0.14792839304E+04  0.12699999809E+01 0. -1.
       -4    1    3    3    0  502  0.12579601897E+03  0.99933695178E+03 -0.60726559557E+03  0.11761258853E+04  0.12699999809E+01 0.  1.
</event>
<event>
 5   0  0.4218590E-06  0.2604406E+04  0.7818609E-02  0.8366706E-01
        1   -1    0    0  501    0  0.00000000000E+00  0.00000000000E+00  0.20400397639E+04  0.20400397639E+04  0.50400001928E-02 0.  1.
       -1   -1    0    0    0  501  0.00000000000E+00  0.00000000000E+00 -0.83122547931E+03  0.83122547932E+03  0.50400001928E-02 0. -1.
    10030    2    1    2    0    0  0.00000000000E+00  0.00000000000E+00  0.12088142846E+04  0.28712652432E+04  0.26044062898E+04 0.  0.
        1    1    3    3  502    0  0.73185744253E+03 -0.92137084503E+03 -0.10599523794E+02  0.11767123269E+04  0.50400001928E-02 0. -1.
       -1    1    3    3    0  502 -0.73185744253E+03  0.92137084503E+03  0.12194138084E+04  0.16945529164E+04  0.50400001928E-02 0.  1.
</event>
<event>
 5   0  0.4218590E-06  0.2598630E+04  0.7818609E-02  0.8368667E-01
       -1   -1    0    0    0  501  0.00000000000E+00  0.00000000000E+00  0.14383998964E+04  0.14383998964E+04  0.50400001928E-02 0.  1.
        1   -1    0    0  501    0  0.00000000000E+00  0.00000000000E+00 -0.11736787842E+04  0.11736787842E+04  0.50400001928E-02 0. -1.
    10030    2    1    2    0    0  0.00000000000E+00  0.00000000000E+00  0.26472111221E+03  0.26120786807E+04  0.25986299788E+04 0.  0.
        1    1    3    3  502    0 -0.74915050482E+03  0.79288192256E+03  0.84193972621E+03  0.13779516409E+04  0.50400001928E-02 0.  1.
       -1    1    3    3    0  502  0.74915050482E+03 -0.79288192256E+03 -0.57721861400E+03  0.12341270398E+04  0.50400001928E-02 0. -1.
</event>
<event>
 5   0  0.4415080E-06  0.2595222E+04  0.7818609E-02  0.8369826E-01
        1   -1    0    0  501    0  0.00000000000E+00  0.00000000000E+00  0.16715059157E+04  0.16715059157E+04  0.50400001928E-02 0. -1.
       -1   -1    0    0    0  501  0.00000000000E+00  0.00000000000E+00 -0.10073519628E+04  0.10073519628E+04  0.50400001928E-02 0.  1.
    10030    2    1    2    0    0  0.00000000000E+00  0.00000000000E+00  0.66415395292E+03  0.26788578785E+04  0.25952223527E+04 0.  0.
        2    1    3    3  502    0 -0.14405766370E+03 -0.10512647370E+04 -0.43891044000E+03  0.11482824270E+04  0.25500000920E-02 0.  1.
       -2    1    3    3    0  502  0.14405766370E+03  0.10512647370E+04  0.11030643929E+04  0.15305754515E+04  0.25500000920E-02 0. -1.
</event>
<event>
 5   0  0.4597705E-06  0.2583270E+04  0.7818609E-02  0.8373906E-01
        1   -1    0    0  501    0  0.00000000000E+00  0.00000000000E+00  0.11331827639E+04  0.11331827640E+04  0.50400001928E-02 0. -1.
       -1   -1    0    0    0  501  0.00000000000E+00  0.00000000000E+00 -0.14722434650E+04  0.14722434650E+04  0.50400001928E-02 0.  1.
    10030    2    1    2    0    0  0.00000000000E+00  0.00000000000E+00 -0.33906070100E+03  0.26054262289E+04  0.25832699579E+04 0.  0.
        5    1    3    3  502    0 -0.59685571978E+03  0.29007728316E+03 -0.12871487358E+04  0.14481559096E+04  0.46999998093E+01 0.  1.
       -5    1    3    3    0  502  0.59685571978E+03 -0.29007728316E+03  0.94808803475E+03  0.11572703194E+04  0.46999998093E+01 0. -1.
</event>
<event>
 5   0  0.4415080E-06  0.2576399E+04  0.7818609E-02  0.8376262E-01
        1   -1    0    0  501    0  0.00000000000E+00  0.00000000000E+00  0.16407274084E+04  0.16407274084E+04  0.50400001928E-02 0.  1.
       -1   -1    0    0    0  501  0.00000000000E+00  0.00000000000E+00 -0.10114162819E+04  0.10114162819E+04  0.50400001928E-02 0. -1.
    10030    2    1    2    0    0  0.00000000000E+00  0.00000000000E+00  0.62931112657E+03  0.26521436903E+04  0.25763993596E+04 0.  0.
        2    1    3    3  502    0 -0.60469376585E+03  0.11365625200E+04  0.26828112437E+03  0.13150679352E+04  0.25500000920E-02 0. -1.
       -2    1    3    3    0  502  0.60469376585E+03 -0.11365625200E+04  0.36103000220E+03  0.13370757551E+04  0.25500000920E-02 0.  1.
</event>
<event>
 5   0  0.1085061E-05  0.2775015E+04  0.7818609E-02  0.8311068E-01
        2   -1    0    0  501    0  0.00000000000E+00  0.00000000000E+00  0.23595095104E+04  0.23595095104E+04  0.25500000920E-02 0.  1.
       -2   -1    0    0    0  501  0.00000000000E+00  0.00000000000E+00 -0.81592233840E+03  0.81592233840E+03  0.25500000920E-02 0. -1.
    10030    2    1    2    0    0  0.00000000000E+00  0.00000000000E+00  0.15435871720E+04  0.31754318488E+04  0.27750146070E+04 0.  0.
        1    1    3    3  502    0  0.23657817310E+02 -0.44606037643E+03  0.22749822740E+04  0.23184205613E+04  0.50400001928E-02 0.  1.
       -1    1    3    3    0  502 -0.23657817310E+02  0.44606037643E+03 -0.73139510200E+03  0.85701128756E+03  0.50400001928E-02 0. -1.
</event>
<event>
 5   0  0.1085061E-05  0.2614316E+04  0.7818609E-02  0.8363355E-01
        2   -1    0    0  501    0  0.00000000000E+00  0.00000000000E+00  0.19086162980E+04  0.19086162980E+04  0.25500000920E-02 0.  1.
       -2   -1    0    0    0  501  0.00000000000E+00  0.00000000000E+00 -0.89523595303E+03  0.89523595304E+03  0.25500000920E-02 0. -1.
    10030    2    1    2    0    0  0.00000000000E+00  0.00000000000E+00  0.10133803450E+04  0.28038522510E+04  0.26143159186E+04 0.  0.
        1    1    3    3  502    0 -0.22872189108E+03 -0.67172527833E+03 -0.67068429876E+03  0.97639437812E+03  0.50400001928E-02 0. -1.
       -1    1    3    3    0  502  0.22872189108E+03  0.67172527833E+03  0.16840646437E+04  0.18274578729E+04  0.50400001928E-02 0.  1.
</event>
<event>
 5   0  0.1086507E-05  0.2609878E+04  0.7818609E-02  0.8364854E-01
        2   -1    0    0  501    0  0.00000000000E+00  0.00000000000E+00  0.10998482190E+04  0.10998482190E+04  0.25500000920E-02 0.  1.
       -2   -1    0    0    0  501  0.00000000000E+00  0.00000000000E+00 -0.15482732884E+04  0.15482732884E+04  0.25500000920E-02 0. -1.
    10030    2    1    2    0    0  0.00000000000E+00  0.00000000000E+00 -0.44842506943E+03  0.26481215074E+04  0.26098778659E+04 0.  0.
        2    1    3    3  502    0  0.32075381949E+03  0.87311209489E+03 -0.11528603951E+04  0.14813152377E+04  0.25500000920E-02 0. -1.
       -2    1    3    3    0  502 -0.32075381949E+03 -0.87311209489E+03  0.70443532564E+03  0.11668062697E+04  0.25500000920E-02 0.  1.
</event>
<event>
 5   0  0.4464297E-06  0.2613208E+04  0.7818609E-02  0.8363729E-01
        1   -1    0    0  501    0  0.00000000000E+00  0.00000000000E+00  0.26445911620E+04  0.26445911620E+04  0.50400001928E-02 0.  1.
       -1   -1    0    0    0  501  0.00000000000E+00  0.00000000000E+00 -0.64554922858E+03  0.64554922860E+03  0.50400001928E-02 0. -1.
    10030    2    1    2    0    0  0.00000000000E+00  0.00000000000E+00  0.19990419335E+04  0.32901403906E+04  0.26132078253E+04 0.  0.
        4    1    3    3  502    0 -0.33511203060E+03  0.31956542572E+03 -0.53877479577E+03  0.71042383675E+03  0.12699999809E+01 0. -1.
       -4    1    3    3    0  502  0.33511203060E+03 -0.31956542572E+03  0.25378167292E+04  0.25797165539E+04  0.12699999809E+01 0.  1.
</event>
<event>
 5   0  0.4464297E-06  0.2590657E+04  0.7818609E-02  0.8371382E-01
       -1   -1    0    0    0  501  0.00000000000E+00  0.00000000000E+00  0.99169149628E+03  0.99169149630E+03  0.50400001928E-02 0. -1.
        1   -1    0    0  501    0  0.00000000000E+00  0.00000000000E+00 -0.16919335489E+04  0.16919335489E+04  0.50400001928E-02 0.  1.
    10030    2    1    2    0    0  0.00000000000E+00  0.00000000000E+00 -0.70024205265E+03  0.26836250452E+04  0.25906571466E+04 0.  0.
        4    1    3    3  502    0  0.66285087165E+03  0.10860956398E+04 -0.98719658129E+02  0.12762140105E+04  0.12699999809E+01 0.  1.
       -4    1    3    3    0  502 -0.66285087165E+03 -0.10860956398E+04 -0.60152239452E+03  0.14074110348E+04  0.12699999809E+01 0. -1.
</event>
<event>
 5   0  0.4218590E-06  0.2623616E+04  0.7818609E-02  0.8360223E-01
        1   -1    0    0  501    0  0.00000000000E+00  0.00000000000E+00  0.95854069616E+03  0.95854069618E+03  0.50400001928E-02 0.  1.
       -1   -1    0    0    0  501  0.00000000000E+00  0.00000000000E+00 -0.17952706050E+04  0.17952706050E+04  0.50400001928E-02 0. -1.
    10030    2    1    2    0    0  0.00000000000E+00  0.00000000000E+00 -0.83672990882E+03  0.27538113012E+04  0.26236157764E+04 0.  0.
        1    1    3    3  502    0 -0.47910764574E+03  0.36872100572E+03 -0.16403282785E+04  0.17481922599E+04  0.50400001928E-02 0. -1.
       -1    1    3    3    0  502  0.47910764574E+03 -0.36872100572E+03  0.80359836972E+03  0.10056190412E+04  0.50400001928E-02 0.  1.
</event>
<event>
 5   0  0.4415080E-06  0.2607346E+04  0.7818609E-02  0.8365710E-01
       -1   -1    0    0    0  501  0.00000000000E+00  0.00000000000E+00  0.10795168096E+04  0.10795168096E+04  0.50400001928E-02 0. -1.
        1   -1    0    0  501    0  0.00000000000E+00  0.00000000000E+00 -0.15743736906E+04  0.15743736906E+04  0.50400001928E-02 0.  1.
    10030    2    1    2    0    0  0.00000000000E+00  0.00000000000E+00 -0.49485688099E+03  0.26538905003E+04  0.26073456723E+04 0.  0.
        2    1    3    3  502    0 -0.66223912378E+03 -0.42399894824E+03  0.81095454273E+03  0.11295941907E+04  0.25500000920E-02 0. -1.
       -2    1    3    3    0  502  0.66223912378E+03  0.42399894824E+03 -0.13058114237E+04  0.15242963096E+04  0.25500000920E-02 0.  1.
</event>
<event>
 5   0  0.4415080E-06  0.2616231E+04  0.7818609E-02  0.8362709E-01
        1   -1    0    0  501    0  0.00000000000E+00  0.00000000000E+00  0.93243961631E+03  0.93243961632E+03  0.50400001928E-02 0.  1.
       -1   -1    0    0    0  501  0.00000000000E+00  0.00000000000E+00 -0.18351500936E+04  0.18351500936E+04  0.50400001928E-02 0. -1.
    10030    2    1    2    0    0  0.00000000000E+00  0.00000000000E+00 -0.90271047727E+03  0.27675897099E+04  0.26162313729E+04 0.  0.
        2    1    3    3  502    0  0.12260941470E+04  0.35528173768E+03 -0.14910761028E+03  0.12852101190E+04  0.25500000920E-02 0. -1.
       -2    1    3    3    0  502 -0.12260941470E+04 -0.35528173768E+03 -0.75360286698E+03  0.14823795909E+04  0.25500000920E-02 0.  1.
</event>
<event>
 5   0  0.1136881E-05  0.2607553E+04  0.7818609E-02  0.8365640E-01
        2   -1    0    0  501    0  0.00000000000E+00  0.00000000000E+00  0.33686022629E+04  0.33686022629E+04  0.25500000920E-02 0.  1.
       -2   -1    0    0    0  501  0.00000000000E+00  0.00000000000E+00 -0.50461087753E+03  0.50461087754E+03  0.25500000920E-02 0. -1.
    10030    2    1    2    0    0  0.00000000000E+00  0.00000000000E+00  0.28639913854E+04  0.38732131405E+04  0.26075531396E+04 0.  0.
        3    1    3    3  502    0 -0.51158062674E+03  0.11991320821E+04  0.14530465442E+04  0.19521723176E+04  0.10100000352E+00 0.  1.
       -3    1    3    3    0  502  0.51158062674E+03 -0.11991320821E+04  0.14109448413E+04  0.19210408229E+04  0.10100000352E+00 0. -1.
</event>
<event>
 5   0  0.1085061E-05  0.2605792E+04  0.7818609E-02  0.8366237E-01
       -2   -1    0    0    0  501  0.00000000000E+00  0.00000000000E+00  0.12649446751E+04  0.12649446751E+04  0.25500000920E-02 0. -1.
        2   -1    0    0  501    0  0.00000000000E+00  0.00000000000E+00 -0.13419854626E+04  0.13419854626E+04  0.25500000920E-02 0.  1.
    10030    2    1    2    0    0  0.00000000000E+00  0.00000000000E+00 -0.77040787443E+02  0.26069301377E+04  0.26057915227E+04 0.  0.
        1    1    3    3  502    0  0.36061723148E+03  0.22112072769E+03 -0.12713730251E+04  0.13398987025E+04  0.50400001928E-02 0.  1.
       -1    1    3    3    0  502 -0.36061723148E+03 -0.22112072769E+03  0.11943322377E+04  0.12670314352E+04  0.50400001928E-02 0. -1.
</event>
<event>
 5   0  0.1136881E-05  0.2603392E+04  0.7818609E-02  0.8367050E-01
        2   -1    0    0  501    0  0.00000000000E+00  0.00000000000E+00  0.15003776472E+04  0.15003776472E+04  0.25500000920E-02 0.  1.
       -2   -1    0    0    0  501  0.00000000000E+00  0.00000000000E+00 -0.11293239705E+04  0.11293239705E+04  0.25500000920E-02 0. -1.
    10030    2    1    2    0    0  0.00000000000E+00  0.00000000000E+00  0.37105367669E+03  0.26297016177E+04  0.26033919734E+04 0.  0.
        3    1    3    3  502    0 -0.32222906536E+03  0.19342266700E+03 -0.10733295947E+04  0.11372248361E+04  0.10100000352E+00 0. -1.
       -3    1    3    3    0  502  0.32222906536E+03 -0.19342266700E+03  0.14443832714E+04  0.14924767816E+04  0.10100000352E+00 0.  1.
</event>
<event>
 5   0  0.4218590E-06  0.2606156E+04  0.7818609E-02  0.8366113E-01
       -1   -1    0    0    0  501  0.00000000000E+00  0.00000000000E+00  0.93997700946E+03  0.93997700947E+03  0.50400001928E-02 0.  1.
        1   -1    0    0  501    0  0.00000000000E+00  0.00000000000E+00 -0.18064402623E+04  0.18064402623E+04  0.50400001928E-02 0. -1.
    10030    2    1    2    0    0  0.00000000000E+00  0.00000000000E+00 -0.86646325282E+03  0.27464172718E+04  0.26061560318E+04 0.  0.
        1    1    3    3  502    0  0.71610970691E+03 -0.83729719248E+03 -0.11664752221E+04  0.16045386081E+04  0.50400001928E-02 0. -1.
       -1    1    3    3    0  502 -0.71610970691E+03  0.83729719248E+03  0.30001196932E+03  0.11418786637E+04  0.50400001928E-02 0.  1.
</event>
<event>
 5   0  0.1086507E-05  0.2554119E+04  0.7818609E-02  0.8383955E-01
       -2   -1    0    0    0  501  0.00000000000E+00  0.00000000000E+00  0.27016678263E+04  0.27016678263E+04  0.25500000920E-02 0.  1.
        2   -1    0    0  501    0  0.00000000000E+00  0.00000000000E+00 -0.60365703365E+03  0.60365703366E+03  0.25500000920E-02 0. -1.
    10030    2    1    2    0    0  0.00000000000E+00  0.00000000000E+00  0.20980107926E+04  0.33053248599E+04  0.25541188586E+04 0.  0.
        2    1    3    3  502    0  0.21510651967E+03 -0.71537938904E+03  0.23894256788E+04  0.25034762950E+04  0.25500000920E-02 0.  1.
       -2    1    3    3    0  502 -0.21510651967E+03  0.71537938904E+03 -0.29141488624E+03  0.80184856488E+03  0.25500000920E-02 0. -1.
</event>
<event>
 5   0  0.1086507E-05  0.2602103E+04  0.7818609E-02  0.8367487E-01
       -2   -1    0    0    0  501  0.00000000000E+00  0.00000000000E+00  0.12945960568E+04  0.12945960568E+04  0.25500000920E-02 0.  1.
        2   -1    0    0  501    0  0.00000000000E+00  0.00000000000E+00 -0.13075389693E+04  0.13075389693E+04  0.25500000920E-02 0. -1.
    10030    2    1    2    0    0  0.00000000000E+00  0.00000000000E+00 -0.12942912527E+02  0.26021350261E+04  0.26021028371E+04 0.  0.
        2    1    3    3  502    0 -0.10008628010E+04  0.57757038882E+03  0.59138282042E+03  0.12980938105E+04  0.25500000920E-02 0. -1.
       -2    1    3    3    0  502  0.10008628010E+04 -0.57757038882E+03 -0.60432573294E+03  0.13040412156E+04  0.25500000920E-02 0.  1.
</event>
<event>
 5   0  0.4218590E-06  0.2493667E+04  0.7818609E-02  0.8405245E-01
       -1   -1    0    0    0  501  0.00000000000E+00  0.00000000000E+00  0.68063616069E+03  0.68063616071E+03  0.50400001928E-02 0.  1.
        1   -1    0    0  501    0  0.00000000000E+00  0.00000000000E+00 -0.22840302262E+04  0.22840302263E+04  0.50400001928E-02 0. -1.
    10030    2    1    2    0    0  0.00000000000E+00  0.00000000000E+00 -0.16033940656E+04  0.29646663870E+04  0.24936668295E+04 0.  0.
        1    1    3    3  502    0 -0.40201982095E+03 -0.25999595088E+03 -0.21703927502E+04  0.22225711509E+04  0.50400001928E-02 0. -1.
       -1    1    3    3    0  502  0.40201982095E+03  0.25999595088E+03  0.56699868464E+03  0.74209523602E+03  0.50400001928E-02 0.  1.
</event>
<event>
 5   0  0.4464297E-06  0.2730331E+04  0.7818609E-02  0.8325230E-01
        1   -1    0    0  501    0  0.00000000000E+00  0.00000000000E+00  0.13077403059E+04  0.13077403059E+04  0.50400001928E-02 0.  1.
       -1   -1    0    0    0  501  0.00000000000E+00  0.00000000000E+00 -0.14251120006E+04  0.14251120006E+04  0.50400001928E-02 0. -1.
    10030    2    1    2    0    0  0.00000000000E+00  0.00000000000E+00 -0.11737169471E+03  0.27328523065E+04  0.27303306786E+04 0.  0.
        4    1    3    3  502    0  0.13600182991E+04 -0.45199021830E+02 -0.16824956270E+03  0.13711317420E+04  0.12699999809E+01 0. -1.
       -4    1    3    3    0  502 -0.13600182991E+04  0.45199021830E+02  0.50877867988E+02  0.13617205645E+04  0.12699999809E+01 0.  1.
</event>
<event>
 5   0  0.4597705E-06  0.2427137E+04  0.7818609E-02  0.8429413E-01
       -1   -1    0    0    0  501  0.00000000000E+00  0.00000000000E+00  0.14957723445E+04  0.14957723445E+04  0.50400001928E-02 0.  1.
        1   -1    0    0  501    0  0.00000000000E+00  0.00000000000E+00 -0.98460752774E+03  0.98460752776E+03  0.50400001928E-02 0. -1.
    10030    2    1    2    0    0  0.00000000000E+00  0.00000000000E+00  0.51116481676E+03  0.24803798723E+04  0.24271371698E+04 0.  0.
        5    1    3    3  502    0  0.41145769313E+03  0.81946993442E+03 -0.55677555303E+03  0.10727765439E+04  0.46999998093E+01 0. -1.
       -5    1    3    3    0  502 -0.41145769313E+03 -0.81946993442E+03  0.10679403698E+04  0.14076033284E+04  0.46999998093E+01 0.  1.
</event>
<event>
 5   0  0.1116310E-05  0.2600990E+04  0.7818609E-02  0.8367865E-01
        2   -1    0    0  501    0  0.00000000000E+00  0.00000000000E+00  0.95766324737E+03  0.95766324737E+03  0.25500000920E-02 0. -1.
       -2   -1    0    0    0  501  0.00000000000E+00  0.00000000000E+00 -0.17660560425E+04  0.17660560425E+04  0.25500000920E-02 0.  1.
    10030    2    1    2    0    0  0.00000000000E+00  0.00000000000E+00 -0.80839279509E+03  0.27237192898E+04  0.26009897844E+04 0.  0.
        4    1    3    3  502    0  0.23643174200E+03  0.21221773850E+03  0.91639943421E+03  0.96991023970E+03  0.12699999809E+01 0. -1.
       -4    1    3    3    0  502 -0.23643174200E+03 -0.21221773850E+03 -0.17247922293E+04  0.17538090501E+04  0.12699999809E+01 0.  1.
</event>
<event>
 5   0  0.4597705E-06  0.2495020E+04  0.7818609E-02  0.8404762E-01
       -1   -1    0    0    0  501  0.00000000000E+00  0.00000000000E+00  0.81550461452E+03  0.81550461453E+03  0.50400001928E-02 0. -1.
        1   -1    0    0  501    0  0.00000000000E+00  0.00000000000E+00 -0.19083661500E+04  0.19083661500E+04  0.50400001928E-02 0.  1.
    10030    2    1    2    0    0  0.00000000000E+00  0.00000000000E+00 -0.10928615355E+04  0.27238707645E+04  0.24950201615E+04 0.  0.
        5    1    3    3  502    0 -0.24801616860E+03 -0.11034390492E+04  0.28327467124E+02  0.11313329707E+04  0.46999998093E+01 0. -1.
       -5    1    3    3    0  502  0.24801616860E+03  0.11034390492E+04 -0.11211890026E+04  0.15925377938E+04  0.46999998093E+01 0.  1.
</event>
<event>
 5   0  0.1085061E-05  0.2629605E+04  0.7818609E-02  0.8358214E-01
        2   -1    0    0  501    0  0.00000000000E+00  0.00000000000E+00  0.99688571865E+03  0.99688571865E+03  0.25500000920E-02 0. -1.
       -2   -1    0    0    0  501  0.00000000000E+00  0.00000000000E+00 -0.17341066223E+04  0.17341066223E+04  0.25500000920E-02 0.  1.
    10030    2    1    2    0    0  0.00000000000E+00  0.00000000000E+00 -0.73722090365E+03  0.27309923410E+04  0.26296053897E+04 0.  0.
        1    1    3    3  502    0 -0.45612817264E+03  0.91040068135E+03 -0.12324392038E+04  0.15986834276E+04  0.50400001928E-02 0.  1.
       -1    1    3    3    0  502  0.45612817264E+03 -0.91040068135E+03  0.49521830016E+03  0.11323089134E+04  0.50400001928E-02 0. -1.
</event>
<event>
 5   0  0.4597705E-06  0.2593640E+04  0.7818609E-02  0.8370365E-01
       -1   -1    0    0    0  501  0.00000000000E+00  0.00000000000E+00  0.24774540350E+04  0.24774540350E+04  0.50400001928E-02 0.  1.
        1   -1    0    0  501    0  0.00000000000E+00  0.00000000000E+00 -0.67881876155E+03  0.67881876157E+03  0.50400001928E-02 0. -1.
    10030    2    1    2    0    0  0.00000000000E+00  0.00000000000E+00  0.17986352734E+04  0.31562727965E+04  0.25936401291E+04 0.  0.
        5    1    3    3  502    0  0.73142144980E+03  0.49885545795E+03  0.20524401086E+04  0.22352553757E+04  0.46999998093E+01 0.  1.
       -5    1    3    3    0  502 -0.73142144980E+03 -0.49885545795E+03 -0.25380483518E+03  0.92101742085E+03  0.46999998093E+01 0. -1.
</event>
<event>
 5   0  0.4361864E-06  0.2527138E+04  0.7818609E-02  0.8393381E-01
       -1   -1    0    0    0  501  0.00000000000E+00  0.00000000000E+00  0.67126883976E+03  0.67126883978E+03  0.50400001928E-02 0.  1.
        1   -1    0    0  501    0  0.00000000000E+00  0.00000000000E+00 -0.23784908273E+04  0.23784908273E+04  0.50400001928E-02 0. -1.
    10030    2    1    2    0    0  0.00000000000E+00  0.00000000000E+00 -0.17072219875E+04  0.30497596671E+04  0.25271381269E+04 0.  0.
        3    1    3    3  502    0 -0.52922508509E+03 -0.10749537358E+04 -0.13378417049E+04  0.17959468707E+04  0.10100000352E+00 0. -1.
       -3    1    3    3    0  502  0.52922508509E+03  0.10749537358E+04 -0.36938028261E+03  0.12538127963E+04  0.10100000352E+00 0.  1.
</event>
<event>
 5   0  0.4361864E-06  0.2611309E+04  0.7818609E-02  0.8364370E-01
        1   -1    0    0  501    0  0.00000000000E+00  0.00000000000E+00  0.18165790968E+04  0.18165790968E+04  0.50400001928E-02 0.  1.
       -1   -1    0    0    0  501  0.00000000000E+00  0.00000000000E+00 -0.93843088761E+03  0.93843088763E+03  0.50400001928E-02 0. -1.
    10030    2    1    2    0    0  0.00000000000E+00  0.00000000000E+00  0.87814820916E+03  0.27550099844E+04  0.26113091998E+04 0.  0.
        3    1    3    3  502    0 -0.43881084356E+03  0.11505483537E+04 -0.18883677405E+02  0.12315328148E+04  0.10100000352E+00 0. -1.
       -3    1    3    3    0  502  0.43881084356E+03 -0.11505483537E+04  0.89703188656E+03  0.15234771696E+04  0.10100000352E+00 0.  1.
</event>
<event>
 5   0  0.4597705E-06  0.2591761E+04  0.7818609E-02  0.8371005E-01
       -1   -1    0    0    0  501  0.00000000000E+00  0.00000000000E+00  0.97924710578E+03  0.97924710579E+03  0.50400001928E-02 0. -1.
        1   -1    0    0  501    0  0.00000000000E+00  0.00000000000E+00 -0.17148958066E+04  0.17148958066E+04  0.50400001928E-02 0.  1.
    10030    2    1    2    0    0  0.00000000000E+00  0.00000000000E+00 -0.73564870079E+03  0.26941429124E+04  0.25917613743E+04 0.  0.
        5    1    3    3  502    0 -0.12689808362E+04 -0.24240448179E+03 -0.26277608513E+03  0.13183875213E+04  0.46999998093E+01 0. -1.
       -5    1    3    3    0  502  0.12689808362E+04  0.24240448179E+03 -0.47287261566E+03  0.13757553911E+04  0.46999998093E+01 0.  1.
</event>
<event>
 5   0  0.1116310E-05  0.2589926E+04  0.7818609E-02  0.8371631E-01
       -2   -1    0    0    0  501  0.00000000000E+00  0.00000000000E+00  0.83606913138E+03  0.83606913139E+03  0.25500000920E-02 0.  1.
        2   -1    0    0  501    0  0.00000000000E+00  0.00000000000E+00 -0.20057296686E+04  0.20057296686E+04  0.25500000920E-02 0. -1.
    10030    2    1    2    0    0  0.00000000000E+00  0.00000000000E+00 -0.11696605372E+04  0.28417988000E+04  0.25899256065E+04 0.  0.
        4    1    3    3  502    0  0.41769153341E+03 -0.24209005989E+03 -0.19032921010E+04  0.19635672254E+04  0.12699999809E+01 0. -1.
       -4    1    3    3    0  502 -0.41769153341E+03  0.24209005989E+03  0.73363156381E+03  0.87823157453E+03  0.12699999809E+01 0.  1.
</event>
<event>
 5   0  0.1136881E-05  0.2603323E+04  0.7818609E-02  0.8367073E-01
        2   -1    0    0  501    0  0.00000000000E+00  0.00000000000E+00  0.13799468527E+04  0.13799468527E+04  0.25500000920E-02 0.  1.
       -2   -1    0    0    0  501  0.00000000000E+00  0.00000000000E+00 -0.12278175578E+04  0.12278175578E+04  0.25500000920E-02 0. -1.
    10030    2    1    2    0    0  0.00000000000E+00  0.00000000000E+00  0.15212929489E+03  0.26077644105E+04  0.26033232412E+04 0.  0.
        3    1    3    3  502    0 -0.57075152872E+03 -0.18785462221E+03 -0.10805810261E+04  0.12364069034E+04  0.10100000352E+00 0. -1.
       -3    1    3    3    0  502  0.57075152872E+03  0.18785462221E+03  0.12327103210E+04  0.13713575071E+04  0.10100000352E+00 0.  1.
</event>
<event>
 5   0  0.1086507E-05  0.2629817E+04  0.7818609E-02  0.8358143E-01
       -2   -1    0    0    0  501  0.00000000000E+00  0.00000000000E+00  0.12380382712E+04  0.12380382712E+04  0.25500000920E-02 0. -1.
        2   -1    0    0  501    0  0.00000000000E+00  0.00000000000E+00 -0.13965511835E+04  0.13965511835E+04  0.25500000920E-02 0.  1.
    10030    2    1    2    0    0  0.00000000000E+00  0.00000000000E+00 -0.15851291229E+03  0.26345894548E+04  0.26298165814E+04 0.  0.
        2    1    3    3  502    0 -0.67531864461E+03  0.73438597871E+03  0.77880592204E+03  0.12656684802E+04  0.25500000920E-02 0. -1.
       -2    1    3    3    0  502  0.67531864461E+03 -0.73438597871E+03 -0.93731883433E+03  0.13689209746E+04  0.25500000920E-02 0.  1.
</event>
<event>
 5   0  0.1085061E-05  0.2582003E+04  0.7818609E-02  0.8374340E-01
       -2   -1    0    0    0  501  0.00000000000E+00  0.00000000000E+00  0.85800109599E+03  0.85800109599E+03  0.25500000920E-02 0. -1.
        2   -1    0    0  501    0  0.00000000000E+00  0.00000000000E+00 -0.19425207703E+04  0.19425207703E+04  0.25500000920E-02 0.  1.
    10030    2    1    2    0    0  0.00000000000E+00  0.00000000000E+00 -0.10845196743E+04  0.28005218663E+04  0.25820030596E+04 0.  0.
        1    1    3    3  502    0  0.55829969891E+03  0.84732104191E+03  0.32343202180E+03  0.10650163260E+04  0.50400001928E-02 0. -1.
       -1    1    3    3    0  502 -0.55829969891E+03 -0.84732104191E+03 -0.14079516961E+04  0.17355055403E+04  0.50400001928E-02 0.  1.
</event>
<event>
 5   0  0.1085255E-05  0.2596154E+04  0.7818609E-02  0.8369509E-01
       -2   -1    0    0    0  501  0.00000000000E+00  0.00000000000E+00  0.15841661472E+04  0.15841661472E+04  0.25500000920E-02 0.  1.
        2   -1    0    0  501    0  0.00000000000E+00  0.00000000000E+00 -0.10636538165E+04  0.10636538165E+04  0.25500000920E-02 0. -1.
    10030    2    1    2    0    0  0.00000000000E+00  0.00000000000E+00  0.52051233072E+03  0.26478199637E+04  0.25961543624E+04 0.  0.
        5    1    3    3  502    0 -0.10320870794E+04 -0.49397130231E+03 -0.36494461096E+03  0.12010070965E+04  0.46999998093E+01 0. -1.
       -5    1    3    3    0  502  0.10320870794E+04  0.49397130231E+03  0.88545694168E+03  0.14468128671E+04  0.46999998093E+01 0.  1.
</event>
<event>
 5   0  0.1136881E-05  0.2596122E+04  0.7818609E-02  0.8369520E-01
        2   -1    0    0  501    0  0.00000000000E+00  0.00000000000E+00  0.18758412616E+04  0.18758412616E+04  0.25500000920E-02 0. -1.
       -2   -1    0    0    0  501  0.00000000000E+00  0.00000000000E+00 -0.89824338117E+03  0.89824338118E+03  0.25500000920E-02 0.  1.
    10030    2    1    2    0    0  0.00000000000E+00  0.00000000000E+00  0.97759788041E+03  0.27740846428E+04  0.25961217208E+04 0.  0.
        3    1    3    3  502    0 -0.27720947825E+03  0.29225170786E+03  0.18073673381E+04  0.18517107930E+04  0.10100000352E+00 0. -1.
       -3    1    3    3    0  502  0.27720947825E+03 -0.29225170786E+03 -0.82976945774E+03  0.92237384979E+03  0.10100000352E+00 0.  1.
</event>
<event>
 5   0  0.4218590E-06  0.2595137E+04  0.7818609E-02  0.8369855E-01
       -1   -1    0    0    0  501  0.00000000000E+00  0.00000000000E+00  0.10281966485E+04  0.10281966485E+04  0.50400001928E-02 0.  1.
        1   -1    0    0  501    0  0.00000000000E+00  0.00000000000E+00 -0.16375112551E+04  0.16375112551E+04  0.50400001928E-02 0. -1.
    10030    2    1    2    0    0  0.00000000000E+00  0.00000000000E+00 -0.60931460656E+03  0.26657079036E+04  0.25951366703E+04 0.  0.
        1    1    3    3  502    0 -0.40755169419E+03 -0.21203873727E+01 -0.15700584486E+04  0.16220932192E+04  0.50400001928E-02 0. -1.
       -1    1    3    3    0  502  0.40755169419E+03  0.21203873727E+01  0.96074384207E+03  0.10436146844E+04  0.50400001928E-02 0.  1.
</event>
<event>
 5   0  0.4361864E-06  0.2587371E+04  0.7818609E-02  0.8372504E-01
        1   -1    0    0  501    0  0.00000000000E+00  0.00000000000E+00  0.94495532304E+03  0.94495532305E+03  0.50400001928E-02 0. -1.
       -1   -1    0    0    0  501  0.00000000000E+00  0.00000000000E+00 -0.17711129706E+04  0.17711129706E+04  0.50400001928E-02 0.  1.
    10030    2    1    2    0    0  0.00000000000E+00  0.00000000000E+00 -0.82615764756E+03  0.27160682937E+04  0.25873713528E+04 0.  0.
        3    1    3    3  502    0  0.18960029652E+03 -0.80420328883E+03  0.63189092785E+03  0.10401814059E+04  0.10100000352E+00 0. -1.
       -3    1    3    3    0  502 -0.18960029652E+03  0.80420328883E+03 -0.14580485754E+04  0.16758868878E+04  0.10100000352E+00 0.  1.
</event>
<event>
 5   0  0.4597705E-06  0.2598837E+04  0.7818609E-02  0.8368596E-01
        1   -1    0    0  501    0  0.00000000000E+00  0.00000000000E+00  0.17549654045E+04  0.17549654045E+04  0.50400001928E-02 0.  1.
       -1   -1    0    0    0  501  0.00000000000E+00  0.00000000000E+00 -0.96212050686E+03  0.96212050687E+03  0.50400001928E-02 0. -1.
    10030    2    1    2    0    0  0.00000000000E+00  0.00000000000E+00  0.79284489763E+03  0.27170859114E+04  0.25988368202E+04 0.  0.
        5    1    3    3  502    0 -0.81602805038E+03  0.10110956008E+04  0.41295398175E+03  0.13633668523E+04  0.46999998093E+01 0.  1.
       -5    1    3    3    0  502  0.81602805038E+03 -0.10110956008E+04  0.37989091588E+03  0.13537190591E+04  0.46999998093E+01 0. -1.
</event>
<event>
 5   0  0.4361864E-06  0.2609376E+04  0.7818609E-02  0.8365023E-01
       -1   -1    0    0    0  501  0.00000000000E+00  0.00000000000E+00  0.10105691634E+04  0.10105691634E+04  0.50400001928E-02 0. -1.
        1   -1    0    0  501    0  0.00000000000E+00  0.00000000000E+00 -0.16844077355E+04  0.16844077355E+04  0.50400001928E-02 0.  1.
    10030    2    1    2    0    0  0.00000000000E+00  0.00000000000E+00 -0.67383857208E+03  0.26949768990E+04  0.26093757998E+04 0.  0.
        3    1    3    3  502    0 -0.88757811734E+03 -0.83997937706E+03  0.13507408968E+03  0.12294735817E+04  0.10100000352E+00 0. -1.
       -3    1    3    3    0  502  0.88757811734E+03  0.83997937706E+03 -0.80891266176E+03  0.14655033172E+04  0.10100000352E+00 0.  1.
</event>
<event>
 5   0  0.1086507E-05  0.2593859E+04  0.7818609E-02  0.8370290E-01
       -2   -1    0    0    0  501  0.00000000000E+00  0.00000000000E+00  0.89807137052E+03  0.89807137052E+03  0.25500000920E-02 0.  1.
        2   -1    0    0  501    0  0.00000000000E+00  0.00000000000E+00 -0.18729313311E+04  0.18729313311E+04  0.25500000920E-02 0. -1.
    10030    2    1    2    0    0  0.00000000000E+00  0.00000000000E+00 -0.97485996057E+03  0.27710027016E+04  0.25938589070E+04 0.  0.
        2    1    3    3  502    0  0.97533475125E+03  0.85472056933E+03 -0.50257108696E+03  0.13908281080E+04  0.25500000920E-02 0. -1.
       -2    1    3    3    0  502 -0.97533475125E+03 -0.85472056933E+03 -0.47228887360E+03  0.13801745936E+04  0.25500000920E-02 0.  1.
</event>
<event>
 5   0  0.1136881E-05  0.2600767E+04  0.7818609E-02  0.8367941E-01
       -2   -1    0    0    0  501  0.00000000000E+00  0.00000000000E+00  0.93846688866E+03  0.93846688867E+03  0.25500000920E-02 0.  1.
        2   -1    0    0  501    0  0.00000000000E+00  0.00000000000E+00 -0.18018719189E+04  0.18018719189E+04  0.25500000920E-02 0. -1.
    10030    2    1    2    0    0  0.00000000000E+00  0.00000000000E+00 -0.86340503025E+03  0.27403388076E+04  0.26007669127E+04 0.  0.
        3    1    3    3  502    0  0.73874385547E+03 -0.90329408910E+03  0.17295326515E+03  0.11796590768E+04  0.10100000352E+00 0.  1.
       -3    1    3    3    0  502 -0.73874385547E+03  0.90329408910E+03 -0.10363582954E+04  0.15606797308E+04  0.10100000352E+00 0. -1.
</event>
<event>
 5   0  0.4361864E-06  0.2668434E+04  0.7818609E-02  0.8345320E-01
        1   -1    0    0  501    0  0.00000000000E+00  0.00000000000E+00  0.14273369583E+04  0.14273369583E+04  0.50400001928E-02 0. -1.
       -1   -1    0    0    0  501  0.00000000000E+00  0.00000000000E+00 -0.12471717699E+04  0.12471717700E+04  0.50400001928E-02 0.  1.
    10030    2    1    2    0    0  0.00000000000E+00  0.00000000000E+00  0.18016518837E+03  0.26745087283E+04  0.26684335185E+04 0.  0.
        3    1    3    3  502    0  0.12365413650E+04 -0.49587841360E+03  0.16238838031E+03  0.13421251598E+04  0.10100000352E+00 0.  1.
       -3    1    3    3    0  502 -0.12365413650E+04  0.49587841360E+03  0.17776808062E+02  0.13323835684E+04  0.10100000352E+00 0. -1.
</event>
<event>
 5   0  0.4415080E-06  0.2602199E+04  0.7818609E-02  0.8367455E-01
        1   -1    0    0  501    0  0.00000000000E+00  0.00000000000E+00  0.24364747774E+04  0.24364747774E+04  0.50400001928E-02 0. -1.
       -1   -1    0    0    0  501  0.00000000000E+00  0.00000000000E+00 -0.69479881745E+03  0.69479881747E+03  0.50400001928E-02 0.  1.
    10030    2    1    2    0    0  0.00000000000E+00  0.00000000000E+00  0.17416759600E+04  0.31312735949E+04  0.26021989118E+04 0.  0.
        2    1    3    3  502    0 -0.11375555498E+04 -0.21995918302E+03  0.15849272620E+03  0.11694163568E+04  0.25500000920E-02 0.  1.
       -2    1    3    3    0  502  0.11375555498E+04  0.21995918302E+03  0.15831832337E+04  0.19618572381E+04  0.25500000920E-02 0. -1.
</event>
<event>
 5   0  0.1086507E-05  0.2298772E+04  0.7818609E-02  0.8478405E-01
       -2   -1    0    0    0  501  0.00000000000E+00  0.00000000000E+00  0.69388403338E+03  0.69388403338E+03  0.25500000920E-02 0. -1.
        2   -1    0    0  501    0  0.00000000000E+00  0.00000000000E+00 -0.19039032568E+04  0.19039032568E+04  0.25500000920E-02 0.  1.
    10030    2    1    2    0    0  0.00000000000E+00  0.00000000000E+00 -0.12100192235E+04  0.25977872902E+04  0.22987719078E+04 0.  0.
        2    1    3    3  502    0 -0.36142473287E+03  0.71019001214E+03 -0.15410581545E+04  0.17348942119E+04  0.25500000920E-02 0.  1.
       -2    1    3    3    0  502  0.36142473287E+03 -0.71019001214E+03  0.33103893100E+03  0.86289307838E+03  0.25500000920E-02 0. -1.
</event>
<event>
 5   0  0.4464297E-06  0.2593599E+04  0.7818609E-02  0.8370379E-01
       -1   -1    0    0    0  501  0.00000000000E+00  0.00000000000E+00  0.76375459579E+03  0.76375459580E+03  0.50400001928E-02 0. -1.
        1   -1    0    0  501    0  0.00000000000E+00  0.00000000000E+00 -0.22018710604E+04  0.22018710604E+04  0.50400001928E-02 0.  1.
    10030    2    1    2    0    0  0.00000000000E+00  0.00000000000E+00 -0.14381164646E+04  0.29656256562E+04  0.25935991531E+04 0.  0.
        4    1    3    3  502    0  0.35066968369E+03 -0.66406191839E+03  0.48982369433E+03  0.89659150283E+03  0.12699999809E+01 0. -1.
       -4    1    3    3    0  502 -0.35066968369E+03  0.66406191839E+03 -0.19279401590E+04  0.20690341534E+04  0.12699999809E+01 0.  1.
</event>
<event>
 5   0  0.1085061E-05  0.2596095E+04  0.7818609E-02  0.8369529E-01
        2   -1    0    0  501    0  0.00000000000E+00  0.00000000000E+00  0.19940241839E+04  0.19940241839E+04  0.25500000920E-02 0.  1.
       -2   -1    0    0    0  501  0.00000000000E+00  0.00000000000E+00 -0.84498871891E+03  0.84498871891E+03  0.25500000920E-02 0. -1.
    10030    2    1    2    0    0  0.00000000000E+00  0.00000000000E+00  0.11490354650E+04  0.28390129028E+04  0.25960954841E+04 0.  0.
        1    1    3    3  502    0  0.74642384686E+03  0.69299310207E+03  0.14545122888E+04  0.17756671977E+04  0.50400001928E-02 0.  1.
       -1    1    3    3    0  502 -0.74642384686E+03 -0.69299310207E+03 -0.30547682381E+03  0.10633457051E+04  0.50400001928E-02 0. -1.
</event>
<event>
 5   0  0.4464297E-06  0.2612023E+04  0.7818609E-02  0.8364129E-01
        1   -1    0    0  501    0  0.00000000000E+00  0.00000000000E+00  0.15527526603E+04  0.15527526603E+04  0.50400001928E-02 0. -1.
       -1   -1    0    0    0  501  0.00000000000E+00  0.00000000000E+00 -0.10984793038E+04  0.10984793038E+04  0.50400001928E-02 0.  1.
    10030    2    1    2    0    0  0.00000000000E+00  0.00000000000E+00  0.45427335648E+03  0.26512319641E+04  0.26120234771E+04 0.  0.
        4    1    3    3  502    0 -0.53499309859E+03  0.95899115897E+03  0.94470219506E+03  0.14485667084E+04  0.12699999809E+01 0. -1.
       -4    1    3    3    0  502  0.53499309859E+03 -0.95899115897E+03 -0.49042883858E+03  0.12026652556E+04  0.12699999809E+01 0.  1.
</event>
<event>
 5   0  0.4361864E-06  0.2612528E+04  0.7818609E-02  0.8363958E-01
       -1   -1    0    0    0  501  0.00000000000E+00  0.00000000000E+00  0.89861271279E+03  0.89861271281E+03  0.50400001928E-02 0.  1.
        1   -1    0    0  501    0  0.00000000000E+00  0.00000000000E+00 -0.18988447011E+04  0.18988447011E+04  0.50400001928E-02 0. -1.
    10030    2    1    2    0    0  0.00000000000E+00  0.00000000000E+00 -0.10002319883E+04  0.27974574139E+04  0.26125282682E+04 0.  0.
        3    1    3    3  502    0 -0.23424296684E+03 -0.28019854208E+03  0.84283217810E+03  0.91855706472E+03  0.10100000352E+00 0.  1.
       -3    1    3    3    0  502  0.23424296684E+03  0.28019854208E+03 -0.18430641664E+04  0.18789003492E+04  0.10100000352E+00 0. -1.
</event>
<event>
 5   0  0.4415080E-06  0.2621700E+04  0.7818609E-02  0.8360867E-01
       -1   -1    0    0    0  501  0.00000000000E+00  0.00000000000E+00  0.19135609491E+04  0.19135609491E+04  0.50400001928E-02 0.  1.
        1   -1    0    0  501    0  0.00000000000E+00  0.00000000000E+00 -0.89797418914E+03  0.89797418915E+03  0.50400001928E-02 0. -1.
    10030    2    1    2    0    0  0.00000000000E+00  0.00000000000E+00  0.10155867600E+04  0.28115351383E+04  0.26217004724E+04 0.  0.
        2    1    3    3  502    0  0.17635931833E+03  0.10819183625E+03  0.18959398244E+04  0.19071958212E+04  0.25500000920E-02 0.  1.
       -2    1    3    3    0  502 -0.17635931833E+03 -0.10819183625E+03 -0.88035306436E+03  0.90433931715E+03  0.25500000920E-02 0. -1.
</event>
<event>
 5   0  0.1085061E-05  0.2598173E+04  0.7818609E-02  0.8368822E-01
        2   -1    0    0  501    0  0.00000000000E+00  0.00000000000E+00  0.19266307942E+04  0.19266307942E+04  0.25500000920E-02 0.  1.
       -2   -1    0    0    0  501  0.00000000000E+00  0.00000000000E+00 -0.87594657237E+03  0.87594657238E+03  0.25500000920E-02 0. -1.
    10030    2    1    2    0    0  0.00000000000E+00  0.00000000000E+00  0.10506842218E+04  0.28025773666E+04  0.25981729276E+04 0.  0.
        1    1    3    3  502    0 -0.33707003492E+03  0.95491485187E+03  0.14030839170E+04  0.17303534497E+04  0.50400001928E-02 0.  1.
       -1    1    3    3    0  502  0.33707003492E+03 -0.95491485187E+03 -0.35239969516E+03  0.10722239169E+04  0.50400001928E-02 0. -1.
</event>
<event>
 5   0  0.1085255E-05  0.2603579E+04  0.7818609E-02  0.8366986E-01
        2   -1    0    0  501    0  0.00000000000E+00  0.00000000000E+00  0.16925817844E+04  0.16925817844E+04  0.25500000920E-02 0. -1.
       -2   -1    0    0    0  501  0.00000000000E+00  0.00000000000E+00 -0.10012257322E+04  0.10012257322E+04  0.25500000920E-02 0.  1.
    10030    2    1    2    0    0  0.00000000000E+00  0.00000000000E+00  0.69135605218E+03  0.26938075166E+04  0.26035794103E+04 0.  0.
        5    1    3    3  502    0 -0.70188237295E+03 -0.15603240817E+03  0.14684814642E+04  0.16350672398E+04  0.46999998093E+01 0. -1.
       -5    1    3    3    0  502  0.70188237295E+03  0.15603240817E+03 -0.77712541202E+03  0.10587402769E+04  0.46999998093E+01 0.  1.
</event>
<event>
 5   0  0.4597705E-06  0.2616022E+04  0.7818609E-02  0.8362779E-01
       -1   -1    0    0    0  501  0.00000000000E+00  0.00000000000E+00  0.21476637614E+04  0.21476637614E+04  0.50400001928E-02 0. -1.
        1   -1    0    0  501    0  0.00000000000E+00  0.00000000000E+00 -0.79662982243E+03  0.79662982244E+03  0.50400001928E-02 0.  1.
    10030    2    1    2    0    0  0.00000000000E+00  0.00000000000E+00  0.13510339389E+04  0.29442935838E+04  0.26160221718E+04 0.  0.
        5    1    3    3  502    0  0.72623864641E+03 -0.91360653026E+03  0.13401932084E+04  0.17771436041E+04  0.46999998093E+01 0. -1.
       -5    1    3    3    0  502 -0.72623864641E+03  0.91360653026E+03  0.10840730488E+02  0.11671499797E+04  0.46999998093E+01 0.  1.
</event>
<event>
 5   0  0.1116310E-05  0.2598133E+04  0.7818609E-02  0.8368836E-01
        2   -1    0    0  501    0  0.00000000000E+00  0.00000000000E+00  0.14459276863E+04  0.14459276863E+04  0.25500000920E-02 0. -1.
       -2   -1    0    0    0  501  0.00000000000E+00  0.00000000000E+00 -0.11671220484E+04  0.11671220484E+04  0.25500000920E-02 0.  1.
    10030    2    1    2    0    0  0.00000000000E+00  0.00000000000E+00  0.27880563796E+03  0.26130497347E+04  0.25981332399E+04 0.  0.
        4    1    3    3  502    0 -0.21143745473E+03 -0.10636871836E+04  0.85865636125E+03  0.13832673572E+04  0.12699999809E+01 0. -1.
       -4    1    3    3    0  502  0.21143745473E+03  0.10636871836E+04 -0.57985072329E+03  0.12297823775E+04  0.12699999809E+01 0.  1.
</event>
<event>
 5   0  0.4218590E-06  0.2576870E+04  0.7818609E-02  0.8376101E-01
       -1   -1    0    0    0  501  0.00000000000E+00  0.00000000000E+00  0.96033708811E+03  0.96033708812E+03  0.50400001928E-02 0. -1.
        1   -1    0    0  501    0  0.00000000000E+00  0.00000000000E+00 -0.17286269000E+04  0.17286269000E+04  0.50400001928E-02 0.  1.
    10030    2    1    2    0    0  0.00000000000E+00  0.00000000000E+00 -0.76828981185E+03  0.26889639881E+04  0.25768698249E+04 0.  0.
        1    1    3    3  502    0  0.10781317210E+04 -0.51295570018E+03 -0.88954053908E+03  0.14888834504E+04  0.50400001928E-02 0.  1.
       -1    1    3    3    0  502 -0.10781317210E+04  0.51295570018E+03  0.12125072723E+03  0.12000805377E+04  0.50400001928E-02 0. -1.
</event>
<event>
 5   0  0.4597705E-06  0.2596827E+04  0.7818609E-02  0.8369280E-01
        1   -1    0    0  501    0  0.00000000000E+00  0.00000000000E+00  0.17063945407E+04  0.17063945407E+04  0.50400001928E-02 0. -1.
       -1   -1    0    0    0  501  0.00000000000E+00  0.00000000000E+00 -0.98797636865E+03  0.98797636866E+03  0.50400001928E-02 0.  1.
    10030    2    1    2    0    0  0.00000000000E+00  0.00000000000E+00  0.71841817209E+03  0.26943709094E+04  0.25968268959E+04 0.  0.
        5    1    3    3  502    0 -0.63385826944E+03 -0.46199947714E+03 -0.71437289595E+03  0.10609290962E+04  0.46999998093E+01 0.  1.
       -5    1    3    3    0  502  0.63385826944E+03  0.46199947714E+03  0.14327910680E+04  0.16334418132E+04  0.46999998093E+01 0. -1.
</event>
<event>
 5   0  0.4415080E-06  0.2597909E+04  0.7818609E-02  0.8368912E-01
       -1   -1    0    0    0  501  0.00000000000E+00  0.00000000000E+00  0.13478034074E+04  0.13478034074E+04  0.50400001928E-02 0.  1.
        1   -1    0    0  501    0  0.00000000000E+00  0.00000000000E+00 -0.12518758531E+04  0.12518758531E+04  0.50400001928E-02 0. -1.
    10030    2    1    2    0    0  0.00000000000E+00  0.00000000000E+00  0.95927554313E+02  0.25996792606E+04  0.25979088056E+04 0.  0.
        2    1    3    3  502    0  0.11885307743E+04  0.11435895303E+03 -0.46385244594E+03  0.12809537318E+04  0.25500000920E-02 0. -1.
       -2    1    3    3    0  502 -0.11885307743E+04 -0.11435895303E+03  0.55978000025E+03  0.13187255287E+04  0.25500000920E-02 0.  1.
</event>
<event>
 5   0  0.4415080E-06  0.2604129E+04  0.7818609E-02  0.8366800E-01
        1   -1    0    0  501    0  0.00000000000E+00  0.00000000000E+00  0.20431399914E+04  0.20431399914E+04  0.50400001928E-02 0.  1.
       -1   -1    0    0    0  501  0.00000000000E+00  0.00000000000E+00 -0.82978718726E+03  0.82978718728E+03  0.50400001928E-02 0. -1.
    10030    2    1    2    0    0  0.00000000000E+00  0.00000000000E+00  0.12133528041E+04  0.28729271787E+04  0.26041285580E+04 0.  0.
        2    1    3    3  502    0  0.12639870927E+04  0.15926203557E+03  0.90340698971E+03  0.15617848621E+04  0.25500000920E-02 0. -1.
       -2    1    3    3    0  502 -0.12639870927E+04 -0.15926203557E+03  0.30994581441E+03  0.13111423166E+04  0.25500000920E-02 0.  1.
</event>
<event>
 5   0  0.4597705E-06  0.2602644E+04  0.7818609E-02  0.8367304E-01
       -1   -1    0    0    0  501  0.00000000000E+00  0.00000000000E+00  0.83637734438E+03  0.83637734439E+03  0.50400001928E-02 0.  1.
        1   -1    0    0  501    0  0.00000000000E+00  0.00000000000E+00 -0.20247314458E+04  0.20247314458E+04  0.50400001928E-02 0. -1.
    10030    2    1    2    0    0  0.00000000000E+00  0.00000000000E+00 -0.11883541014E+04  0.28611087902E+04  0.26026444319E+04 0.  0.
        5    1    3    3  502    0  0.23771132874E+03  0.95366428300E+03  0.34342097012E+03  0.10411254935E+04  0.46999998093E+01 0.  1.
       -5    1    3    3    0  502 -0.23771132874E+03 -0.95366428300E+03 -0.15317750715E+04  0.18199832967E+04  0.46999998093E+01 0. -1.
</event>
<event>
 5   0  0.4597705E-06  0.2629029E+04  0.7818609E-02  0.8358407E-01
        1   -1    0    0  501    0  0.00000000000E+00  0.00000000000E+00  0.22141121047E+04  0.22141121047E+04  0.50400001928E-02 0.  1.
       -1   -1    0    0    0  501  0.00000000000E+00  0.00000000000E+00 -0.78042482076E+03  0.78042482078E+03  0.50400001928E-02 0. -1.
    10030    2    1    2    0    0  0.00000000000E+00  0.00000000000E+00  0.14336872840E+04  0.29945369255E+04  0.26290287503E+04 0.  0.
        5    1    3    3  502    0 -0.32464127416E+03  0.17353991673E+03 -0.72050744476E+03  0.80911131962E+03  0.46999998093E+01 0. -1.
       -5    1    3    3    0  502  0.32464127416E+03 -0.17353991673E+03  0.21541947287E+04  0.21854256059E+04  0.46999998093E+01 0.  1.
</event>
<event>
 5   0  0.4415080E-06  0.2544479E+04  0.7818609E-02  0.8387309E-01
       -1   -1    0    0    0  501  0.00000000000E+00  0.00000000000E+00  0.80552143012E+03  0.80552143013E+03  0.50400001928E-02 0. -1.
        1   -1    0    0  501    0  0.00000000000E+00  0.00000000000E+00 -0.20093741536E+04  0.20093741536E+04  0.50400001928E-02 0.  1.
    10030    2    1    2    0    0  0.00000000000E+00  0.00000000000E+00 -0.12038527235E+04  0.28148955837E+04  0.25444794689E+04 0.  0.
        2    1    3    3  502    0 -0.21387582658E+03  0.74081446799E+03  0.51757044401E+03  0.92867007581E+03  0.25500000920E-02 0. -1.
       -2    1    3    3    0  502  0.21387582658E+03 -0.74081446799E+03 -0.17214231675E+04  0.18862255079E+04  0.25500000920E-02 0.  1.
</event>
<event>
 5   0  0.4415080E-06  0.2607383E+04  0.7818609E-02  0.8365698E-01
        1   -1    0    0  501    0  0.00000000000E+00  0.00000000000E+00  0.17041611804E+04  0.17041611804E+04  0.50400001928E-02 0. -1.
       -1   -1    0    0    0  501  0.00000000000E+00  0.00000000000E+00 -0.99733044634E+03  0.99733044635E+03  0.50400001928E-02 0.  1.
    10030    2    1    2    0    0  0.00000000000E+00  0.00000000000E+00  0.70683073405E+03  0.27014916268E+04  0.26073832328E+04 0.  0.
        2    1    3    3  502    0 -0.37588314437E+03  0.43609392848E+03 -0.85847949624E+03  0.10336600496E+04  0.25500000920E-02 0.  1.
       -2    1    3    3    0  502  0.37588314437E+03 -0.43609392848E+03  0.15653102303E+04  0.16678315771E+04  0.25500000920E-02 0. -1.
</event>
<event>
 5   0  0.4415080E-06  0.2590680E+04  0.7818609E-02  0.8371374E-01
       -1   -1    0    0    0  501  0.00000000000E+00  0.00000000000E+00  0.15338095218E+04  0.15338095218E+04  0.50400001928E-02 0.  1.
        1   -1    0    0  501    0  0.00000000000E+00  0.00000000000E+00 -0.10939466055E+04  0.10939466056E+04  0.50400001928E-02 0. -1.
    10030    2    1    2    0    0  0.00000000000E+00  0.00000000000E+00  0.43986291623E+03  0.26277561273E+04  0.25906800033E+04 0.  0.
        2    1    3    3  502    0  0.43878066323E+03 -0.97828369066E+02  0.14521451972E+04  0.15201396429E+04  0.25500000920E-02 0.  1.
       -2    1    3    3    0  502 -0.43878066323E+03  0.97828369066E+02 -0.10122822810E+04  0.11076164844E+04  0.25500000920E-02 0. -1.
</event>
<event>
 5   0  0.1085061E-05  0.2536005E+04  0.7818609E-02  0.8390270E-01
       -2   -1    0    0    0  501  0.00000000000E+00  0.00000000000E+00  0.74331177386E+03  0.74331177387E+03  0.25500000920E-02 0.  1.
        2   -1    0    0  501    0  0.00000000000E+00  0.00000000000E+00 -0.21630625092E+04  0.21630625092E+04  0.25500000920E-02 0. -1.
    10030    2    1    2    0    0  0.00000000000E+00  0.00000000000E+00 -0.14197507353E+04  0.29063742830E+04  0.25360045983E+04 0.  0.
        1    1    3    3  502    0  0.81438028615E+03 -0.40115726959E+03  0.30467343929E+03  0.95758462292E+03  0.50400001928E-02 0.  1.
       -1    1    3    3    0  502 -0.81438028615E+03  0.40115726959E+03 -0.17244241746E+04  0.19487896601E+04  0.50400001928E-02 0. -1.
</event>
<event>
 5   0  0.4597705E-06  0.2654174E+04  0.7818609E-02  0.8350029E-01
       -1   -1    0    0    0  501  0.00000000000E+00  0.00000000000E+00  0.13176745974E+04  0.13176745974E+04  0.50400001928E-02 0.  1.
        1   -1    0    0  501    0  0.00000000000E+00  0.00000000000E+00 -0.13365664260E+04  0.13365664260E+04  0.50400001928E-02 0. -1.
    10030    2    1    2    0    0  0.00000000000E+00  0.00000000000E+00 -0.18891828585E+02  0.26542410234E+04  0.26541737903E+04 0.  0.
        5    1    3    3  502    0  0.83443008759E+03 -0.70871201274E+03  0.74063391594E+03  0.13217817428E+04  0.46999998093E+01 0.  1.
       -5    1    3    3    0  502 -0.83443008759E+03  0.70871201274E+03 -0.75952574453E+03  0.13324592807E+04  0.46999998093E+01 0. -1.
</event>
<event>
 5   0  0.4415080E-06  0.2603236E+04  0.7818609E-02  0.8367103E-01
       -1   -1    0    0    0  501  0.00000000000E+00  0.00000000000E+00  0.91228166133E+03  0.91228166135E+03  0.50400001928E-02 0.  1.
        1   -1    0    0  501    0  0.00000000000E+00  0.00000000000E+00 -0.18571126615E+04  0.18571126615E+04  0.50400001928E-02 0. -1.
    10030    2    1    2    0    0  0.00000000000E+00  0.00000000000E+00 -0.94483100018E+03  0.27693943229E+04  0.26032363121E+04 0.  0.
        2    1    3    3  502    0  0.64003282090E+03 -0.79201032753E+03  0.39006418652E+03  0.10904459823E+04  0.25500000920E-02 0. -1.
       -2    1    3    3    0  502 -0.64003282090E+03  0.79201032753E+03 -0.13348951867E+04  0.16789483405E+04  0.25500000920E-02 0.  1.
</event>
<event>
 5   0  0.4218590E-06  0.2606866E+04  0.7818609E-02  0.8365873E-01
        1   -1    0    0  501    0  0.00000000000E+00  0.00000000000E+00  0.18798517887E+04  0.18798517887E+04  0.50400001928E-02 0.  1.
       -1   -1    0    0    0  501  0.00000000000E+00  0.00000000000E+00 -0.90376115813E+03  0.90376115814E+03  0.50400001928E-02 0. -1.
    10030    2    1    2    0    0  0.00000000000E+00  0.00000000000E+00  0.97609063054E+03  0.27836129468E+04  0.26068655736E+04 0.  0.
        1    1    3    3  502    0  0.10404691871E+04 -0.13863590107E+02  0.13262305924E+04  0.16857211847E+04  0.50400001928E-02 0.  1.
       -1    1    3    3    0  502 -0.10404691871E+04  0.13863590107E+02 -0.35013996182E+03  0.10978917621E+04  0.50400001928E-02 0. -1.
</event>
<event>
 5   0  0.1085255E-05  0.2595919E+04  0.7818609E-02  0.8369589E-01
        2   -1    0    0  501    0  0.00000000000E+00  0.00000000000E+00  0.27723071898E+04  0.27723071898E+04  0.25500000920E-02 0. -1.
       -2   -1    0    0    0  501  0.00000000000E+00  0.00000000000E+00 -0.60768842412E+03  0.60768842413E+03  0.25500000920E-02 0.  1.
    10030    2    1    2    0    0  0.00000000000E+00  0.00000000000E+00  0.21646187657E+04  0.33799956140E+04  0.25959190953E+04 0.  0.
        5    1    3    3  502    0 -0.47763166235E+03 -0.54825735077E+03  0.24822066178E+04  0.25865208120E+04  0.46999998093E+01 0. -1.
       -5    1    3    3    0  502  0.47763166235E+03  0.54825735077E+03 -0.31758785208E+03  0.79347480195E+03  0.46999998093E+01 0.  1.
</event>
<event>
 5   0  0.1085255E-05  0.2545266E+04  0.7818609E-02  0.8387034E-01
       -2   -1    0    0    0  501  0.00000000000E+00  0.00000000000E+00  0.11039617441E+04  0.11039617441E+04  0.25500000920E-02 0. -1.
        2   -1    0    0  501    0  0.00000000000E+00  0.00000000000E+00 -0.14670750164E+04  0.14670750164E+04  0.25500000920E-02 0.  1.
    10030    2    1    2    0    0  0.00000000000E+00  0.00000000000E+00 -0.36311327235E+03  0.25710367605E+04  0.25452659537E+04 0.  0.
        5    1    3    3  502    0 -0.31574029370E+03  0.94433081049E+03 -0.98212131657E+03  0.13985839207E+04  0.46999998093E+01 0.  1.
       -5    1    3    3    0  502  0.31574029370E+03 -0.94433081049E+03  0.61900804422E+03  0.11724528398E+04  0.46999998093E+01 0. -1.
</event>
<event>
 5   0  0.1116310E-05  0.2602401E+04  0.7818609E-02  0.8367386E-01
        2   -1    0    0  501    0  0.00000000000E+00  0.00000000000E+00  0.20203381355E+04  0.20203381355E+04  0.25500000920E-02 0.  1.
       -2   -1    0    0    0  501  0.00000000000E+00  0.00000000000E+00 -0.83803903631E+03  0.83803903632E+03  0.25500000920E-02 0. -1.
    10030    2    1    2    0    0  0.00000000000E+00  0.00000000000E+00  0.11822990992E+04  0.28583771718E+04  0.26024006026E+04 0.  0.
        4    1    3    3  502    0 -0.40481153323E+02 -0.74459203810E+03  0.17623681216E+04  0.19136350321E+04  0.12699999809E+01 0.  1.
       -4    1    3    3    0  502  0.40481153323E+02  0.74459203810E+03 -0.58006902242E+03  0.94474213976E+03  0.12699999809E+01 0. -1.
</event>
<event>
 5   0  0.4597705E-06  0.2548346E+04  0.7818609E-02  0.8385962E-01
       -1   -1    0    0    0  501  0.00000000000E+00  0.00000000000E+00  0.12871918325E+04  0.12871918325E+04  0.50400001928E-02 0.  1.
        1   -1    0    0  501    0  0.00000000000E+00  0.00000000000E+00 -0.12612861573E+04  0.12612861573E+04  0.50400001928E-02 0. -1.
    10030    2    1    2    0    0  0.00000000000E+00  0.00000000000E+00  0.25905675138E+02  0.25484779898E+04  0.25483463188E+04 0.  0.
        5    1    3    3  502    0  0.41976365543E+03 -0.32004889914E+03 -0.11467890757E+04  0.12624500380E+04  0.46999998093E+01 0. -1.
       -5    1    3    3    0  502 -0.41976365543E+03  0.32004889914E+03  0.11726947508E+04  0.12860279518E+04  0.46999998093E+01 0.  1.
</event>
<event>
 5   0  0.1086507E-05  0.2596996E+04  0.7818609E-02  0.8369222E-01
        2   -1    0    0  501    0  0.00000000000E+00  0.00000000000E+00  0.14521624912E+04  0.14521624912E+04  0.25500000920E-02 0.  1.
       -2   -1    0    0    0  501  0.00000000000E+00  0.00000000000E+00 -0.11610940757E+04  0.11610940757E+04  0.25500000920E-02 0. -1.
    10030    2    1    2    0    0  0.00000000000E+00  0.00000000000E+00  0.29106841543E+03  0.26132565669E+04  0.25969961614E+04 0.  0.
        2    1    3    3  502    0 -0.62484234897E+03 -0.39298176145E+03 -0.92944042366E+03  0.11868960051E+04  0.25500000920E-02 0. -1.
       -2    1    3    3    0  502  0.62484234897E+03  0.39298176145E+03  0.12205088391E+04  0.14263605618E+04  0.25500000920E-02 0.  1.
</event>
<event>
 5   0  0.4415080E-06  0.2656304E+04  0.7818609E-02  0.8349324E-01
       -1   -1    0    0    0  501  0.00000000000E+00  0.00000000000E+00  0.18490712262E+04  0.18490712262E+04  0.50400001928E-02 0. -1.
        1   -1    0    0  501    0  0.00000000000E+00  0.00000000000E+00 -0.95398609322E+03  0.95398609323E+03  0.50400001928E-02 0.  1.
    10030    2    1    2    0    0  0.00000000000E+00  0.00000000000E+00  0.89508513296E+03  0.28030573194E+04  0.26563043765E+04 0.  0.
        2    1    3    3  502    0 -0.10684161570E+04  0.78521509722E+03  0.36640235996E+03  0.13756185964E+04  0.25500000920E-02 0.  1.
       -2    1    3    3    0  502  0.10684161570E+04 -0.78521509722E+03  0.52868277300E+03  0.14274387230E+04  0.25500000920E-02 0. -1.
</event>
<event>
 5   0  0.1086507E-05  0.2604759E+04  0.7818609E-02  0.8366586E-01
       -2   -1    0    0    0  501  0.00000000000E+00  0.00000000000E+00  0.14767102475E+04  0.14767102475E+04  0.25500000920E-02 0.  1.
        2   -1    0    0  501    0  0.00000000000E+00  0.00000000000E+00 -0.11486293115E+04  0.11486293115E+04  0.25500000920E-02 0. -1.
    10030    2    1    2    0    0  0.00000000000E+00  0.00000000000E+00  0.32808093596E+03  0.26253395590E+04  0.26047592402E+04 0.  0.
        2    1    3    3  502    0  0.17366929605E+03 -0.12699277675E+04 -0.68684550722E+02  0.12835868208E+04  0.25500000920E-02 0.  1.
       -2    1    3    3    0  502 -0.17366929605E+03  0.12699277675E+04  0.39676548669E+03  0.13417527382E+04  0.25500000920E-02 0. -1.
</event>
<event>
 5   0  0.4597705E-06  0.2585408E+04  0.7818609E-02  0.8373175E-01
       -1   -1    0    0    0  501  0.00000000000E+00  0.00000000000E+00  0.90169483436E+03  0.90169483437E+03  0.50400001928E-02 0.  1.
        1   -1    0    0  501    0  0.00000000000E+00  0.00000000000E+00 -0.18532697158E+04  0.18532697158E+04  0.50400001928E-02 0. -1.
    10030    2    1    2    0    0  0.00000000000E+00  0.00000000000E+00 -0.95157488140E+03  0.27549645501E+04  0.25854080756E+04 0.  0.
        5    1    3    3  502    0  0.48939954751E+03 -0.53224638904E+03 -0.16176338607E+04  0.17718802254E+04  0.46999998093E+01 0. -1.
       -5    1    3    3    0  502 -0.48939954751E+03  0.53224638904E+03  0.66605897929E+03  0.98308432479E+03  0.46999998093E+01 0.  1.
</event>
<event>
 5   0  0.1116310E-05  0.2588455E+04  0.7818609E-02  0.8372133E-01
        2   -1    0    0  501    0  0.00000000000E+00  0.00000000000E+00  0.18586737942E+04  0.18586737942E+04  0.25500000920E-02 0. -1.
       -2   -1    0    0    0  501  0.00000000000E+00  0.00000000000E+00 -0.90119344619E+03  0.90119344620E+03  0.25500000920E-02 0.  1.
    10030    2    1    2    0    0  0.00000000000E+00  0.00000000000E+00  0.95748034802E+03  0.27598672404E+04  0.25884548611E+04 0.  0.
        4    1    3    3  502    0 -0.70764808522E+03 -0.34856106192E+03 -0.61524838162E+03  0.10003963267E+04  0.12699999809E+01 0. -1.
       -4    1    3    3    0  502  0.70764808522E+03  0.34856106192E+03  0.15727287296E+04  0.17594709138E+04  0.12699999809E+01 0.  1.
</event>
<event>
 5   0  0.4218590E-06  0.2607755E+04  0.7818609E-02  0.8365572E-01
        1   -1    0    0  501    0  0.00000000000E+00  0.00000000000E+00  0.10435776969E+04  0.10435776969E+04  0.50400001928E-02 0.  1.
       -1   -1    0    0    0  501  0.00000000000E+00  0.00000000000E+00 -0.16291041759E+04  0.16291041760E+04  0.50400001928E-02 0. -1.
    10030    2    1    2    0    0  0.00000000000E+00  0.00000000000E+00 -0.58552647904E+03  0.26726818729E+04  0.26077551909E+04 0.  0.
        1    1    3    3  502    0  0.31616890694E+03 -0.12313905747E+04 -0.58947286228E+03  0.14013435626E+04  0.50400001928E-02 0. -1.
       -1    1    3    3    0  502 -0.31616890694E+03  0.12313905747E+04  0.39463832410E+01  0.12713383102E+04  0.50400001928E-02 0.  1.
</event>
<event>
 5   0  0.4597705E-06  0.2615439E+04  0.7818609E-02  0.8362976E-01
       -1   -1    0    0    0  501  0.00000000000E+00  0.00000000000E+00  0.14720416702E+04  0.14720416702E+04  0.50400001928E-02 0.  1.
        1   -1    0    0  501    0  0.00000000000E+00  0.00000000000E+00 -0.11617402006E+04  0.11617402006E+04  0.50400001928E-02 0. -1.
    10030    2    1    2    0    0  0.00000000000E+00  0.00000000000E+00  0.31030146962E+03  0.26337818708E+04  0.26154387665E+04 0.  0.
        5    1    3    3  502    0 -0.82344366610E+03 -0.42666327980E+03  0.10835749627E+04  0.14262741025E+04  0.46999998093E+01 0.  1.
       -5    1    3    3    0  502  0.82344366610E+03  0.42666327980E+03 -0.77327349309E+03  0.12075077684E+04  0.46999998093E+01 0. -1.
</event>
<event>
 5   0  0.4218590E-06  0.2617534E+04  0.7818609E-02  0.8362270E-01
        1   -1    0    0  501    0  0.00000000000E+00  0.00000000000E+00  0.10327216250E+04  0.10327216250E+04  0.50400001928E-02 0. -1.
       -1   -1    0    0    0  501  0.00000000000E+00  0.00000000000E+00 -0.16585986844E+04  0.16585986844E+04  0.50400001928E-02 0.  1.
    10030    2    1    2    0    0  0.00000000000E+00  0.00000000000E+00 -0.62587705940E+03  0.26913203093E+04  0.26175337465E+04 0.  0.
        1    1    3    3  502    0 -0.12729447322E+04 -0.16626358437E+03 -0.51125789020E+02  0.12847745783E+04  0.50400001928E-02 0.  1.
       -1    1    3    3    0  502  0.12729447322E+04  0.16626358437E+03 -0.57475127038E+03  0.14065457310E+04  0.50400001928E-02 0. -1.
</event>
<event>
 5   0  0.1086507E-05  0.2573907E+04  0.7818609E-02  0.8377119E-01
        2   -1    0    0  501    0  0.00000000000E+00  0.00000000000E+00  0.21756092068E+04  0.21756092068E+04  0.25500000920E-02 0. -1.
       -2   -1    0    0    0  501  0.00000000000E+00  0.00000000000E+00 -0.76128086054E+03  0.76128086054E+03  0.25500000920E-02 0.  1.
    10030    2    1    2    0    0  0.00000000000E+00  0.00000000000E+00  0.14143283463E+04  0.29368900673E+04  0.25739072626E+04 0.  0.
        2    1    3    3  502    0 -0.16149544613E+03 -0.18541322738E+03 -0.73423004069E+03  0.77430781777E+03  0.25500000920E-02 0.  1.
       -2    1    3    3    0  502  0.16149544613E+03  0.18541322738E+03  0.21485583869E+04  0.21625822496E+04  0.25500000920E-02 0. -1.
</event>
<event>
 5   0  0.1136881E-05  0.2598790E+04  0.7818609E-02  0.8368612E-01
       -2   -1    0    0    0  501  0.00000000000E+00  0.00000000000E+00  0.17989930311E+04  0.17989930311E+04  0.25500000920E-02 0. -1.
        2   -1    0    0  501    0  0.00000000000E+00  0.00000000000E+00 -0.93854048011E+03  0.93854048011E+03  0.25500000920E-02 0.  1.
    10030    2    1    2    0    0  0.00000000000E+00  0.00000000000E+00  0.86045255102E+03  0.27375335112E+04  0.25987903210E+04 0.  0.
        3    1    3    3  502    0  0.81953781346E+03  0.88251713555E+03  0.94406897659E+03  0.15302761074E+04  0.10100000352E+00 0.  1.
       -3    1    3    3    0  502 -0.81953781346E+03 -0.88251713555E+03 -0.83616425573E+02  0.12072574038E+04  0.10100000352E+00 0. -1.
</event>
<event>
 5   0  0.4597705E-06  0.2596843E+04  0.7818609E-02  0.8369275E-01
        1   -1    0    0  501    0  0.00000000000E+00  0.00000000000E+00  0.14934355357E+04  0.14934355357E+04  0.50400001928E-02 0.  1.
       -1   -1    0    0    0  501  0.00000000000E+00  0.00000000000E+00 -0.11288721506E+04  0.11288721506E+04  0.50400001928E-02 0. -1.
    10030    2    1    2    0    0  0.00000000000E+00  0.00000000000E+00  0.36456338505E+03  0.26223076863E+04  0.25968425328E+04 0.  0.
        5    1    3    3  502    0 -0.34050714854E+03  0.99102877422E+03 -0.59191278520E+03  0.12035223242E+04  0.46999998093E+01 0.  1.
       -5    1    3    3    0  502  0.34050714854E+03 -0.99102877422E+03  0.95647617026E+03  0.14187853621E+04  0.46999998093E+01 0. -1.
</event>
<event>
 5   0  0.1085255E-05  0.2605599E+04  0.7818609E-02  0.8366302E-01
        2   -1    0    0  501    0  0.00000000000E+00  0.00000000000E+00  0.15844922164E+04  0.15844922164E+04  0.25500000920E-02 0.  1.
       -2   -1    0    0    0  501  0.00000000000E+00  0.00000000000E+00 -0.10711864521E+04  0.10711864522E+04  0.25500000920E-02 0. -1.
    10030    2    1    2    0    0  0.00000000000E+00  0.00000000000E+00  0.51330576424E+03  0.26556786685E+04  0.26055990449E+04 0.  0.
        5    1    3    3  502    0 -0.36731776071E+03 -0.95068081956E+03  0.10837598987E+04  0.14877076212E+04  0.46999998093E+01 0.  1.
       -5    1    3    3    0  502  0.36731776071E+03  0.95068081956E+03 -0.57045413446E+03  0.11679710474E+04  0.46999998093E+01 0. -1.
</event>
<event>
 5   0  0.1085255E-05  0.2541906E+04  0.7818609E-02  0.8388207E-01
       -2   -1    0    0    0  501  0.00000000000E+00  0.00000000000E+00  0.17907858974E+04  0.17907858974E+04  0.25500000920E-02 0. -1.
        2   -1    0    0  501    0  0.00000000000E+00  0.00000000000E+00 -0.90201812446E+03  0.90201812447E+03  0.25500000920E-02 0.  1.
    10030    2    1    2    0    0  0.00000000000E+00  0.00000000000E+00  0.88876777295E+03  0.26928040219E+04  0.25419058492E+04 0.  0.
        5    1    3    3  502    0 -0.93211863993E+03 -0.68445097985E+03  0.10029219813E+04  0.15307491282E+04  0.46999998093E+01 0. -1.
       -5    1    3    3    0  502  0.93211863993E+03  0.68445097985E+03 -0.11415420840E+03  0.11620548937E+04  0.46999998093E+01 0.  1.
</event>
<event>
 5   0  0.1085255E-05  0.2553156E+04  0.7818609E-02  0.8384290E-01
       -2   -1    0    0    0  501  0.00000000000E+00  0.00000000000E+00  0.68561399980E+03  0.68561399981E+03  0.25500000920E-02 0.  1.
        2   -1    0    0  501    0  0.00000000000E+00  0.00000000000E+00 -0.23769218017E+04  0.23769218017E+04  0.25500000920E-02 0. -1.
    10030    2    1    2    0    0  0.00000000000E+00  0.00000000000E+00 -0.16913078019E+04  0.30625358015E+04  0.25531555877E+04 0.  0.
        5    1    3    3  502    0  0.20326920656E+03 -0.11554805903E+04 -0.24210243378E+03  0.11979521874E+04  0.46999998093E+01 0.  1.
       -5    1    3    3    0  502 -0.20326920656E+03  0.11554805903E+04 -0.14492053681E+04  0.18645836141E+04  0.46999998093E+01 0. -1.
</event>
<event>
 5   0  0.4218590E-06  0.2630310E+04  0.7818609E-02  0.8357978E-01
        1   -1    0    0  501    0  0.00000000000E+00  0.00000000000E+00  0.18915650901E+04  0.18915650901E+04  0.50400001928E-02 0.  1.
       -1   -1    0    0    0  501  0.00000000000E+00  0.00000000000E+00 -0.91439242884E+03  0.91439242885E+03  0.50400001928E-02 0. -1.
    10030    2    1    2    0    0  0.00000000000E+00  0.00000000000E+00  0.97717266124E+03  0.28059575189E+04  0.26303100935E+04 0.  0.
        1    1    3    3  502    0  0.31161047019E+02 -0.73023203342E+03  0.16549525615E+04  0.18091649494E+04  0.50400001928E-02 0.  1.
       -1    1    3    3    0  502 -0.31161047019E+02  0.73023203342E+03 -0.67777990022E+03  0.99679256952E+03  0.50400001928E-02 0. -1.
</event>
<event>
 5   0  0.1116310E-05  0.2582973E+04  0.7818609E-02  0.8374008E-01
       -2   -1    0    0    0  501  0.00000000000E+00  0.00000000000E+00  0.62405479925E+03  0.62405479926E+03  0.25500000920E-02 0.  1.
        2   -1    0    0  501    0  0.00000000000E+00  0.00000000000E+00 -0.26727414180E+04  0.26727414180E+04  0.25500000920E-02 0. -1.
    10030    2    1    2    0    0  0.00000000000E+00  0.00000000000E+00 -0.20486866187E+04  0.32967962172E+04  0.25829727904E+04 0.  0.
        4    1    3    3  502    0  0.99121536532E+03 -0.52432180679E+03 -0.18421231201E+04  0.21565807335E+04  0.12699999809E+01 0. -1.
       -4    1    3    3    0  502 -0.99121536532E+03  0.52432180679E+03 -0.20656349863E+03  0.11402154838E+04  0.12699999809E+01 0.  1.
</event>
<event>
 5   0  0.4218590E-06  0.2596294E+04  0.7818609E-02  0.8369461E-01
        1   -1    0    0  501    0  0.00000000000E+00  0.00000000000E+00  0.19526200915E+04  0.19526200915E+04  0.50400001928E-02 0.  1.
       -1   -1    0    0    0  501  0.00000000000E+00  0.00000000000E+00 -0.86303839068E+03  0.86303839070E+03  0.50400001928E-02 0. -1.
    10030    2    1    2    0    0  0.00000000000E+00  0.00000000000E+00  0.10895817008E+04  0.28156584822E+04  0.25962943603E+04 0.  0.
        1    1    3    3  502    0  0.11704736737E+04 -0.49392022051E+03  0.83421044811E+03  0.15198265943E+04  0.50400001928E-02 0.  1.
       -1    1    3    3    0  502 -0.11704736737E+04  0.49392022051E+03  0.25537125268E+03  0.12958318879E+04  0.50400001928E-02 0. -1.
</event>
<event>
 5   0  0.4361864E-06  0.2594888E+04  0.7818609E-02  0.8369940E-01
       -1   -1    0    0    0  501  0.00000000000E+00  0.00000000000E+00  0.78946586936E+03  0.78946586938E+03  0.50400001928E-02 0.  1.
        1   -1    0    0  501    0  0.00000000000E+00  0.00000000000E+00 -0.21322786336E+04  0.21322786336E+04  0.50400001928E-02 0. -1.
    10030    2    1    2    0    0  0.00000000000E+00  0.00000000000E+00 -0.13428127643E+04  0.29217445030E+04  0.25948882097E+04 0.  0.
        3    1    3    3  502    0  0.94932670739E+03 -0.11057779926E+03  0.31656481094E+03  0.10068077954E+04  0.10100000352E+00 0.  1.
       -3    1    3    3    0  502 -0.94932670739E+03  0.11057779926E+03 -0.16593775752E+04  0.19149367077E+04  0.10100000352E+00 0. -1.
</event>
<event>
 5   0  0.4415080E-06  0.2584923E+04  0.7818609E-02  0.8373341E-01
        1   -1    0    0  501    0  0.00000000000E+00  0.00000000000E+00  0.13534374196E+04  0.13534374196E+04  0.50400001928E-02 0. -1.
       -1   -1    0    0    0  501  0.00000000000E+00  0.00000000000E+00 -0.12342329250E+04  0.12342329250E+04  0.50400001928E-02 0.  1.
    10030    2    1    2    0    0  0.00000000000E+00  0.00000000000E+00  0.11920449453E+03  0.25876703446E+04  0.25849232292E+04 0.  0.
        2    1    3    3  502    0  0.81906879480E+03  0.84182119302E+03  0.59954584693E+03  0.13187083962E+04  0.25500000920E-02 0. -1.
       -2    1    3    3    0  502 -0.81906879480E+03 -0.84182119302E+03 -0.48034135240E+03  0.12689619484E+04  0.25500000920E-02 0.  1.
</event>
<event>
 5   0  0.1116310E-05  0.2588694E+04  0.7818609E-02  0.8372052E-01
       -2   -1    0    0    0  501  0.00000000000E+00  0.00000000000E+00  0.98914897900E+03  0.98914897900E+03  0.25500000920E-02 0. -1.
        2   -1    0    0  501    0  0.00000000000E+00  0.00000000000E+00 -0.16937124695E+04  0.16937124695E+04  0.25500000920E-02 0.  1.
    10030    2    1    2    0    0  0.00000000000E+00  0.00000000000E+00 -0.70456349055E+03  0.26828614486E+04  0.25886938482E+04 0.  0.
        4    1    3    3  502    0  0.55185459273E+03 -0.52895991440E+03  0.73021846862E+03  0.10571483847E+04  0.12699999809E+01 0. -1.
       -4    1    3    3    0  502 -0.55185459273E+03  0.52895991440E+03 -0.14347819592E+04  0.16257130638E+04  0.12699999809E+01 0.  1.
</event>
<event>
 5   0  0.4464297E-06  0.2594768E+04  0.7818609E-02  0.8369980E-01
       -1   -1    0    0    0  501  0.00000000000E+00  0.00000000000E+00  0.11613929219E+04  0.11613929219E+04  0.50400001928E-02 0. -1.
        1   -1    0    0  501    0  0.00000000000E+00  0.00000000000E+00 -0.14492990768E+04  0.14492990768E+04  0.50400001928E-02 0.  1.
    10030    2    1    2    0    0  0.00000000000E+00  0.00000000000E+00 -0.28790615485E+03  0.26106919987E+04  0.25947683439E+04 0.  0.
        4    1    3    3  502    0  0.29816324529E+03 -0.38265336140E+03 -0.13546158994E+04  0.14388574508E+04  0.12699999809E+01 0.  1.
       -4    1    3    3    0  502 -0.29816324529E+03  0.38265336140E+03  0.10667097445E+04  0.11718345480E+04  0.12699999809E+01 0. -1.
</event>
<event>
 5   0  0.4361864E-06  0.2570804E+04  0.7818609E-02  0.8378187E-01
       -1   -1    0    0    0  501  0.00000000000E+00  0.00000000000E+00  0.11085644576E+04  0.11085644576E+04  0.50400001928E-02 0. -1.
        1   -1    0    0  501    0  0.00000000000E+00  0.00000000000E+00 -0.14904480951E+04  0.14904480951E+04  0.50400001928E-02 0.  1.
    10030    2    1    2    0    0  0.00000000000E+00  0.00000000000E+00 -0.38188363751E+03  0.25990125527E+04  0.25708035974E+04 0.  0.
        3    1    3    3  502    0  0.47152876392E+03 -0.24395534603E+03 -0.13744297041E+04  0.14734010342E+04  0.10100000352E+00 0.  1.
       -3    1    3    3    0  502 -0.47152876392E+03  0.24395534603E+03  0.99254606656E+03  0.11256115185E+04  0.10100000352E+00 0. -1.
</event>
<event>
 5   0  0.1085061E-05  0.2589799E+04  0.7818609E-02  0.8371675E-01
       -2   -1    0    0    0  501  0.00000000000E+00  0.00000000000E+00  0.17342101809E+04  0.17342101809E+04  0.25500000920E-02 0. -1.
        2   -1    0    0  501    0  0.00000000000E+00  0.00000000000E+00 -0.96687504981E+03  0.96687504981E+03  0.25500000920E-02 0.  1.
    10030    2    1    2    0    0  0.00000000000E+00  0.00000000000E+00  0.76733513106E+03  0.27010852307E+04  0.25897988764E+04 0.  0.
        1    1    3    3  502    0  0.78545453138E+03  0.81916272357E+03 -0.26666328134E+03  0.11657940188E+04  0.50400001928E-02 0.  1.
       -1    1    3    3    0  502 -0.78545453138E+03 -0.81916272357E+03  0.10339984124E+04  0.15352912119E+04  0.50400001928E-02 0. -1.
</event>
<event>
 5   0  0.1085255E-05  0.2597406E+04  0.7818609E-02  0.8369083E-01
        2   -1    0    0  501    0  0.00000000000E+00  0.00000000000E+00  0.23284076951E+04  0.23284076951E+04  0.25500000920E-02 0. -1.
       -2   -1    0    0    0  501  0.00000000000E+00  0.00000000000E+00 -0.72437034766E+03  0.72437034767E+03  0.25500000920E-02 0.  1.
    10030    2    1    2    0    0  0.00000000000E+00  0.00000000000E+00  0.16040373475E+04  0.30527780428E+04  0.25974060073E+04 0.  0.
        5    1    3    3  502    0  0.22487630207E+03  0.58890631841E+03  0.21365235099E+04  0.22275849707E+04  0.46999998093E+01 0. -1.
       -5    1    3    3    0  502 -0.22487630207E+03 -0.58890631841E+03 -0.53248616245E+03  0.82519307214E+03  0.46999998093E+01 0.  1.
</event>
<event>
 5   0  0.4464297E-06  0.2542412E+04  0.7818609E-02  0.8388030E-01
       -1   -1    0    0    0  501  0.00000000000E+00  0.00000000000E+00  0.15848800875E+04  0.15848800876E+04  0.50400001928E-02 0.  1.
        1   -1    0    0  501    0  0.00000000000E+00  0.00000000000E+00 -0.10196129401E+04  0.10196129401E+04  0.50400001928E-02 0. -1.
    10030    2    1    2    0    0  0.00000000000E+00  0.00000000000E+00  0.56526714742E+03  0.26044930277E+04  0.25424116471E+04 0.  0.
        4    1    3    3  502    0 -0.68601102577E+03 -0.10075512591E+04 -0.86998306997E+02  0.12220233162E+04  0.12699999809E+01 0. -1.
       -4    1    3    3    0  502  0.68601102577E+03  0.10075512591E+04  0.65226545442E+03  0.13824697114E+04  0.12699999809E+01 0.  1.
</event>
<event>
 5   0  0.1116310E-05  0.2599060E+04  0.7818609E-02  0.8368520E-01
       -2   -1    0    0    0  501  0.00000000000E+00  0.00000000000E+00  0.59020568525E+03  0.59020568526E+03  0.25500000920E-02 0. -1.
        2   -1    0    0  501    0  0.00000000000E+00  0.00000000000E+00 -0.28613394982E+04  0.28613394983E+04  0.25500000920E-02 0.  1.
    10030    2    1    2    0    0  0.00000000000E+00  0.00000000000E+00 -0.22711338130E+04  0.34515451835E+04  0.25990604759E+04 0.  0.
        4    1    3    3  502    0 -0.59233050999E+02 -0.96997591258E+03  0.10222632610E+02  0.97183740432E+03  0.12699999809E+01 0. -1.
       -4    1    3    3    0  502  0.59233050999E+02  0.96997591258E+03 -0.22813564456E+04  0.24797077792E+04  0.12699999809E+01 0.  1.
</event>
<event>
 5   0  0.1086507E-05  0.2601141E+04  0.7818609E-02  0.8367814E-01
       -2   -1    0    0    0  501  0.00000000000E+00  0.00000000000E+00  0.83435883187E+03  0.83435883187E+03  0.25500000920E-02 0.  1.
        2   -1    0    0  501    0  0.00000000000E+00  0.00000000000E+00 -0.20272851331E+04  0.20272851331E+04  0.25500000920E-02 0. -1.
    10030    2    1    2    0    0  0.00000000000E+00  0.00000000000E+00 -0.11929263012E+04  0.28616439650E+04  0.26011407155E+04 0.  0.
        2    1    3    3  502    0 -0.56854363814E+03  0.26122653199E+03  0.65790141434E+03  0.90791819041E+03  0.25500000920E-02 0.  1.
       -2    1    3    3    0  502  0.56854363814E+03 -0.26122653199E+03 -0.18508277155E+04  0.19537257745E+04  0.25500000920E-02 0. -1.
</event>
<event>
 5   0  0.4218590E-06  0.2586648E+04  0.7818609E-02  0.8372751E-01
       -1   -1    0    0    0  501  0.00000000000E+00  0.00000000000E+00  0.13092488461E+04  0.13092488461E+04  0.50400001928E-02 0.  1.
        1   -1    0    0  501    0  0.00000000000E+00  0.00000000000E+00 -0.12775927508E+04  0.12775927508E+04  0.50400001928E-02 0. -1.
    10030    2    1    2    0    0  0.00000000000E+00  0.00000000000E+00  0.31656095336E+02  0.25868415969E+04  0.25866478963E+04 0.  0.
        1    1    3    3  502    0  0.11618095361E+04 -0.22297724854E+03 -0.50686449763E+03  0.12870244250E+04  0.50400001928E-02 0. -1.
       -1    1    3    3    0  502 -0.11618095361E+04  0.22297724854E+03  0.53852059297E+03  0.12998171720E+04  0.50400001928E-02 0.  1.
</event>
<event>
 5   0  0.1086507E-05  0.2603378E+04  0.7818609E-02  0.8367055E-01
        2   -1    0    0  501    0  0.00000000000E+00  0.00000000000E+00  0.94671588711E+03  0.94671588711E+03  0.25500000920E-02 0.  1.
       -2   -1    0    0    0  501  0.00000000000E+00  0.00000000000E+00 -0.17897602759E+04  0.17897602759E+04  0.25500000920E-02 0. -1.
    10030    2    1    2    0    0  0.00000000000E+00  0.00000000000E+00 -0.84304438875E+03  0.27364761630E+04  0.26033781802E+04 0.  0.
        2    1    3    3  502    0  0.43313313968E+03 -0.56737666311E+02  0.86736936717E+03  0.97116069658E+03  0.25500000920E-02 0.  1.
       -2    1    3    3    0  502 -0.43313313968E+03  0.56737666311E+02 -0.17104137559E+04  0.17653154664E+04  0.25500000920E-02 0. -1.
</event>
<event>
 5   0  0.4415080E-06  0.2558575E+04  0.7818609E-02  0.8382410E-01
       -1   -1    0    0    0  501  0.00000000000E+00  0.00000000000E+00  0.88699025540E+03  0.88699025541E+03  0.50400001928E-02 0. -1.
        1   -1    0    0  501    0  0.00000000000E+00  0.00000000000E+00 -0.18450890468E+04  0.18450890468E+04  0.50400001928E-02 0.  1.
    10030    2    1    2    0    0  0.00000000000E+00  0.00000000000E+00 -0.95809879141E+03  0.27320793022E+04  0.25585746070E+04 0.  0.
        2    1    3    3  502    0 -0.53836519968E+03  0.10798539312E+04 -0.93290687054E+03  0.15252005868E+04  0.25500000920E-02 0.  1.
       -2    1    3    3    0  502  0.53836519968E+03 -0.10798539312E+04 -0.25191920876E+02  0.12068787154E+04  0.25500000920E-02 0. -1.
</event>
<event>
 5   0  0.4218590E-06  0.2571955E+04  0.7818609E-02  0.8377790E-01
       -1   -1    0    0    0  501  0.00000000000E+00  0.00000000000E+00  0.17766168840E+04  0.17766168840E+04  0.50400001928E-02 0.  1.
        1   -1    0    0  501    0  0.00000000000E+00  0.00000000000E+00 -0.93083560517E+03  0.93083560518E+03  0.50400001928E-02 0. -1.
    10030    2    1    2    0    0  0.00000000000E+00  0.00000000000E+00  0.84578127880E+03  0.27074524892E+04  0.25719550948E+04 0.  0.
        1    1    3    3  502    0 -0.85943032958E+02  0.24358648296E+03  0.17490274921E+04  0.17679982319E+04  0.50400001928E-02 0.  1.
       -1    1    3    3    0  502  0.85943032958E+02 -0.24358648296E+03 -0.90324621335E+03  0.93945425729E+03  0.50400001928E-02 0. -1.
</event>
<event>
 5   0  0.1085061E-05  0.2567738E+04  0.7818609E-02  0.8379243E-01
       -2   -1    0    0    0  501  0.00000000000E+00  0.00000000000E+00  0.85714262267E+03  0.85714262268E+03  0.25500000920E-02 0.  1.
        2   -1    0    0  501    0  0.00000000000E+00  0.00000000000E+00 -0.19230398985E+04  0.19230398985E+04  0.25500000920E-02 0. -1.
    10030    2    1    2    0    0  0.00000000000E+00  0.00000000000E+00 -0.10658972759E+04  0.27801825212E+04  0.25677378855E+04 0.  0.
        1    1    3    3  502    0  0.94401418132E+03  0.16815911406E+02 -0.14749128175E+04  0.17512319574E+04  0.50400001928E-02 0. -1.
       -1    1    3    3    0  502 -0.94401418132E+03 -0.16815911406E+02  0.40901554164E+03  0.10289505638E+04  0.50400001928E-02 0.  1.
</event>
<event>
 5   0  0.1086507E-05  0.2602195E+04  0.7818609E-02  0.8367456E-01
        2   -1    0    0  501    0  0.00000000000E+00  0.00000000000E+00  0.13098511548E+04  0.13098511548E+04  0.25500000920E-02 0. -1.
       -2   -1    0    0    0  501  0.00000000000E+00  0.00000000000E+00 -0.12924026680E+04  0.12924026680E+04  0.25500000920E-02 0.  1.
    10030    2    1    2    0    0  0.00000000000E+00  0.00000000000E+00  0.17448486817E+02  0.26022538228E+04  0.26021953249E+04 0.  0.
        2    1    3    3  502    0 -0.94664131813E+03  0.77404193377E+03 -0.43579044739E+03  0.12981463764E+04  0.25500000920E-02 0.  1.
       -2    1    3    3    0  502  0.94664131813E+03 -0.77404193377E+03  0.45323893421E+03  0.13041074465E+04  0.25500000920E-02 0. -1.
</event>
<event>
 5   0  0.4218590E-06  0.2598057E+04  0.7818609E-02  0.8368861E-01
        1   -1    0    0  501    0  0.00000000000E+00  0.00000000000E+00  0.21109499458E+04  0.21109499458E+04  0.50400001928E-02 0.  1.
       -1   -1    0    0    0  501  0.00000000000E+00  0.00000000000E+00 -0.79939132474E+03  0.79939132475E+03  0.50400001928E-02 0. -1.
    10030    2    1    2    0    0  0.00000000000E+00  0.00000000000E+00  0.13115586211E+04  0.29103412706E+04  0.25980570230E+04 0.  0.
        1    1    3    3  502    0  0.51023655449E+03  0.10595179408E+04  0.37580111928E+02  0.11765763355E+04  0.50400001928E-02 0. -1.
       -1    1    3    3    0  502 -0.51023655449E+03 -0.10595179408E+04  0.12739785091E+04  0.17337649351E+04  0.50400001928E-02 0.  1.
</event>
<event>
 5   0  0.4415080E-06  0.2608207E+04  0.7818609E-02  0.8365419E-01
        1   -1    0    0  501    0  0.00000000000E+00  0.00000000000E+00  0.12631815507E+04  0.12631815507E+04  0.50400001928E-02 0. -1.
       -1   -1    0    0    0  501  0.00000000000E+00  0.00000000000E+00 -0.13463515198E+04  0.13463515198E+04  0.50400001928E-02 0.  1.
    10030    2    1    2    0    0  0.00000000000E+00  0.00000000000E+00 -0.83169969080E+02  0.26095330704E+04  0.26082073541E+04 0.  0.
        2    1    3    3  502    0  0.12219226176E+04 -0.17148499780E+03  0.38074852834E+03  0.12913060945E+04  0.25500000920E-02 0. -1.
       -2    1    3    3    0  502 -0.12219226176E+04  0.17148499780E+03 -0.46391849742E+03  0.13182269759E+04  0.25500000920E-02 0.  1.
</event>
<event>
 5   0  0.1085061E-05  0.2602270E+04  0.7818609E-02  0.8367431E-01
        2   -1    0    0  501    0  0.00000000000E+00  0.00000000000E+00  0.22910854994E+04  0.22910854994E+04  0.25500000920E-02 0. -1.
       -2   -1    0    0    0  501  0.00000000000E+00  0.00000000000E+00 -0.73893020082E+03  0.73893020083E+03  0.25500000920E-02 0.  1.
    10030    2    1    2    0    0  0.00000000000E+00  0.00000000000E+00  0.15521552986E+04  0.30300157002E+04  0.26022699846E+04 0.  0.
        1    1    3    3  502    0  0.50632887760E+01 -0.23748875098E+03  0.22656237348E+04  0.22780424604E+04  0.50400001928E-02 0. -1.
       -1    1    3    3    0  502 -0.50632887760E+01  0.23748875098E+03 -0.71346843628E+03  0.75197323977E+03  0.50400001928E-02 0.  1.
</event>
<event>
 5   0  0.4415080E-06  0.2601624E+04  0.7818609E-02  0.8367650E-01
       -1   -1    0    0    0  501  0.00000000000E+00  0.00000000000E+00  0.13003383632E+04  0.13003383632E+04  0.50400001928E-02 0. -1.
        1   -1    0    0  501    0  0.00000000000E+00  0.00000000000E+00 -0.13012862451E+04  0.13012862451E+04  0.50400001928E-02 0.  1.
    10030    2    1    2    0    0  0.00000000000E+00  0.00000000000E+00 -0.94788186632E+00  0.26016246084E+04  0.26016244357E+04 0.  0.
        2    1    3    3  502    0  0.32891902818E+03  0.11181089578E+04  0.57724320595E+03  0.13006018174E+04  0.25500000920E-02 0. -1.
       -2    1    3    3    0  502 -0.32891902818E+03 -0.11181089578E+04 -0.57819108782E+03  0.13010227910E+04  0.25500000920E-02 0.  1.
</event>
<event>
 5   0  0.4361864E-06  0.2651844E+04  0.7818609E-02  0.8350801E-01
       -1   -1    0    0    0  501  0.00000000000E+00  0.00000000000E+00  0.87933300613E+03  0.87933300614E+03  0.50400001928E-02 0.  1.
        1   -1    0    0  501    0  0.00000000000E+00  0.00000000000E+00 -0.19993208401E+04  0.19993208401E+04  0.50400001928E-02 0. -1.
    10030    2    1    2    0    0  0.00000000000E+00  0.00000000000E+00 -0.11199878340E+04  0.28786538463E+04  0.26518437394E+04 0.  0.
        3    1    3    3  502    0  0.37006491459E+03  0.92021886358E+03 -0.15152090447E+04  0.18109691486E+04  0.10100000352E+00 0. -1.
       -3    1    3    3    0  502 -0.37006491459E+03 -0.92021886358E+03  0.39522121075E+03  0.10676846976E+04  0.10100000352E+00 0.  1.
</event>
<event>
 5   0  0.1116310E-05  0.2603137E+04  0.7818609E-02  0.8367136E-01
       -2   -1    0    0    0  501  0.00000000000E+00  0.00000000000E+00  0.47848225295E+03  0.47848225296E+03  0.25500000920E-02 0. -1.
        2   -1    0    0  501    0  0.00000000000E+00  0.00000000000E+00 -0.35405289221E+04  0.35405289221E+04  0.25500000920E-02 0.  1.
    10030    2    1    2    0    0  0.00000000000E+00  0.00000000000E+00 -0.30620466691E+04  0.40190111750E+04  0.26031367657E+04 0.  0.
        4    1    3    3  502    0  0.11700535865E+04  0.56639760331E+03 -0.14304081644E+04  0.19328478393E+04  0.12699999809E+01 0.  1.
       -4    1    3    3    0  502 -0.11700535865E+04 -0.56639760331E+03 -0.16316385047E+04  0.20861633357E+04  0.12699999809E+01 0. -1.
</event>
<event>
 5   0  0.1116310E-05  0.2626503E+04  0.7818609E-02  0.8359254E-01
       -2   -1    0    0    0  501  0.00000000000E+00  0.00000000000E+00  0.11767553082E+04  0.11767553082E+04  0.25500000920E-02 0. -1.
        2   -1    0    0  501    0  0.00000000000E+00  0.00000000000E+00 -0.14655807187E+04  0.14655807187E+04  0.25500000920E-02 0.  1.
    10030    2    1    2    0    0  0.00000000000E+00  0.00000000000E+00 -0.28882541056E+03  0.26423360269E+04  0.26265032955E+04 0.  0.
        4    1    3    3  502    0  0.10480888940E+04  0.32303846729E+03 -0.87111329906E+03  0.14006013615E+04  0.12699999809E+01 0.  1.
       -4    1    3    3    0  502 -0.10480888940E+04 -0.32303846729E+03  0.58228788849E+03  0.12417346654E+04  0.12699999809E+01 0. -1.
</event>
<event>
 5   0  0.1116310E-05  0.2581705E+04  0.7818609E-02  0.8374442E-01
        2   -1    0    0  501    0  0.00000000000E+00  0.00000000000E+00  0.10516013701E+04  0.10516013701E+04  0.25500000920E-02 0. -1.
       -2   -1    0    0    0  501  0.00000000000E+00  0.00000000000E+00 -0.15845353889E+04  0.15845353889E+04  0.25500000920E-02 0.  1.
    10030    2    1    2    0    0  0.00000000000E+00  0.00000000000E+00 -0.53293401880E+03  0.26361367590E+04  0.25817045423E+04 0.  0.
        4    1    3    3  502    0 -0.49638456323E+03  0.25352034700E+03 -0.14553295053E+04  0.15584145093E+04  0.12699999809E+01 0.  1.
       -4    1    3    3    0  502  0.49638456323E+03 -0.25352034700E+03  0.92239548652E+03  0.10777222497E+04  0.12699999809E+01 0. -1.
</event>
<event>
 5   0  0.1136881E-05  0.2608914E+04  0.7818609E-02  0.8365180E-01
       -2   -1    0    0    0  501  0.00000000000E+00  0.00000000000E+00  0.11300289701E+04  0.11300289701E+04  0.25500000920E-02 0.  1.
        2   -1    0    0  501    0  0.00000000000E+00  0.00000000000E+00 -0.15058090593E+04  0.15058090593E+04  0.25500000920E-02 0. -1.
    10030    2    1    2    0    0  0.00000000000E+00  0.00000000000E+00 -0.37578008916E+03  0.26358380294E+04  0.26089138433E+04 0.  0.
        3    1    3    3  502    0 -0.78332896378E+03  0.45973182145E+03  0.75806862039E+03  0.11830577571E+04  0.10100000352E+00 0.  1.
       -3    1    3    3    0  502  0.78332896378E+03 -0.45973182145E+03 -0.11338487096E+04  0.14527802723E+04  0.10100000352E+00 0. -1.
</event>
<event>
 5   0  0.4218590E-06  0.2585196E+04  0.7818609E-02  0.8373247E-01
        1   -1    0    0  501    0  0.00000000000E+00  0.00000000000E+00  0.19639749257E+04  0.19639749257E+04  0.50400001928E-02 0.  1.
       -1   -1    0    0    0  501  0.00000000000E+00  0.00000000000E+00 -0.85072867345E+03  0.85072867347E+03  0.50400001928E-02 0. -1.
    10030    2    1    2    0    0  0.00000000000E+00  0.00000000000E+00  0.11132462522E+04  0.28147035991E+04  0.25851961498E+04 0.  0.
        1    1    3    3  502    0 -0.53591529475E+03  0.11762369068E+04  0.54742833096E+03  0.14037151569E+04  0.50400001928E-02 0.  1.
       -1    1    3    3    0  502  0.53591529475E+03 -0.11762369068E+04  0.56581792125E+03  0.14109884422E+04  0.50400001928E-02 0. -1.
</event>
<event>
 5   0  0.1086507E-05  0.2655080E+04  0.7818609E-02  0.8349729E-01
        2   -1    0    0  501    0  0.00000000000E+00  0.00000000000E+00  0.14910099545E+04  0.14910099545E+04  0.25500000920E-02 0.  1.
       -2   -1    0    0    0  501  0.00000000000E+00  0.00000000000E+00 -0.11819927805E+04  0.11819927805E+04  0.25500000920E-02 0. -1.
    10030    2    1    2    0    0  0.00000000000E+00  0.00000000000E+00  0.30901717397E+03  0.26730027350E+04  0.26550804145E+04 0.  0.
        2    1    3    3  502    0  0.19225546800E+03  0.68900712525E+03  0.12803911509E+04  0.14666609979E+04  0.25500000920E-02 0.  1.
       -2    1    3    3    0  502 -0.19225546800E+03 -0.68900712525E+03 -0.97137397691E+03  0.12063417371E+04  0.25500000920E-02 0. -1.
</event>
<event>
 5   0  0.1085061E-05  0.2540653E+04  0.7818609E-02  0.8388644E-01
        2   -1    0    0  501    0  0.00000000000E+00  0.00000000000E+00  0.15855217729E+04  0.15855217729E+04  0.25500000920E-02 0.  1.
       -2   -1    0    0    0  501  0.00000000000E+00  0.00000000000E+00 -0.10177907143E+04  0.10177907143E+04  0.25500000920E-02 0. -1.
    10030    2    1    2    0    0  0.00000000000E+00  0.00000000000E+00  0.56773105860E+03  0.26033124872E+04  0.25406529380E+04 0.  0.
        1    1    3    3  502    0 -0.24144172490E+03 -0.11069719271E+04  0.87253262885E+03  0.14300329165E+04  0.50400001928E-02 0.  1.
       -1    1    3    3    0  502  0.24144172490E+03  0.11069719271E+04 -0.30480157026E+03  0.11732795707E+04  0.50400001928E-02 0. -1.
</event>
<event>
 5   0  0.4415080E-06  0.2598823E+04  0.7818609E-02  0.8368601E-01
        1   -1    0    0  501    0  0.00000000000E+00  0.00000000000E+00  0.27346593414E+04  0.27346593414E+04  0.50400001928E-02 0. -1.
       -1   -1    0    0    0  501  0.00000000000E+00  0.00000000000E+00 -0.61743345053E+03  0.61743345055E+03  0.50400001928E-02 0.  1.
    10030    2    1    2    0    0  0.00000000000E+00  0.00000000000E+00  0.21172258908E+04  0.33520927919E+04  0.25988229283E+04 0.  0.
        2    1    3    3  502    0 -0.12325767147E+04  0.30595749054E+03  0.14132979059E+04  0.19000700815E+04  0.25500000920E-02 0. -1.
       -2    1    3    3    0  502  0.12325767147E+04 -0.30595749054E+03  0.70392798489E+03  0.14520227104E+04  0.25500000920E-02 0.  1.
</event>
<event>
 5   0  0.4415080E-06  0.2637441E+04  0.7818609E-02  0.8355593E-01
        1   -1    0    0  501    0  0.00000000000E+00  0.00000000000E+00  0.14110821333E+04  0.14110821333E+04  0.50400001928E-02 0. -1.
       -1   -1    0    0    0  501  0.00000000000E+00  0.00000000000E+00 -0.12324043443E+04  0.12324043443E+04  0.50400001928E-02 0.  1.
    10030    2    1    2    0    0  0.00000000000E+00  0.00000000000E+00  0.17867778901E+03  0.26434864776E+04  0.26374409956E+04 0.  0.
        2    1    3    3  502    0 -0.11704791780E+04 -0.55377061464E+03 -0.16091391617E+03  0.13048282217E+04  0.25500000920E-02 0.  1.
       -2    1    3    3    0  502  0.11704791780E+04  0.55377061464E+03  0.33959170518E+03  0.13386582559E+04  0.25500000920E-02 0. -1.
</event>
<event>
 5   0  0.1085061E-05  0.2609921E+04  0.7818609E-02  0.8364839E-01
        2   -1    0    0  501    0  0.00000000000E+00  0.00000000000E+00  0.16715385778E+04  0.16715385778E+04  0.25500000920E-02 0.  1.
       -2   -1    0    0    0  501  0.00000000000E+00  0.00000000000E+00 -0.10187751224E+04  0.10187751224E+04  0.25500000920E-02 0. -1.
    10030    2    1    2    0    0  0.00000000000E+00  0.00000000000E+00  0.65276345546E+03  0.26903137002E+04  0.26099210097E+04 0.  0.
        1    1    3    3  502    0 -0.21569990986E+03 -0.13459489598E+02 -0.10001994353E+04  0.10232822286E+04  0.50400001928E-02 0. -1.
       -1    1    3    3    0  502  0.21569990986E+03  0.13459489598E+02  0.16529628908E+04  0.16670314716E+04  0.50400001928E-02 0.  1.
</event>
<event>
 5   0  0.1116310E-05  0.2607623E+04  0.7818609E-02  0.8365616E-01
       -2   -1    0    0    0  501  0.00000000000E+00  0.00000000000E+00  0.12727554249E+04  0.12727554249E+04  0.25500000920E-02 0. -1.
        2   -1    0    0  501    0  0.00000000000E+00  0.00000000000E+00 -0.13356255805E+04  0.13356255805E+04  0.25500000920E-02 0.  1.
    10030    2    1    2    0    0  0.00000000000E+00  0.00000000000E+00 -0.62870155526E+02  0.26083810054E+04  0.26076232114E+04 0.  0.
        4    1    3    3  502    0  0.38769302546E+03  0.27143655979E+03  0.11838004402E+04  0.12748995188E+04  0.12699999809E+01 0. -1.
       -4    1    3    3    0  502 -0.38769302546E+03 -0.27143655979E+03 -0.12466705957E+04  0.13334814866E+04  0.12699999809E+01 0.  1.
</event>
<event>
 5   0  0.1116310E-05  0.2585062E+04  0.7818609E-02  0.8373293E-01
       -2   -1    0    0    0  501  0.00000000000E+00  0.00000000000E+00  0.94487551390E+03  0.94487551390E+03  0.25500000920E-02 0.  1.
        2   -1    0    0  501    0  0.00000000000E+00  0.00000000000E+00 -0.17681015863E+04  0.17681015863E+04  0.25500000920E-02 0. -1.
    10030    2    1    2    0    0  0.00000000000E+00  0.00000000000E+00 -0.82322607244E+03  0.27129771002E+04  0.25850616202E+04 0.  0.
        4    1    3    3  502    0 -0.17907117668E+03  0.45120139386E+03  0.84557119095E+03  0.97500842868E+03  0.12699999809E+01 0.  1.
       -4    1    3    3    0  502  0.17907117668E+03 -0.45120139386E+03 -0.16687972634E+04  0.17379686716E+04  0.12699999809E+01 0. -1.
</event>
<event>
 5   0  0.4361864E-06  0.2603024E+04  0.7818609E-02  0.8367175E-01
        1   -1    0    0  501    0  0.00000000000E+00  0.00000000000E+00  0.10929351640E+04  0.10929351640E+04  0.50400001928E-02 0. -1.
       -1   -1    0    0    0  501  0.00000000000E+00  0.00000000000E+00 -0.15498934766E+04  0.15498934766E+04  0.50400001928E-02 0.  1.
    10030    2    1    2    0    0  0.00000000000E+00  0.00000000000E+00 -0.45695831263E+03  0.26428286406E+04  0.26030236887E+04 0.  0.
        3    1    3    3  502    0  0.45086401589E+03 -0.10337453938E+04 -0.88804789209E+03  0.14354570592E+04  0.10100000352E+00 0.  1.
       -3    1    3    3    0  502 -0.45086401589E+03  0.10337453938E+04  0.43108957946E+03  0.12073715814E+04  0.10100000352E+00 0. -1.
</event>
<event>
 5   0  0.4597705E-06  0.2602849E+04  0.7818609E-02  0.8367234E-01
        1   -1    0    0  501    0  0.00000000000E+00  0.00000000000E+00  0.11873011178E+04  0.11873011178E+04  0.50400001928E-02 0.  1.
       -1   -1    0    0    0  501  0.00000000000E+00  0.00000000000E+00 -0.14265171116E+04  0.14265171116E+04  0.50400001928E-02 0. -1.
    10030    2    1    2    0    0  0.00000000000E+00  0.00000000000E+00 -0.23921599379E+03  0.26138182295E+04  0.26028487173E+04 0.  0.
        5    1    3    3  502    0 -0.18858439251E+03  0.10704796812E+04 -0.83830038004E+03  0.13726836628E+04  0.46999998093E+01 0. -1.
       -5    1    3    3    0  502  0.18858439251E+03 -0.10704796812E+04  0.59908438624E+03  0.12411345667E+04  0.46999998093E+01 0.  1.
</event>
<event>
 5   0  0.1086507E-05  0.2594344E+04  0.7818609E-02  0.8370125E-01
        2   -1    0    0  501    0  0.00000000000E+00  0.00000000000E+00  0.11303774285E+04  0.11303774285E+04  0.25500000920E-02 0.  1.
       -2   -1    0    0    0  501  0.00000000000E+00  0.00000000000E+00 -0.14885786731E+04  0.14885786731E+04  0.25500000920E-02 0. -1.
    10030    2    1    2    0    0  0.00000000000E+00  0.00000000000E+00 -0.35820124460E+03  0.26189561015E+04  0.25943444124E+04 0.  0.
        2    1    3    3  502    0  0.21142946738E+03  0.51480127486E+03  0.10037373394E+04  0.11476983135E+04  0.25500000920E-02 0.  1.
       -2    1    3    3    0  502 -0.21142946738E+03 -0.51480127486E+03 -0.13619385840E+04  0.14712577880E+04  0.25500000920E-02 0. -1.
</event>
<event>
 5   0  0.4415080E-06  0.2597787E+04  0.7818609E-02  0.8368953E-01
        1   -1    0    0  501    0  0.00000000000E+00  0.00000000000E+00  0.15957781230E+04  0.15957781230E+04  0.50400001928E-02 0. -1.
       -1   -1    0    0    0  501  0.00000000000E+00  0.00000000000E+00 -0.10572427583E+04  0.10572427583E+04  0.50400001928E-02 0.  1.
    10030    2    1    2    0    0  0.00000000000E+00  0.00000000000E+00  0.53853536471E+03  0.26530208812E+04  0.25977874157E+04 0.  0.
        2    1    3    3  502    0  0.12211866665E+04  0.17970531743E+03 -0.14372378067E+03  0.12426775128E+04  0.25500000920E-02 0.  1.
       -2    1    3    3    0  502 -0.12211866665E+04 -0.17970531743E+03  0.68225914537E+03  0.14103433685E+04  0.25500000920E-02 0. -1.
</event>
<event>
 5   0  0.4415080E-06  0.2643465E+04  0.7818609E-02  0.8353585E-01
       -1   -1    0    0    0  501  0.00000000000E+00  0.00000000000E+00  0.15396468342E+04  0.15396468342E+04  0.50400001928E-02 0.  1.
        1   -1    0    0  501    0  0.00000000000E+00  0.00000000000E+00 -0.11346608313E+04  0.11346608313E+04  0.50400001928E-02 0. -1.
    10030    2    1    2    0    0  0.00000000000E+00  0.00000000000E+00  0.40498600293E+03  0.26743076655E+04  0.26434651174E+04 0.  0.
        2    1    3    3  502    0  0.86386566486E+03  0.27559754217E+03  0.11753568911E+04  0.14844802840E+04  0.25500000920E-02 0.  1.
       -2    1    3    3    0  502 -0.86386566486E+03 -0.27559754217E+03 -0.77037088821E+03  0.11898273814E+04  0.25500000920E-02 0. -1.
</event>
<event>
 5   0  0.4218590E-06  0.2616306E+04  0.7818609E-02  0.8362683E-01
        1   -1    0    0  501    0  0.00000000000E+00  0.00000000000E+00  0.11463765182E+04  0.11463765182E+04  0.50400001928E-02 0.  1.
       -1   -1    0    0    0  501  0.00000000000E+00  0.00000000000E+00 -0.14927596059E+04  0.14927596059E+04  0.50400001928E-02 0. -1.
    10030    2    1    2    0    0  0.00000000000E+00  0.00000000000E+00 -0.34638308775E+03  0.26391361241E+04  0.26163062202E+04 0.  0.
        1    1    3    3  502    0 -0.48245385017E+03 -0.17529952155E+03 -0.13869253319E+04  0.14788689990E+04  0.50400001928E-02 0. -1.
       -1    1    3    3    0  502  0.48245385017E+03  0.17529952155E+03  0.10405422441E+04  0.11602671251E+04  0.50400001928E-02 0.  1.
</event>
<event>
 5   0  0.1086507E-05  0.2597224E+04  0.7818609E-02  0.8369145E-01
        2   -1    0    0  501    0  0.00000000000E+00  0.00000000000E+00  0.19069078945E+04  0.19069078945E+04  0.25500000920E-02 0. -1.
       -2   -1    0    0    0  501  0.00000000000E+00  0.00000000000E+00 -0.88436028743E+03  0.88436028743E+03  0.25500000920E-02 0.  1.
    10030    2    1    2    0    0  0.00000000000E+00  0.00000000000E+00  0.10225476071E+04  0.27912681820E+04  0.25972243751E+04 0.  0.
        2    1    3    3  502    0  0.45491359660E+03 -0.98907798785E+03  0.12721000400E+04  0.16743536538E+04  0.25500000920E-02 0. -1.
       -2    1    3    3    0  502 -0.45491359660E+03  0.98907798785E+03 -0.24955243285E+03  0.11169145281E+04  0.25500000920E-02 0.  1.
</event>
<event>
 5   0  0.1116310E-05  0.2610344E+04  0.7818609E-02  0.8364696E-01
       -2   -1    0    0    0  501  0.00000000000E+00  0.00000000000E+00  0.84062144204E+03  0.84062144204E+03  0.25500000920E-02 0.  1.
        2   -1    0    0  501    0  0.00000000000E+00  0.00000000000E+00 -0.20264456659E+04  0.20264456659E+04  0.25500000920E-02 0. -1.
    10030    2    1    2    0    0  0.00000000000E+00  0.00000000000E+00 -0.11858242238E+04  0.28670671079E+04  0.26103437918E+04 0.  0.
        4    1    3    3  502    0  0.11399772779E+04  0.53517489521E+03 -0.21639847704E+03  0.12778068228E+04  0.12699999809E+01 0.  1.
       -4    1    3    3    0  502 -0.11399772779E+04 -0.53517489521E+03 -0.96942574680E+03  0.15892602852E+04  0.12699999809E+01 0. -1.
</event>
<event>
 5   0  0.4218590E-06  0.2537377E+04  0.7818609E-02  0.8389789E-01
       -1   -1    0    0    0  501  0.00000000000E+00  0.00000000000E+00  0.98430173835E+03  0.98430173836E+03  0.50400001928E-02 0.  1.
        1   -1    0    0  501    0  0.00000000000E+00  0.00000000000E+00 -0.16352414224E+04  0.16352414224E+04  0.50400001928E-02 0. -1.
    10030    2    1    2    0    0  0.00000000000E+00  0.00000000000E+00 -0.65093968403E+03  0.26195431608E+04  0.25373773663E+04 0.  0.
        1    1    3    3  502    0  0.11464821745E+04  0.51889419605E+03 -0.49161093420E+03  0.13510565768E+04  0.50400001928E-02 0. -1.
       -1    1    3    3    0  502 -0.11464821745E+04 -0.51889419605E+03 -0.15932874983E+03  0.12684865839E+04  0.50400001928E-02 0.  1.
</event>
<event>
 5   0  0.1085061E-05  0.2437415E+04  0.7818609E-02  0.8425627E-01
        2   -1    0    0  501    0  0.00000000000E+00  0.00000000000E+00  0.17152737268E+04  0.17152737268E+04  0.25500000920E-02 0.  1.
       -2   -1    0    0    0  501  0.00000000000E+00  0.00000000000E+00 -0.86589535991E+03  0.86589535992E+03  0.25500000920E-02 0. -1.
    10030    2    1    2    0    0  0.00000000000E+00  0.00000000000E+00  0.84937836693E+03  0.25811690868E+04  0.24374146640E+04 0.  0.
        1    1    3    3  502    0  0.56214388252E+03 -0.80957578884E+03  0.11837844471E+04  0.15403779795E+04  0.50400001928E-02 0. -1.
       -1    1    3    3    0  502 -0.56214388252E+03  0.80957578884E+03 -0.33440608014E+03  0.10407911073E+04  0.50400001928E-02 0.  1.
</event>
<event>
 5   0  0.4415080E-06  0.2605847E+04  0.7818609E-02  0.8366218E-01
       -1   -1    0    0    0  501  0.00000000000E+00  0.00000000000E+00  0.16778032278E+04  0.16778032278E+04  0.50400001928E-02 0.  1.
        1   -1    0    0  501    0  0.00000000000E+00  0.00000000000E+00 -0.10118048913E+04  0.10118048913E+04  0.50400001928E-02 0. -1.
    10030    2    1    2    0    0  0.00000000000E+00  0.00000000000E+00  0.66599833650E+03  0.26896081191E+04  0.26058468969E+04 0.  0.
        2    1    3    3  502    0 -0.96893481122E+03 -0.24538908767E+03  0.11956631585E+04  0.15584161387E+04  0.25500000920E-02 0.  1.
       -2    1    3    3    0  502  0.96893481122E+03  0.24538908767E+03 -0.52966482201E+03  0.11311919804E+04  0.25500000920E-02 0. -1.
</event>
<event>
 5   0  0.4218590E-06  0.2600639E+04  0.7818609E-02  0.8367984E-01
       -1   -1    0    0    0  501  0.00000000000E+00  0.00000000000E+00  0.10352562126E+04  0.10352562126E+04  0.50400001928E-02 0.  1.
        1   -1    0    0  501    0  0.00000000000E+00  0.00000000000E+00 -0.16332489727E+04  0.16332489727E+04  0.50400001928E-02 0. -1.
    10030    2    1    2    0    0  0.00000000000E+00  0.00000000000E+00 -0.59799276012E+03  0.26685051853E+04  0.26006392643E+04 0.  0.
        1    1    3    3  502    0 -0.10156170687E+04  0.28234370084E+03 -0.10802018811E+04  0.15093151094E+04  0.50400001928E-02 0. -1.
       -1    1    3    3    0  502  0.10156170687E+04 -0.28234370084E+03  0.48220912101E+03  0.11591900759E+04  0.50400001928E-02 0.  1.
</event>
<event>
 5   0  0.4361864E-06  0.2602015E+04  0.7818609E-02  0.8367517E-01
        1   -1    0    0  501    0  0.00000000000E+00  0.00000000000E+00  0.13482893201E+04  0.13482893201E+04  0.50400001928E-02 0.  1.
       -1   -1    0    0    0  501  0.00000000000E+00  0.00000000000E+00 -0.12553834537E+04  0.12553834537E+04  0.50400001928E-02 0. -1.
    10030    2    1    2    0    0  0.00000000000E+00  0.00000000000E+00  0.92905866465E+02  0.26036727738E+04  0.26020146835E+04 0.  0.
        3    1    3    3  502    0 -0.58870710266E+03  0.67997083537E+03  0.98709648289E+03  0.13354010133E+04  0.10100000352E+00 0.  1.
       -3    1    3    3    0  502  0.58870710266E+03 -0.67997083537E+03 -0.89419061642E+03  0.12682717605E+04  0.10100000352E+00 0. -1.
</event>
<event>
 5   0  0.4218590E-06  0.2597148E+04  0.7818609E-02  0.8369171E-01
        1   -1    0    0  501    0  0.00000000000E+00  0.00000000000E+00  0.16177572582E+04  0.16177572582E+04  0.50400001928E-02 0.  1.
       -1   -1    0    0    0  501  0.00000000000E+00  0.00000000000E+00 -0.10423652421E+04  0.10423652421E+04  0.50400001928E-02 0. -1.
    10030    2    1    2    0    0  0.00000000000E+00  0.00000000000E+00  0.57539201612E+03  0.26601225003E+04  0.25971476170E+04 0.  0.
        1    1    3    3  502    0 -0.97804900673E+03 -0.29548696011E+03 -0.53323807367E+03  0.11524908878E+04  0.50400001928E-02 0. -1.
       -1    1    3    3    0  502  0.97804900673E+03  0.29548696011E+03  0.11086300898E+04  0.15076316126E+04  0.50400001928E-02 0.  1.
</event>
<event>
 5   0  0.4218590E-06  0.2531907E+04  0.7818609E-02  0.8391706E-01
       -1   -1    0    0    0  501  0.00000000000E+00  0.00000000000E+00  0.15570179651E+04  0.15570179652E+04  0.50400001928E-02 0. -1.
        1   -1    0    0  501    0  0.00000000000E+00  0.00000000000E+00 -0.10292999818E+04  0.10292999818E+04  0.50400001928E-02 0.  1.
    10030    2    1    2    0    0  0.00000000000E+00  0.00000000000E+00  0.52771798331E+03  0.25863179470E+04  0.25319072363E+04 0.  0.
        1    1    3    3  502    0 -0.10678707327E+04  0.48359329110E+03  0.75207157962E+03  0.13927749401E+04  0.50400001928E-02 0. -1.
       -1    1    3    3    0  502  0.10678707327E+04 -0.48359329110E+03 -0.22435359631E+03  0.11935430069E+04  0.50400001928E-02 0.  1.
</event>
<event>
 5   0  0.4415080E-06  0.2605562E+04  0.7818609E-02  0.8366314E-01
        1   -1    0    0  501    0  0.00000000000E+00  0.00000000000E+00  0.79105750126E+03  0.79105750128E+03  0.50400001928E-02 0. -1.
       -1   -1    0    0    0  501  0.00000000000E+00  0.00000000000E+00 -0.21455304705E+04  0.21455304706E+04  0.50400001928E-02 0.  1.
    10030    2    1    2    0    0  0.00000000000E+00  0.00000000000E+00 -0.13544729693E+04  0.29365879718E+04  0.26055617229E+04 0.  0.
        2    1    3    3  502    0  0.56437190761E+03 -0.68744186447E+03 -0.17500907700E+04  0.19631377105E+04  0.25500000920E-02 0.  1.
       -2    1    3    3    0  502 -0.56437190761E+03  0.68744186447E+03  0.39561780068E+03  0.97345026137E+03  0.25500000920E-02 0. -1.
</event>
<event>
 5   0  0.4218590E-06  0.2606020E+04  0.7818609E-02  0.8366159E-01
        1   -1    0    0  501    0  0.00000000000E+00  0.00000000000E+00  0.21459923233E+04  0.21459923233E+04  0.50400001928E-02 0.  1.
       -1   -1    0    0    0  501  0.00000000000E+00  0.00000000000E+00 -0.79116575037E+03  0.79116575039E+03  0.50400001928E-02 0. -1.
    10030    2    1    2    0    0  0.00000000000E+00  0.00000000000E+00  0.13548265729E+04  0.29371580737E+04  0.26060204349E+04 0.  0.
        1    1    3    3  502    0 -0.28624366157E+03  0.12693004009E+04  0.75530886664E+03  0.15045100284E+04  0.50400001928E-02 0. -1.
       -1    1    3    3    0  502  0.28624366157E+03 -0.12693004009E+04  0.59951770630E+03  0.14326480453E+04  0.50400001928E-02 0.  1.
</event>
<event>
 5   0  0.1086507E-05  0.2684561E+04  0.7818609E-02  0.8340032E-01
       -2   -1    0    0    0  501  0.00000000000E+00  0.00000000000E+00  0.10665878899E+04  0.10665878899E+04  0.25500000920E-02 0. -1.
        2   -1    0    0  501    0  0.00000000000E+00  0.00000000000E+00 -0.16892350125E+04  0.16892350125E+04  0.25500000920E-02 0.  1.
    10030    2    1    2    0    0  0.00000000000E+00  0.00000000000E+00 -0.62264712264E+03  0.27558229024E+04  0.26845614968E+04 0.  0.
        2    1    3    3  502    0 -0.92592701400E+03  0.49150936859E+02  0.68498623200E+03  0.11528064833E+04  0.25500000920E-02 0. -1.
       -2    1    3    3    0  502  0.92592701400E+03 -0.49150936859E+02 -0.13076333546E+04  0.16030164191E+04  0.25500000920E-02 0.  1.
</event>
<event>
 5   0  0.4415080E-06  0.2664501E+04  0.7818609E-02  0.8346616E-01
       -1   -1    0    0    0  501  0.00000000000E+00  0.00000000000E+00  0.14882153048E+04  0.14882153048E+04  0.50400001928E-02 0.  1.
        1   -1    0    0  501    0  0.00000000000E+00  0.00000000000E+00 -0.11926308186E+04  0.11926308186E+04  0.50400001928E-02 0. -1.
    10030    2    1    2    0    0  0.00000000000E+00  0.00000000000E+00  0.29558448624E+03  0.26808461234E+04  0.26645010319E+04 0.  0.
        2    1    3    3  502    0  0.10112193587E+04  0.38002062985E+02  0.10196427817E+04  0.14365514785E+04  0.25500000920E-02 0.  1.
       -2    1    3    3    0  502 -0.10112193587E+04 -0.38002062985E+02 -0.72405829549E+03  0.12442946449E+04  0.25500000920E-02 0. -1.
</event>
<event>
 5   0  0.4597705E-06  0.2640440E+04  0.7818609E-02  0.8354593E-01
       -1   -1    0    0    0  501  0.00000000000E+00  0.00000000000E+00  0.10783488182E+04  0.10783488182E+04  0.50400001928E-02 0. -1.
        1   -1    0    0  501    0  0.00000000000E+00  0.00000000000E+00 -0.16163424666E+04  0.16163424666E+04  0.50400001928E-02 0.  1.
    10030    2    1    2    0    0  0.00000000000E+00  0.00000000000E+00 -0.53799364846E+03  0.26946912848E+04  0.26404401062E+04 0.  0.
        5    1    3    3  502    0  0.94662964565E+03 -0.92006446198E+03 -0.25038483451E+03  0.13436297688E+04  0.46999998093E+01 0. -1.
       -5    1    3    3    0  502 -0.94662964565E+03  0.92006446198E+03 -0.28760881395E+03  0.13510615160E+04  0.46999998093E+01 0.  1.
</event>
<event>
 5   0  0.1085061E-05  0.2604989E+04  0.7818609E-02  0.8366509E-01
       -2   -1    0    0    0  501  0.00000000000E+00  0.00000000000E+00  0.94757734975E+03  0.94757734976E+03  0.25500000920E-02 0. -1.
        2   -1    0    0  501    0  0.00000000000E+00  0.00000000000E+00 -0.17903465768E+04  0.17903465768E+04  0.25500000920E-02 0.  1.
    10030    2    1    2    0    0  0.00000000000E+00  0.00000000000E+00 -0.84276922704E+03  0.27379239266E+04  0.26049889554E+04 0.  0.
        1    1    3    3  502    0  0.78466340028E+03  0.52534720814E+03 -0.13642744727E+04  0.16591959432E+04  0.50400001928E-02 0.  1.
       -1    1    3    3    0  502 -0.78466340028E+03 -0.52534720814E+03  0.52150524569E+03  0.10787279834E+04  0.50400001928E-02 0. -1.
</event>
<event>
 5   0  0.1085061E-05  0.2602767E+04  0.7818609E-02  0.8367262E-01
        2   -1    0    0  501    0  0.00000000000E+00  0.00000000000E+00  0.13680937279E+04  0.13680937279E+04  0.25500000920E-02 0. -1.
       -2   -1    0    0    0  501  0.00000000000E+00  0.00000000000E+00 -0.12379265328E+04  0.12379265328E+04  0.25500000920E-02 0.  1.
    10030    2    1    2    0    0  0.00000000000E+00  0.00000000000E+00  0.13016719508E+03  0.26060202607E+04  0.26027673927E+04 0.  0.
        1    1    3    3  502    0  0.11425395875E+04 -0.21956244140E+02 -0.55836685816E+03  0.12718696215E+04  0.50400001928E-02 0. -1.
       -1    1    3    3    0  502 -0.11425395875E+04  0.21956244140E+02  0.68853405324E+03  0.13341506392E+04  0.50400001928E-02 0.  1.
</event>
<event>
 5   0  0.1086507E-05  0.2507312E+04  0.7818609E-02  0.8400385E-01
        2   -1    0    0  501    0  0.00000000000E+00  0.00000000000E+00  0.66162399794E+03  0.66162399794E+03  0.25500000920E-02 0. -1.
       -2   -1    0    0    0  501  0.00000000000E+00  0.00000000000E+00 -0.23754475210E+04  0.23754475210E+04  0.25500000920E-02 0.  1.
    10030    2    1    2    0    0  0.00000000000E+00  0.00000000000E+00 -0.17138235230E+04  0.30370715189E+04  0.25073117762E+04 0.  0.
        2    1    3    3  502    0  0.34377929016E+03 -0.65652286892E+03  0.36789337180E+03  0.82737658341E+03  0.25500000920E-02 0. -1.
       -2    1    3    3    0  502 -0.34377929016E+03  0.65652286892E+03 -0.20817168948E+04  0.22096949355E+04  0.25500000920E-02 0.  1.
</event>
<event>
 5   0  0.1085255E-05  0.2610952E+04  0.7818609E-02  0.8364490E-01
        2   -1    0    0  501    0  0.00000000000E+00  0.00000000000E+00  0.15126646561E+04  0.15126646561E+04  0.25500000920E-02 0.  1.
       -2   -1    0    0    0  501  0.00000000000E+00  0.00000000000E+00 -0.11266660803E+04  0.11266660803E+04  0.25500000920E-02 0. -1.
    10030    2    1    2    0    0  0.00000000000E+00  0.00000000000E+00  0.38599857578E+03  0.26393307364E+04  0.26109522852E+04 0.  0.
        5    1    3    3  502    0  0.10096413352E+04 -0.74176701756E+03 -0.17793858681E+03  0.12654162022E+04  0.46999998093E+01 0.  1.
       -5    1    3    3    0  502 -0.10096413352E+04  0.74176701756E+03  0.56393716259E+03  0.13739145342E+04  0.46999998093E+01 0. -1.
</event>
<event>
 5   0  0.4464297E-06  0.2627171E+04  0.7818609E-02  0.8359030E-01
        1   -1    0    0  501    0  0.00000000000E+00  0.00000000000E+00  0.18556754285E+04  0.18556754285E+04  0.50400001928E-02 0.  1.
       -1   -1    0    0    0  501  0.00000000000E+00  0.00000000000E+00 -0.92985389542E+03  0.92985389544E+03  0.50400001928E-02 0. -1.
    10030    2    1    2    0    0  0.00000000000E+00  0.00000000000E+00  0.92582153307E+03  0.27855293239E+04  0.26271711218E+04 0.  0.
        4    1    3    3  502    0 -0.11040471691E+04 -0.71127470341E+03  0.43539340836E+03  0.13836187655E+04  0.12699999809E+01 0. -1.
       -4    1    3    3    0  502  0.11040471691E+04  0.71127470341E+03  0.49042812470E+03  0.14019105584E+04  0.12699999809E+01 0.  1.
</event>
<event>
 5   0  0.1085061E-05  0.2596580E+04  0.7818609E-02  0.8369364E-01
       -2   -1    0    0    0  501  0.00000000000E+00  0.00000000000E+00  0.13979810975E+04  0.13979810975E+04  0.25500000920E-02 0.  1.
        2   -1    0    0  501    0  0.00000000000E+00  0.00000000000E+00 -0.12057083902E+04  0.12057083902E+04  0.25500000920E-02 0. -1.
    10030    2    1    2    0    0  0.00000000000E+00  0.00000000000E+00  0.19227270732E+03  0.26036894877E+04  0.25965804733E+04 0.  0.
        1    1    3    3  502    0  0.92060320047E+03 -0.74791843460E+03 -0.43319650031E+03  0.12627554971E+04  0.50400001928E-02 0. -1.
       -1    1    3    3    0  502 -0.92060320047E+03  0.74791843460E+03  0.62546920763E+03  0.13409339906E+04  0.50400001928E-02 0.  1.
</event>
<event>
 5   0  0.4218590E-06  0.2572305E+04  0.7818609E-02  0.8377670E-01
       -1   -1    0    0    0  501  0.00000000000E+00  0.00000000000E+00  0.17681451049E+04  0.17681451049E+04  0.50400001928E-02 0. -1.
        1   -1    0    0  501    0  0.00000000000E+00  0.00000000000E+00 -0.93554970398E+03  0.93554970399E+03  0.50400001928E-02 0.  1.
    10030    2    1    2    0    0  0.00000000000E+00  0.00000000000E+00  0.83259540088E+03  0.27036948089E+04  0.25723045150E+04 0.  0.
        1    1    3    3  502    0 -0.35008162791E+03 -0.16050135253E+03  0.17061173798E+04  0.17490438370E+04  0.50400001928E-02 0. -1.
       -1    1    3    3    0  502  0.35008162791E+03  0.16050135253E+03 -0.87352197888E+03  0.95465097181E+03  0.50400001928E-02 0.  1.
</event>
<event>
 5   0  0.4415080E-06  0.2600800E+04  0.7818609E-02  0.8367929E-01
        1   -1    0    0  501    0  0.00000000000E+00  0.00000000000E+00  0.11482209297E+04  0.11482209297E+04  0.50400001928E-02 0.  1.
       -1   -1    0    0    0  501  0.00000000000E+00  0.00000000000E+00 -0.14727482695E+04  0.14727482696E+04  0.50400001928E-02 0. -1.
    10030    2    1    2    0    0  0.00000000000E+00  0.00000000000E+00 -0.32452733982E+03  0.26209691993E+04  0.26008001748E+04 0.  0.
        2    1    3    3  502    0 -0.86326047154E+03  0.76092183279E+03 -0.77261692240E+03  0.13860582910E+04  0.25500000920E-02 0. -1.
       -2    1    3    3    0  502  0.86326047154E+03 -0.76092183279E+03  0.44808958258E+03  0.12349109083E+04  0.25500000920E-02 0.  1.
</event>
<event>
 5   0  0.4218590E-06  0.2602710E+04  0.7818609E-02  0.8367281E-01
        1   -1    0    0  501    0  0.00000000000E+00  0.00000000000E+00  0.24760413144E+04  0.24760413144E+04  0.50400001928E-02 0.  1.
       -1   -1    0    0    0  501  0.00000000000E+00  0.00000000000E+00 -0.68396447489E+03  0.68396447491E+03  0.50400001928E-02 0. -1.
    10030    2    1    2    0    0  0.00000000000E+00  0.00000000000E+00  0.17920768395E+04  0.31600057893E+04  0.26027095862E+04 0.  0.
        1    1    3    3  502    0 -0.10342625149E+04  0.69167040078E+03  0.43304975226E+03  0.13174365187E+04  0.50400001928E-02 0. -1.
       -1    1    3    3    0  502  0.10342625149E+04 -0.69167040078E+03  0.13590270873E+04  0.18425692706E+04  0.50400001928E-02 0.  1.
</event>
<event>
 5   0  0.4597705E-06  0.2589096E+04  0.7818609E-02  0.8371915E-01
       -1   -1    0    0    0  501  0.00000000000E+00  0.00000000000E+00  0.10335100270E+04  0.10335100271E+04  0.50400001928E-02 0. -1.
        1   -1    0    0  501    0  0.00000000000E+00  0.00000000000E+00 -0.16215169506E+04  0.16215169507E+04  0.50400001928E-02 0.  1.
    10030    2    1    2    0    0  0.00000000000E+00  0.00000000000E+00 -0.58800692361E+03  0.26550269777E+04  0.25890956163E+04 0.  0.
        5    1    3    3  502    0 -0.71539284940E+03 -0.50471963997E+03 -0.12718600885E+04  0.15440786958E+04  0.46999998093E+01 0.  1.
       -5    1    3    3    0  502  0.71539284940E+03  0.50471963997E+03  0.68385316493E+03  0.11109482819E+04  0.46999998093E+01 0. -1.
</event>
<event>
 5   0  0.4415080E-06  0.2680847E+04  0.7818609E-02  0.8341246E-01
       -1   -1    0    0    0  501  0.00000000000E+00  0.00000000000E+00  0.17605877792E+04  0.17605877792E+04  0.50400001928E-02 0. -1.
        1   -1    0    0  501    0  0.00000000000E+00  0.00000000000E+00 -0.10205312688E+04  0.10205312688E+04  0.50400001928E-02 0.  1.
    10030    2    1    2    0    0  0.00000000000E+00  0.00000000000E+00  0.74005651035E+03  0.27811190480E+04  0.26808467917E+04 0.  0.
        2    1    3    3  502    0 -0.41744966896E+03  0.76502726293E+03 -0.68649646657E+03  0.11094180176E+04  0.25500000920E-02 0.  1.
       -2    1    3    3    0  502  0.41744966896E+03 -0.76502726293E+03  0.14265529769E+04  0.16717010304E+04  0.25500000920E-02 0. -1.
</event>
<event>
 5   0  0.1085061E-05  0.2593264E+04  0.7818609E-02  0.8370493E-01
       -2   -1    0    0    0  501  0.00000000000E+00  0.00000000000E+00  0.13168747208E+04  0.13168747208E+04  0.25500000920E-02 0.  1.
        2   -1    0    0  501    0  0.00000000000E+00  0.00000000000E+00 -0.12767004633E+04  0.12767004633E+04  0.25500000920E-02 0. -1.
    10030    2    1    2    0    0  0.00000000000E+00  0.00000000000E+00  0.40174257503E+02  0.25935751841E+04  0.25932640175E+04 0.  0.
        1    1    3    3  502    0 -0.12337529071E+04  0.12793049018E+03 -0.35777048647E+03  0.12909346099E+04  0.50400001928E-02 0. -1.
       -1    1    3    3    0  502  0.12337529071E+04 -0.12793049018E+03  0.39794474397E+03  0.13026405742E+04  0.50400001928E-02 0.  1.
</event>
<event>
 5   0  0.1136881E-05  0.2604337E+04  0.7818609E-02  0.8366729E-01
       -2   -1    0    0    0  501  0.00000000000E+00  0.00000000000E+00  0.10259058861E+04  0.10259058861E+04  0.25500000920E-02 0.  1.
        2   -1    0    0  501    0  0.00000000000E+00  0.00000000000E+00 -0.16528251643E+04  0.16528251643E+04  0.25500000920E-02 0. -1.
    10030    2    1    2    0    0  0.00000000000E+00  0.00000000000E+00 -0.62691927818E+03  0.26787310504E+04  0.26043372015E+04 0.  0.
        3    1    3    3  502    0  0.12762732523E+04 -0.99697084192E+02 -0.55866006908E+03  0.13967512327E+04  0.10100000352E+00 0. -1.
       -3    1    3    3    0  502 -0.12762732523E+04  0.99697084192E+02 -0.68259209109E+02  0.12819798177E+04  0.10100000352E+00 0.  1.
</event>
<event>
 5   0  0.4218590E-06  0.2628676E+04  0.7818609E-02  0.8358526E-01
        1   -1    0    0  501    0  0.00000000000E+00  0.00000000000E+00  0.14315275758E+04  0.14315275758E+04  0.50400001928E-02 0.  1.
       -1   -1    0    0    0  501  0.00000000000E+00  0.00000000000E+00 -0.12067414978E+04  0.12067414978E+04  0.50400001928E-02 0. -1.
    10030    2    1    2    0    0  0.00000000000E+00  0.00000000000E+00  0.22478607807E+03  0.26382690736E+04  0.26286755075E+04 0.  0.
        1    1    3    3  502    0  0.11700379965E+04 -0.47920047644E+03  0.47267628895E+03  0.13498314280E+04  0.50400001928E-02 0.  1.
       -1    1    3    3    0  502 -0.11700379965E+04  0.47920047644E+03 -0.24789021088E+03  0.12884376456E+04  0.50400001928E-02 0. -1.
</event>
<event>
 5   0  0.4415080E-06  0.2612173E+04  0.7818609E-02  0.8364078E-01
        1   -1    0    0  501    0  0.00000000000E+00  0.00000000000E+00  0.14696841947E+04  0.14696841947E+04  0.50400001928E-02 0. -1.
       -1   -1    0    0    0  501  0.00000000000E+00  0.00000000000E+00 -0.11606999879E+04  0.11606999879E+04  0.50400001928E-02 0.  1.
    10030    2    1    2    0    0  0.00000000000E+00  0.00000000000E+00  0.30898420679E+03  0.26303841826E+04  0.26121733687E+04 0.  0.
        2    1    3    3  502    0  0.45087526324E+03 -0.13551702593E+03 -0.10722823567E+04  0.11710861710E+04  0.25500000920E-02 0.  1.
       -2    1    3    3    0  502 -0.45087526324E+03  0.13551702593E+03  0.13812665635E+04  0.14592980117E+04  0.25500000920E-02 0. -1.
</event>
<event>
 5   0  0.4218590E-06  0.2598137E+04  0.7818609E-02  0.8368834E-01
       -1   -1    0    0    0  501  0.00000000000E+00  0.00000000000E+00  0.14290201340E+04  0.14290201340E+04  0.50400001928E-02 0.  1.
        1   -1    0    0  501    0  0.00000000000E+00  0.00000000000E+00 -0.11809345893E+04  0.11809345893E+04  0.50400001928E-02 0. -1.
    10030    2    1    2    0    0  0.00000000000E+00  0.00000000000E+00  0.24808554471E+03  0.26099547233E+04  0.25981372597E+04 0.  0.
        1    1    3    3  502    0  0.73584111728E+03  0.36500470739E+01  0.11994745486E+04  0.14072010039E+04  0.50400001928E-02 0.  1.
       -1    1    3    3    0  502 -0.73584111728E+03 -0.36500470739E+01 -0.95138900390E+03  0.12027537194E+04  0.50400001928E-02 0. -1.
</event>
<event>
 5   0  0.4464297E-06  0.2662352E+04  0.7818609E-02  0.8347325E-01
        1   -1    0    0  501    0  0.00000000000E+00  0.00000000000E+00  0.13743212608E+04  0.13743212608E+04  0.50400001928E-02 0.  1.
       -1   -1    0    0    0  501  0.00000000000E+00  0.00000000000E+00 -0.12893851128E+04  0.12893851128E+04  0.50400001928E-02 0. -1.
    10030    2    1    2    0    0  0.00000000000E+00  0.00000000000E+00  0.84936147954E+02  0.26637063736E+04  0.26623518730E+04 0.  0.
        4    1    3    3  502    0  0.10755036885E+04  0.56325924718E+03  0.58869326180E+03  0.13492703706E+04  0.12699999809E+01 0. -1.
       -4    1    3    3    0  502 -0.10755036885E+04 -0.56325924718E+03 -0.50375711385E+03  0.13144360031E+04  0.12699999809E+01 0.  1.
</event>
<event>
 5   0  0.4361864E-06  0.2564251E+04  0.7818609E-02  0.8380447E-01
        1   -1    0    0  501    0  0.00000000000E+00  0.00000000000E+00  0.15406861001E+04  0.15406861001E+04  0.50400001928E-02 0.  1.
       -1   -1    0    0    0  501  0.00000000000E+00  0.00000000000E+00 -0.10669573873E+04  0.10669573873E+04  0.50400001928E-02 0. -1.
    10030    2    1    2    0    0  0.00000000000E+00  0.00000000000E+00  0.47372871281E+03  0.26076434874E+04  0.25642514822E+04 0.  0.
        3    1    3    3  502    0  0.46675567561E+03 -0.78939196779E+03 -0.67431461360E+03  0.11382885170E+04  0.10100000352E+00 0. -1.
       -3    1    3    3    0  502 -0.46675567561E+03  0.78939196779E+03  0.11480433264E+04  0.14693549704E+04  0.10100000352E+00 0.  1.
</event>
<event>
 5   0  0.1085061E-05  0.2611865E+04  0.7818609E-02  0.8364182E-01
       -2   -1    0    0    0  501  0.00000000000E+00  0.00000000000E+00  0.12753159299E+04  0.12753159299E+04  0.25500000920E-02 0.  1.
        2   -1    0    0  501    0  0.00000000000E+00  0.00000000000E+00 -0.13372839337E+04  0.13372839337E+04  0.25500000920E-02 0. -1.
    10030    2    1    2    0    0  0.00000000000E+00  0.00000000000E+00 -0.61968003870E+02  0.26125998636E+04  0.26118648537E+04 0.  0.
        1    1    3    3  502    0  0.58769492110E+03 -0.74255358467E+03 -0.93050808176E+03  0.13276356566E+04  0.50400001928E-02 0. -1.
       -1    1    3    3    0  502 -0.58769492110E+03  0.74255358467E+03  0.86854007789E+03  0.12849642070E+04  0.50400001928E-02 0.  1.
</event>
<event>
 5   0  0.4597705E-06  0.2596741E+04  0.7818609E-02  0.8369309E-01
        1   -1    0    0  501    0  0.00000000000E+00  0.00000000000E+00  0.16049780939E+04  0.16049780939E+04  0.50400001928E-02 0.  1.
       -1   -1    0    0    0  501  0.00000000000E+00  0.00000000000E+00 -0.10503360086E+04  0.10503360086E+04  0.50400001928E-02 0. -1.
    10030    2    1    2    0    0  0.00000000000E+00  0.00000000000E+00  0.55464208534E+03  0.26553141025E+04  0.25967412540E+04 0.  0.
        5    1    3    3  502    0 -0.84596783512E+03 -0.51068417689E+03  0.11385079019E+04  0.15075417869E+04  0.46999998093E+01 0.  1.
       -5    1    3    3    0  502  0.84596783512E+03  0.51068417689E+03 -0.58386581658E+03  0.11477723156E+04  0.46999998093E+01 0. -1.
</event>
<event>
 5   0  0.1086507E-05  0.2603974E+04  0.7818609E-02  0.8366853E-01
       -2   -1    0    0    0  501  0.00000000000E+00  0.00000000000E+00  0.12012234950E+04  0.12012234950E+04  0.25500000920E-02 0. -1.
        2   -1    0    0  501    0  0.00000000000E+00  0.00000000000E+00 -0.14112030991E+04  0.14112030991E+04  0.25500000920E-02 0.  1.
    10030    2    1    2    0    0  0.00000000000E+00  0.00000000000E+00 -0.20997960413E+03  0.26124265941E+04  0.26039741311E+04 0.  0.
        2    1    3    3  502    0 -0.30089545096E+03  0.68485992117E+03  0.96411420468E+03  0.12202816821E+04  0.25500000920E-02 0. -1.
       -2    1    3    3    0  502  0.30089545096E+03 -0.68485992117E+03 -0.11740938088E+04  0.13921449120E+04  0.25500000920E-02 0.  1.
</event>
<event>
 5   0  0.4464297E-06  0.2722798E+04  0.7818609E-02  0.8327646E-01
       -1   -1    0    0    0  501  0.00000000000E+00  0.00000000000E+00  0.11789704573E+04  0.11789704573E+04  0.50400001928E-02 0.  1.
        1   -1    0    0  501    0  0.00000000000E+00  0.00000000000E+00 -0.15720556246E+04  0.15720556246E+04  0.50400001928E-02 0. -1.
    10030    2    1    2    0    0  0.00000000000E+00  0.00000000000E+00 -0.39308516731E+03  0.27510260819E+04  0.27227979276E+04 0.  0.
        4    1    3    3  502    0 -0.57112848481E+03 -0.10490027218E+04  0.46353826658E+03  0.12811962356E+04  0.12699999809E+01 0.  1.
       -4    1    3    3    0  502  0.57112848481E+03  0.10490027218E+04 -0.85662343389E+03  0.14698298463E+04  0.12699999809E+01 0. -1.
</event>
<event>
 5   0  0.1136881E-05  0.2616695E+04  0.7818609E-02  0.8362552E-01
       -2   -1    0    0    0  501  0.00000000000E+00  0.00000000000E+00  0.84445566073E+03  0.84445566073E+03  0.25500000920E-02 0. -1.
        2   -1    0    0  501    0  0.00000000000E+00  0.00000000000E+00 -0.20270736069E+04  0.20270736069E+04  0.25500000920E-02 0.  1.
    10030    2    1    2    0    0  0.00000000000E+00  0.00000000000E+00 -0.11826179462E+04  0.28715292676E+04  0.26166954596E+04 0.  0.
        3    1    3    3  502    0  0.72730610447E+03 -0.35239245875E+03 -0.17204025602E+04  0.19007734199E+04  0.10100000352E+00 0.  1.
       -3    1    3    3    0  502 -0.72730610447E+03  0.35239245875E+03  0.53778461402E+03  0.97075584771E+03  0.10100000352E+00 0. -1.
</event>
<event>
 5   0  0.4218590E-06  0.2394482E+04  0.7818609E-02  0.8441572E-01
       -1   -1    0    0    0  501  0.00000000000E+00  0.00000000000E+00  0.70579698778E+03  0.70579698780E+03  0.50400001928E-02 0. -1.
        1   -1    0    0  501    0  0.00000000000E+00  0.00000000000E+00 -0.20308765210E+04  0.20308765210E+04  0.50400001928E-02 0.  1.
    10030    2    1    2    0    0  0.00000000000E+00  0.00000000000E+00 -0.13250795332E+04  0.27366735088E+04  0.23944824335E+04 0.  0.
        1    1    3    3  502    0 -0.50298414442E+03  0.55128626561E+03 -0.17325343491E+04  0.18864211797E+04  0.50400001928E-02 0.  1.
       -1    1    3    3    0  502  0.50298414442E+03 -0.55128626561E+03  0.40745481590E+03  0.85025232914E+03  0.50400001928E-02 0. -1.
</event>
<event>
 5   0  0.1136881E-05  0.2601149E+04  0.7818609E-02  0.8367811E-01
        2   -1    0    0  501    0  0.00000000000E+00  0.00000000000E+00  0.20446290367E+04  0.20446290367E+04  0.25500000920E-02 0. -1.
       -2   -1    0    0    0  501  0.00000000000E+00  0.00000000000E+00 -0.82728653187E+03  0.82728653188E+03  0.25500000920E-02 0.  1.
    10030    2    1    2    0    0  0.00000000000E+00  0.00000000000E+00  0.12173425049E+04  0.28719155686E+04  0.26011490267E+04 0.  0.
        3    1    3    3  502    0 -0.11544030571E+04 -0.58037824201E+03  0.77246750074E+03  0.15053874491E+04  0.10100000352E+00 0.  1.
       -3    1    3    3    0  502  0.11544030571E+04  0.58037824201E+03  0.44487500413E+03  0.13665281195E+04  0.10100000352E+00 0. -1.
</event>
<event>
 5   0  0.4361864E-06  0.2597459E+04  0.7818609E-02  0.8369065E-01
       -1   -1    0    0    0  501  0.00000000000E+00  0.00000000000E+00  0.81929837525E+03  0.81929837527E+03  0.50400001928E-02 0.  1.
        1   -1    0    0  501    0  0.00000000000E+00  0.00000000000E+00 -0.20587106141E+04  0.20587106141E+04  0.50400001928E-02 0. -1.
    10030    2    1    2    0    0  0.00000000000E+00  0.00000000000E+00 -0.12394122389E+04  0.28780089894E+04  0.25974589593E+04 0.  0.
        3    1    3    3  502    0 -0.72413407176E+03 -0.78598014378E+03  0.19794425662E+03  0.10868840229E+04  0.10100000352E+00 0.  1.
       -3    1    3    3    0  502  0.72413407176E+03  0.78598014378E+03 -0.14373564955E+04  0.17911249665E+04  0.10100000352E+00 0. -1.
</event>
<event>
 5   0  0.4597705E-06  0.2593801E+04  0.7818609E-02  0.8370310E-01
        1   -1    0    0  501    0  0.00000000000E+00  0.00000000000E+00  0.20460667361E+04  0.20460667361E+04  0.50400001928E-02 0. -1.
       -1   -1    0    0    0  501  0.00000000000E+00  0.00000000000E+00 -0.82204083146E+03  0.82204083148E+03  0.50400001928E-02 0.  1.
    10030    2    1    2    0    0  0.00000000000E+00  0.00000000000E+00  0.12240259047E+04  0.28681075676E+04  0.25938006099E+04 0.  0.
        5    1    3    3  502    0  0.28242031308E+03  0.29605390456E+03  0.19728190097E+04  0.20148067110E+04  0.46999998093E+01 0. -1.
       -5    1    3    3    0  502 -0.28242031308E+03 -0.29605390456E+03 -0.74879310507E+03  0.85330085658E+03  0.46999998093E+01 0.  1.
</event>
<event>
 5   0  0.4361864E-06  0.2603228E+04  0.7818609E-02  0.8367106E-01
       -1   -1    0    0    0  501  0.00000000000E+00  0.00000000000E+00  0.96263366136E+03  0.96263366138E+03  0.50400001928E-02 0.  1.
        1   -1    0    0  501    0  0.00000000000E+00  0.00000000000E+00 -0.17599623825E+04  0.17599623825E+04  0.50400001928E-02 0. -1.
    10030    2    1    2    0    0  0.00000000000E+00  0.00000000000E+00 -0.79732872110E+03  0.27225960438E+04  0.26032280208E+04 0.  0.
        3    1    3    3  502    0  0.79058120297E+03  0.69034576958E+03 -0.12037701674E+04  0.15970781277E+04  0.10100000352E+00 0. -1.
       -3    1    3    3    0  502 -0.79058120297E+03 -0.69034576958E+03  0.40644144625E+03  0.11255179161E+04  0.10100000352E+00 0.  1.
</event>
<event>
 5   0  0.1085255E-05  0.2595764E+04  0.7818609E-02  0.8369641E-01
        2   -1    0    0  501    0  0.00000000000E+00  0.00000000000E+00  0.17617307259E+04  0.17617307259E+04  0.25500000920E-02 0.  1.
       -2   -1    0    0    0  501  0.00000000000E+00  0.00000000000E+00 -0.95616105182E+03  0.95616105183E+03  0.25500000920E-02 0. -1.
    10030    2    1    2    0    0  0.00000000000E+00  0.00000000000E+00  0.80556967412E+03  0.27178917778E+04  0.25957644762E+04 0.  0.
        5    1    3    3  502    0 -0.42130903488E+03  0.31394045424E+03 -0.83981816009E+03  0.99064450924E+03  0.46999998093E+01 0. -1.
       -5    1    3    3    0  502  0.42130903488E+03 -0.31394045424E+03  0.16453878342E+04  0.17272472685E+04  0.46999998093E+01 0.  1.
</event>
<event>
 5   0  0.1085061E-05  0.2620709E+04  0.7818609E-02  0.8361201E-01
       -2   -1    0    0    0  501  0.00000000000E+00  0.00000000000E+00  0.11472468049E+04  0.11472468049E+04  0.25500000920E-02 0.  1.
        2   -1    0    0  501    0  0.00000000000E+00  0.00000000000E+00 -0.14966520729E+04  0.14966520729E+04  0.25500000920E-02 0. -1.
    10030    2    1    2    0    0  0.00000000000E+00  0.00000000000E+00 -0.34940526800E+03  0.26438988777E+04  0.26207092998E+04 0.  0.
        1    1    3    3  502    0  0.13075294580E+04 -0.31000667306E+02 -0.93774465490E+02  0.13112543519E+04  0.50400001928E-02 0. -1.
       -1    1    3    3    0  502 -0.13075294580E+04  0.31000667306E+02 -0.25563080251E+03  0.13326445258E+04  0.50400001928E-02 0.  1.
</event>
<event>
 5   0  0.1085061E-05  0.2586808E+04  0.7818609E-02  0.8372696E-01
        2   -1    0    0  501    0  0.00000000000E+00  0.00000000000E+00  0.10125641294E+04  0.10125641294E+04  0.25500000920E-02 0. -1.
       -2   -1    0    0    0  501  0.00000000000E+00  0.00000000000E+00 -0.16521364683E+04  0.16521364683E+04  0.25500000920E-02 0.  1.
    10030    2    1    2    0    0  0.00000000000E+00  0.00000000000E+00 -0.63957233890E+03  0.26647005977E+04  0.25868081681E+04 0.  0.
        1    1    3    3  502    0 -0.10783176619E+04  0.19681884234E+03 -0.10270366010E+04  0.15021021325E+04  0.50400001928E-02 0.  1.
       -1    1    3    3    0  502  0.10783176619E+04 -0.19681884234E+03  0.38746426208E+03  0.11625984652E+04  0.50400001928E-02 0. -1.
</event>
<event>
 5   0  0.4415080E-06  0.2610919E+04  0.7818609E-02  0.8364502E-01
        1   -1    0    0  501    0  0.00000000000E+00  0.00000000000E+00  0.12434296180E+04  0.12434296180E+04  0.50400001928E-02 0. -1.
       -1   -1    0    0    0  501  0.00000000000E+00  0.00000000000E+00 -0.13705837142E+04  0.13705837142E+04  0.50400001928E-02 0.  1.
    10030    2    1    2    0    0  0.00000000000E+00  0.00000000000E+00 -0.12715409616E+03  0.26140133323E+04  0.26109189066E+04 0.  0.
        2    1    3    3  502    0  0.96544248814E+01 -0.13027778609E+04 -0.14674789153E+03  0.13110523660E+04  0.25500000920E-02 0. -1.
       -2    1    3    3    0  502 -0.96544248814E+01  0.13027778609E+04  0.19593795366E+02  0.13029609662E+04  0.25500000920E-02 0.  1.
</event>
<event>
 5   0  0.4415080E-06  0.2622890E+04  0.7818609E-02  0.8360467E-01
        1   -1    0    0  501    0  0.00000000000E+00  0.00000000000E+00  0.17147292756E+04  0.17147292756E+04  0.50400001928E-02 0.  1.
       -1   -1    0    0    0  501  0.00000000000E+00  0.00000000000E+00 -0.10030082113E+04  0.10030082113E+04  0.50400001928E-02 0. -1.
    10030    2    1    2    0    0  0.00000000000E+00  0.00000000000E+00  0.71172106435E+03  0.27177374869E+04  0.26228896611E+04 0.  0.
        2    1    3    3  502    0  0.38519837587E+03  0.36568722698E+03 -0.88657566710E+03  0.10334995647E+04  0.25500000920E-02 0. -1.
       -2    1    3    3    0  502 -0.38519837587E+03 -0.36568722698E+03  0.15982967315E+04  0.16842379222E+04  0.25500000920E-02 0.  1.
</event>
<event>
 5   0  0.1086507E-05  0.2593383E+04  0.7818609E-02  0.8370452E-01
        2   -1    0    0  501    0  0.00000000000E+00  0.00000000000E+00  0.19215484653E+04  0.19215484653E+04  0.25500000920E-02 0. -1.
       -2   -1    0    0    0  501  0.00000000000E+00  0.00000000000E+00 -0.87502832204E+03  0.87502832205E+03  0.25500000920E-02 0.  1.
    10030    2    1    2    0    0  0.00000000000E+00  0.00000000000E+00  0.10465201433E+04  0.27965767873E+04  0.25933833726E+04 0.  0.
        2    1    3    3  502    0 -0.36479339091E+03 -0.11156090208E+04  0.11175786832E+04  0.16206911545E+04  0.25500000920E-02 0.  1.
       -2    1    3    3    0  502  0.36479339091E+03  0.11156090208E+04 -0.71058539908E+02  0.11758856328E+04  0.25500000920E-02 0. -1.
</event>
<event>
 5   0  0.4597705E-06  0.2595679E+04  0.7818609E-02  0.8369670E-01
        1   -1    0    0  501    0  0.00000000000E+00  0.00000000000E+00  0.13618743179E+04  0.13618743179E+04  0.50400001928E-02 0.  1.
       -1   -1    0    0    0  501  0.00000000000E+00  0.00000000000E+00 -0.12368156120E+04  0.12368156120E+04  0.50400001928E-02 0. -1.
    10030    2    1    2    0    0  0.00000000000E+00  0.00000000000E+00  0.12505870591E+03  0.25986899300E+04  0.25956790388E+04 0.  0.
        5    1    3    3  502    0 -0.11471260626E+04 -0.24493929403E+03 -0.49351732997E+03  0.12725859131E+04  0.46999998093E+01 0.  1.
       -5    1    3    3    0  502  0.11471260626E+04  0.24493929403E+03  0.61857603588E+03  0.13261040168E+04  0.46999998093E+01 0. -1.
</event>
<event>
 5   0  0.4464297E-06  0.2544907E+04  0.7818609E-02  0.8387159E-01
        1   -1    0    0  501    0  0.00000000000E+00  0.00000000000E+00  0.12387931835E+04  0.12387931835E+04  0.50400001928E-02 0. -1.
       -1   -1    0    0    0  501  0.00000000000E+00  0.00000000000E+00 -0.13070288783E+04  0.13070288783E+04  0.50400001928E-02 0.  1.
    10030    2    1    2    0    0  0.00000000000E+00  0.00000000000E+00 -0.68235694744E+02  0.25458220618E+04  0.25449074365E+04 0.  0.
        4    1    3    3  502    0  0.32705693684E+00  0.12025362845E+04 -0.45025200068E+03  0.12840646789E+04  0.12699999809E+01 0.  1.
       -4    1    3    3    0  502 -0.32705693684E+00 -0.12025362845E+04  0.38201630594E+03  0.12617573830E+04  0.12699999809E+01 0. -1.
</event>
<event>
 5   0  0.4361864E-06  0.2608406E+04  0.7818609E-02  0.8365351E-01
       -1   -1    0    0    0  501  0.00000000000E+00  0.00000000000E+00  0.12446989357E+04  0.12446989357E+04  0.50400001928E-02 0. -1.
        1   -1    0    0  501    0  0.00000000000E+00  0.00000000000E+00 -0.13665520058E+04  0.13665520058E+04  0.50400001928E-02 0.  1.
    10030    2    1    2    0    0  0.00000000000E+00  0.00000000000E+00 -0.12185307014E+03  0.26112509415E+04  0.26084062776E+04 0.  0.
        3    1    3    3  502    0 -0.12192679810E+04  0.18933222008E+03 -0.48386179300E+03  0.13253615899E+04  0.10100000352E+00 0. -1.
       -3    1    3    3    0  502  0.12192679810E+04 -0.18933222008E+03  0.36200872286E+03  0.12858893516E+04  0.10100000352E+00 0.  1.
</event>
<event>
 5   0  0.4597705E-06  0.2610062E+04  0.7818609E-02  0.8364791E-01
       -1   -1    0    0    0  501  0.00000000000E+00  0.00000000000E+00  0.91560943180E+03  0.91560943181E+03  0.50400001928E-02 0.  1.
        1   -1    0    0  501    0  0.00000000000E+00  0.00000000000E+00 -0.18600787398E+04  0.18600787398E+04  0.50400001928E-02 0. -1.
    10030    2    1    2    0    0  0.00000000000E+00  0.00000000000E+00 -0.94446930801E+03  0.27756881716E+04  0.26100617909E+04 0.  0.
        5    1    3    3  502    0 -0.24733053707E+03  0.77507141371E+03  0.61289553710E+03  0.10186123504E+04  0.46999998093E+01 0.  1.
       -5    1    3    3    0  502  0.24733053707E+03 -0.77507141371E+03 -0.15573648451E+04  0.17570758213E+04  0.46999998093E+01 0. -1.
</event>
<event>
 5   0  0.1086507E-05  0.2615291E+04  0.7818609E-02  0.8363026E-01
        2   -1    0    0  501    0  0.00000000000E+00  0.00000000000E+00  0.13177088152E+04  0.13177088152E+04  0.25500000920E-02 0. -1.
       -2   -1    0    0    0  501  0.00000000000E+00  0.00000000000E+00 -0.12976590455E+04  0.12976590455E+04  0.25500000920E-02 0.  1.
    10030    2    1    2    0    0  0.00000000000E+00  0.00000000000E+00  0.20049769716E+02  0.26153678606E+04  0.26152910074E+04 0.  0.
        2    1    3    3  502    0  0.60319091499E+03  0.18359558582E+03  0.11556545272E+04  0.13164664847E+04  0.25500000920E-02 0. -1.
       -2    1    3    3    0  502 -0.60319091499E+03 -0.18359558582E+03 -0.11356047575E+04  0.12989013759E+04  0.25500000920E-02 0.  1.
</event>
<event>
 5   0  0.1086507E-05  0.2618878E+04  0.7818609E-02  0.8361817E-01
        2   -1    0    0  501    0  0.00000000000E+00  0.00000000000E+00  0.18403886697E+04  0.18403886697E+04  0.25500000920E-02 0.  1.
       -2   -1    0    0    0  501  0.00000000000E+00  0.00000000000E+00 -0.93166781844E+03  0.93166781844E+03  0.25500000920E-02 0. -1.
    10030    2    1    2    0    0  0.00000000000E+00  0.00000000000E+00  0.90872085124E+03  0.27720564881E+04  0.26188783072E+04 0.  0.
        2    1    3    3  502    0  0.44932475089E+03 -0.12158367083E+04  0.25781372848E+03  0.13215973486E+04  0.25500000920E-02 0. -1.
       -2    1    3    3    0  502 -0.44932475089E+03  0.12158367083E+04  0.65090712276E+03  0.14504591396E+04  0.25500000920E-02 0.  1.
</event>
<event>
 5   0  0.4464297E-06  0.2590893E+04  0.7818609E-02  0.8371301E-01
       -1   -1    0    0    0  501  0.00000000000E+00  0.00000000000E+00  0.19726095478E+04  0.19726095478E+04  0.50400001928E-02 0.  1.
        1   -1    0    0  501    0  0.00000000000E+00  0.00000000000E+00 -0.85074173433E+03  0.85074173434E+03  0.50400001928E-02 0. -1.
    10030    2    1    2    0    0  0.00000000000E+00  0.00000000000E+00  0.11218678135E+04  0.28233512822E+04  0.25908927171E+04 0.  0.
        4    1    3    3  502    0 -0.12527451517E+03  0.26910898539E+03 -0.81318116646E+03  0.86566654813E+03  0.12699999809E+01 0. -1.
       -4    1    3    3    0  502  0.12527451517E+03 -0.26910898539E+03  0.19350489799E+04  0.19576847340E+04  0.12699999809E+01 0.  1.
</event>
<event>
 5   0  0.4218590E-06  0.2606789E+04  0.7818609E-02  0.8365899E-01
       -1   -1    0    0    0  501  0.00000000000E+00  0.00000000000E+00  0.98906245730E+03  0.98906245731E+03  0.50400001928E-02 0.  1.
        1   -1    0    0  501    0  0.00000000000E+00  0.00000000000E+00 -0.17176236784E+04  0.17176236784E+04  0.50400001928E-02 0. -1.
    10030    2    1    2    0    0  0.00000000000E+00  0.00000000000E+00 -0.72856122107E+03  0.27066861357E+04  0.26067889029E+04 0.  0.
        1    1    3    3  502    0 -0.11633314120E+04 -0.51834843470E+03 -0.76509870402E+02  0.12758835504E+04  0.50400001928E-02 0. -1.
       -1    1    3    3    0  502  0.11633314120E+04  0.51834843470E+03 -0.65205135067E+03  0.14308025852E+04  0.50400001928E-02 0.  1.
</event>
<event>
 5   0  0.4218590E-06  0.2596442E+04  0.7818609E-02  0.8369411E-01
        1   -1    0    0  501    0  0.00000000000E+00  0.00000000000E+00  0.18317825811E+04  0.18317825811E+04  0.50400001928E-02 0.  1.
       -1   -1    0    0    0  501  0.00000000000E+00  0.00000000000E+00 -0.92007557118E+03  0.92007557119E+03  0.50400001928E-02 0. -1.
    10030    2    1    2    0    0  0.00000000000E+00  0.00000000000E+00  0.91170700995E+03  0.27518581523E+04  0.25964424928E+04 0.  0.
        1    1    3    3  502    0  0.61758591414E+02 -0.44426860225E+03 -0.83534210580E+03  0.94814827337E+03  0.50400001928E-02 0. -1.
       -1    1    3    3    0  502 -0.61758591414E+02  0.44426860225E+03  0.17470491157E+04  0.18037098789E+04  0.50400001928E-02 0.  1.
</event>
<event>
 5   0  0.4597705E-06  0.2658860E+04  0.7818609E-02  0.8348478E-01
        1   -1    0    0  501    0  0.00000000000E+00  0.00000000000E+00  0.14691038844E+04  0.14691038844E+04  0.50400001928E-02 0. -1.
       -1   -1    0    0    0  501  0.00000000000E+00  0.00000000000E+00 -0.12030352069E+04  0.12030352069E+04  0.50400001928E-02 0.  1.
    10030    2    1    2    0    0  0.00000000000E+00  0.00000000000E+00  0.26606867749E+03  0.26721390914E+04  0.26588596771E+04 0.  0.
        5    1    3    3  502    0 -0.71098616114E+03  0.48087097693E+03 -0.88723219061E+03  0.12344801610E+04  0.46999998093E+01 0.  1.
       -5    1    3    3    0  502  0.71098616114E+03 -0.48087097693E+03  0.11533008681E+04  0.14376589304E+04  0.46999998093E+01 0. -1.
</event>
<event>
 5   0  0.1085061E-05  0.2592190E+04  0.7818609E-02  0.8370859E-01
       -2   -1    0    0    0  501  0.00000000000E+00  0.00000000000E+00  0.94928418461E+03  0.94928418461E+03  0.25500000920E-02 0. -1.
        2   -1    0    0  501    0  0.00000000000E+00  0.00000000000E+00 -0.17696100008E+04  0.17696100008E+04  0.25500000920E-02 0.  1.
    10030    2    1    2    0    0  0.00000000000E+00  0.00000000000E+00 -0.82032581617E+03  0.27188941854E+04  0.25921904148E+04 0.  0.
        1    1    3    3  502    0 -0.88011918879E+03  0.87238212499E+03 -0.80846417905E+03  0.14796197780E+04  0.50400001928E-02 0. -1.
       -1    1    3    3    0  502  0.88011918879E+03 -0.87238212499E+03 -0.11861637117E+02  0.12392744074E+04  0.50400001928E-02 0.  1.
</event>
<event>
 5   0  0.1136881E-05  0.2471165E+04  0.7818609E-02  0.8413331E-01
       -2   -1    0    0    0  501  0.00000000000E+00  0.00000000000E+00  0.10367486622E+04  0.10367486622E+04  0.25500000920E-02 0. -1.
        2   -1    0    0  501    0  0.00000000000E+00  0.00000000000E+00 -0.14725499709E+04  0.14725499709E+04  0.25500000920E-02 0.  1.
    10030    2    1    2    0    0  0.00000000000E+00  0.00000000000E+00 -0.43580130865E+03  0.25092986331E+04  0.24711650794E+04 0.  0.
        3    1    3    3  502    0 -0.88381639453E+03 -0.14544667069E+02  0.65874147797E+03  0.11023988895E+04  0.10100000352E+00 0. -1.
       -3    1    3    3    0  502  0.88381639453E+03  0.14544667069E+02 -0.10945427866E+04  0.14068997436E+04  0.10100000352E+00 0.  1.
</event>
<event>
 5   0  0.1085061E-05  0.2606146E+04  0.7818609E-02  0.8366116E-01
        2   -1    0    0  501    0  0.00000000000E+00  0.00000000000E+00  0.32710535980E+04  0.32710535980E+04  0.25500000920E-02 0. -1.
       -2   -1    0    0    0  501  0.00000000000E+00  0.00000000000E+00 -0.51909875388E+03  0.51909875388E+03  0.25500000920E-02 0.  1.
    10030    2    1    2    0    0  0.00000000000E+00  0.00000000000E+00  0.27519548441E+04  0.37901523519E+04  0.26061464630E+04 0.  0.
        1    1    3    3  502    0 -0.72933907188E+02  0.62305807114E+02 -0.51395712171E+03  0.52283199156E+03  0.50400001928E-02 0.  1.
       -1    1    3    3    0  502  0.72933907188E+02 -0.62305807114E+02  0.32659119658E+04  0.32673203603E+04  0.50400001928E-02 0. -1.
</event>
<event>
 5   0  0.1136881E-05  0.2472724E+04  0.7818609E-02  0.8412768E-01
       -2   -1    0    0    0  501  0.00000000000E+00  0.00000000000E+00  0.70011231734E+03  0.70011231734E+03  0.25500000920E-02 0. -1.
        2   -1    0    0  501    0  0.00000000000E+00  0.00000000000E+00 -0.21833514825E+04  0.21833514825E+04  0.25500000920E-02 0.  1.
    10030    2    1    2    0    0  0.00000000000E+00  0.00000000000E+00 -0.14832391652E+04  0.28834637998E+04  0.24727242191E+04 0.  0.
        3    1    3    3  502    0  0.16594343585E+03  0.11526665474E+04 -0.25741944184E+03  0.11926618015E+04  0.10100000352E+00 0. -1.
       -3    1    3    3    0  502 -0.16594343585E+03 -0.11526665474E+04 -0.12258197233E+04  0.16908019984E+04  0.10100000352E+00 0.  1.
</event>
<event>
 5   0  0.1085255E-05  0.2608785E+04  0.7818609E-02  0.8365223E-01
        2   -1    0    0  501    0  0.00000000000E+00  0.00000000000E+00  0.12864675492E+04  0.12864675492E+04  0.25500000920E-02 0. -1.
       -2   -1    0    0    0  501  0.00000000000E+00  0.00000000000E+00 -0.13225669360E+04  0.13225669360E+04  0.25500000920E-02 0.  1.
    10030    2    1    2    0    0  0.00000000000E+00  0.00000000000E+00 -0.36099386738E+02  0.26090344852E+04  0.26087847323E+04 0.  0.
        5    1    3    3  502    0 -0.13042209626E+04 -0.36489560701E+01  0.22431517288E+01  0.13042364647E+04  0.46999998093E+01 0.  1.
       -5    1    3    3    0  502  0.13042209626E+04  0.36489560701E+01 -0.38342538467E+02  0.13047980205E+04  0.46999998093E+01 0. -1.
</event>
<event>
 5   0  0.3705250E-06  0.2510326E+04  0.7818609E-02  0.8399316E-01
       -4   -1    0    0    0  501  0.00000000000E+00  0.00000000000E+00  0.16155455437E+04  0.16155460429E+04  0.12699999809E+01 0.  1.
        4   -1    0    0  501    0  0.00000000000E+00  0.00000000000E+00 -0.97517072685E+03  0.97517155383E+03  0.12699999809E+01 0. -1.
    10030    2    1    2    0    0  0.00000000000E+00  0.00000000000E+00  0.64037481683E+03  0.25907175967E+04  0.25103262258E+04 0.  0.
        5    1    3    3  502    0  0.30211263870E+03  0.12123968276E+04  0.44331545576E+03  0.13257936481E+04  0.46999998093E+01 0.  1.
       -5    1    3    3    0  502 -0.30211263870E+03 -0.12123968276E+04  0.19705936106E+03  0.12649239486E+04  0.46999998093E+01 0. -1.
</event>
<event>
 5   0  0.4361864E-06  0.2589141E+04  0.7818609E-02  0.8371899E-01
       -1   -1    0    0    0  501  0.00000000000E+00  0.00000000000E+00  0.14049127459E+04  0.14049127459E+04  0.50400001928E-02 0. -1.
        1   -1    0    0  501    0  0.00000000000E+00  0.00000000000E+00 -0.11928948771E+04  0.11928948771E+04  0.50400001928E-02 0.  1.
    10030    2    1    2    0    0  0.00000000000E+00  0.00000000000E+00  0.21201786874E+03  0.25978076230E+04  0.25891413383E+04 0.  0.
        3    1    3    3  502    0  0.72263198098E+03  0.73807904973E+03 -0.67695908294E+03  0.12350025400E+04  0.10100000352E+00 0.  1.
       -3    1    3    3    0  502 -0.72263198098E+03 -0.73807904973E+03  0.88897695168E+03  0.13628050831E+04  0.10100000352E+00 0. -1.
</event>
<event>
 5   0  0.1085061E-05  0.2625110E+04  0.7818609E-02  0.8359722E-01
       -2   -1    0    0    0  501  0.00000000000E+00  0.00000000000E+00  0.14039365345E+04  0.14039365345E+04  0.25500000920E-02 0.  1.
        2   -1    0    0  501    0  0.00000000000E+00  0.00000000000E+00 -0.12271210900E+04  0.12271210900E+04  0.25500000920E-02 0. -1.
    10030    2    1    2    0    0  0.00000000000E+00  0.00000000000E+00  0.17681544448E+03  0.26310576245E+04  0.26251096209E+04 0.  0.
        1    1    3    3  502    0  0.10542081142E+04  0.51970343175E+03 -0.49717093540E+03  0.12761760631E+04  0.50400001928E-02 0. -1.
       -1    1    3    3    0  502 -0.10542081142E+04 -0.51970343175E+03  0.67398637988E+03  0.13548815614E+04  0.50400001928E-02 0.  1.
</event>
<event>
 5   0  0.4361864E-06  0.2549395E+04  0.7818609E-02  0.8385597E-01
        1   -1    0    0  501    0  0.00000000000E+00  0.00000000000E+00  0.12874691462E+04  0.12874691462E+04  0.50400001928E-02 0.  1.
       -1   -1    0    0    0  501  0.00000000000E+00  0.00000000000E+00 -0.12620525982E+04  0.12620525982E+04  0.50400001928E-02 0. -1.
    10030    2    1    2    0    0  0.00000000000E+00  0.00000000000E+00  0.25416548040E+02  0.25495217444E+04  0.25493950507E+04 0.  0.
        3    1    3    3  502    0  0.47402597991E+03  0.36840490239E+03  0.11372333496E+04  0.12859714240E+04  0.10100000352E+00 0.  1.
       -3    1    3    3    0  502 -0.47402597991E+03 -0.36840490239E+03 -0.11118168016E+04  0.12635503204E+04  0.10100000352E+00 0. -1.
</event>
<event>
 5   0  0.4415080E-06  0.2469348E+04  0.7818609E-02  0.8413987E-01
       -1   -1    0    0    0  501  0.00000000000E+00  0.00000000000E+00  0.15269211149E+04  0.15269211149E+04  0.50400001928E-02 0. -1.
        1   -1    0    0  501    0  0.00000000000E+00  0.00000000000E+00 -0.99836204048E+03  0.99836204049E+03  0.50400001928E-02 0.  1.
    10030    2    1    2    0    0  0.00000000000E+00  0.00000000000E+00  0.52855907440E+03  0.25252831554E+04  0.24693481568E+04 0.  0.
        2    1    3    3  502    0 -0.96667306734E+03  0.72783939849E+03  0.51522141528E+03  0.13151654329E+04  0.25500000920E-02 0. -1.
       -2    1    3    3    0  502  0.96667306734E+03 -0.72783939849E+03  0.13337659127E+02  0.12101177225E+04  0.25500000920E-02 0.  1.
</event>
<event>
 5   0  0.4464297E-06  0.2593005E+04  0.7818609E-02  0.8370581E-01
        1   -1    0    0  501    0  0.00000000000E+00  0.00000000000E+00  0.88697939852E+03  0.88697939853E+03  0.50400001928E-02 0. -1.
       -1   -1    0    0    0  501  0.00000000000E+00  0.00000000000E+00 -0.18951043634E+04  0.18951043634E+04  0.50400001928E-02 0.  1.
    10030    2    1    2    0    0  0.00000000000E+00  0.00000000000E+00 -0.10081249649E+04  0.27820837620E+04  0.25930048426E+04 0.  0.
        4    1    3    3  502    0 -0.80007833236E+03  0.89150772617E+03  0.28093964285E+02  0.11982079316E+04  0.12699999809E+01 0. -1.
       -4    1    3    3    0  502  0.80007833236E+03 -0.89150772617E+03 -0.10362189292E+04  0.15838758303E+04  0.12699999809E+01 0.  1.
</event>
<event>
 5   0  0.1116310E-05  0.2440124E+04  0.7818609E-02  0.8424633E-01
       -2   -1    0    0    0  501  0.00000000000E+00  0.00000000000E+00  0.73819169371E+03  0.73819169371E+03  0.25500000920E-02 0.  1.
        2   -1    0    0  501    0  0.00000000000E+00  0.00000000000E+00 -0.20164835324E+04  0.20164835324E+04  0.25500000920E-02 0. -1.
    10030    2    1    2    0    0  0.00000000000E+00  0.00000000000E+00 -0.12782918387E+04  0.27546752261E+04  0.24401240904E+04 0.  0.
        4    1    3    3  502    0 -0.35005907141E+03 -0.11172877525E+04 -0.25188526669E+03  0.11976314440E+04  0.12699999809E+01 0.  1.
       -4    1    3    3    0  502  0.35005907141E+03  0.11172877525E+04 -0.10264065720E+04  0.15570437821E+04  0.12699999809E+01 0. -1.
</event>
<event>
 5   0  0.4597705E-06  0.2749634E+04  0.7818609E-02  0.8319078E-01
       -1   -1    0    0    0  501  0.00000000000E+00  0.00000000000E+00  0.68649078486E+03  0.68649078488E+03  0.50400001928E-02 0.  1.
        1   -1    0    0  501    0  0.00000000000E+00  0.00000000000E+00 -0.27533087741E+04  0.27533087741E+04  0.50400001928E-02 0. -1.
    10030    2    1    2    0    0  0.00000000000E+00  0.00000000000E+00 -0.20668179892E+04  0.34397995589E+04  0.27496335038E+04 0.  0.
        5    1    3    3  502    0 -0.27890855479E+03 -0.69543146966E+03  0.40860406817E+03  0.85346018387E+03  0.46999998093E+01 0.  1.
       -5    1    3    3    0  502  0.27890855479E+03  0.69543146966E+03 -0.24754220574E+04  0.25863393751E+04  0.46999998093E+01 0. -1.
</event>
<event>
 5   0  0.4597705E-06  0.2540189E+04  0.7818609E-02  0.8388806E-01
       -1   -1    0    0    0  501  0.00000000000E+00  0.00000000000E+00  0.13804441678E+04  0.13804441679E+04  0.50400001928E-02 0. -1.
        1   -1    0    0  501    0  0.00000000000E+00  0.00000000000E+00 -0.11685657670E+04  0.11685657671E+04  0.50400001928E-02 0.  1.
    10030    2    1    2    0    0  0.00000000000E+00  0.00000000000E+00  0.21187840080E+03  0.25490099349E+04  0.25401888102E+04 0.  0.
        5    1    3    3  502    0 -0.58443221688E+03 -0.34444846074E+03 -0.97152686212E+03  0.11849440038E+04  0.46999998093E+01 0.  1.
       -5    1    3    3    0  502  0.58443221688E+03  0.34444846074E+03  0.11834052629E+04  0.13640659312E+04  0.46999998093E+01 0. -1.
</event>
<event>
 5   0  0.4597705E-06  0.2607311E+04  0.7818609E-02  0.8365722E-01
        1   -1    0    0  501    0  0.00000000000E+00  0.00000000000E+00  0.23615157837E+04  0.23615157837E+04  0.50400001928E-02 0. -1.
       -1   -1    0    0    0  501  0.00000000000E+00  0.00000000000E+00 -0.71967255213E+03  0.71967255215E+03  0.50400001928E-02 0.  1.
    10030    2    1    2    0    0  0.00000000000E+00  0.00000000000E+00  0.16418432315E+04  0.30811883358E+04  0.26073113285E+04 0.  0.
        5    1    3    3  502    0  0.37816915980E+03 -0.70679930929E+03  0.20358373873E+04  0.21879746650E+04  0.46999998093E+01 0. -1.
       -5    1    3    3    0  502 -0.37816915980E+03  0.70679930929E+03 -0.39399415575E+03  0.89321367086E+03  0.46999998093E+01 0.  1.
</event>
<event>
 5   0  0.1085255E-05  0.2316136E+04  0.7818609E-02  0.8471586E-01
       -2   -1    0    0    0  501  0.00000000000E+00  0.00000000000E+00  0.79816267898E+03  0.79816267899E+03  0.25500000920E-02 0. -1.
        2   -1    0    0  501    0  0.00000000000E+00  0.00000000000E+00 -0.16802608315E+04  0.16802608315E+04  0.25500000920E-02 0.  1.
    10030    2    1    2    0    0  0.00000000000E+00  0.00000000000E+00 -0.88209815256E+03  0.24784235105E+04  0.23161359949E+04 0.  0.
        5    1    3    3  502    0 -0.75979552493E+03  0.86098430655E+03 -0.28048113890E+03  0.11820638625E+04  0.46999998093E+01 0. -1.
       -5    1    3    3    0  502  0.75979552493E+03 -0.86098430655E+03 -0.60161701366E+03  0.12963596480E+04  0.46999998093E+01 0.  1.
</event>
<event>
 5   0  0.1085061E-05  0.2629546E+04  0.7818609E-02  0.8358234E-01
       -2   -1    0    0    0  501  0.00000000000E+00  0.00000000000E+00  0.70487067326E+03  0.70487067326E+03  0.25500000920E-02 0. -1.
        2   -1    0    0  501    0  0.00000000000E+00  0.00000000000E+00 -0.24524051451E+04  0.24524051451E+04  0.25500000920E-02 0.  1.
    10030    2    1    2    0    0  0.00000000000E+00  0.00000000000E+00 -0.17475344718E+04  0.31572758183E+04  0.26295463226E+04 0.  0.
        1    1    3    3  502    0  0.12889970850E+04  0.31219403449E+01 -0.56273178230E+03  0.14064815287E+04  0.50400001928E-02 0.  1.
       -1    1    3    3    0  502 -0.12889970850E+04 -0.31219403449E+01 -0.11848026895E+04  0.17507942897E+04  0.50400001928E-02 0. -1.
</event>
<event>
 5   0  0.4415080E-06  0.2586743E+04  0.7818609E-02  0.8372718E-01
        1   -1    0    0  501    0  0.00000000000E+00  0.00000000000E+00  0.29606943155E+04  0.29606943155E+04  0.50400001928E-02 0.  1.
       -1   -1    0    0    0  501  0.00000000000E+00  0.00000000000E+00 -0.56500606355E+03  0.56500606357E+03  0.50400001928E-02 0. -1.
    10030    2    1    2    0    0  0.00000000000E+00  0.00000000000E+00  0.23956882520E+04  0.35257003791E+04  0.25867433121E+04 0.  0.
        2    1    3    3  502    0  0.53111944233E+03 -0.98127040938E+03  0.20893579290E+04  0.23686274578E+04  0.25500000920E-02 0.  1.
       -2    1    3    3    0  502 -0.53111944233E+03  0.98127040938E+03  0.30633032293E+03  0.11570729213E+04  0.25500000920E-02 0. -1.
</event>
<event>
 5   0  0.3705250E-06  0.2601970E+04  0.7818609E-02  0.8367532E-01
       -4   -1    0    0    0  501  0.00000000000E+00  0.00000000000E+00  0.11434202658E+04  0.11434209711E+04  0.12699999809E+01 0. -1.
        4   -1    0    0  501    0  0.00000000000E+00  0.00000000000E+00 -0.14802608327E+04  0.14802613775E+04  0.12699999809E+01 0.  1.
    10030    2    1    2    0    0  0.00000000000E+00  0.00000000000E+00 -0.33684056682E+03  0.26236823486E+04  0.26019699266E+04 0.  0.
        3    1    3    3  502    0  0.21935528720E+03 -0.54893757835E+03 -0.13370184531E+04  0.14618712532E+04  0.10100000352E+00 0.  1.
       -3    1    3    3    0  502 -0.21935528720E+03  0.54893757835E+03  0.10001778863E+04  0.11618110954E+04  0.10100000352E+00 0. -1.
</event>
<event>
 5   0  0.1085061E-05  0.2536085E+04  0.7818609E-02  0.8390242E-01
       -2   -1    0    0    0  501  0.00000000000E+00  0.00000000000E+00  0.60391020624E+03  0.60391020625E+03  0.25500000920E-02 0. -1.
        2   -1    0    0  501    0  0.00000000000E+00  0.00000000000E+00 -0.26625346580E+04  0.26625346580E+04  0.25500000920E-02 0.  1.
    10030    2    1    2    0    0  0.00000000000E+00  0.00000000000E+00 -0.20586244518E+04  0.32664448643E+04  0.25360850573E+04 0.  0.
        1    1    3    3  502    0 -0.93931279162E+03  0.84671676966E+03 -0.11494065498E+04  0.17089099523E+04  0.50400001928E-02 0.  1.
       -1    1    3    3    0  502  0.93931279162E+03 -0.84671676966E+03 -0.90921790199E+03  0.15575349119E+04  0.50400001928E-02 0. -1.
</event>
<event>
 5   0  0.1085061E-05  0.2629662E+04  0.7818609E-02  0.8358195E-01
        2   -1    0    0  501    0  0.00000000000E+00  0.00000000000E+00  0.88551564621E+03  0.88551564622E+03  0.25500000920E-02 0.  1.
       -2   -1    0    0    0  501  0.00000000000E+00  0.00000000000E+00 -0.19522875563E+04  0.19522875563E+04  0.25500000920E-02 0. -1.
    10030    2    1    2    0    0  0.00000000000E+00  0.00000000000E+00 -0.10667719101E+04  0.28378032025E+04  0.26296624704E+04 0.  0.
        1    1    3    3  502    0 -0.85078618526E+03  0.92744772527E+03 -0.12276255689E+03  0.12645422340E+04  0.50400001928E-02 0. -1.
       -1    1    3    3    0  502  0.85078618526E+03 -0.92744772527E+03 -0.94400935318E+03  0.15732609685E+04  0.50400001928E-02 0.  1.
</event>
<event>
 5   0  0.1136881E-05  0.2599104E+04  0.7818609E-02  0.8368506E-01
       -2   -1    0    0    0  501  0.00000000000E+00  0.00000000000E+00  0.84251745595E+03  0.84251745595E+03  0.25500000920E-02 0.  1.
        2   -1    0    0  501    0  0.00000000000E+00  0.00000000000E+00 -0.20045107488E+04  0.20045107488E+04  0.25500000920E-02 0. -1.
    10030    2    1    2    0    0  0.00000000000E+00  0.00000000000E+00 -0.11619932929E+04  0.28470282048E+04  0.25991039198E+04 0.  0.
        3    1    3    3  502    0 -0.12557296761E+04 -0.12999124168E+03 -0.91876110930E+03  0.15613701446E+04  0.10100000352E+00 0. -1.
       -3    1    3    3    0  502  0.12557296761E+04  0.12999124168E+03 -0.24323218358E+03  0.12856580602E+04  0.10100000352E+00 0.  1.
</event>
<event>
 5   0  0.4464297E-06  0.2685268E+04  0.7818609E-02  0.8339801E-01
        1   -1    0    0  501    0  0.00000000000E+00  0.00000000000E+00  0.13794941588E+04  0.13794941588E+04  0.50400001928E-02 0.  1.
       -1   -1    0    0    0  501  0.00000000000E+00  0.00000000000E+00 -0.13067591960E+04  0.13067591960E+04  0.50400001928E-02 0. -1.
    10030    2    1    2    0    0  0.00000000000E+00  0.00000000000E+00  0.72734962804E+02  0.26862533548E+04  0.26852684616E+04 0.  0.
        4    1    3    3  502    0 -0.63615379927E+03  0.11678400139E+04  0.22115965181E+03  0.13481302455E+04  0.12699999809E+01 0.  1.
       -4    1    3    3    0  502  0.63615379927E+03 -0.11678400139E+04 -0.14842468901E+03  0.13381231093E+04  0.12699999809E+01 0. -1.
</event>
<event>
 5   0  0.4464297E-06  0.2600770E+04  0.7818609E-02  0.8367940E-01
       -1   -1    0    0    0  501  0.00000000000E+00  0.00000000000E+00  0.13606067523E+04  0.13606067523E+04  0.50400001928E-02 0.  1.
        1   -1    0    0  501    0  0.00000000000E+00  0.00000000000E+00 -0.12428287886E+04  0.12428287886E+04  0.50400001928E-02 0. -1.
    10030    2    1    2    0    0  0.00000000000E+00  0.00000000000E+00  0.11777796367E+03  0.26034355409E+04  0.26007700719E+04 0.  0.
        4    1    3    3  502    0 -0.10534647179E+04 -0.35868634334E+03  0.73230113441E+03  0.13321825585E+04  0.12699999809E+01 0. -1.
       -4    1    3    3    0  502  0.10534647179E+04  0.35868634334E+03 -0.61452317073E+03  0.12712529823E+04  0.12699999809E+01 0.  1.
</event>
<event>
 5   0  0.4218590E-06  0.2608867E+04  0.7818609E-02  0.8365196E-01
       -1   -1    0    0    0  501  0.00000000000E+00  0.00000000000E+00  0.60787855947E+03  0.60787855949E+03  0.50400001928E-02 0. -1.
        1   -1    0    0  501    0  0.00000000000E+00  0.00000000000E+00 -0.27991554053E+04  0.27991554053E+04  0.50400001928E-02 0.  1.
    10030    2    1    2    0    0  0.00000000000E+00  0.00000000000E+00 -0.21912768459E+04  0.34070339648E+04  0.26088668464E+04 0.  0.
        1    1    3    3  502    0 -0.24308782357E+03  0.12447046581E+04 -0.69702551091E+03  0.14471440629E+04  0.50400001928E-02 0.  1.
       -1    1    3    3    0  502  0.24308782357E+03 -0.12447046581E+04 -0.14942513350E+04  0.19598899020E+04  0.50400001928E-02 0. -1.
</event>
<event>
 5   0  0.1085255E-05  0.2598074E+04  0.7818609E-02  0.8368856E-01
       -2   -1    0    0    0  501  0.00000000000E+00  0.00000000000E+00  0.11223696820E+04  0.11223696820E+04  0.25500000920E-02 0.  1.
        2   -1    0    0  501    0  0.00000000000E+00  0.00000000000E+00 -0.15035122422E+04  0.15035122422E+04  0.25500000920E-02 0. -1.
    10030    2    1    2    0    0  0.00000000000E+00  0.00000000000E+00 -0.38114256018E+03  0.26258819242E+04  0.25980735610E+04 0.  0.
        5    1    3    3  502    0  0.11369659810E+04 -0.53938201635E+03 -0.51627800054E+03  0.13602167715E+04  0.46999998093E+01 0.  1.
       -5    1    3    3    0  502 -0.11369659810E+04  0.53938201635E+03  0.13513544036E+03  0.12656651527E+04  0.46999998093E+01 0. -1.
</event>
<event>
 5   0  0.4218590E-06  0.2634045E+04  0.7818609E-02  0.8356728E-01
       -1   -1    0    0    0  501  0.00000000000E+00  0.00000000000E+00  0.13537169669E+04  0.13537169670E+04  0.50400001928E-02 0. -1.
        1   -1    0    0  501    0  0.00000000000E+00  0.00000000000E+00 -0.12813226847E+04  0.12813226847E+04  0.50400001928E-02 0.  1.
    10030    2    1    2    0    0  0.00000000000E+00  0.00000000000E+00  0.72394282277E+02  0.26350396516E+04  0.26340449946E+04 0.  0.
        1    1    3    3  502    0  0.59890245024E+03  0.11316703936E+04  0.34483630732E+03  0.13259992849E+04  0.50400001928E-02 0. -1.
       -1    1    3    3    0  502 -0.59890245024E+03 -0.11316703936E+04 -0.27244202504E+03  0.13090403667E+04  0.50400001928E-02 0.  1.
</event>
<event>
 5   0  0.1085255E-05  0.2593564E+04  0.7818609E-02  0.8370391E-01
        2   -1    0    0  501    0  0.00000000000E+00  0.00000000000E+00  0.17885273133E+04  0.17885273133E+04  0.25500000920E-02 0. -1.
       -2   -1    0    0    0  501  0.00000000000E+00  0.00000000000E+00 -0.94023927885E+03  0.94023927885E+03  0.25500000920E-02 0.  1.
    10030    2    1    2    0    0  0.00000000000E+00  0.00000000000E+00  0.84828803440E+03  0.27287665921E+04  0.25935640584E+04 0.  0.
        5    1    3    3  502    0 -0.58361100569E+03 -0.33403973578E+03  0.15907456595E+04  0.17270431941E+04  0.46999998093E+01 0. -1.
       -5    1    3    3    0  502  0.58361100569E+03  0.33403973578E+03 -0.74245762511E+03  0.10017233980E+04  0.46999998093E+01 0.  1.
</event>
<event>
 5   0  0.1085061E-05  0.2595348E+04  0.7818609E-02  0.8369783E-01
        2   -1    0    0  501    0  0.00000000000E+00  0.00000000000E+00  0.26429394925E+04  0.26429394925E+04  0.25500000920E-02 0.  1.
       -2   -1    0    0    0  501  0.00000000000E+00  0.00000000000E+00 -0.63715329224E+03  0.63715329224E+03  0.25500000920E-02 0. -1.
    10030    2    1    2    0    0  0.00000000000E+00  0.00000000000E+00  0.20057862003E+04  0.32800927847E+04  0.25953478371E+04 0.  0.
        1    1    3    3  502    0 -0.51239316512E+03  0.19713509248E+03 -0.48314779223E+03  0.73132809977E+03  0.50400001928E-02 0. -1.
       -1    1    3    3    0  502  0.51239316512E+03 -0.19713509248E+03  0.24889339925E+04  0.25487646850E+04  0.50400001928E-02 0.  1.
</event>
<event>
 5   0  0.1116310E-05  0.2598089E+04  0.7818609E-02  0.8368851E-01
       -2   -1    0    0    0  501  0.00000000000E+00  0.00000000000E+00  0.11831947432E+04  0.11831947432E+04  0.25500000920E-02 0.  1.
        2   -1    0    0  501    0  0.00000000000E+00  0.00000000000E+00 -0.14262370507E+04  0.14262370507E+04  0.25500000920E-02 0. -1.
    10030    2    1    2    0    0  0.00000000000E+00  0.00000000000E+00 -0.24304230751E+03  0.26094317939E+04  0.25980886674E+04 0.  0.
        4    1    3    3  502    0  0.41570992823E+03  0.10457827177E+04  0.53018646594E+03  0.12440158916E+04  0.12699999809E+01 0.  1.
       -4    1    3    3    0  502 -0.41570992823E+03 -0.10457827177E+04 -0.77322877345E+03  0.13654159022E+04  0.12699999809E+01 0. -1.
</event>
<event>
 5   0  0.1085255E-05  0.2610351E+04  0.7818609E-02  0.8364694E-01
       -2   -1    0    0    0  501  0.00000000000E+00  0.00000000000E+00  0.11448481973E+04  0.11448481973E+04  0.25500000920E-02 0. -1.
        2   -1    0    0  501    0  0.00000000000E+00  0.00000000000E+00 -0.14879558468E+04  0.14879558468E+04  0.25500000920E-02 0.  1.
    10030    2    1    2    0    0  0.00000000000E+00  0.00000000000E+00 -0.34310764950E+03  0.26328040441E+04  0.26103513701E+04 0.  0.
        5    1    3    3  502    0  0.59922168291E+03 -0.10822910363E+04  0.24800613221E+03  0.12617248686E+04  0.46999998093E+01 0. -1.
       -5    1    3    3    0  502 -0.59922168291E+03  0.10822910363E+04 -0.59111378171E+03  0.13710791755E+04  0.46999998093E+01 0.  1.
</event>
<event>
 5   0  0.4464297E-06  0.2454785E+04  0.7818609E-02  0.8419273E-01
       -1   -1    0    0    0  501  0.00000000000E+00  0.00000000000E+00  0.14257762893E+04  0.14257762893E+04  0.50400001928E-02 0. -1.
        1   -1    0    0  501    0  0.00000000000E+00  0.00000000000E+00 -0.10566121058E+04  0.10566121058E+04  0.50400001928E-02 0.  1.
    10030    2    1    2    0    0  0.00000000000E+00  0.00000000000E+00  0.36916418352E+03  0.24823883950E+04  0.24547851127E+04 0.  0.
        4    1    3    3  502    0 -0.52666153324E+03 -0.39897987408E+03  0.12305892517E+04  0.13967493798E+04  0.12699999809E+01 0. -1.
       -4    1    3    3    0  502  0.52666153324E+03  0.39897987408E+03 -0.86142506819E+03  0.10856390153E+04  0.12699999809E+01 0.  1.
</event>
<event>
 5   0  0.1085061E-05  0.2575685E+04  0.7818609E-02  0.8376508E-01
        2   -1    0    0  501    0  0.00000000000E+00  0.00000000000E+00  0.12769676528E+04  0.12769676528E+04  0.25500000920E-02 0. -1.
       -2   -1    0    0    0  501  0.00000000000E+00  0.00000000000E+00 -0.12988102322E+04  0.12988102322E+04  0.25500000920E-02 0.  1.
    10030    2    1    2    0    0  0.00000000000E+00  0.00000000000E+00 -0.21842579397E+02  0.25757778850E+04  0.25756852709E+04 0.  0.
        1    1    3    3  502    0 -0.47988152628E+03  0.37261304030E+03  0.11246422819E+04  0.12782593709E+04  0.50400001928E-02 0. -1.
       -1    1    3    3    0  502  0.47988152628E+03 -0.37261304030E+03 -0.11464848613E+04  0.12975185141E+04  0.50400001928E-02 0.  1.
</event>
<event>
 5   0  0.4464297E-06  0.2596612E+04  0.7818609E-02  0.8369353E-01
        1   -1    0    0  501    0  0.00000000000E+00  0.00000000000E+00  0.16937451307E+04  0.16937451307E+04  0.50400001928E-02 0.  1.
       -1   -1    0    0    0  501  0.00000000000E+00  0.00000000000E+00 -0.99519033517E+03  0.99519033519E+03  0.50400001928E-02 0. -1.
    10030    2    1    2    0    0  0.00000000000E+00  0.00000000000E+00  0.69855479557E+03  0.26889354659E+04  0.25966122424E+04 0.  0.
        4    1    3    3  502    0 -0.72008721419E+03 -0.97275943651E+02 -0.76489968147E+03  0.10550172230E+04  0.12699999809E+01 0. -1.
       -4    1    3    3    0  502  0.72008721419E+03  0.97275943651E+02  0.14634544770E+04  0.16339182429E+04  0.12699999809E+01 0.  1.
</event>
<event>
 5   0  0.4415080E-06  0.2511210E+04  0.7818609E-02  0.8399003E-01
       -1   -1    0    0    0  501  0.00000000000E+00  0.00000000000E+00  0.22354745304E+04  0.22354745304E+04  0.50400001928E-02 0.  1.
        1   -1    0    0  501    0  0.00000000000E+00  0.00000000000E+00 -0.70523925615E+03  0.70523925617E+03  0.50400001928E-02 0. -1.
    10030    2    1    2    0    0  0.00000000000E+00  0.00000000000E+00  0.15302352742E+04  0.29407137866E+04  0.25112103815E+04 0.  0.
        2    1    3    3  502    0 -0.12123739287E+04 -0.31926049849E+03  0.84596640105E+03  0.15124275059E+04  0.25500000920E-02 0.  1.
       -2    1    3    3    0  502  0.12123739287E+04  0.31926049849E+03  0.68426887318E+03  0.14282862807E+04  0.25500000920E-02 0. -1.
</event>
<event>
 5   0  0.4415080E-06  0.2774823E+04  0.7818609E-02  0.8311128E-01
        1   -1    0    0  501    0  0.00000000000E+00  0.00000000000E+00  0.12384131591E+04  0.12384131591E+04  0.50400001928E-02 0.  1.
       -1   -1    0    0    0  501  0.00000000000E+00  0.00000000000E+00 -0.15543361253E+04  0.15543361253E+04  0.50400001928E-02 0. -1.
    10030    2    1    2    0    0  0.00000000000E+00  0.00000000000E+00 -0.31592296619E+03  0.27927492843E+04  0.27748227411E+04 0.  0.
        2    1    3    3  502    0 -0.79902534924E+03 -0.86846641235E+03  0.57629599059E+03  0.13133135524E+04  0.25500000920E-02 0.  1.
       -2    1    3    3    0  502  0.79902534924E+03  0.86846641235E+03 -0.89221895678E+03  0.14794357319E+04  0.25500000920E-02 0. -1.
</event>
<event>
 5   0  0.4218590E-06  0.2609953E+04  0.7818609E-02  0.8364828E-01
       -1   -1    0    0    0  501  0.00000000000E+00  0.00000000000E+00  0.12532183302E+04  0.12532183302E+04  0.50400001928E-02 0. -1.
        1   -1    0    0  501    0  0.00000000000E+00  0.00000000000E+00 -0.13588721226E+04  0.13588721226E+04  0.50400001928E-02 0.  1.
    10030    2    1    2    0    0  0.00000000000E+00  0.00000000000E+00 -0.10565379242E+03  0.26120904528E+04  0.26099528367E+04 0.  0.
        1    1    3    3  502    0 -0.36909275736E+03  0.15714533490E+03 -0.12956327153E+04  0.13563142161E+04  0.50400001928E-02 0.  1.
       -1    1    3    3    0  502  0.36909275736E+03 -0.15714533490E+03  0.11899789229E+04  0.12557762367E+04  0.50400001928E-02 0. -1.
</event>
<event>
 5   0  0.4464297E-06  0.2589578E+04  0.7818609E-02  0.8371750E-01
        1   -1    0    0  501    0  0.00000000000E+00  0.00000000000E+00  0.12006858026E+04  0.12006858026E+04  0.50400001928E-02 0.  1.
       -1   -1    0    0    0  501  0.00000000000E+00  0.00000000000E+00 -0.13962671329E+04  0.13962671329E+04  0.50400001928E-02 0. -1.
    10030    2    1    2    0    0  0.00000000000E+00  0.00000000000E+00 -0.19558133032E+03  0.25969529355E+04  0.25895776668E+04 0.  0.
        4    1    3    3  502    0 -0.59331396132E+03 -0.95423099749E+03 -0.74297221107E+03  0.13470662837E+04  0.12699999809E+01 0.  1.
       -4    1    3    3    0  502  0.59331396132E+03  0.95423099749E+03  0.54739088075E+03  0.12498866519E+04  0.12699999809E+01 0. -1.
</event>
<event>
 5   0  0.1116310E-05  0.2542831E+04  0.7818609E-02  0.8387884E-01
       -2   -1    0    0    0  501  0.00000000000E+00  0.00000000000E+00  0.19161209883E+04  0.19161209883E+04  0.25500000920E-02 0. -1.
        2   -1    0    0  501    0  0.00000000000E+00  0.00000000000E+00 -0.84362992485E+03  0.84362992486E+03  0.25500000920E-02 0.  1.
    10030    2    1    2    0    0  0.00000000000E+00  0.00000000000E+00  0.10724910635E+04  0.27597509132E+04  0.25428307104E+04 0.  0.
        4    1    3    3  502    0 -0.12409514110E+04  0.17475533371E+03  0.76900663083E+03  0.14703307935E+04  0.12699999809E+01 0. -1.
       -4    1    3    3    0  502  0.12409514110E+04 -0.17475533371E+03  0.30348443262E+03  0.12894201196E+04  0.12699999809E+01 0.  1.
</event>
<event>
 5   0  0.1116310E-05  0.2664091E+04  0.7818609E-02  0.8346751E-01
       -2   -1    0    0    0  501  0.00000000000E+00  0.00000000000E+00  0.11902662454E+04  0.11902662454E+04  0.25500000920E-02 0.  1.
        2   -1    0    0  501    0  0.00000000000E+00  0.00000000000E+00 -0.14907125313E+04  0.14907125313E+04  0.25500000920E-02 0. -1.
    10030    2    1    2    0    0  0.00000000000E+00  0.00000000000E+00 -0.30044628595E+03  0.26809787767E+04  0.26640906949E+04 0.  0.
        4    1    3    3  502    0  0.65351984280E+03  0.11295370054E+04  0.11868070312E+03  0.13103544382E+04  0.12699999809E+01 0. -1.
       -4    1    3    3    0  502 -0.65351984280E+03 -0.11295370054E+04 -0.41912698907E+03  0.13706243385E+04  0.12699999809E+01 0.  1.
</event>
<event>
 5   0  0.4597705E-06  0.2558667E+04  0.7818609E-02  0.8382378E-01
        1   -1    0    0  501    0  0.00000000000E+00  0.00000000000E+00  0.17153265129E+04  0.17153265129E+04  0.50400001928E-02 0.  1.
       -1   -1    0    0    0  501  0.00000000000E+00  0.00000000000E+00 -0.95415875673E+03  0.95415875674E+03  0.50400001928E-02 0. -1.
    10030    2    1    2    0    0  0.00000000000E+00  0.00000000000E+00  0.76116775614E+03  0.26694852696E+04  0.25586666941E+04 0.  0.
        5    1    3    3  502    0 -0.11799258931E+04 -0.38693382028E+03  0.59473090609E+02  0.12431822204E+04  0.46999998093E+01 0. -1.
       -5    1    3    3    0  502  0.11799258931E+04  0.38693382028E+03  0.70169466553E+03  0.14263030492E+04  0.46999998093E+01 0.  1.
</event>
<event>
 5   0  0.1086507E-05  0.2615405E+04  0.7818609E-02  0.8362987E-01
       -2   -1    0    0    0  501  0.00000000000E+00  0.00000000000E+00  0.98065977088E+03  0.98065977089E+03  0.25500000920E-02 0. -1.
        2   -1    0    0  501    0  0.00000000000E+00  0.00000000000E+00 -0.17438117551E+04  0.17438117551E+04  0.25500000920E-02 0.  1.
    10030    2    1    2    0    0  0.00000000000E+00  0.00000000000E+00 -0.76315198424E+03  0.27244715260E+04  0.26154051589E+04 0.  0.
        2    1    3    3  502    0  0.84428693930E+03 -0.26949870161E+03 -0.13832553134E+04  0.16428162552E+04  0.25500000920E-02 0. -1.
       -2    1    3    3    0  502 -0.84428693930E+03  0.26949870161E+03  0.62010332921E+03  0.10816552708E+04  0.25500000920E-02 0.  1.
</event>
<event>
 5   0  0.4597705E-06  0.2615969E+04  0.7818609E-02  0.8362797E-01
        1   -1    0    0  501    0  0.00000000000E+00  0.00000000000E+00  0.17615936337E+04  0.17615936337E+04  0.50400001928E-02 0. -1.
       -1   -1    0    0    0  501  0.00000000000E+00  0.00000000000E+00 -0.97117923852E+03  0.97117923853E+03  0.50400001928E-02 0.  1.
    10030    2    1    2    0    0  0.00000000000E+00  0.00000000000E+00  0.79041439522E+03  0.27327728723E+04  0.26159687795E+04 0.  0.
        5    1    3    3  502    0  0.43645567850E+03  0.10143044263E+04 -0.33716206970E+03  0.11545593877E+04  0.46999998093E+01 0.  1.
       -5    1    3    3    0  502 -0.43645567850E+03 -0.10143044263E+04  0.11275764649E+04  0.15782134845E+04  0.46999998093E+01 0. -1.
</event>
<event>
 5   0  0.1085061E-05  0.2452130E+04  0.7818609E-02  0.8420241E-01
       -2   -1    0    0    0  501  0.00000000000E+00  0.00000000000E+00  0.79250555610E+03  0.79250555610E+03  0.25500000920E-02 0. -1.
        2   -1    0    0  501    0  0.00000000000E+00  0.00000000000E+00 -0.18968136862E+04  0.18968136862E+04  0.25500000920E-02 0.  1.
    10030    2    1    2    0    0  0.00000000000E+00  0.00000000000E+00 -0.11043081301E+04  0.26893192423E+04  0.24521300008E+04 0.  0.
        1    1    3    3  502    0  0.19075021429E+03 -0.87813972416E+03 -0.14669331505E+04  0.17202929656E+04  0.50400001928E-02 0.  1.
       -1    1    3    3    0  502 -0.19075021429E+03  0.87813972416E+03  0.36262502044E+03  0.96902627667E+03  0.50400001928E-02 0. -1.
</event>
<event>
 5   0  0.1116310E-05  0.2539419E+04  0.7818609E-02  0.8389075E-01
       -2   -1    0    0    0  501  0.00000000000E+00  0.00000000000E+00  0.13440814918E+04  0.13440814918E+04  0.25500000920E-02 0.  1.
        2   -1    0    0  501    0  0.00000000000E+00  0.00000000000E+00 -0.11994531075E+04  0.11994531075E+04  0.25500000920E-02 0. -1.
    10030    2    1    2    0    0  0.00000000000E+00  0.00000000000E+00  0.14462838437E+03  0.25435345993E+04  0.25394193998E+04 0.  0.
        4    1    3    3  502    0 -0.10217008238E+03  0.84068549495E+03 -0.87524756335E+03  0.12178878180E+04  0.12699999809E+01 0. -1.
       -4    1    3    3    0  502  0.10217008238E+03 -0.84068549495E+03  0.10198759477E+04  0.13256467813E+04  0.12699999809E+01 0.  1.
</event>
<event>
 5   0  0.4597705E-06  0.2573265E+04  0.7818609E-02  0.8377340E-01
       -1   -1    0    0    0  501  0.00000000000E+00  0.00000000000E+00  0.13065371151E+04  0.13065371151E+04  0.50400001928E-02 0.  1.
        1   -1    0    0  501    0  0.00000000000E+00  0.00000000000E+00 -0.12670309076E+04  0.12670309076E+04  0.50400001928E-02 0. -1.
    10030    2    1    2    0    0  0.00000000000E+00  0.00000000000E+00  0.39506207507E+02  0.25735680227E+04  0.25732647799E+04 0.  0.
        5    1    3    3  502    0 -0.11554954299E+03  0.28358843603E+03  0.12695510059E+04  0.13059693505E+04  0.46999998093E+01 0.  1.
       -5    1    3    3    0  502  0.11554954299E+03 -0.28358843603E+03 -0.12300447984E+04  0.12675986723E+04  0.46999998093E+01 0. -1.
</event>
<event>
 5   0  0.1116310E-05  0.2604354E+04  0.7818609E-02  0.8366724E-01
        2   -1    0    0  501    0  0.00000000000E+00  0.00000000000E+00  0.27776583551E+04  0.27776583551E+04  0.25500000920E-02 0. -1.
       -2   -1    0    0    0  501  0.00000000000E+00  0.00000000000E+00 -0.61046566234E+03  0.61046566235E+03  0.25500000920E-02 0.  1.
    10030    2    1    2    0    0  0.00000000000E+00  0.00000000000E+00  0.21671926928E+04  0.33881240175E+04  0.26043540831E+04 0.  0.
        4    1    3    3  502    0 -0.11510556863E+04  0.14501477150E+03  0.18529219097E+04  0.21861563744E+04  0.12699999809E+01 0. -1.
       -4    1    3    3    0  502  0.11510556863E+04 -0.14501477150E+03  0.31427078305E+03  0.12019676430E+04  0.12699999809E+01 0.  1.
</event>
<event>
 5   0  0.1085255E-05  0.2595053E+04  0.7818609E-02  0.8369884E-01
        2   -1    0    0  501    0  0.00000000000E+00  0.00000000000E+00  0.11241541814E+04  0.11241541814E+04  0.25500000920E-02 0.  1.
       -2   -1    0    0    0  501  0.00000000000E+00  0.00000000000E+00 -0.14976365597E+04  0.14976365597E+04  0.25500000920E-02 0. -1.
    10030    2    1    2    0    0  0.00000000000E+00  0.00000000000E+00 -0.37348237836E+03  0.26217907411E+04  0.25950525242E+04 0.  0.
        5    1    3    3  502    0  0.26941825444E+03  0.12536186440E+04  0.13814650306E+02  0.12823255573E+04  0.46999998093E+01 0. -1.
       -5    1    3    3    0  502 -0.26941825444E+03 -0.12536186440E+04 -0.38729702866E+03  0.13394651838E+04  0.46999998093E+01 0.  1.
</event>
<event>
 5   0  0.1085061E-05  0.2630424E+04  0.7818609E-02  0.8357940E-01
        2   -1    0    0  501    0  0.00000000000E+00  0.00000000000E+00  0.14144207814E+04  0.14144207814E+04  0.25500000920E-02 0.  1.
       -2   -1    0    0    0  501  0.00000000000E+00  0.00000000000E+00 -0.12229619480E+04  0.12229619480E+04  0.25500000920E-02 0. -1.
    10030    2    1    2    0    0  0.00000000000E+00  0.00000000000E+00  0.19145883338E+03  0.26373827294E+04  0.26304241438E+04 0.  0.
        1    1    3    3  502    0 -0.56106085287E+03  0.84040571699E+03  0.93980665801E+03  0.13799665229E+04  0.50400001928E-02 0.  1.
       -1    1    3    3    0  502  0.56106085287E+03 -0.84040571699E+03 -0.74834782463E+03  0.12574162065E+04  0.50400001928E-02 0. -1.
</event>
<event>
 5   0  0.4464297E-06  0.2588071E+04  0.7818609E-02  0.8372265E-01
        1   -1    0    0  501    0  0.00000000000E+00  0.00000000000E+00  0.88919402285E+03  0.88919402287E+03  0.50400001928E-02 0.  1.
       -1   -1    0    0    0  501  0.00000000000E+00  0.00000000000E+00 -0.18831973592E+04  0.18831973592E+04  0.50400001928E-02 0. -1.
    10030    2    1    2    0    0  0.00000000000E+00  0.00000000000E+00 -0.99400333630E+03  0.27723913820E+04  0.25880709694E+04 0.  0.
        4    1    3    3  502    0  0.32164425459E+03  0.73837620634E+03 -0.15819895792E+04  0.17752033941E+04  0.12699999809E+01 0. -1.
       -4    1    3    3    0  502 -0.32164425459E+03 -0.73837620634E+03  0.58798624292E+03  0.99718798798E+03  0.12699999809E+01 0.  1.
</event>
<event>
 5   0  0.1085061E-05  0.2568772E+04  0.7818609E-02  0.8378887E-01
        2   -1    0    0  501    0  0.00000000000E+00  0.00000000000E+00  0.19027958482E+04  0.19027958482E+04  0.25500000920E-02 0. -1.
       -2   -1    0    0    0  501  0.00000000000E+00  0.00000000000E+00 -0.86695981721E+03  0.86695981722E+03  0.25500000920E-02 0.  1.
    10030    2    1    2    0    0  0.00000000000E+00  0.00000000000E+00  0.10358360309E+04  0.27697556654E+04  0.25687721119E+04 0.  0.
        1    1    3    3  502    0 -0.29345782969E+03 -0.70247072959E+03  0.16332931144E+04  0.18020069426E+04  0.50400001928E-02 0. -1.
       -1    1    3    3    0  502  0.29345782969E+03  0.70247072959E+03 -0.59745708347E+03  0.96774872273E+03  0.50400001928E-02 0.  1.
</event>
<event>
 5   0  0.4415080E-06  0.2634364E+04  0.7818609E-02  0.8356621E-01
       -1   -1    0    0    0  501  0.00000000000E+00  0.00000000000E+00  0.63500489301E+03  0.63500489303E+03  0.50400001928E-02 0. -1.
        1   -1    0    0  501    0  0.00000000000E+00  0.00000000000E+00 -0.27322119372E+04  0.27322119372E+04  0.50400001928E-02 0.  1.
    10030    2    1    2    0    0  0.00000000000E+00  0.00000000000E+00 -0.20972070441E+04  0.33672168302E+04  0.26343636415E+04 0.  0.
        2    1    3    3  502    0 -0.32134913656E+03 -0.12181003597E+04 -0.55698340463E+03  0.13774121630E+04  0.25500000920E-02 0. -1.
       -2    1    3    3    0  502  0.32134913656E+03  0.12181003597E+04 -0.15402236395E+04  0.19898046672E+04  0.25500000920E-02 0.  1.
</event>
<event>
 5   0  0.1136881E-05  0.2601609E+04  0.7818609E-02  0.8367655E-01
       -2   -1    0    0    0  501  0.00000000000E+00  0.00000000000E+00  0.17752644377E+04  0.17752644377E+04  0.25500000920E-02 0. -1.
        2   -1    0    0  501    0  0.00000000000E+00  0.00000000000E+00 -0.95314929314E+03  0.95314929315E+03  0.25500000920E-02 0.  1.
    10030    2    1    2    0    0  0.00000000000E+00  0.00000000000E+00  0.82211514452E+03  0.27284137308E+04  0.26016087668E+04 0.  0.
        3    1    3    3  502    0  0.77248377969E+03  0.10003337321E+04  0.88336152205E+02  0.12669656868E+04  0.10100000352E+00 0.  1.
       -3    1    3    3    0  502 -0.77248377969E+03 -0.10003337321E+04  0.73377899231E+03  0.14614480440E+04  0.10100000352E+00 0. -1.
</event>
<event>
 5   0  0.4464297E-06  0.2624188E+04  0.7818609E-02  0.8360031E-01
        1   -1    0    0  501    0  0.00000000000E+00  0.00000000000E+00  0.23233263588E+04  0.23233263588E+04  0.50400001928E-02 0.  1.
       -1   -1    0    0    0  501  0.00000000000E+00  0.00000000000E+00 -0.74100246967E+03  0.74100246968E+03  0.50400001928E-02 0. -1.
    10030    2    1    2    0    0  0.00000000000E+00  0.00000000000E+00  0.15823238891E+04  0.30643288285E+04  0.26241879275E+04 0.  0.
        4    1    3    3  502    0 -0.12786494102E+02  0.80664402799E+02 -0.73803071221E+03  0.74253699260E+03  0.12699999809E+01 0. -1.
       -4    1    3    3    0  502  0.12786494102E+02 -0.80664402799E+02  0.23203546013E+04  0.23217918359E+04  0.12699999809E+01 0.  1.
</event>
<event>
 5   0  0.4218590E-06  0.2629878E+04  0.7818609E-02  0.8358123E-01
       -1   -1    0    0    0  501  0.00000000000E+00  0.00000000000E+00  0.17404461420E+04  0.17404461420E+04  0.50400001928E-02 0. -1.
        1   -1    0    0  501    0  0.00000000000E+00  0.00000000000E+00 -0.99346020971E+03  0.99346020972E+03  0.50400001928E-02 0.  1.
    10030    2    1    2    0    0  0.00000000000E+00  0.00000000000E+00  0.74698593232E+03  0.27339063517E+04  0.26298775555E+04 0.  0.
        1    1    3    3  502    0 -0.33627875384E+03  0.11940736968E+04  0.82682614426E+03  0.14908175162E+04  0.50400001928E-02 0.  1.
       -1    1    3    3    0  502  0.33627875384E+03 -0.11940736968E+04 -0.79840211948E+02  0.12430888356E+04  0.50400001928E-02 0. -1.
</event>
<event>
 5   0  0.1085061E-05  0.2588970E+04  0.7818609E-02  0.8371957E-01
       -2   -1    0    0    0  501  0.00000000000E+00  0.00000000000E+00  0.90692099628E+03  0.90692099629E+03  0.25500000920E-02 0. -1.
        2   -1    0    0  501    0  0.00000000000E+00  0.00000000000E+00 -0.18476714436E+04  0.18476714436E+04  0.25500000920E-02 0.  1.
    10030    2    1    2    0    0  0.00000000000E+00  0.00000000000E+00 -0.94075044728E+03  0.27545924398E+04  0.25889704721E+04 0.  0.
        1    1    3    3  502    0  0.81023608383E+03 -0.90917187449E+03 -0.34186930690E+01  0.12178208803E+04  0.50400001928E-02 0. -1.
       -1    1    3    3    0  502 -0.81023608383E+03  0.90917187449E+03 -0.93733175421E+03  0.15367715596E+04  0.50400001928E-02 0.  1.
</event>
<event>
 5   0  0.1116310E-05  0.2421729E+04  0.7818609E-02  0.8431413E-01
        2   -1    0    0  501    0  0.00000000000E+00  0.00000000000E+00  0.19271001815E+04  0.19271001815E+04  0.25500000920E-02 0. -1.
       -2   -1    0    0    0  501  0.00000000000E+00  0.00000000000E+00 -0.76082837681E+03  0.76082837681E+03  0.25500000920E-02 0.  1.
    10030    2    1    2    0    0  0.00000000000E+00  0.00000000000E+00  0.11662718047E+04  0.26879285584E+04  0.24217287239E+04 0.  0.
        4    1    3    3  502    0  0.51945752180E+03 -0.72079814573E+03  0.14962476825E+04  0.17401565517E+04  0.12699999809E+01 0. -1.
       -4    1    3    3    0  502 -0.51945752180E+03  0.72079814573E+03 -0.32997587782E+03  0.94777200670E+03  0.12699999809E+01 0.  1.
</event>
<event>
 5   0  0.4597705E-06  0.2615296E+04  0.7818609E-02  0.8363024E-01
       -1   -1    0    0    0  501  0.00000000000E+00  0.00000000000E+00  0.18653019620E+04  0.18653019620E+04  0.50400001928E-02 0.  1.
        1   -1    0    0  501    0  0.00000000000E+00  0.00000000000E+00 -0.91671142148E+03  0.91671142150E+03  0.50400001928E-02 0. -1.
    10030    2    1    2    0    0  0.00000000000E+00  0.00000000000E+00  0.94859054051E+03  0.27820133835E+04  0.26152962456E+04 0.  0.
        5    1    3    3  502    0 -0.66540452638E+03 -0.10189210669E+04 -0.34703138410E+02  0.12174521436E+04  0.46999998093E+01 0.  1.
       -5    1    3    3    0  502  0.66540452638E+03  0.10189210669E+04  0.98329367892E+03  0.15645612399E+04  0.46999998093E+01 0. -1.
</event>
<event>
 5   0  0.1085061E-05  0.2600023E+04  0.7818609E-02  0.8368193E-01
       -2   -1    0    0    0  501  0.00000000000E+00  0.00000000000E+00  0.12024076957E+04  0.12024076957E+04  0.25500000920E-02 0. -1.
        2   -1    0    0  501    0  0.00000000000E+00  0.00000000000E+00 -0.14055380510E+04  0.14055380510E+04  0.25500000920E-02 0.  1.
    10030    2    1    2    0    0  0.00000000000E+00  0.00000000000E+00 -0.20313035533E+03  0.26079457467E+04  0.26000228992E+04 0.  0.
        1    1    3    3  502    0 -0.10043089358E+04  0.81721881554E+03  0.15179945224E+02  0.12948797094E+04  0.50400001928E-02 0. -1.
       -1    1    3    3    0  502  0.10043089358E+04 -0.81721881554E+03 -0.21831030056E+03  0.13130660373E+04  0.50400001928E-02 0.  1.
</event>
<event>
 5   0  0.1136881E-05  0.2606389E+04  0.7818609E-02  0.8366034E-01
       -2   -1    0    0    0  501  0.00000000000E+00  0.00000000000E+00  0.83741560051E+03  0.83741560051E+03  0.25500000920E-02 0.  1.
        2   -1    0    0  501    0  0.00000000000E+00  0.00000000000E+00 -0.20280440918E+04  0.20280440918E+04  0.25500000920E-02 0. -1.
    10030    2    1    2    0    0  0.00000000000E+00  0.00000000000E+00 -0.11906284913E+04  0.28654596923E+04  0.26063888896E+04 0.  0.
        3    1    3    3  502    0  0.96854056075E+03  0.78825110591E+03 -0.10050597771E+04  0.16029834028E+04  0.10100000352E+00 0. -1.
       -3    1    3    3    0  502 -0.96854056075E+03 -0.78825110591E+03 -0.18556871417E+03  0.12624762895E+04  0.10100000352E+00 0.  1.
</event>
<event>
 5   0  0.4218590E-06  0.2604180E+04  0.7818609E-02  0.8366783E-01
        1   -1    0    0  501    0  0.00000000000E+00  0.00000000000E+00  0.22040816336E+04  0.22040816336E+04  0.50400001928E-02 0.  1.
       -1   -1    0    0    0  501  0.00000000000E+00  0.00000000000E+00 -0.76922692281E+03  0.76922692282E+03  0.50400001928E-02 0. -1.
    10030    2    1    2    0    0  0.00000000000E+00  0.00000000000E+00  0.14348547108E+04  0.29733085564E+04  0.26041804336E+04 0.  0.
        1    1    3    3  502    0 -0.11457943750E+04 -0.23945502369E+03  0.13685776130E+04  0.18008853769E+04  0.50400001928E-02 0.  1.
       -1    1    3    3    0  502  0.11457943750E+04  0.23945502369E+03  0.66277097779E+02  0.11724231795E+04  0.50400001928E-02 0. -1.
</event>
<event>
 5   0  0.4218590E-06  0.2590225E+04  0.7818609E-02  0.8371529E-01
       -1   -1    0    0    0  501  0.00000000000E+00  0.00000000000E+00  0.14747824780E+04  0.14747824780E+04  0.50400001928E-02 0. -1.
        1   -1    0    0  501    0  0.00000000000E+00  0.00000000000E+00 -0.11373315193E+04  0.11373315194E+04  0.50400001928E-02 0.  1.
    10030    2    1    2    0    0  0.00000000000E+00  0.00000000000E+00  0.33745095865E+03  0.26121139974E+04  0.25902251612E+04 0.  0.
        1    1    3    3  502    0 -0.19390316427E+02 -0.12647681291E+04 -0.11165676797E+03  0.12698352801E+04  0.50400001928E-02 0.  1.
       -1    1    3    3    0  502  0.19390316427E+02  0.12647681291E+04  0.44910772662E+03  0.13422787173E+04  0.50400001928E-02 0. -1.
</event>
<event>
 5   0  0.4361864E-06  0.2599852E+04  0.7818609E-02  0.8368251E-01
       -1   -1    0    0    0  501  0.00000000000E+00  0.00000000000E+00  0.82875231722E+03  0.82875231724E+03  0.50400001928E-02 0.  1.
        1   -1    0    0  501    0  0.00000000000E+00  0.00000000000E+00 -0.20389783832E+04  0.20389783832E+04  0.50400001928E-02 0. -1.
    10030    2    1    2    0    0  0.00000000000E+00  0.00000000000E+00 -0.12102260659E+04  0.28677307004E+04  0.25998523495E+04 0.  0.
        3    1    3    3  502    0  0.11949885589E+04  0.89291840063E+02 -0.11608476544E+04  0.16683938310E+04  0.10100000352E+00 0. -1.
       -3    1    3    3    0  502 -0.11949885589E+04 -0.89291840063E+02 -0.49378411533E+02  0.11993368694E+04  0.10100000352E+00 0.  1.
</event>
<event>
 5   0  0.4597705E-06  0.2596227E+04  0.7818609E-02  0.8369484E-01
        1   -1    0    0  501    0  0.00000000000E+00  0.00000000000E+00  0.21529146767E+04  0.21529146767E+04  0.50400001928E-02 0.  1.
       -1   -1    0    0    0  501  0.00000000000E+00  0.00000000000E+00 -0.78270577198E+03  0.78270577200E+03  0.50400001928E-02 0. -1.
    10030    2    1    2    0    0  0.00000000000E+00  0.00000000000E+00  0.13702089047E+04  0.29356204487E+04  0.25962270656E+04 0.  0.
        5    1    3    3  502    0 -0.87531624114E+03  0.26739146899E+03  0.17259863224E+04  0.19536446951E+04  0.46999998093E+01 0.  1.
       -5    1    3    3    0  502  0.87531624114E+03 -0.26739146899E+03 -0.35577741767E+03  0.98197575358E+03  0.46999998093E+01 0. -1.
</event>
<event>
 5   0  0.4597705E-06  0.2592242E+04  0.7818609E-02  0.8370841E-01
       -1   -1    0    0    0  501  0.00000000000E+00  0.00000000000E+00  0.13768501735E+04  0.13768501735E+04  0.50400001928E-02 0.  1.
        1   -1    0    0  501    0  0.00000000000E+00  0.00000000000E+00 -0.12201255635E+04  0.12201255635E+04  0.50400001928E-02 0. -1.
    10030    2    1    2    0    0  0.00000000000E+00  0.00000000000E+00  0.15672460999E+03  0.25969757370E+04  0.25922423450E+04 0.  0.
        5    1    3    3  502    0 -0.48310099990E+03  0.21662202889E+03 -0.11068432766E+04  0.12269620241E+04  0.46999998093E+01 0. -1.
       -5    1    3    3    0  502  0.48310099990E+03 -0.21662202889E+03  0.12635678866E+04  0.13700137129E+04  0.46999998093E+01 0.  1.
</event>
<event>
 5   0  0.1116310E-05  0.2628003E+04  0.7818609E-02  0.8358751E-01
       -2   -1    0    0    0  501  0.00000000000E+00  0.00000000000E+00  0.12282962510E+04  0.12282962510E+04  0.25500000920E-02 0. -1.
        2   -1    0    0  501    0  0.00000000000E+00  0.00000000000E+00 -0.14056864204E+04  0.14056864204E+04  0.25500000920E-02 0.  1.
    10030    2    1    2    0    0  0.00000000000E+00  0.00000000000E+00 -0.17739016943E+03  0.26339826714E+04  0.26280025573E+04 0.  0.
        4    1    3    3  502    0 -0.38464716526E+03  0.12082676100E+04 -0.43405673358E+03  0.13402503199E+04  0.12699999809E+01 0.  1.
       -4    1    3    3    0  502  0.38464716526E+03 -0.12082676100E+04  0.25666656415E+03  0.12937323515E+04  0.12699999809E+01 0. -1.
</event>
<event>
 5   0  0.1085061E-05  0.2581552E+04  0.7818609E-02  0.8374495E-01
        2   -1    0    0  501    0  0.00000000000E+00  0.00000000000E+00  0.12346188825E+04  0.12346188825E+04  0.25500000920E-02 0. -1.
       -2   -1    0    0    0  501  0.00000000000E+00  0.00000000000E+00 -0.13494877741E+04  0.13494877741E+04  0.25500000920E-02 0.  1.
    10030    2    1    2    0    0  0.00000000000E+00  0.00000000000E+00 -0.11486889157E+03  0.25841066566E+04  0.25815523141E+04 0.  0.
        1    1    3    3  502    0  0.62874472029E+03 -0.17398914649E+03  0.10574498654E+04  0.12424944122E+04  0.50400001928E-02 0. -1.
       -1    1    3    3    0  502 -0.62874472029E+03  0.17398914649E+03 -0.11723187570E+04  0.13416122444E+04  0.50400001928E-02 0.  1.
</event>
<event>
 5   0  0.4415080E-06  0.2585289E+04  0.7818609E-02  0.8373215E-01
       -1   -1    0    0    0  501  0.00000000000E+00  0.00000000000E+00  0.12497600992E+04  0.12497600992E+04  0.50400001928E-02 0. -1.
        1   -1    0    0  501    0  0.00000000000E+00  0.00000000000E+00 -0.13370004795E+04  0.13370004795E+04  0.50400001928E-02 0.  1.
    10030    2    1    2    0    0  0.00000000000E+00  0.00000000000E+00 -0.87240380309E+02  0.25867605787E+04  0.25852890375E+04 0.  0.
        2    1    3    3  502    0 -0.73177291811E+03  0.62110696167E+03 -0.90994463752E+03  0.13225977109E+04  0.25500000920E-02 0.  1.
       -2    1    3    3    0  502  0.73177291811E+03 -0.62110696167E+03  0.82270425721E+03  0.12641628678E+04  0.25500000920E-02 0. -1.
</event>
<event>
 5   0  0.1085255E-05  0.2616144E+04  0.7818609E-02  0.8362738E-01
       -2   -1    0    0    0  501  0.00000000000E+00  0.00000000000E+00  0.99900806562E+03  0.99900806563E+03  0.25500000920E-02 0. -1.
        2   -1    0    0  501    0  0.00000000000E+00  0.00000000000E+00 -0.17127508762E+04  0.17127508762E+04  0.25500000920E-02 0.  1.
    10030    2    1    2    0    0  0.00000000000E+00  0.00000000000E+00 -0.71374281054E+03  0.27117589418E+04  0.26161436808E+04 0.  0.
        5    1    3    3  502    0  0.19681318317E+03  0.11302428252E+04 -0.10082044727E+04  0.15273122214E+04  0.46999998093E+01 0.  1.
       -5    1    3    3    0  502 -0.19681318317E+03 -0.11302428252E+04  0.29446166216E+03  0.11844467204E+04  0.46999998093E+01 0. -1.
</event>
<event>
 5   0  0.4415080E-06  0.2562804E+04  0.7818609E-02  0.8380947E-01
       -1   -1    0    0    0  501  0.00000000000E+00  0.00000000000E+00  0.77408637336E+03  0.77408637337E+03  0.50400001928E-02 0.  1.
        1   -1    0    0  501    0  0.00000000000E+00  0.00000000000E+00 -0.21211995467E+04  0.21211995467E+04  0.50400001928E-02 0. -1.
    10030    2    1    2    0    0  0.00000000000E+00  0.00000000000E+00 -0.13471131734E+04  0.28952859201E+04  0.25628044516E+04 0.  0.
        2    1    3    3  502    0  0.19328557032E+03 -0.12553652316E+04 -0.48219932147E+03  0.13586086125E+04  0.25500000920E-02 0. -1.
       -2    1    3    3    0  502 -0.19328557032E+03  0.12553652316E+04 -0.86491385191E+03  0.15366773076E+04  0.25500000920E-02 0.  1.
</event>
<event>
 5   0  0.1086507E-05  0.2588355E+04  0.7818609E-02  0.8372167E-01
       -2   -1    0    0    0  501  0.00000000000E+00  0.00000000000E+00  0.72327142136E+03  0.72327142136E+03  0.25500000920E-02 0. -1.
        2   -1    0    0  501    0  0.00000000000E+00  0.00000000000E+00 -0.23157219647E+04  0.23157219647E+04  0.25500000920E-02 0.  1.
    10030    2    1    2    0    0  0.00000000000E+00  0.00000000000E+00 -0.15924505433E+04  0.30389933861E+04  0.25883550891E+04 0.  0.
        2    1    3    3  502    0  0.67912132126E+03  0.16683042883E+03  0.48233770703E+03  0.84952211544E+03  0.25500000920E-02 0. -1.
       -2    1    3    3    0  502 -0.67912132126E+03 -0.16683042883E+03 -0.20747882504E+04  0.21894712706E+04  0.25500000920E-02 0.  1.
</event>
<event>
 5   0  0.1136881E-05  0.2588553E+04  0.7818609E-02  0.8372100E-01
        2   -1    0    0  501    0  0.00000000000E+00  0.00000000000E+00  0.59743098147E+03  0.59743098147E+03  0.25500000920E-02 0.  1.
       -2   -1    0    0    0  501  0.00000000000E+00  0.00000000000E+00 -0.28039258538E+04  0.28039258538E+04  0.25500000920E-02 0. -1.
    10030    2    1    2    0    0  0.00000000000E+00  0.00000000000E+00 -0.22064948723E+04  0.34013568353E+04  0.25885533990E+04 0.  0.
        3    1    3    3  502    0 -0.88989221972E+03 -0.54370071816E+03 -0.21105231250E+04  0.23541084311E+04  0.10100000352E+00 0. -1.
       -3    1    3    3    0  502  0.88989221972E+03  0.54370071816E+03 -0.95971747290E+02  0.10472484042E+04  0.10100000352E+00 0.  1.
</event>
<event>
 5   0  0.1085061E-05  0.2597069E+04  0.7818609E-02  0.8369197E-01
       -2   -1    0    0    0  501  0.00000000000E+00  0.00000000000E+00  0.11924181201E+04  0.11924181201E+04  0.25500000920E-02 0. -1.
        2   -1    0    0  501    0  0.00000000000E+00  0.00000000000E+00 -0.14140943563E+04  0.14140943563E+04  0.25500000920E-02 0.  1.
    10030    2    1    2    0    0  0.00000000000E+00  0.00000000000E+00 -0.22167623624E+03  0.26065124764E+04  0.25970689124E+04 0.  0.
        1    1    3    3  502    0  0.64442346312E+03 -0.69716203155E+03  0.77831518810E+03  0.12276363591E+04  0.50400001928E-02 0. -1.
       -1    1    3    3    0  502 -0.64442346312E+03  0.69716203155E+03 -0.99999142434E+03  0.13788761173E+04  0.50400001928E-02 0.  1.
</event>
<event>
 5   0  0.1116310E-05  0.2586643E+04  0.7818609E-02  0.8372753E-01
        2   -1    0    0  501    0  0.00000000000E+00  0.00000000000E+00  0.15854567668E+04  0.15854567668E+04  0.25500000920E-02 0. -1.
       -2   -1    0    0    0  501  0.00000000000E+00  0.00000000000E+00 -0.10550147736E+04  0.10550147736E+04  0.25500000920E-02 0.  1.
    10030    2    1    2    0    0  0.00000000000E+00  0.00000000000E+00  0.53044199326E+03  0.26404715404E+04  0.25866428527E+04 0.  0.
        4    1    3    3  502    0 -0.72743087903E+03  0.24755956320E+03  0.13271763714E+04  0.15335710465E+04  0.12699999809E+01 0. -1.
       -4    1    3    3    0  502  0.72743087903E+03 -0.24755956320E+03 -0.79673437813E+03  0.11069004939E+04  0.12699999809E+01 0.  1.
</event>
<event>
 5   0  0.4597705E-06  0.2604241E+04  0.7818609E-02  0.8366762E-01
       -1   -1    0    0    0  501  0.00000000000E+00  0.00000000000E+00  0.76773692726E+03  0.76773692728E+03  0.50400001928E-02 0. -1.
        1   -1    0    0  501    0  0.00000000000E+00  0.00000000000E+00 -0.22084626174E+04  0.22084626174E+04  0.50400001928E-02 0.  1.
    10030    2    1    2    0    0  0.00000000000E+00  0.00000000000E+00 -0.14407256901E+04  0.29761995447E+04  0.26042413896E+04 0.  0.
        5    1    3    3  502    0  0.68801808104E+03 -0.13119024212E+03  0.53410425692E+03  0.88083438098E+03  0.46999998093E+01 0. -1.
       -5    1    3    3    0  502 -0.68801808104E+03  0.13119024212E+03 -0.19748299471E+04  0.20953651637E+04  0.46999998093E+01 0.  1.
</event>
<event>
 5   0  0.4464297E-06  0.2604955E+04  0.7818609E-02  0.8366520E-01
        1   -1    0    0  501    0  0.00000000000E+00  0.00000000000E+00  0.19583390552E+04  0.19583390552E+04  0.50400001928E-02 0. -1.
       -1   -1    0    0    0  501  0.00000000000E+00  0.00000000000E+00 -0.86626846192E+03  0.86626846194E+03  0.50400001928E-02 0.  1.
    10030    2    1    2    0    0  0.00000000000E+00  0.00000000000E+00  0.10920705932E+04  0.28246075171E+04  0.26049547875E+04 0.  0.
        4    1    3    3  502    0  0.56160837819E+03  0.10775233575E+04  0.10546098712E+04  0.16089326119E+04  0.12699999809E+01 0. -1.
       -4    1    3    3    0  502 -0.56160837819E+03 -0.10775233575E+04  0.37460722091E+02  0.12156749052E+04  0.12699999809E+01 0.  1.
</event>
<event>
 5   0  0.3705250E-06  0.2589274E+04  0.7818609E-02  0.8371854E-01
       -3   -1    0    0    0  501  0.00000000000E+00  0.00000000000E+00  0.13713859995E+04  0.13713860033E+04  0.10100000352E+00 0. -1.
        3   -1    0    0  501    0  0.00000000000E+00  0.00000000000E+00 -0.12221835468E+04  0.12221835510E+04  0.10100000352E+00 0.  1.
    10030    2    1    2    0    0  0.00000000000E+00  0.00000000000E+00  0.14920245270E+03  0.25935695543E+04  0.25892743503E+04 0.  0.
        2    1    3    3  502    0 -0.86675169755E+02 -0.80053645135E+03 -0.94084285622E+03  0.12383684731E+04  0.25500000920E-02 0.  1.
       -2    1    3    3    0  502  0.86675169755E+02  0.80053645135E+03  0.10900453089E+04  0.13552010812E+04  0.25500000920E-02 0. -1.
</event>
<event>
 5   0  0.1136881E-05  0.2587025E+04  0.7818609E-02  0.8372622E-01
        2   -1    0    0  501    0  0.00000000000E+00  0.00000000000E+00  0.24206568444E+04  0.24206568444E+04  0.25500000920E-02 0. -1.
       -2   -1    0    0    0  501  0.00000000000E+00  0.00000000000E+00 -0.69120710709E+03  0.69120710709E+03  0.25500000920E-02 0.  1.
    10030    2    1    2    0    0  0.00000000000E+00  0.00000000000E+00  0.17294497373E+04  0.31118639515E+04  0.25870254847E+04 0.  0.
        3    1    3    3  502    0 -0.16674246389E+03  0.63556994612E+03 -0.47550652971E+03  0.81108487575E+03  0.10100000352E+00 0.  1.
       -3    1    3    3    0  502  0.16674246389E+03 -0.63556994612E+03  0.22049562670E+04  0.23007790757E+04  0.10100000352E+00 0. -1.
</event>
<event>
 5   0  0.1086507E-05  0.2631480E+04  0.7818609E-02  0.8357586E-01
       -2   -1    0    0    0  501  0.00000000000E+00  0.00000000000E+00  0.90101173479E+03  0.90101173480E+03  0.25500000920E-02 0. -1.
        2   -1    0    0  501    0  0.00000000000E+00  0.00000000000E+00 -0.19213642752E+04  0.19213642752E+04  0.25500000920E-02 0.  1.
    10030    2    1    2    0    0  0.00000000000E+00  0.00000000000E+00 -0.10203525404E+04  0.28223760100E+04  0.26314800085E+04 0.  0.
        2    1    3    3  502    0 -0.94476691462E+03  0.41762973396E+03 -0.13842645318E+04  0.17271906124E+04  0.25500000920E-02 0.  1.
       -2    1    3    3    0  502  0.94476691462E+03 -0.41762973396E+03  0.36391199137E+03  0.10951853976E+04  0.25500000920E-02 0. -1.
</event>
<event>
 5   0  0.1085255E-05  0.2608463E+04  0.7818609E-02  0.8365332E-01
        2   -1    0    0  501    0  0.00000000000E+00  0.00000000000E+00  0.20832532359E+04  0.20832532359E+04  0.25500000920E-02 0. -1.
       -2   -1    0    0    0  501  0.00000000000E+00  0.00000000000E+00 -0.81652112609E+03  0.81652112610E+03  0.25500000920E-02 0.  1.
    10030    2    1    2    0    0  0.00000000000E+00  0.00000000000E+00  0.12667321098E+04  0.28997743620E+04  0.26084633623E+04 0.  0.
        5    1    3    3  502    0  0.39862502947E+03  0.15948861790E+03  0.20024293645E+04  0.20479462842E+04  0.46999998093E+01 0. -1.
       -5    1    3    3    0  502 -0.39862502947E+03 -0.15948861790E+03 -0.73569725473E+03  0.85182807771E+03  0.46999998093E+01 0.  1.
</event>
<event>
 5   0  0.4464297E-06  0.2597373E+04  0.7818609E-02  0.8369094E-01
        1   -1    0    0  501    0  0.00000000000E+00  0.00000000000E+00  0.18253285358E+04  0.18253285358E+04  0.50400001928E-02 0.  1.
       -1   -1    0    0    0  501  0.00000000000E+00  0.00000000000E+00 -0.92399081906E+03  0.92399081908E+03  0.50400001928E-02 0. -1.
    10030    2    1    2    0    0  0.00000000000E+00  0.00000000000E+00  0.90133771675E+03  0.27493193549E+04  0.25973731414E+04 0.  0.
        4    1    3    3  502    0 -0.11968432189E+04  0.50182384355E+03  0.39963713414E+03  0.13579294210E+04  0.12699999809E+01 0. -1.
       -4    1    3    3    0  502  0.11968432189E+04 -0.50182384355E+03  0.50170058261E+03  0.13913899339E+04  0.12699999809E+01 0.  1.
</event>
<event>
 5   0  0.4218590E-06  0.2486293E+04  0.7818609E-02  0.8407885E-01
       -1   -1    0    0    0  501  0.00000000000E+00  0.00000000000E+00  0.10776113131E+04  0.10776113131E+04  0.50400001928E-02 0.  1.
        1   -1    0    0  501    0  0.00000000000E+00  0.00000000000E+00 -0.14341099684E+04  0.14341099684E+04  0.50400001928E-02 0. -1.
    10030    2    1    2    0    0  0.00000000000E+00  0.00000000000E+00 -0.35649865530E+03  0.25117212816E+04  0.24862929242E+04 0.  0.
        1    1    3    3  502    0 -0.25431345520E+03 -0.22831570522E+03 -0.13857182268E+04  0.14272415348E+04  0.50400001928E-02 0. -1.
       -1    1    3    3    0  502  0.25431345520E+03  0.22831570522E+03  0.10292195715E+04  0.10844797467E+04  0.50400001928E-02 0.  1.
</event>
<event>
 5   0  0.1086507E-05  0.2589393E+04  0.7818609E-02  0.8371813E-01
       -2   -1    0    0    0  501  0.00000000000E+00  0.00000000000E+00  0.82269259557E+03  0.82269259558E+03  0.25500000920E-02 0.  1.
        2   -1    0    0  501    0  0.00000000000E+00  0.00000000000E+00 -0.20375033519E+04  0.20375033519E+04  0.25500000920E-02 0. -1.
    10030    2    1    2    0    0  0.00000000000E+00  0.00000000000E+00 -0.12148107563E+04  0.28601959474E+04  0.25893929181E+04 0.  0.
        2    1    3    3  502    0  0.57217647123E+03 -0.10410086625E+04 -0.38621996144E+02  0.11885186613E+04  0.25500000920E-02 0.  1.
       -2    1    3    3    0  502 -0.57217647123E+03  0.10410086625E+04 -0.11761887601E+04  0.16716772862E+04  0.25500000920E-02 0. -1.
</event>
<event>
 5   0  0.4464297E-06  0.2600600E+04  0.7818609E-02  0.8367997E-01
       -1   -1    0    0    0  501  0.00000000000E+00  0.00000000000E+00  0.94195491894E+03  0.94195491895E+03  0.50400001928E-02 0.  1.
        1   -1    0    0  501    0  0.00000000000E+00  0.00000000000E+00 -0.17949698907E+04  0.17949698907E+04  0.50400001928E-02 0. -1.
    10030    2    1    2    0    0  0.00000000000E+00  0.00000000000E+00 -0.85301497171E+03  0.27369248096E+04  0.26006004829E+04 0.  0.
        4    1    3    3  502    0  0.39637673721E+03 -0.94295626314E+03  0.41838225973E+03  0.11051363536E+04  0.12699999809E+01 0.  1.
       -4    1    3    3    0  502 -0.39637673721E+03  0.94295626314E+03 -0.12713972314E+04  0.16317884560E+04  0.12699999809E+01 0. -1.
</event>
<event>
 5   0  0.1116310E-05  0.2591769E+04  0.7818609E-02  0.8371002E-01
       -2   -1    0    0    0  501  0.00000000000E+00  0.00000000000E+00  0.14764736896E+04  0.14764736896E+04  0.25500000920E-02 0.  1.
        2   -1    0    0  501    0  0.00000000000E+00  0.00000000000E+00 -0.11373834722E+04  0.11373834722E+04  0.25500000920E-02 0. -1.
    10030    2    1    2    0    0  0.00000000000E+00  0.00000000000E+00  0.33909021739E+03  0.26138571618E+04  0.25917691036E+04 0.  0.
        4    1    3    3  502    0  0.56748073406E+03 -0.10164821907E+03 -0.10009268795E+04  0.11550857003E+04  0.12699999809E+01 0. -1.
       -4    1    3    3    0  502 -0.56748073406E+03  0.10164821907E+03  0.13400170969E+04  0.14587714615E+04  0.12699999809E+01 0.  1.
</event>
<event>
 5   0  0.4597705E-06  0.2598164E+04  0.7818609E-02  0.8368825E-01
       -1   -1    0    0    0  501  0.00000000000E+00  0.00000000000E+00  0.15978239649E+04  0.15978239649E+04  0.50400001928E-02 0. -1.
        1   -1    0    0  501    0  0.00000000000E+00  0.00000000000E+00 -0.10561949843E+04  0.10561949843E+04  0.50400001928E-02 0.  1.
    10030    2    1    2    0    0  0.00000000000E+00  0.00000000000E+00  0.54162898067E+03  0.26540189492E+04  0.25981637035E+04 0.  0.
        5    1    3    3  502    0  0.96983606127E+03 -0.15365423258E+03 -0.59799938417E+03  0.11497029888E+04  0.46999998093E+01 0.  1.
       -5    1    3    3    0  502 -0.96983606127E+03  0.15365423258E+03  0.11396283648E+04  0.15043159605E+04  0.46999998093E+01 0. -1.
</event>
<event>
 5   0  0.1085255E-05  0.2614119E+04  0.7818609E-02  0.8363421E-01
       -2   -1    0    0    0  501  0.00000000000E+00  0.00000000000E+00  0.27761607186E+04  0.27761607186E+04  0.25500000920E-02 0. -1.
        2   -1    0    0  501    0  0.00000000000E+00  0.00000000000E+00 -0.61538379086E+03  0.61538379086E+03  0.25500000920E-02 0.  1.
    10030    2    1    2    0    0  0.00000000000E+00  0.00000000000E+00  0.21607769278E+04  0.33915445095E+04  0.26141188244E+04 0.  0.
        5    1    3    3  502    0  0.39268663076E+03  0.76777386378E+03 -0.19390351161E+03  0.88391184950E+03  0.46999998093E+01 0.  1.
       -5    1    3    3    0  502 -0.39268663076E+03 -0.76777386378E+03  0.23546804394E+04  0.25076326600E+04  0.46999998093E+01 0. -1.
</event>
<event>
 5   0  0.1085061E-05  0.2607598E+04  0.7818609E-02  0.8365625E-01
        2   -1    0    0  501    0  0.00000000000E+00  0.00000000000E+00  0.17609801433E+04  0.17609801433E+04  0.25500000920E-02 0. -1.
       -2   -1    0    0    0  501  0.00000000000E+00  0.00000000000E+00 -0.96530997107E+03  0.96530997107E+03  0.25500000920E-02 0.  1.
    10030    2    1    2    0    0  0.00000000000E+00  0.00000000000E+00  0.79567017226E+03  0.27262901144E+04  0.26075978917E+04 0.  0.
        1    1    3    3  502    0 -0.11078576196E+04 -0.68709319360E+03  0.37575189753E+03  0.13567000591E+04  0.50400001928E-02 0.  1.
       -1    1    3    3    0  502  0.11078576196E+04  0.68709319360E+03  0.41991827473E+03  0.13695900553E+04  0.50400001928E-02 0. -1.
</event>
<event>
 5   0  0.4361864E-06  0.2661415E+04  0.7818609E-02  0.8347634E-01
       -1   -1    0    0    0  501  0.00000000000E+00  0.00000000000E+00  0.18992906523E+04  0.18992906523E+04  0.50400001928E-02 0.  1.
        1   -1    0    0  501    0  0.00000000000E+00  0.00000000000E+00 -0.93233887542E+03  0.93233887543E+03  0.50400001928E-02 0. -1.
    10030    2    1    2    0    0  0.00000000000E+00  0.00000000000E+00  0.96695177688E+03  0.28316295277E+04  0.26614150453E+04 0.  0.
        3    1    3    3  502    0 -0.65330476728E+03  0.34845101907E+03 -0.69293336207E+03  0.10140916557E+04  0.10100000352E+00 0. -1.
       -3    1    3    3    0  502  0.65330476728E+03 -0.34845101907E+03  0.16598851389E+04  0.18175378721E+04  0.10100000352E+00 0.  1.
</event>
<event>
 5   0  0.4464297E-06  0.2608049E+04  0.7818609E-02  0.8365472E-01
        1   -1    0    0  501    0  0.00000000000E+00  0.00000000000E+00  0.12874889984E+04  0.12874889984E+04  0.50400001928E-02 0. -1.
       -1   -1    0    0    0  501  0.00000000000E+00  0.00000000000E+00 -0.13207727224E+04  0.13207727225E+04  0.50400001928E-02 0.  1.
    10030    2    1    2    0    0  0.00000000000E+00  0.00000000000E+00 -0.33283724088E+02  0.26082617208E+04  0.26080493473E+04 0.  0.
        4    1    3    3  502    0 -0.49384948709E+03  0.48576149227E+03  0.10882680858E+04  0.12900312332E+04  0.12699999809E+01 0. -1.
       -4    1    3    3    0  502  0.49384948709E+03 -0.48576149227E+03 -0.11215518099E+04  0.13182304876E+04  0.12699999809E+01 0.  1.
</event>
<event>
 5   0  0.4464297E-06  0.2641649E+04  0.7818609E-02  0.8354190E-01
       -1   -1    0    0    0  501  0.00000000000E+00  0.00000000000E+00  0.10039631354E+04  0.10039631354E+04  0.50400001928E-02 0. -1.
        1   -1    0    0  501    0  0.00000000000E+00  0.00000000000E+00 -0.17376904614E+04  0.17376904614E+04  0.50400001928E-02 0.  1.
    10030    2    1    2    0    0  0.00000000000E+00  0.00000000000E+00 -0.73372732599E+03  0.27416535967E+04  0.26416488517E+04 0.  0.
        4    1    3    3  502    0 -0.12131655436E+04  0.61029894373E+02 -0.90523064784E+03  0.15149057472E+04  0.12699999809E+01 0.  1.
       -4    1    3    3    0  502  0.12131655436E+04 -0.61029894373E+02  0.17150332185E+03  0.12267478496E+04  0.12699999809E+01 0. -1.
</event>
<event>
 5   0  0.4464297E-06  0.2600554E+04  0.7818609E-02  0.8368013E-01
       -1   -1    0    0    0  501  0.00000000000E+00  0.00000000000E+00  0.16201292869E+04  0.16201292869E+04  0.50400001928E-02 0. -1.
        1   -1    0    0  501    0  0.00000000000E+00  0.00000000000E+00 -0.10435712916E+04  0.10435712917E+04  0.50400001928E-02 0.  1.
    10030    2    1    2    0    0  0.00000000000E+00  0.00000000000E+00  0.57655799526E+03  0.26637005786E+04  0.26005541045E+04 0.  0.
        4    1    3    3  502    0  0.41411152523E+03  0.10433859554E+04 -0.38383744150E+03  0.11863706848E+04  0.12699999809E+01 0.  1.
       -4    1    3    3    0  502 -0.41411152523E+03 -0.10433859554E+04  0.96039543677E+03  0.14773298938E+04  0.12699999809E+01 0. -1.
</event>
<event>
 5   0  0.4361864E-06  0.2523907E+04  0.7818609E-02  0.8394518E-01
       -1   -1    0    0    0  501  0.00000000000E+00  0.00000000000E+00  0.92706201807E+03  0.92706201808E+03  0.50400001928E-02 0.  1.
        1   -1    0    0  501    0  0.00000000000E+00  0.00000000000E+00 -0.17178216446E+04  0.17178216446E+04  0.50400001928E-02 0. -1.
    10030    2    1    2    0    0  0.00000000000E+00  0.00000000000E+00 -0.79075962650E+03  0.26448836627E+04  0.25239074472E+04 0.  0.
        3    1    3    3  502    0 -0.10629277979E+04  0.68003844673E+03 -0.41225763014E+03  0.13274879119E+04  0.10100000352E+00 0.  1.
       -3    1    3    3    0  502  0.10629277979E+04 -0.68003844673E+03 -0.37850199636E+03  0.13173957507E+04  0.10100000352E+00 0. -1.
</event>
<event>
 5   0  0.1085255E-05  0.2579824E+04  0.7818609E-02  0.8375087E-01
        2   -1    0    0  501    0  0.00000000000E+00  0.00000000000E+00  0.15383134682E+04  0.15383134682E+04  0.25500000920E-02 0. -1.
       -2   -1    0    0    0  501  0.00000000000E+00  0.00000000000E+00 -0.10816215983E+04  0.10816215983E+04  0.25500000920E-02 0.  1.
    10030    2    1    2    0    0  0.00000000000E+00  0.00000000000E+00  0.45669186989E+03  0.26199350665E+04  0.25798240810E+04 0.  0.
        5    1    3    3  502    0 -0.70427034161E+03  0.10278532459E+04 -0.11056719344E+03  0.12508901644E+04  0.46999998093E+01 0.  1.
       -5    1    3    3    0  502  0.70427034161E+03 -0.10278532459E+04  0.56725906333E+03  0.13690449021E+04  0.46999998093E+01 0. -1.
</event>
<event>
 5   0  0.1086507E-05  0.2603428E+04  0.7818609E-02  0.8367038E-01
       -2   -1    0    0    0  501  0.00000000000E+00  0.00000000000E+00  0.70497054876E+03  0.70497054876E+03  0.25500000920E-02 0.  1.
        2   -1    0    0  501    0  0.00000000000E+00  0.00000000000E+00 -0.24035887347E+04  0.24035887347E+04  0.25500000920E-02 0. -1.
    10030    2    1    2    0    0  0.00000000000E+00  0.00000000000E+00 -0.16986181860E+04  0.31085592835E+04  0.26034279474E+04 0.  0.
        2    1    3    3  502    0 -0.11275604491E+03  0.12967175052E+04 -0.86889458171E+03  0.15649817916E+04  0.25500000920E-02 0. -1.
       -2    1    3    3    0  502  0.11275604491E+03 -0.12967175052E+04 -0.82972360424E+03  0.15435774919E+04  0.25500000920E-02 0.  1.
</event>
<event>
 5   0  0.4415080E-06  0.2597090E+04  0.7818609E-02  0.8369190E-01
        1   -1    0    0  501    0  0.00000000000E+00  0.00000000000E+00  0.16113915127E+04  0.16113915127E+04  0.50400001928E-02 0. -1.
       -1   -1    0    0    0  501  0.00000000000E+00  0.00000000000E+00 -0.10464362930E+04  0.10464362930E+04  0.50400001928E-02 0.  1.
    10030    2    1    2    0    0  0.00000000000E+00  0.00000000000E+00  0.56495521969E+03  0.26578278057E+04  0.25970895719E+04 0.  0.
        2    1    3    3  502    0  0.86708517319E+03 -0.73490069436E+03  0.92509853182E+03  0.14655111810E+04  0.25500000920E-02 0. -1.
       -2    1    3    3    0  502 -0.86708517319E+03  0.73490069436E+03 -0.36014331213E+03  0.11923166246E+04  0.25500000920E-02 0.  1.
</event>
<event>
 5   0  0.4218590E-06  0.2647720E+04  0.7818609E-02  0.8352170E-01
       -1   -1    0    0    0  501  0.00000000000E+00  0.00000000000E+00  0.12881243025E+04  0.12881243026E+04  0.50400001928E-02 0. -1.
        1   -1    0    0  501    0  0.00000000000E+00  0.00000000000E+00 -0.13605866380E+04  0.13605866380E+04  0.50400001928E-02 0.  1.
    10030    2    1    2    0    0  0.00000000000E+00  0.00000000000E+00 -0.72462335481E+02  0.26487109406E+04  0.26477195578E+04 0.  0.
        1    1    3    3  502    0  0.13167901681E+03  0.10040146953E+04  0.81685999302E+03  0.13010169561E+04  0.50400001928E-02 0. -1.
       -1    1    3    3    0  502 -0.13167901681E+03 -0.10040146953E+04 -0.88932232850E+03  0.13476939845E+04  0.50400001928E-02 0.  1.
</event>
<event>
 5   0  0.4361864E-06  0.2599472E+04  0.7818609E-02  0.8368381E-01
       -1   -1    0    0    0  501  0.00000000000E+00  0.00000000000E+00  0.60883595693E+03  0.60883595696E+03  0.50400001928E-02 0. -1.
        1   -1    0    0  501    0  0.00000000000E+00  0.00000000000E+00 -0.27746617041E+04  0.27746617041E+04  0.50400001928E-02 0.  1.
    10030    2    1    2    0    0  0.00000000000E+00  0.00000000000E+00 -0.21658257471E+04  0.33834976610E+04  0.25994721109E+04 0.  0.
        3    1    3    3  502    0  0.12562595076E+03 -0.27327781207E+03  0.56291622563E+03  0.63822984054E+03  0.10100000352E+00 0. -1.
       -3    1    3    3    0  502 -0.12562595076E+03  0.27327781207E+03 -0.27287419728E+04  0.27452678205E+04  0.10100000352E+00 0.  1.
</event>
<event>
 5   0  0.4218590E-06  0.2569840E+04  0.7818609E-02  0.8378518E-01
        1   -1    0    0  501    0  0.00000000000E+00  0.00000000000E+00  0.12923395042E+04  0.12923395042E+04  0.50400001928E-02 0.  1.
       -1   -1    0    0    0  501  0.00000000000E+00  0.00000000000E+00 -0.12775435866E+04  0.12775435866E+04  0.50400001928E-02 0. -1.
    10030    2    1    2    0    0  0.00000000000E+00  0.00000000000E+00  0.14795917606E+02  0.25698830907E+04  0.25698404972E+04 0.  0.
        1    1    3    3  502    0 -0.11367887415E+04  0.17556068085E+02 -0.59129651108E+03  0.12814946049E+04  0.50400001928E-02 0. -1.
       -1    1    3    3    0  502  0.11367887415E+04 -0.17556068085E+02  0.60609242869E+03  0.12883884858E+04  0.50400001928E-02 0.  1.
</event>
<event>
 5   0  0.4464297E-06  0.2614674E+04  0.7818609E-02  0.8363234E-01
       -1   -1    0    0    0  501  0.00000000000E+00  0.00000000000E+00  0.12229451171E+04  0.12229451171E+04  0.50400001928E-02 0.  1.
        1   -1    0    0  501    0  0.00000000000E+00  0.00000000000E+00 -0.13975527735E+04  0.13975527735E+04  0.50400001928E-02 0. -1.
    10030    2    1    2    0    0  0.00000000000E+00  0.00000000000E+00 -0.17460765635E+03  0.26204978906E+04  0.26146742361E+04 0.  0.
        4    1    3    3  502    0  0.10874144056E+04 -0.49415888328E+03  0.44535488663E+03  0.12747571061E+04  0.12699999809E+01 0.  1.
       -4    1    3    3    0  502 -0.10874144056E+04  0.49415888328E+03 -0.61996254298E+03  0.13457407845E+04  0.12699999809E+01 0. -1.
</event>
<event>
 5   0  0.4464297E-06  0.2613557E+04  0.7818609E-02  0.8363611E-01
       -1   -1    0    0    0  501  0.00000000000E+00  0.00000000000E+00  0.12338850479E+04  0.12338850479E+04  0.50400001928E-02 0.  1.
        1   -1    0    0  501    0  0.00000000000E+00  0.00000000000E+00 -0.13839780902E+04  0.13839780902E+04  0.50400001928E-02 0. -1.
    10030    2    1    2    0    0  0.00000000000E+00  0.00000000000E+00 -0.15009304232E+03  0.26178631381E+04  0.26135568654E+04 0.  0.
        4    1    3    3  502    0 -0.14255006196E+03 -0.48779899416E+03 -0.12809404109E+04  0.13780705091E+04  0.12699999809E+01 0. -1.
       -4    1    3    3    0  502  0.14255006196E+03  0.48779899416E+03  0.11308473686E+04  0.12397926290E+04  0.12699999809E+01 0.  1.
</event>
<event>
 5   0  0.4361864E-06  0.2600040E+04  0.7818609E-02  0.8368188E-01
        1   -1    0    0  501    0  0.00000000000E+00  0.00000000000E+00  0.26714690447E+04  0.26714690447E+04  0.50400001928E-02 0. -1.
       -1   -1    0    0    0  501  0.00000000000E+00  0.00000000000E+00 -0.63263022244E+03  0.63263022246E+03  0.50400001928E-02 0.  1.
    10030    2    1    2    0    0  0.00000000000E+00  0.00000000000E+00  0.20388388223E+04  0.33040992672E+04  0.26000400428E+04 0.  0.
        3    1    3    3  502    0 -0.46475600646E+03 -0.68496264707E+03 -0.25446542236E+03  0.86598189057E+03  0.10100000352E+00 0.  1.
       -3    1    3    3    0  502  0.46475600646E+03  0.68496264707E+03  0.22933042446E+04  0.24381173766E+04  0.10100000352E+00 0. -1.
</event>
<event>
 5   0  0.1086507E-05  0.2415270E+04  0.7818609E-02  0.8433809E-01
       -2   -1    0    0    0  501  0.00000000000E+00  0.00000000000E+00  0.65296779481E+03  0.65296779481E+03  0.25500000920E-02 0. -1.
        2   -1    0    0  501    0  0.00000000000E+00  0.00000000000E+00 -0.22334676616E+04  0.22334676616E+04  0.25500000920E-02 0.  1.
    10030    2    1    2    0    0  0.00000000000E+00  0.00000000000E+00 -0.15804998668E+04  0.28864354564E+04  0.24152701329E+04 0.  0.
        2    1    3    3  502    0  0.18101259313E+03  0.80192582013E+03  0.26692573215E+03  0.86434942375E+03  0.25500000920E-02 0. -1.
       -2    1    3    3    0  502 -0.18101259313E+03 -0.80192582013E+03 -0.18474255989E+04  0.20220860326E+04  0.25500000920E-02 0.  1.
</event>
<event>
 5   0  0.4597705E-06  0.2618982E+04  0.7818609E-02  0.8361782E-01
        1   -1    0    0  501    0  0.00000000000E+00  0.00000000000E+00  0.24754784768E+04  0.24754784768E+04  0.50400001928E-02 0. -1.
       -1   -1    0    0    0  501  0.00000000000E+00  0.00000000000E+00 -0.69270112389E+03  0.69270112391E+03  0.50400001928E-02 0.  1.
    10030    2    1    2    0    0  0.00000000000E+00  0.00000000000E+00  0.17827773529E+04  0.31681796007E+04  0.26189820336E+04 0.  0.
        5    1    3    3  502    0  0.91537141378E+03 -0.35296589075E+03 -0.15781495074E+03  0.99368878119E+03  0.46999998093E+01 0.  1.
       -5    1    3    3    0  502 -0.91537141378E+03  0.35296589075E+03  0.19405923036E+04  0.21744908195E+04  0.46999998093E+01 0. -1.
</event>
<event>
 5   0  0.1085061E-05  0.2579037E+04  0.7818609E-02  0.8375357E-01
        2   -1    0    0  501    0  0.00000000000E+00  0.00000000000E+00  0.14887116196E+04  0.14887116196E+04  0.25500000920E-02 0.  1.
       -2   -1    0    0    0  501  0.00000000000E+00  0.00000000000E+00 -0.11169775675E+04  0.11169775675E+04  0.25500000920E-02 0. -1.
    10030    2    1    2    0    0  0.00000000000E+00  0.00000000000E+00  0.37173405212E+03  0.26056891870E+04  0.25790366290E+04 0.  0.
        1    1    3    3  502    0  0.58444442688E+03  0.35233549665E+03  0.12913139993E+04  0.14605503878E+04  0.50400001928E-02 0. -1.
       -1    1    3    3    0  502 -0.58444442688E+03 -0.35233549665E+03 -0.91957994720E+03  0.11451387993E+04  0.50400001928E-02 0.  1.
</event>
<event>
 5   0  0.4361864E-06  0.2620653E+04  0.7818609E-02  0.8361219E-01
       -1   -1    0    0    0  501  0.00000000000E+00  0.00000000000E+00  0.88014404648E+03  0.88014404649E+03  0.50400001928E-02 0. -1.
        1   -1    0    0  501    0  0.00000000000E+00  0.00000000000E+00 -0.19507666723E+04  0.19507666723E+04  0.50400001928E-02 0.  1.
    10030    2    1    2    0    0  0.00000000000E+00  0.00000000000E+00 -0.10706226258E+04  0.28309107188E+04  0.26206531039E+04 0.  0.
        3    1    3    3  502    0 -0.12287732287E+04  0.37960688576E+03 -0.80638392786E+03  0.15179723596E+04  0.10100000352E+00 0.  1.
       -3    1    3    3    0  502  0.12287732287E+04 -0.37960688576E+03 -0.26423869794E+03  0.13129383592E+04  0.10100000352E+00 0. -1.
</event>
<event>
 5   0  0.1085061E-05  0.2602740E+04  0.7818609E-02  0.8367271E-01
       -2   -1    0    0    0  501  0.00000000000E+00  0.00000000000E+00  0.66719251130E+03  0.66719251130E+03  0.25500000920E-02 0. -1.
        2   -1    0    0  501    0  0.00000000000E+00  0.00000000000E+00 -0.25383444962E+04  0.25383444962E+04  0.25500000920E-02 0.  1.
    10030    2    1    2    0    0  0.00000000000E+00  0.00000000000E+00 -0.18711519849E+04  0.32055370075E+04  0.26027404319E+04 0.  0.
        1    1    3    3  502    0 -0.39336853027E+03 -0.90307478456E+03  0.11185069839E+03  0.99135939289E+03  0.50400001928E-02 0. -1.
       -1    1    3    3    0  502  0.39336853027E+03  0.90307478456E+03 -0.19830026833E+04  0.22141776146E+04  0.50400001928E-02 0.  1.
</event>
<event>
 5   0  0.4218590E-06  0.2595572E+04  0.7818609E-02  0.8369707E-01
       -1   -1    0    0    0  501  0.00000000000E+00  0.00000000000E+00  0.63881239000E+03  0.63881239002E+03  0.50400001928E-02 0. -1.
        1   -1    0    0  501    0  0.00000000000E+00  0.00000000000E+00 -0.26365306047E+04  0.26365306047E+04  0.50400001928E-02 0.  1.
    10030    2    1    2    0    0  0.00000000000E+00  0.00000000000E+00 -0.19977182147E+04  0.32753429948E+04  0.25955719346E+04 0.  0.
        1    1    3    3  502    0  0.11931779847E+04  0.45325889065E+03 -0.12951525314E+04  0.18183886836E+04  0.50400001928E-02 0. -1.
       -1    1    3    3    0  502 -0.11931779847E+04 -0.45325889065E+03 -0.70256568334E+03  0.14569543111E+04  0.50400001928E-02 0.  1.
</event>
<event>
 5   0  0.1085255E-05  0.2648862E+04  0.7818609E-02  0.8351791E-01
        2   -1    0    0  501    0  0.00000000000E+00  0.00000000000E+00  0.12297567391E+04  0.12297567391E+04  0.25500000920E-02 0.  1.
       -2   -1    0    0    0  501  0.00000000000E+00  0.00000000000E+00 -0.14263942989E+04  0.14263942989E+04  0.25500000920E-02 0. -1.
    10030    2    1    2    0    0  0.00000000000E+00  0.00000000000E+00 -0.19663755980E+03  0.26561510380E+04  0.26488623986E+04 0.  0.
        5    1    3    3  502    0  0.48564647573E+03  0.50852263091E+03 -0.12237475014E+04  0.14113921506E+04  0.46999998093E+01 0. -1.
       -5    1    3    3    0  502 -0.48564647573E+03 -0.50852263091E+03  0.10271099416E+04  0.12447588874E+04  0.46999998093E+01 0.  1.
</event>
<event>
 5   0  0.4415080E-06  0.2582524E+04  0.7818609E-02  0.8374162E-01
        1   -1    0    0  501    0  0.00000000000E+00  0.00000000000E+00  0.18582312803E+04  0.18582312804E+04  0.50400001928E-02 0. -1.
       -1   -1    0    0    0  501  0.00000000000E+00  0.00000000000E+00 -0.89728202500E+03  0.89728202502E+03  0.50400001928E-02 0.  1.
    10030    2    1    2    0    0  0.00000000000E+00  0.00000000000E+00  0.96094925534E+03  0.27555133054E+04  0.25825239795E+04 0.  0.
        2    1    3    3  502    0  0.53113786274E+03  0.11604184868E+04  0.27063092005E+03  0.13045764020E+04  0.25500000920E-02 0. -1.
       -2    1    3    3    0  502 -0.53113786274E+03 -0.11604184868E+04  0.69031833529E+03  0.14509369034E+04  0.25500000920E-02 0.  1.
</event>
<event>
 5   0  0.1136881E-05  0.2610438E+04  0.7818609E-02  0.8364664E-01
        2   -1    0    0  501    0  0.00000000000E+00  0.00000000000E+00  0.26050770887E+04  0.26050770887E+04  0.25500000920E-02 0. -1.
       -2   -1    0    0    0  501  0.00000000000E+00  0.00000000000E+00 -0.65395245922E+03  0.65395245923E+03  0.25500000920E-02 0.  1.
    10030    2    1    2    0    0  0.00000000000E+00  0.00000000000E+00  0.19511246295E+04  0.32590295479E+04  0.26104379469E+04 0.  0.
        3    1    3    3  502    0  0.65386684191E+03  0.21046281081E+03  0.23611626922E+04  0.24590497577E+04  0.10100000352E+00 0. -1.
       -3    1    3    3    0  502 -0.65386684191E+03 -0.21046281081E+03 -0.41003806271E+03  0.79997979022E+03  0.10100000352E+00 0.  1.
</event>
<event>
 5   0  0.1086507E-05  0.2604234E+04  0.7818609E-02  0.8366764E-01
       -2   -1    0    0    0  501  0.00000000000E+00  0.00000000000E+00  0.10008698439E+04  0.10008698439E+04  0.25500000920E-02 0. -1.
        2   -1    0    0  501    0  0.00000000000E+00  0.00000000000E+00 -0.16940353183E+04  0.16940353183E+04  0.25500000920E-02 0.  1.
    10030    2    1    2    0    0  0.00000000000E+00  0.00000000000E+00 -0.69316547445E+03  0.26949051622E+04  0.26042341405E+04 0.  0.
        2    1    3    3  502    0  0.63241903046E+03  0.79124343409E+03  0.50012813535E+03  0.11296672757E+04  0.25500000920E-02 0. -1.
       -2    1    3    3    0  502 -0.63241903046E+03 -0.79124343409E+03 -0.11932936098E+04  0.15652378865E+04  0.25500000920E-02 0.  1.
</event>
<event>
 5   0  0.4415080E-06  0.2556311E+04  0.7818609E-02  0.8383195E-01
        1   -1    0    0  501    0  0.00000000000E+00  0.00000000000E+00  0.14141311812E+04  0.14141311812E+04  0.50400001928E-02 0.  1.
       -1   -1    0    0    0  501  0.00000000000E+00  0.00000000000E+00 -0.11552543761E+04  0.11552543762E+04  0.50400001928E-02 0. -1.
    10030    2    1    2    0    0  0.00000000000E+00  0.00000000000E+00  0.25887680503E+03  0.25693855573E+04  0.25563108070E+04 0.  0.
        2    1    3    3  502    0 -0.62920022270E+03  0.23193127516E+03  0.12231196776E+04  0.13948859388E+04  0.25500000920E-02 0.  1.
       -2    1    3    3    0  502  0.62920022270E+03 -0.23193127516E+03 -0.96424287255E+03  0.11744996185E+04  0.25500000920E-02 0. -1.
</event>
<event>
 5   0  0.1085255E-05  0.2586109E+04  0.7818609E-02  0.8372935E-01
       -2   -1    0    0    0  501  0.00000000000E+00  0.00000000000E+00  0.73074007331E+03  0.73074007331E+03  0.25500000920E-02 0. -1.
        2   -1    0    0  501    0  0.00000000000E+00  0.00000000000E+00 -0.22880771180E+04  0.22880771180E+04  0.25500000920E-02 0.  1.
    10030    2    1    2    0    0  0.00000000000E+00  0.00000000000E+00 -0.15573370447E+04  0.30188171913E+04  0.25861087688E+04 0.  0.
        5    1    3    3  502    0  0.18060585112E+03  0.40586385492E+03 -0.21961931698E+04  0.22406763424E+04  0.46999998093E+01 0.  1.
       -5    1    3    3    0  502 -0.18060585112E+03 -0.40586385492E+03  0.63885612512E+03  0.77814084894E+03  0.46999998093E+01 0. -1.
</event>
<event>
 5   0  0.1085255E-05  0.2598645E+04  0.7818609E-02  0.8368662E-01
       -2   -1    0    0    0  501  0.00000000000E+00  0.00000000000E+00  0.14356913015E+04  0.14356913015E+04  0.25500000920E-02 0.  1.
        2   -1    0    0  501    0  0.00000000000E+00  0.00000000000E+00 -0.11759065330E+04  0.11759065330E+04  0.25500000920E-02 0. -1.
    10030    2    1    2    0    0  0.00000000000E+00  0.00000000000E+00  0.25978476858E+03  0.26115978345E+04  0.25986448628E+04 0.  0.
        5    1    3    3  502    0 -0.74329485971E+03  0.10368673842E+04 -0.11757772034E+03  0.12811822006E+04  0.46999998093E+01 0. -1.
       -5    1    3    3    0  502  0.74329485971E+03 -0.10368673842E+04  0.37736248891E+03  0.13304156339E+04  0.46999998093E+01 0.  1.
</event>
<event>
 5   0  0.1136881E-05  0.2639502E+04  0.7818609E-02  0.8354906E-01
       -2   -1    0    0    0  501  0.00000000000E+00  0.00000000000E+00  0.10181304812E+04  0.10181304812E+04  0.25500000920E-02 0. -1.
        2   -1    0    0  501    0  0.00000000000E+00  0.00000000000E+00 -0.17107264219E+04  0.17107264219E+04  0.25500000920E-02 0.  1.
    10030    2    1    2    0    0  0.00000000000E+00  0.00000000000E+00 -0.69259594074E+03  0.27288569031E+04  0.26395020099E+04 0.  0.
        3    1    3    3  502    0  0.22469187842E+03 -0.10887914972E+04  0.38896653596E+03  0.11778150707E+04  0.10100000352E+00 0. -1.
       -3    1    3    3    0  502 -0.22469187842E+03  0.10887914972E+04 -0.10815624767E+04  0.15510418324E+04  0.10100000352E+00 0.  1.
</event>
<event>
 5   0  0.1085061E-05  0.2585579E+04  0.7818609E-02  0.8373116E-01
       -2   -1    0    0    0  501  0.00000000000E+00  0.00000000000E+00  0.12193085383E+04  0.12193085383E+04  0.25500000920E-02 0. -1.
        2   -1    0    0  501    0  0.00000000000E+00  0.00000000000E+00 -0.13706989993E+04  0.13706989993E+04  0.25500000920E-02 0.  1.
    10030    2    1    2    0    0  0.00000000000E+00  0.00000000000E+00 -0.15139046104E+03  0.25900075376E+04  0.25855792336E+04 0.  0.
        1    1    3    3  502    0 -0.11361896762E+03  0.12316014489E+04 -0.45257569632E+03  0.13170330898E+04  0.50400001928E-02 0.  1.
       -1    1    3    3    0  502  0.11361896762E+03 -0.12316014489E+04  0.30118523528E+03  0.12729744478E+04  0.50400001928E-02 0. -1.
</event>
<event>
 5   0  0.4597705E-06  0.2603413E+04  0.7818609E-02  0.8367043E-01
        1   -1    0    0  501    0  0.00000000000E+00  0.00000000000E+00  0.14442791954E+04  0.14442791954E+04  0.50400001928E-02 0.  1.
       -1   -1    0    0    0  501  0.00000000000E+00  0.00000000000E+00 -0.11732080144E+04  0.11732080144E+04  0.50400001928E-02 0. -1.
    10030    2    1    2    0    0  0.00000000000E+00  0.00000000000E+00  0.27107118100E+03  0.26174872097E+04  0.26034130882E+04 0.  0.
        5    1    3    3  502    0 -0.63569182811E+03 -0.26835077431E+02  0.12772774439E+04  0.14269842257E+04  0.46999998093E+01 0.  1.
       -5    1    3    3    0  502  0.63569182811E+03  0.26835077431E+02 -0.10062062629E+04  0.11905029841E+04  0.46999998093E+01 0. -1.
</event>
<event>
 5   0  0.4218590E-06  0.2607935E+04  0.7818609E-02  0.8365511E-01
        1   -1    0    0  501    0  0.00000000000E+00  0.00000000000E+00  0.10688252001E+04  0.10688252001E+04  0.50400001928E-02 0. -1.
       -1   -1    0    0    0  501  0.00000000000E+00  0.00000000000E+00 -0.15908408823E+04  0.15908408823E+04  0.50400001928E-02 0.  1.
    10030    2    1    2    0    0  0.00000000000E+00  0.00000000000E+00 -0.52201568215E+03  0.26596660824E+04  0.26079346805E+04 0.  0.
        1    1    3    3  502    0  0.58602128880E+03  0.66317958419E+03 -0.12376588303E+04  0.15215214399E+04  0.50400001928E-02 0.  1.
       -1    1    3    3    0  502 -0.58602128880E+03 -0.66317958419E+03  0.71564314814E+03  0.11381446425E+04  0.50400001928E-02 0. -1.
</event>
<event>
 5   0  0.1086507E-05  0.2470026E+04  0.7818609E-02  0.8413743E-01
       -2   -1    0    0    0  501  0.00000000000E+00  0.00000000000E+00  0.13521662214E+04  0.13521662214E+04  0.25500000920E-02 0. -1.
        2   -1    0    0  501    0  0.00000000000E+00  0.00000000000E+00 -0.11280096214E+04  0.11280096214E+04  0.25500000920E-02 0.  1.
    10030    2    1    2    0    0  0.00000000000E+00  0.00000000000E+00  0.22415660000E+03  0.24801758427E+04  0.24700255119E+04 0.  0.
        2    1    3    3  502    0 -0.11559485809E+04 -0.19451470764E+03 -0.27836846882E+03  0.12047996089E+04  0.25500000920E-02 0.  1.
       -2    1    3    3    0  502  0.11559485809E+04  0.19451470764E+03  0.50252506882E+03  0.12753762339E+04  0.25500000920E-02 0. -1.
</event>
<event>
 5   0  0.4415080E-06  0.2593091E+04  0.7818609E-02  0.8370552E-01
        1   -1    0    0  501    0  0.00000000000E+00  0.00000000000E+00  0.73229173370E+03  0.73229173372E+03  0.50400001928E-02 0. -1.
       -1   -1    0    0    0  501  0.00000000000E+00  0.00000000000E+00 -0.22955746650E+04  0.22955746650E+04  0.50400001928E-02 0.  1.
    10030    2    1    2    0    0  0.00000000000E+00  0.00000000000E+00 -0.15632829313E+04  0.30278663987E+04  0.25930910908E+04 0.  0.
        2    1    3    3  502    0  0.60803430447E+03  0.72610383287E+03 -0.18156022555E+04  0.20477656218E+04  0.25500000920E-02 0.  1.
       -2    1    3    3    0  502 -0.60803430447E+03 -0.72610383287E+03  0.25231932424E+03  0.98010077692E+03  0.25500000920E-02 0. -1.
</event>
<event>
 5   0  0.1085061E-05  0.2595773E+04  0.7818609E-02  0.8369638E-01
       -2   -1    0    0    0  501  0.00000000000E+00  0.00000000000E+00  0.19225284246E+04  0.19225284246E+04  0.25500000920E-02 0. -1.
        2   -1    0    0  501    0  0.00000000000E+00  0.00000000000E+00 -0.87619495621E+03  0.87619495622E+03  0.25500000920E-02 0.  1.
    10030    2    1    2    0    0  0.00000000000E+00  0.00000000000E+00  0.10463334683E+04  0.27987233808E+04  0.25957732634E+04 0.  0.
        1    1    3    3  502    0 -0.34025679629E+03 -0.13171813436E+03 -0.81976230405E+03  0.89729292291E+03  0.50400001928E-02 0.  1.
       -1    1    3    3    0  502  0.34025679629E+03  0.13171813436E+03  0.18660957724E+04  0.19014304579E+04  0.50400001928E-02 0. -1.
</event>
<event>
 5   0  0.1085255E-05  0.2646668E+04  0.7818609E-02  0.8352520E-01
       -2   -1    0    0    0  501  0.00000000000E+00  0.00000000000E+00  0.15862151136E+04  0.15862151136E+04  0.25500000920E-02 0.  1.
        2   -1    0    0  501    0  0.00000000000E+00  0.00000000000E+00 -0.11040195742E+04  0.11040195742E+04  0.25500000920E-02 0. -1.
    10030    2    1    2    0    0  0.00000000000E+00  0.00000000000E+00  0.48219553936E+03  0.26902346879E+04  0.26466677422E+04 0.  0.
        5    1    3    3  502    0  0.43753493242E+03 -0.11077192262E+04  0.82740440453E+03  0.14502064818E+04  0.46999998093E+01 0.  1.
       -5    1    3    3    0  502 -0.43753493242E+03  0.11077192262E+04 -0.34520886517E+03  0.12400282061E+04  0.46999998093E+01 0. -1.
</event>
<event>
 5   0  0.4361864E-06  0.2602000E+04  0.7818609E-02  0.8367522E-01
       -1   -1    0    0    0  501  0.00000000000E+00  0.00000000000E+00  0.11494375650E+04  0.11494375650E+04  0.50400001928E-02 0. -1.
        1   -1    0    0  501    0  0.00000000000E+00  0.00000000000E+00 -0.14725469823E+04  0.14725469823E+04  0.50400001928E-02 0.  1.
    10030    2    1    2    0    0  0.00000000000E+00  0.00000000000E+00 -0.32310941734E+03  0.26219845473E+04  0.26019998599E+04 0.  0.
        3    1    3    3  502    0 -0.94677899801E+03 -0.12310526558E+03  0.72900652651E+03  0.12012476445E+04  0.10100000352E+00 0. -1.
       -3    1    3    3    0  502  0.94677899801E+03  0.12310526558E+03 -0.10521159439E+04  0.14207369028E+04  0.10100000352E+00 0.  1.
</event>
<event>
 5   0  0.4597705E-06  0.2599903E+04  0.7818609E-02  0.8368234E-01
        1   -1    0    0  501    0  0.00000000000E+00  0.00000000000E+00  0.10362206956E+04  0.10362206956E+04  0.50400001928E-02 0. -1.
       -1   -1    0    0    0  501  0.00000000000E+00  0.00000000000E+00 -0.16308051014E+04  0.16308051014E+04  0.50400001928E-02 0.  1.
    10030    2    1    2    0    0  0.00000000000E+00  0.00000000000E+00 -0.59458440583E+03  0.26670257971E+04  0.25999030725E+04 0.  0.
        5    1    3    3  502    0 -0.53471875334E+03  0.80773953404E+02 -0.15099295682E+04  0.16038572155E+04  0.46999998093E+01 0.  1.
       -5    1    3    3    0  502  0.53471875334E+03 -0.80773953404E+02  0.91534516235E+03  0.10631685816E+04  0.46999998093E+01 0. -1.
</event>
<event>
 5   0  0.1085061E-05  0.2596065E+04  0.7818609E-02  0.8369539E-01
        2   -1    0    0  501    0  0.00000000000E+00  0.00000000000E+00  0.15342792661E+04  0.15342792661E+04  0.25500000920E-02 0. -1.
       -2   -1    0    0    0  501  0.00000000000E+00  0.00000000000E+00 -0.10981623555E+04  0.10981623555E+04  0.25500000920E-02 0.  1.
    10030    2    1    2    0    0  0.00000000000E+00  0.00000000000E+00  0.43611691061E+03  0.26324416217E+04  0.25960645084E+04 0.  0.
        1    1    3    3  502    0  0.13560498100E+03  0.11631849208E+04  0.78581473454E+03  0.14102810599E+04  0.50400001928E-02 0. -1.
       -1    1    3    3    0  502 -0.13560498100E+03 -0.11631849208E+04 -0.34969782393E+03  0.12221605618E+04  0.50400001928E-02 0.  1.
</event>
<event>
 5   0  0.1116310E-05  0.2593533E+04  0.7818609E-02  0.8370401E-01
       -2   -1    0    0    0  501  0.00000000000E+00  0.00000000000E+00  0.80124463695E+03  0.80124463696E+03  0.25500000920E-02 0.  1.
        2   -1    0    0  501    0  0.00000000000E+00  0.00000000000E+00 -0.20987384780E+04  0.20987384780E+04  0.25500000920E-02 0. -1.
    10030    2    1    2    0    0  0.00000000000E+00  0.00000000000E+00 -0.12974938411E+04  0.28999831150E+04  0.25935326872E+04 0.  0.
        4    1    3    3  502    0  0.21422357286E+03 -0.61053526145E+03  0.60785553437E+03  0.88776968196E+03  0.12699999809E+01 0.  1.
       -4    1    3    3    0  502 -0.21422357286E+03  0.61053526145E+03 -0.19053493754E+04  0.20122134330E+04  0.12699999809E+01 0. -1.
</event>
<event>
 5   0  0.4415080E-06  0.2596681E+04  0.7818609E-02  0.8369330E-01
       -1   -1    0    0    0  501  0.00000000000E+00  0.00000000000E+00  0.62351811251E+03  0.62351811253E+03  0.50400001928E-02 0.  1.
        1   -1    0    0  501    0  0.00000000000E+00  0.00000000000E+00 -0.27035104712E+04  0.27035104712E+04  0.50400001928E-02 0. -1.
    10030    2    1    2    0    0  0.00000000000E+00  0.00000000000E+00 -0.20799923587E+04  0.33270285838E+04  0.25966807630E+04 0.  0.
        2    1    3    3  502    0  0.16135928632E+03 -0.87540123013E+03 -0.22509912586E+04  0.24206044244E+04  0.25500000920E-02 0. -1.
       -2    1    3    3    0  502 -0.16135928632E+03  0.87540123013E+03  0.17099889986E+03  0.90642415941E+03  0.25500000920E-02 0.  1.
</event>
<event>
 5   0  0.4464297E-06  0.2618530E+04  0.7818609E-02  0.8361934E-01
       -1   -1    0    0    0  501  0.00000000000E+00  0.00000000000E+00  0.93574574138E+03  0.93574574140E+03  0.50400001928E-02 0.  1.
        1   -1    0    0  501    0  0.00000000000E+00  0.00000000000E+00 -0.18318812752E+04  0.18318812752E+04  0.50400001928E-02 0. -1.
    10030    2    1    2    0    0  0.00000000000E+00  0.00000000000E+00 -0.89613553381E+03  0.27676270166E+04  0.26185301999E+04 0.  0.
        4    1    3    3  502    0  0.12035677833E+03 -0.84701017256E+03  0.59945515733E+03  0.10446339479E+04  0.12699999809E+01 0.  1.
       -4    1    3    3    0  502 -0.12035677833E+03  0.84701017256E+03 -0.14955906911E+04  0.17229930687E+04  0.12699999809E+01 0. -1.
</event>
<event>
 5   0  0.1085255E-05  0.2601691E+04  0.7818609E-02  0.8367627E-01
        2   -1    0    0  501    0  0.00000000000E+00  0.00000000000E+00  0.14550577727E+04  0.14550577727E+04  0.25500000920E-02 0.  1.
       -2   -1    0    0    0  501  0.00000000000E+00  0.00000000000E+00 -0.11629776033E+04  0.11629776033E+04  0.25500000920E-02 0. -1.
    10030    2    1    2    0    0  0.00000000000E+00  0.00000000000E+00  0.29208016933E+03  0.26180353760E+04  0.26016914507E+04 0.  0.
        5    1    3    3  502    0  0.11004434403E+04 -0.57588211548E+03  0.53520141334E+03  0.13524343308E+04  0.46999998093E+01 0.  1.
       -5    1    3    3    0  502 -0.11004434403E+04  0.57588211548E+03 -0.24312124401E+03  0.12656010452E+04  0.46999998093E+01 0. -1.
</event>
<event>
 5   0  0.4218590E-06  0.2615943E+04  0.7818609E-02  0.8362806E-01
        1   -1    0    0  501    0  0.00000000000E+00  0.00000000000E+00  0.17464472114E+04  0.17464472114E+04  0.50400001928E-02 0. -1.
       -1   -1    0    0    0  501  0.00000000000E+00  0.00000000000E+00 -0.97958284989E+03  0.97958284990E+03  0.50400001928E-02 0.  1.
    10030    2    1    2    0    0  0.00000000000E+00  0.00000000000E+00  0.76686436152E+03  0.27260300613E+04  0.26159432230E+04 0.  0.
        1    1    3    3  502    0 -0.24410377080E+03  0.24386085459E+03 -0.93130124849E+03  0.99316503300E+03  0.50400001928E-02 0.  1.
       -1    1    3    3    0  502  0.24410377080E+03 -0.24386085459E+03  0.16981656100E+04  0.17328650283E+04  0.50400001928E-02 0. -1.
</event>
<event>
 5   0  0.1085255E-05  0.2584615E+04  0.7818609E-02  0.8373446E-01
       -2   -1    0    0    0  501  0.00000000000E+00  0.00000000000E+00  0.10740340663E+04  0.10740340663E+04  0.25500000920E-02 0. -1.
        2   -1    0    0  501    0  0.00000000000E+00  0.00000000000E+00 -0.15549398290E+04  0.15549398290E+04  0.25500000920E-02 0.  1.
    10030    2    1    2    0    0  0.00000000000E+00  0.00000000000E+00 -0.48090576270E+03  0.26289738952E+04  0.25846147468E+04 0.  0.
        5    1    3    3  502    0 -0.12525370956E+04  0.21090435021E+03  0.17652418001E+01  0.12701791318E+04  0.46999998093E+01 0.  1.
       -5    1    3    3    0  502  0.12525370956E+04 -0.21090435021E+03 -0.48267100450E+03  0.13587947635E+04  0.46999998093E+01 0. -1.
</event>
<event>
 5   0  0.4415080E-06  0.2586091E+04  0.7818609E-02  0.8372941E-01
       -1   -1    0    0    0  501  0.00000000000E+00  0.00000000000E+00  0.12600837605E+04  0.12600837605E+04  0.50400001928E-02 0.  1.
        1   -1    0    0  501    0  0.00000000000E+00  0.00000000000E+00 -0.13268698441E+04  0.13268698442E+04  0.50400001928E-02 0. -1.
    10030    2    1    2    0    0  0.00000000000E+00  0.00000000000E+00 -0.66786083678E+02  0.25869536046E+04  0.25860913695E+04 0.  0.
        2    1    3    3  502    0 -0.11651293484E+04 -0.55296335928E+03 -0.12654910168E+03  0.12958817656E+04  0.25500000920E-02 0.  1.
       -2    1    3    3    0  502  0.11651293484E+04  0.55296335928E+03  0.59763018002E+02  0.12910718390E+04  0.25500000920E-02 0. -1.
</event>
<event>
 5   0  0.1085061E-05  0.2603482E+04  0.7818609E-02  0.8367019E-01
        2   -1    0    0  501    0  0.00000000000E+00  0.00000000000E+00  0.12818562493E+04  0.12818562493E+04  0.25500000920E-02 0.  1.
       -2   -1    0    0    0  501  0.00000000000E+00  0.00000000000E+00 -0.13219343253E+04  0.13219343254E+04  0.25500000920E-02 0. -1.
    10030    2    1    2    0    0  0.00000000000E+00  0.00000000000E+00 -0.40078076014E+02  0.26037905747E+04  0.26034821115E+04 0.  0.
        1    1    3    3  502    0  0.77197974805E+03 -0.10475095883E+04 -0.56108630355E+02  0.13024504779E+04  0.50400001928E-02 0. -1.
       -1    1    3    3    0  502 -0.77197974805E+03  0.10475095883E+04  0.16030554341E+02  0.13013400968E+04  0.50400001928E-02 0.  1.
</event>
<event>
 5   0  0.1086507E-05  0.2592682E+04  0.7818609E-02  0.8370691E-01
       -2   -1    0    0    0  501  0.00000000000E+00  0.00000000000E+00  0.80692196048E+03  0.80692196048E+03  0.25500000920E-02 0. -1.
        2   -1    0    0  501    0  0.00000000000E+00  0.00000000000E+00 -0.20826055497E+04  0.20826055497E+04  0.25500000920E-02 0.  1.
    10030    2    1    2    0    0  0.00000000000E+00  0.00000000000E+00 -0.12756835892E+04  0.28895275101E+04  0.25926821271E+04 0.  0.
        2    1    3    3  502    0 -0.85391814981E+03  0.56933983415E+03 -0.15204588386E+04  0.18344261046E+04  0.25500000920E-02 0. -1.
       -2    1    3    3    0  502  0.85391814981E+03 -0.56933983415E+03  0.24477524940E+03  0.10551014056E+04  0.25500000920E-02 0.  1.
</event>
<event>
 5   0  0.3705250E-06  0.2884349E+04  0.7818609E-02  0.8277549E-01
        3   -1    0    0  501    0  0.00000000000E+00  0.00000000000E+00  0.14986215459E+04  0.14986215493E+04  0.10100000352E+00 0.  1.
       -3   -1    0    0    0  501  0.00000000000E+00  0.00000000000E+00 -0.13878538292E+04  0.13878538329E+04  0.10100000352E+00 0. -1.
    10030    2    1    2    0    0  0.00000000000E+00  0.00000000000E+00  0.11076771669E+03  0.28864753823E+04  0.28843492586E+04 0.  0.
        3    1    3    3  502    0  0.81816671445E+03  0.10290948226E+04  0.64864014160E+03  0.14660037415E+04  0.10100000352E+00 0.  1.
       -3    1    3    3    0  502 -0.81816671445E+03 -0.10290948226E+04 -0.53787242491E+03  0.14204716408E+04  0.10100000352E+00 0. -1.
</event>
<event>
 5   0  0.4464297E-06  0.2621251E+04  0.7818609E-02  0.8361018E-01
        1   -1    0    0  501    0  0.00000000000E+00  0.00000000000E+00  0.17694490091E+04  0.17694490091E+04  0.50400001928E-02 0. -1.
       -1   -1    0    0    0  501  0.00000000000E+00  0.00000000000E+00 -0.97077656039E+03  0.97077656040E+03  0.50400001928E-02 0.  1.
    10030    2    1    2    0    0  0.00000000000E+00  0.00000000000E+00  0.79867244868E+03  0.27402255695E+04  0.26212513217E+04 0.  0.
        4    1    3    3  502    0 -0.58866074533E+03 -0.46825149121E+03 -0.72267138112E+03  0.10430898667E+04  0.12699999809E+01 0.  1.
       -4    1    3    3    0  502  0.58866074533E+03  0.46825149121E+03  0.15213438298E+04  0.16971357027E+04  0.12699999809E+01 0. -1.
</event>
<event>
 5   0  0.1116310E-05  0.2599616E+04  0.7818609E-02  0.8368332E-01
        2   -1    0    0  501    0  0.00000000000E+00  0.00000000000E+00  0.14681238142E+04  0.14681238142E+04  0.25500000920E-02 0. -1.
       -2   -1    0    0    0  501  0.00000000000E+00  0.00000000000E+00 -0.11507886432E+04  0.11507886432E+04  0.25500000920E-02 0.  1.
    10030    2    1    2    0    0  0.00000000000E+00  0.00000000000E+00  0.31733517107E+03  0.26189124574E+04  0.25996155194E+04 0.  0.
        4    1    3    3  502    0 -0.80233644193E+03 -0.64345181073E+03  0.95937851254E+03  0.14064788452E+04  0.12699999809E+01 0. -1.
       -4    1    3    3    0  502  0.80233644193E+03  0.64345181073E+03 -0.64204334147E+03  0.12124336122E+04  0.12699999809E+01 0.  1.
</event>
<event>
 5   0  0.1085255E-05  0.2523473E+04  0.7818609E-02  0.8394671E-01
       -2   -1    0    0    0  501  0.00000000000E+00  0.00000000000E+00  0.68010016152E+03  0.68010016152E+03  0.25500000920E-02 0.  1.
        2   -1    0    0  501    0  0.00000000000E+00  0.00000000000E+00 -0.23408006688E+04  0.23408006688E+04  0.25500000920E-02 0. -1.
    10030    2    1    2    0    0  0.00000000000E+00  0.00000000000E+00 -0.16607005073E+04  0.30209008303E+04  0.25234729346E+04 0.  0.
        5    1    3    3  502    0  0.75286766014E+03  0.61666968629E+03  0.13097959060E+03  0.98197197457E+03  0.46999998093E+01 0.  1.
       -5    1    3    3    0  502 -0.75286766014E+03 -0.61666968629E+03 -0.17916800979E+04  0.20389288557E+04  0.46999998093E+01 0. -1.
</event>
<event>
 5   0  0.4218590E-06  0.2597938E+04  0.7818609E-02  0.8368902E-01
       -1   -1    0    0    0  501  0.00000000000E+00  0.00000000000E+00  0.69212132542E+03  0.69212132544E+03  0.50400001928E-02 0. -1.
        1   -1    0    0  501    0  0.00000000000E+00  0.00000000000E+00 -0.24378962374E+04  0.24378962374E+04  0.50400001928E-02 0.  1.
    10030    2    1    2    0    0  0.00000000000E+00  0.00000000000E+00 -0.17457749120E+04  0.31300175628E+04  0.25979376244E+04 0.  0.
        1    1    3    3  502    0 -0.28948195984E+03  0.11102327250E+04 -0.16066381091E+04  0.19742599936E+04  0.50400001928E-02 0.  1.
       -1    1    3    3    0  502  0.28948195984E+03 -0.11102327250E+04 -0.13913680285E+03  0.11557575692E+04  0.50400001928E-02 0. -1.
</event>
<event>
 5   0  0.1116310E-05  0.2617251E+04  0.7818609E-02  0.8362365E-01
        2   -1    0    0  501    0  0.00000000000E+00  0.00000000000E+00  0.75710274879E+03  0.75710274879E+03  0.25500000920E-02 0. -1.
       -2   -1    0    0    0  501  0.00000000000E+00  0.00000000000E+00 -0.22619126321E+04  0.22619126321E+04  0.25500000920E-02 0.  1.
    10030    2    1    2    0    0  0.00000000000E+00  0.00000000000E+00 -0.15048098833E+04  0.30190153809E+04  0.26172506730E+04 0.  0.
        4    1    3    3  502    0  0.11149203926E+04 -0.38053854494E+03 -0.95167819398E+02  0.11819118380E+04  0.12699999809E+01 0. -1.
       -4    1    3    3    0  502 -0.11149203926E+04  0.38053854494E+03 -0.14096420639E+04  0.18371035429E+04  0.12699999809E+01 0.  1.
</event>
<event>
 5   0  0.4361864E-06  0.2595178E+04  0.7818609E-02  0.8369841E-01
        1   -1    0    0  501    0  0.00000000000E+00  0.00000000000E+00  0.21455413395E+04  0.21455413395E+04  0.50400001928E-02 0. -1.
       -1   -1    0    0    0  501  0.00000000000E+00  0.00000000000E+00 -0.78476095677E+03  0.78476095678E+03  0.50400001928E-02 0.  1.
    10030    2    1    2    0    0  0.00000000000E+00  0.00000000000E+00  0.13607803827E+04  0.29303022963E+04  0.25951778933E+04 0.  0.
        3    1    3    3  502    0 -0.71442825262E+03  0.53445161913E+03 -0.38344940911E+03  0.97112291750E+03  0.10100000352E+00 0.  1.
       -3    1    3    3    0  502  0.71442825262E+03 -0.53445161913E+03  0.17442297918E+04  0.19591793788E+04  0.10100000352E+00 0. -1.
</event>
<event>
 5   0  0.4415080E-06  0.2648313E+04  0.7818609E-02  0.8351973E-01
        1   -1    0    0  501    0  0.00000000000E+00  0.00000000000E+00  0.14276338290E+04  0.14276338290E+04  0.50400001928E-02 0.  1.
       -1   -1    0    0    0  501  0.00000000000E+00  0.00000000000E+00 -0.12281793292E+04  0.12281793292E+04  0.50400001928E-02 0. -1.
    10030    2    1    2    0    0  0.00000000000E+00  0.00000000000E+00  0.19945449980E+03  0.26558131582E+04  0.26483129410E+04 0.  0.
        2    1    3    3  502    0 -0.81490788009E+03 -0.90993013515E+03  0.61239189069E+03  0.13664082595E+04  0.25500000920E-02 0.  1.
       -2    1    3    3    0  502  0.81490788009E+03  0.90993013515E+03 -0.41293739088E+03  0.12894048987E+04  0.25500000920E-02 0. -1.
</event>
<event>
 5   0  0.4415080E-06  0.2599052E+04  0.7818609E-02  0.8368523E-01
        1   -1    0    0  501    0  0.00000000000E+00  0.00000000000E+00  0.13958694369E+04  0.13958694369E+04  0.50400001928E-02 0.  1.
       -1   -1    0    0    0  501  0.00000000000E+00  0.00000000000E+00 -0.12098323992E+04  0.12098323992E+04  0.50400001928E-02 0. -1.
    10030    2    1    2    0    0  0.00000000000E+00  0.00000000000E+00  0.18603703770E+03  0.26057018361E+04  0.25990521886E+04 0.  0.
        2    1    3    3  502    0 -0.10066636581E+04  0.51901146764E+02 -0.72926441822E+03  0.12441430952E+04  0.25500000920E-02 0. -1.
       -2    1    3    3    0  502  0.10066636581E+04 -0.51901146764E+02  0.91530145592E+03  0.13615587409E+04  0.25500000920E-02 0.  1.
</event>
<event>
 5   0  0.4218590E-06  0.2581623E+04  0.7818609E-02  0.8374470E-01
        1   -1    0    0  501    0  0.00000000000E+00  0.00000000000E+00  0.19810697500E+04  0.19810697500E+04  0.50400001928E-02 0. -1.
       -1   -1    0    0    0  501  0.00000000000E+00  0.00000000000E+00 -0.84105806086E+03  0.84105806087E+03  0.50400001928E-02 0.  1.
    10030    2    1    2    0    0  0.00000000000E+00  0.00000000000E+00  0.11400116891E+04  0.28221278109E+04  0.25816232741E+04 0.  0.
        1    1    3    3  502    0  0.17123364743E+03  0.38499957912E+03 -0.76376116898E+03  0.87228250080E+03  0.50400001928E-02 0.  1.
       -1    1    3    3    0  502 -0.17123364743E+03 -0.38499957912E+03  0.19037728581E+04  0.19498453101E+04  0.50400001928E-02 0. -1.
</event>
<event>
 5   0  0.4597705E-06  0.2596800E+04  0.7818609E-02  0.8369289E-01
        1   -1    0    0  501    0  0.00000000000E+00  0.00000000000E+00  0.17642661788E+04  0.17642661789E+04  0.50400001928E-02 0.  1.
       -1   -1    0    0    0  501  0.00000000000E+00  0.00000000000E+00 -0.95554892212E+03  0.95554892214E+03  0.50400001928E-02 0. -1.
    10030    2    1    2    0    0  0.00000000000E+00  0.00000000000E+00  0.80871725672E+03  0.27198151010E+04  0.25968000659E+04 0.  0.
        5    1    3    3  502    0  0.12236228917E+04  0.23737916674E+03  0.23514452981E+02  0.12466663024E+04  0.46999998093E+01 0. -1.
       -5    1    3    3    0  502 -0.12236228917E+04 -0.23737916674E+03  0.78520280374E+03  0.14731487986E+04  0.46999998093E+01 0.  1.
</event>
<event>
 5   0  0.4415080E-06  0.2594404E+04  0.7818609E-02  0.8370104E-01
        1   -1    0    0  501    0  0.00000000000E+00  0.00000000000E+00  0.20467605230E+04  0.20467605230E+04  0.50400001928E-02 0.  1.
       -1   -1    0    0    0  501  0.00000000000E+00  0.00000000000E+00 -0.82214465877E+03  0.82214465879E+03  0.50400001928E-02 0. -1.
    10030    2    1    2    0    0  0.00000000000E+00  0.00000000000E+00  0.12246158642E+04  0.28689051818E+04  0.25944041565E+04 0.  0.
        2    1    3    3  502    0  0.11542551818E+03  0.73003764585E+03  0.17911475604E+04  0.19376500194E+04  0.25500000920E-02 0.  1.
       -2    1    3    3    0  502 -0.11542551818E+03 -0.73003764585E+03 -0.56653169620E+03  0.93125516235E+03  0.25500000920E-02 0. -1.
</event>
<event>
 5   0  0.1116310E-05  0.2381149E+04  0.7818609E-02  0.8446595E-01
        2   -1    0    0  501    0  0.00000000000E+00  0.00000000000E+00  0.13051612986E+04  0.13051612986E+04  0.25500000920E-02 0. -1.
       -2   -1    0    0    0  501  0.00000000000E+00  0.00000000000E+00 -0.10860481929E+04  0.10860481929E+04  0.25500000920E-02 0.  1.
    10030    2    1    2    0    0  0.00000000000E+00  0.00000000000E+00  0.21911310567E+03  0.23912094915E+04  0.23811493609E+04 0.  0.
        4    1    3    3  502    0 -0.38424849185E+03 -0.44340754199E+02  0.12403037409E+04  0.12992182221E+04  0.12699999809E+01 0. -1.
       -4    1    3    3    0  502  0.38424849185E+03  0.44340754199E+02 -0.10211906353E+04  0.10919912694E+04  0.12699999809E+01 0.  1.
</event>
<event>
 5   0  0.1116310E-05  0.2569672E+04  0.7818609E-02  0.8378577E-01
        2   -1    0    0  501    0  0.00000000000E+00  0.00000000000E+00  0.24643510341E+04  0.24643510341E+04  0.25500000920E-02 0. -1.
       -2   -1    0    0    0  501  0.00000000000E+00  0.00000000000E+00 -0.66987341363E+03  0.66987341363E+03  0.25500000920E-02 0.  1.
    10030    2    1    2    0    0  0.00000000000E+00  0.00000000000E+00  0.17944776204E+04  0.31342244477E+04  0.25696717608E+04 0.  0.
        4    1    3    3  502    0  0.86327788549E+03 -0.80035543970E+03  0.26937949662E+03  0.12076358986E+04  0.12699999809E+01 0.  1.
       -4    1    3    3    0  502 -0.86327788549E+03  0.80035543970E+03  0.15250981238E+04  0.19265885491E+04  0.12699999809E+01 0. -1.
</event>
<event>
 5   0  0.1085061E-05  0.2604327E+04  0.7818609E-02  0.8366733E-01
        2   -1    0    0  501    0  0.00000000000E+00  0.00000000000E+00  0.18857290143E+04  0.18857290143E+04  0.25500000920E-02 0.  1.
       -2   -1    0    0    0  501  0.00000000000E+00  0.00000000000E+00 -0.89919065878E+03  0.89919065878E+03  0.25500000920E-02 0. -1.
    10030    2    1    2    0    0  0.00000000000E+00  0.00000000000E+00  0.98653835549E+03  0.27849196730E+04  0.26043271028E+04 0.  0.
        1    1    3    3  502    0  0.11748133456E+04  0.16183564087E+03 -0.81847398981E+02  0.11887288035E+04  0.50400001928E-02 0.  1.
       -1    1    3    3    0  502 -0.11748133456E+04 -0.16183564087E+03  0.10683857545E+04  0.15961908695E+04  0.50400001928E-02 0. -1.
</event>
<event>
 5   0  0.4464297E-06  0.2567608E+04  0.7818609E-02  0.8379288E-01
       -1   -1    0    0    0  501  0.00000000000E+00  0.00000000000E+00  0.64537294233E+03  0.64537294235E+03  0.50400001928E-02 0. -1.
        1   -1    0    0  501    0  0.00000000000E+00  0.00000000000E+00 -0.25537982679E+04  0.25537982679E+04  0.50400001928E-02 0.  1.
    10030    2    1    2    0    0  0.00000000000E+00  0.00000000000E+00 -0.19084253256E+04  0.31991712103E+04  0.25676076821E+04 0.  0.
        4    1    3    3  502    0  0.86268614749E+03  0.28613071699E+02  0.22985860238E+03  0.89324279282E+03  0.12699999809E+01 0.  1.
       -4    1    3    3    0  502 -0.86268614749E+03 -0.28613071699E+02 -0.21382839279E+04  0.23059284174E+04  0.12699999809E+01 0. -1.
</event>
<event>
 5   0  0.4464297E-06  0.2601548E+04  0.7818609E-02  0.8367676E-01
       -1   -1    0    0    0  501  0.00000000000E+00  0.00000000000E+00  0.11449724632E+04  0.11449724632E+04  0.50400001928E-02 0.  1.
        1   -1    0    0  501    0  0.00000000000E+00  0.00000000000E+00 -0.14777759517E+04  0.14777759517E+04  0.50400001928E-02 0. -1.
    10030    2    1    2    0    0  0.00000000000E+00  0.00000000000E+00 -0.33280348857E+03  0.26227484149E+04  0.26015478250E+04 0.  0.
        4    1    3    3  502    0 -0.54509845565E+03 -0.11807719832E+04 -0.14057352276E+03  0.13080968355E+04  0.12699999809E+01 0. -1.
       -4    1    3    3    0  502  0.54509845565E+03  0.11807719832E+04 -0.19222996581E+03  0.13146515795E+04  0.12699999809E+01 0.  1.
</event>
<event>
 5   0  0.1085255E-05  0.2703929E+04  0.7818609E-02  0.8333731E-01
       -2   -1    0    0    0  501  0.00000000000E+00  0.00000000000E+00  0.20977877477E+04  0.20977877477E+04  0.25500000920E-02 0.  1.
        2   -1    0    0  501    0  0.00000000000E+00  0.00000000000E+00 -0.87130280748E+03  0.87130280748E+03  0.25500000920E-02 0. -1.
    10030    2    1    2    0    0  0.00000000000E+00  0.00000000000E+00  0.12264849402E+04  0.29690905551E+04  0.27039292550E+04 0.  0.
        5    1    3    3  502    0  0.11121104870E+03 -0.30360776641E+03 -0.82821253134E+03  0.88910272761E+03  0.46999998093E+01 0. -1.
       -5    1    3    3    0  502 -0.11121104870E+03  0.30360776641E+03  0.20546974715E+04  0.20799878275E+04  0.46999998093E+01 0.  1.
</event>
<event>
 5   0  0.4597705E-06  0.2553398E+04  0.7818609E-02  0.8384205E-01
       -1   -1    0    0    0  501  0.00000000000E+00  0.00000000000E+00  0.16548261521E+04  0.16548261521E+04  0.50400001928E-02 0.  1.
        1   -1    0    0  501    0  0.00000000000E+00  0.00000000000E+00 -0.98497383103E+03  0.98497383104E+03  0.50400001928E-02 0. -1.
    10030    2    1    2    0    0  0.00000000000E+00  0.00000000000E+00  0.66985232106E+03  0.26397999831E+04  0.25533980925E+04 0.  0.
        5    1    3    3  502    0  0.19357513362E+03 -0.20706621985E+03 -0.95202178399E+03  0.99333545137E+03  0.46999998093E+01 0. -1.
       -5    1    3    3    0  502 -0.19357513362E+03  0.20706621985E+03  0.16218741050E+04  0.16464645318E+04  0.46999998093E+01 0.  1.
</event>
<event>
 5   0  0.3705250E-06  0.2585158E+04  0.7818609E-02  0.8373260E-01
        3   -1    0    0  501    0  0.00000000000E+00  0.00000000000E+00  0.13772256746E+04  0.13772256783E+04  0.10100000352E+00 0.  1.
       -3   -1    0    0    0  501  0.00000000000E+00  0.00000000000E+00 -0.12131347685E+04  0.12131347727E+04  0.10100000352E+00 0. -1.
    10030    2    1    2    0    0  0.00000000000E+00  0.00000000000E+00  0.16409090615E+03  0.25903604510E+04  0.25851579141E+04 0.  0.
        2    1    3    3  502    0 -0.26276627633E+03 -0.92423108624E+03  0.94837267142E+03  0.13500592360E+04  0.25500000920E-02 0.  1.
       -2    1    3    3    0  502  0.26276627633E+03  0.92423108624E+03 -0.78428176527E+03  0.12403012151E+04  0.25500000920E-02 0. -1.
</event>
<event>
 5   0  0.1086507E-05  0.2600389E+04  0.7818609E-02  0.8368069E-01
        2   -1    0    0  501    0  0.00000000000E+00  0.00000000000E+00  0.17667340946E+04  0.17667340946E+04  0.25500000920E-02 0. -1.
       -2   -1    0    0    0  501  0.00000000000E+00  0.00000000000E+00 -0.95685366970E+03  0.95685366970E+03  0.25500000920E-02 0.  1.
    10030    2    1    2    0    0  0.00000000000E+00  0.00000000000E+00  0.80988042488E+03  0.27235877643E+04  0.26003892030E+04 0.  0.
        2    1    3    3  502    0 -0.77731989052E+03  0.98912672651E+03  0.60883480185E+02  0.12594858838E+04  0.25500000920E-02 0.  1.
       -2    1    3    3    0  502  0.77731989052E+03 -0.98912672651E+03  0.74899694470E+03  0.14641018805E+04  0.25500000920E-02 0. -1.
</event>
<event>
 5   0  0.4361864E-06  0.2597724E+04  0.7818609E-02  0.8368975E-01
       -1   -1    0    0    0  501  0.00000000000E+00  0.00000000000E+00  0.62329478619E+03  0.62329478621E+03  0.50400001928E-02 0. -1.
        1   -1    0    0  501    0  0.00000000000E+00  0.00000000000E+00 -0.27066518177E+04  0.27066518177E+04  0.50400001928E-02 0.  1.
    10030    2    1    2    0    0  0.00000000000E+00  0.00000000000E+00 -0.20833570315E+04  0.33299466039E+04  0.25977235927E+04 0.  0.
        3    1    3    3  502    0 -0.40949555991E+03  0.11412051739E+04 -0.44453283511E+03  0.12913734217E+04  0.10100000352E+00 0. -1.
       -3    1    3    3    0  502  0.40949555991E+03 -0.11412051739E+04 -0.16388241964E+04  0.20385731822E+04  0.10100000352E+00 0.  1.
</event>
<event>
 5   0  0.1136881E-05  0.2591414E+04  0.7818609E-02  0.8371123E-01
        2   -1    0    0  501    0  0.00000000000E+00  0.00000000000E+00  0.86749198256E+03  0.86749198256E+03  0.25500000920E-02 0.  1.
       -2   -1    0    0    0  501  0.00000000000E+00  0.00000000000E+00 -0.19352994297E+04  0.19352994297E+04  0.25500000920E-02 0. -1.
    10030    2    1    2    0    0  0.00000000000E+00  0.00000000000E+00 -0.10678074471E+04  0.28027914122E+04  0.25914140843E+04 0.  0.
        3    1    3    3  502    0 -0.84019115752E+03 -0.98169963467E+03 -0.43015558136E+03  0.13618697398E+04  0.10100000352E+00 0.  1.
       -3    1    3    3    0  502  0.84019115752E+03  0.98169963467E+03 -0.63765186575E+03  0.14409216724E+04  0.10100000352E+00 0. -1.
</event>
<event>
 5   0  0.1116310E-05  0.2605138E+04  0.7818609E-02  0.8366458E-01
        2   -1    0    0  501    0  0.00000000000E+00  0.00000000000E+00  0.14423913934E+04  0.14423913934E+04  0.25500000920E-02 0.  1.
       -2   -1    0    0    0  501  0.00000000000E+00  0.00000000000E+00 -0.11763002983E+04  0.11763002983E+04  0.25500000920E-02 0. -1.
    10030    2    1    2    0    0  0.00000000000E+00  0.00000000000E+00  0.26609109506E+03  0.26186916917E+04  0.26051375597E+04 0.  0.
        4    1    3    3  502    0  0.18682191817E+03  0.11498228926E+03 -0.11575975088E+04  0.11782007304E+04  0.12699999809E+01 0. -1.
       -4    1    3    3    0  502 -0.18682191817E+03 -0.11498228926E+03  0.14236886038E+04  0.14404909613E+04  0.12699999809E+01 0.  1.
</event>
<event>
 5   0  0.1116310E-05  0.2621117E+04  0.7818609E-02  0.8361063E-01
       -2   -1    0    0    0  501  0.00000000000E+00  0.00000000000E+00  0.91969514266E+03  0.91969514267E+03  0.25500000920E-02 0.  1.
        2   -1    0    0  501    0  0.00000000000E+00  0.00000000000E+00 -0.18675360080E+04  0.18675360080E+04  0.25500000920E-02 0. -1.
    10030    2    1    2    0    0  0.00000000000E+00  0.00000000000E+00 -0.94784086531E+03  0.27872311506E+04  0.26211171628E+04 0.  0.
        4    1    3    3  502    0 -0.67661178487E+03  0.24789911490E+03  0.69012568042E+03  0.99776377278E+03  0.12699999809E+01 0.  1.
       -4    1    3    3    0  502  0.67661178487E+03 -0.24789911490E+03 -0.16379665457E+04  0.17894673779E+04  0.12699999809E+01 0. -1.
</event>
<event>
 5   0  0.4415080E-06  0.2595976E+04  0.7818609E-02  0.8369569E-01
       -1   -1    0    0    0  501  0.00000000000E+00  0.00000000000E+00  0.11122292378E+04  0.11122292378E+04  0.50400001928E-02 0.  1.
        1   -1    0    0  501    0  0.00000000000E+00  0.00000000000E+00 -0.15147711940E+04  0.15147711940E+04  0.50400001928E-02 0. -1.
    10030    2    1    2    0    0  0.00000000000E+00  0.00000000000E+00 -0.40254195623E+03  0.26270004318E+04  0.25959759711E+04 0.  0.
        2    1    3    3  502    0  0.11053167254E+04  0.58302245439E+03 -0.55636710777E+03  0.13679124988E+04  0.25500000920E-02 0. -1.
       -2    1    3    3    0  502 -0.11053167254E+04 -0.58302245439E+03  0.15382515154E+03  0.12590879330E+04  0.25500000920E-02 0.  1.
</event>
<event>
 5   0  0.1085061E-05  0.2581450E+04  0.7818609E-02  0.8374530E-01
       -2   -1    0    0    0  501  0.00000000000E+00  0.00000000000E+00  0.87543849453E+03  0.87543849453E+03  0.25500000920E-02 0. -1.
        2   -1    0    0  501    0  0.00000000000E+00  0.00000000000E+00 -0.19030136326E+04  0.19030136326E+04  0.25500000920E-02 0.  1.
    10030    2    1    2    0    0  0.00000000000E+00  0.00000000000E+00 -0.10275751380E+04  0.27784521271E+04  0.25814502820E+04 0.  0.
        1    1    3    3  502    0  0.86445253727E+03  0.95338285488E+03 -0.40748642751E+03  0.13499119400E+04  0.50400001928E-02 0.  1.
       -1    1    3    3    0  502 -0.86445253727E+03 -0.95338285488E+03 -0.62008871051E+03  0.14285401871E+04  0.50400001928E-02 0. -1.
</event>
<event>
 5   0  0.4218590E-06  0.2610626E+04  0.7818609E-02  0.8364601E-01
        1   -1    0    0  501    0  0.00000000000E+00  0.00000000000E+00  0.10857332214E+04  0.10857332214E+04  0.50400001928E-02 0.  1.
       -1   -1    0    0    0  501  0.00000000000E+00  0.00000000000E+00 -0.15693009145E+04  0.15693009145E+04  0.50400001928E-02 0. -1.
    10030    2    1    2    0    0  0.00000000000E+00  0.00000000000E+00 -0.48356769309E+03  0.26550341358E+04  0.26106260837E+04 0.  0.
        1    1    3    3  502    0 -0.12861863712E+04  0.12529834942E+03 -0.54623297907E+02  0.12934290713E+04  0.50400001928E-02 0.  1.
       -1    1    3    3    0  502  0.12861863712E+04 -0.12529834942E+03 -0.42894439518E+03  0.13616050646E+04  0.50400001928E-02 0. -1.
</event>
<event>
 5   0  0.4597705E-06  0.2610939E+04  0.7818609E-02  0.8364495E-01
       -1   -1    0    0    0  501  0.00000000000E+00  0.00000000000E+00  0.92464508963E+03  0.92464508965E+03  0.50400001928E-02 0.  1.
        1   -1    0    0  501    0  0.00000000000E+00  0.00000000000E+00 -0.18431409881E+04  0.18431409881E+04  0.50400001928E-02 0. -1.
    10030    2    1    2    0    0  0.00000000000E+00  0.00000000000E+00 -0.91849589842E+03  0.27677860777E+04  0.26109394969E+04 0.  0.
        5    1    3    3  502    0  0.24505539529E+03 -0.98826896613E+03  0.40683966566E+03  0.10964799587E+04  0.46999998093E+01 0.  1.
       -5    1    3    3    0  502 -0.24505539529E+03  0.98826896613E+03 -0.13253355641E+04  0.16713061191E+04  0.46999998093E+01 0. -1.
</event>
<event>
 5   0  0.1085061E-05  0.2587945E+04  0.7818609E-02  0.8372308E-01
        2   -1    0    0  501    0  0.00000000000E+00  0.00000000000E+00  0.13307594380E+04  0.13307594380E+04  0.25500000920E-02 0.  1.
       -2   -1    0    0    0  501  0.00000000000E+00  0.00000000000E+00 -0.12582020167E+04  0.12582020167E+04  0.25500000920E-02 0. -1.
    10030    2    1    2    0    0  0.00000000000E+00  0.00000000000E+00  0.72557421362E+02  0.25889614547E+04  0.25879445192E+04 0.  0.
        1    1    3    3  502    0 -0.53524017463E+03 -0.18999923710E+03  0.11993973768E+04  0.13270779261E+04  0.50400001928E-02 0.  1.
       -1    1    3    3    0  502  0.53524017463E+03  0.18999923710E+03 -0.11268399554E+04  0.12618835286E+04  0.50400001928E-02 0. -1.
</event>
<event>
 5   0  0.4597705E-06  0.2620026E+04  0.7818609E-02  0.8361431E-01
       -1   -1    0    0    0  501  0.00000000000E+00  0.00000000000E+00  0.69464882246E+03  0.69464882248E+03  0.50400001928E-02 0.  1.
        1   -1    0    0  501    0  0.00000000000E+00  0.00000000000E+00 -0.24705055982E+04  0.24705055982E+04  0.50400001928E-02 0. -1.
    10030    2    1    2    0    0  0.00000000000E+00  0.00000000000E+00 -0.17758567757E+04  0.31651544207E+04  0.26200258050E+04 0.  0.
        5    1    3    3  502    0  0.31119047342E+03  0.82800938562E+03 -0.20552395962E+04  0.22375144561E+04  0.46999998093E+01 0. -1.
       -5    1    3    3    0  502 -0.31119047342E+03 -0.82800938562E+03  0.27938282052E+03  0.92763996455E+03  0.46999998093E+01 0.  1.
</event>
<event>
 5   0  0.4361864E-06  0.2600208E+04  0.7818609E-02  0.8368131E-01
        1   -1    0    0  501    0  0.00000000000E+00  0.00000000000E+00  0.13984672453E+04  0.13984672453E+04  0.50400001928E-02 0.  1.
       -1   -1    0    0    0  501  0.00000000000E+00  0.00000000000E+00 -0.12086593756E+04  0.12086593756E+04  0.50400001928E-02 0. -1.
    10030    2    1    2    0    0  0.00000000000E+00  0.00000000000E+00  0.18980786963E+03  0.26071266209E+04  0.26002081052E+04 0.  0.
        3    1    3    3  502    0 -0.50133099142E+03 -0.11987473263E+04  0.13909639320E+03  0.13067806749E+04  0.10100000352E+00 0.  1.
       -3    1    3    3    0  502  0.50133099142E+03  0.11987473263E+04  0.50711476428E+02  0.13003459461E+04  0.10100000352E+00 0. -1.
</event>
<event>
 5   0  0.4464297E-06  0.2594173E+04  0.7818609E-02  0.8370183E-01
       -1   -1    0    0    0  501  0.00000000000E+00  0.00000000000E+00  0.10883083208E+04  0.10883083208E+04  0.50400001928E-02 0.  1.
        1   -1    0    0  501    0  0.00000000000E+00  0.00000000000E+00 -0.15459162376E+04  0.15459162377E+04  0.50400001928E-02 0. -1.
    10030    2    1    2    0    0  0.00000000000E+00  0.00000000000E+00 -0.45760791686E+03  0.26342245585E+04  0.25941730896E+04 0.  0.
        4    1    3    3  502    0  0.89017425931E+03  0.88715815926E+03 -0.55465085403E+03  0.13737172177E+04  0.12699999809E+01 0. -1.
       -4    1    3    3    0  502 -0.89017425931E+03 -0.88715815926E+03  0.97042937172E+02  0.12605073407E+04  0.12699999809E+01 0.  1.
</event>
<event>
 5   0  0.1085255E-05  0.2601932E+04  0.7818609E-02  0.8367545E-01
        2   -1    0    0  501    0  0.00000000000E+00  0.00000000000E+00  0.14372525310E+04  0.14372525311E+04  0.25500000920E-02 0. -1.
       -2   -1    0    0    0  501  0.00000000000E+00  0.00000000000E+00 -0.11776023571E+04  0.11776023571E+04  0.25500000920E-02 0.  1.
    10030    2    1    2    0    0  0.00000000000E+00  0.00000000000E+00  0.25965017395E+03  0.26148548882E+04  0.26019315658E+04 0.  0.
        5    1    3    3  502    0 -0.31929039492E+03 -0.62239073669E+03  0.12321657156E+04  0.14168877959E+04  0.46999998093E+01 0. -1.
       -5    1    3    3    0  502  0.31929039492E+03  0.62239073669E+03 -0.97251554166E+03  0.11979670923E+04  0.46999998093E+01 0.  1.
</event>
<event>
 5   0  0.1085061E-05  0.2577258E+04  0.7818609E-02  0.8375967E-01
        2   -1    0    0  501    0  0.00000000000E+00  0.00000000000E+00  0.20151325992E+04  0.20151325992E+04  0.25500000920E-02 0.  1.
       -2   -1    0    0    0  501  0.00000000000E+00  0.00000000000E+00 -0.82404734643E+03  0.82404734644E+03  0.25500000920E-02 0. -1.
    10030    2    1    2    0    0  0.00000000000E+00  0.00000000000E+00  0.11910852528E+04  0.28391799456E+04  0.25772579778E+04 0.  0.
        1    1    3    3  502    0  0.61174236480E+03 -0.69883328492E+03 -0.38853138193E+03  0.10067538506E+04  0.50400001928E-02 0. -1.
       -1    1    3    3    0  502 -0.61174236480E+03  0.69883328492E+03  0.15796166347E+04  0.18324260950E+04  0.50400001928E-02 0.  1.
</event>
<event>
 5   0  0.4415080E-06  0.2602444E+04  0.7818609E-02  0.8367372E-01
        1   -1    0    0  501    0  0.00000000000E+00  0.00000000000E+00  0.19216268010E+04  0.19216268010E+04  0.50400001928E-02 0.  1.
       -1   -1    0    0    0  501  0.00000000000E+00  0.00000000000E+00 -0.88111728267E+03  0.88111728269E+03  0.50400001928E-02 0. -1.
    10030    2    1    2    0    0  0.00000000000E+00  0.00000000000E+00  0.10405095183E+04  0.28027440837E+04  0.26024439170E+04 0.  0.
        2    1    3    3  502    0  0.10407782871E+04  0.63068760013E+03  0.24157453115E+02  0.12171975494E+04  0.25500000920E-02 0.  1.
       -2    1    3    3    0  502 -0.10407782871E+04 -0.63068760013E+03  0.10163520652E+04  0.15855465343E+04  0.25500000920E-02 0. -1.
</event>
<event>
 5   0  0.4597705E-06  0.2570022E+04  0.7818609E-02  0.8378456E-01
        1   -1    0    0  501    0  0.00000000000E+00  0.00000000000E+00  0.82974868475E+03  0.82974868476E+03  0.50400001928E-02 0.  1.
       -1   -1    0    0    0  501  0.00000000000E+00  0.00000000000E+00 -0.19900639483E+04  0.19900639483E+04  0.50400001928E-02 0. -1.
    10030    2    1    2    0    0  0.00000000000E+00  0.00000000000E+00 -0.11603152636E+04  0.28198126331E+04  0.25700217460E+04 0.  0.
        5    1    3    3  502    0  0.53952228408E+03  0.79372743681E+03 -0.15176926763E+04  0.17956894744E+04  0.46999998093E+01 0. -1.
       -5    1    3    3    0  502 -0.53952228408E+03 -0.79372743681E+03  0.35737741271E+03  0.10241231586E+04  0.46999998093E+01 0.  1.
</event>
<event>
 5   0  0.1136881E-05  0.2600646E+04  0.7818609E-02  0.8367982E-01
       -2   -1    0    0    0  501  0.00000000000E+00  0.00000000000E+00  0.78196945958E+03  0.78196945958E+03  0.25500000920E-02 0. -1.
        2   -1    0    0  501    0  0.00000000000E+00  0.00000000000E+00 -0.21622840972E+04  0.21622840972E+04  0.25500000920E-02 0.  1.
    10030    2    1    2    0    0  0.00000000000E+00  0.00000000000E+00 -0.13803146377E+04  0.29442535568E+04  0.26006461712E+04 0.  0.
        3    1    3    3  502    0 -0.99567043355E+03  0.34846880676E+03 -0.15509065446E+04  0.18756602149E+04  0.10100000352E+00 0.  1.
       -3    1    3    3    0  502  0.99567043355E+03 -0.34846880676E+03  0.17059190690E+03  0.10685933419E+04  0.10100000352E+00 0. -1.
</event>
<event>
 5   0  0.1085061E-05  0.2582782E+04  0.7818609E-02  0.8374073E-01
        2   -1    0    0  501    0  0.00000000000E+00  0.00000000000E+00  0.15616801785E+04  0.15616801785E+04  0.25500000920E-02 0.  1.
       -2   -1    0    0    0  501  0.00000000000E+00  0.00000000000E+00 -0.10678822270E+04  0.10678822270E+04  0.25500000920E-02 0. -1.
    10030    2    1    2    0    0  0.00000000000E+00  0.00000000000E+00  0.49379795151E+03  0.26295624055E+04  0.25827818390E+04 0.  0.
        1    1    3    3  502    0 -0.71876056433E+03  0.42096393362E+03  0.12516182157E+04  0.15034545354E+04  0.50400001928E-02 0.  1.
       -1    1    3    3    0  502  0.71876056433E+03 -0.42096393362E+03 -0.75782026420E+03  0.11261078701E+04  0.50400001928E-02 0. -1.
</event>
<event>
 5   0  0.3705250E-06  0.2500777E+04  0.7818609E-02  0.8402709E-01
       -3   -1    0    0    0  501  0.00000000000E+00  0.00000000000E+00  0.13032817033E+04  0.13032817072E+04  0.10100000352E+00 0.  1.
        3   -1    0    0  501    0  0.00000000000E+00  0.00000000000E+00 -0.11996421475E+04  0.11996421518E+04  0.10100000352E+00 0. -1.
    10030    2    1    2    0    0  0.00000000000E+00  0.00000000000E+00  0.10363955577E+03  0.25029238590E+04  0.25007772165E+04 0.  0.
        4    1    3    3  502    0  0.11748075197E+03 -0.11549060094E+04 -0.41318687267E+03  0.12322072156E+04  0.12699999809E+01 0. -1.
       -4    1    3    3    0  502 -0.11748075197E+03  0.11549060094E+04  0.51682642844E+03  0.12707166433E+04  0.12699999809E+01 0.  1.
</event>
<event>
 5   0  0.4415080E-06  0.2595536E+04  0.7818609E-02  0.8369719E-01
       -1   -1    0    0    0  501  0.00000000000E+00  0.00000000000E+00  0.69823899155E+03  0.69823899157E+03  0.50400001928E-02 0. -1.
        1   -1    0    0  501    0  0.00000000000E+00  0.00000000000E+00 -0.24120701939E+04  0.24120701939E+04  0.50400001928E-02 0.  1.
    10030    2    1    2    0    0  0.00000000000E+00  0.00000000000E+00 -0.17138312024E+04  0.31103091855E+04  0.25955357519E+04 0.  0.
        2    1    3    3  502    0 -0.12046309022E+04 -0.92796678713E+02 -0.14246442726E+04  0.18679823708E+04  0.25500000920E-02 0.  1.
       -2    1    3    3    0  502  0.12046309022E+04  0.92796678713E+02 -0.28918692980E+03  0.12423268147E+04  0.25500000920E-02 0. -1.
</event>
<event>
 5   0  0.4597705E-06  0.2665633E+04  0.7818609E-02  0.8346243E-01
        1   -1    0    0  501    0  0.00000000000E+00  0.00000000000E+00  0.18958372833E+04  0.18958372833E+04  0.50400001928E-02 0. -1.
       -1   -1    0    0    0  501  0.00000000000E+00  0.00000000000E+00 -0.93700001814E+03  0.93700001815E+03  0.50400001928E-02 0.  1.
    10030    2    1    2    0    0  0.00000000000E+00  0.00000000000E+00  0.95883726512E+03  0.28328373014E+04  0.26656328095E+04 0.  0.
        5    1    3    3  502    0 -0.82229724231E+03 -0.18437464893E+03 -0.61792545516E+03  0.10449979541E+04  0.46999998093E+01 0.  1.
       -5    1    3    3    0  502  0.82229724231E+03  0.18437464893E+03  0.15767627203E+04  0.17878393473E+04  0.46999998093E+01 0. -1.
</event>
<event>
 5   0  0.4415080E-06  0.2592591E+04  0.7818609E-02  0.8370722E-01
       -1   -1    0    0    0  501  0.00000000000E+00  0.00000000000E+00  0.10627016786E+04  0.10627016786E+04  0.50400001928E-02 0. -1.
        1   -1    0    0  501    0  0.00000000000E+00  0.00000000000E+00 -0.15812363417E+04  0.15812363418E+04  0.50400001928E-02 0.  1.
    10030    2    1    2    0    0  0.00000000000E+00  0.00000000000E+00 -0.51853466311E+03  0.26439380204E+04  0.25925913791E+04 0.  0.
        2    1    3    3  502    0 -0.90296107143E+03  0.92663380622E+03 -0.17772367561E+03  0.13059764976E+04  0.25500000920E-02 0.  1.
       -2    1    3    3    0  502  0.90296107143E+03 -0.92663380622E+03 -0.34081098750E+03  0.13379615228E+04  0.25500000920E-02 0. -1.
</event>
<event>
 5   0  0.4597705E-06  0.2598172E+04  0.7818609E-02  0.8368822E-01
       -1   -1    0    0    0  501  0.00000000000E+00  0.00000000000E+00  0.63047336627E+03  0.63047336629E+03  0.50400001928E-02 0. -1.
        1   -1    0    0  501    0  0.00000000000E+00  0.00000000000E+00 -0.26767578361E+04  0.26767578361E+04  0.50400001928E-02 0.  1.
    10030    2    1    2    0    0  0.00000000000E+00  0.00000000000E+00 -0.20462844698E+04  0.33072312024E+04  0.25981720679E+04 0.  0.
        5    1    3    3  502    0  0.92370995616E+03 -0.91339162720E+03 -0.10118940363E+04  0.16466559988E+04  0.46999998093E+01 0. -1.
       -5    1    3    3    0  502 -0.92370995616E+03  0.91339162720E+03 -0.10343904335E+04  0.16605752035E+04  0.46999998093E+01 0.  1.
</event>
<event>
 5   0  0.4415080E-06  0.2629083E+04  0.7818609E-02  0.8358389E-01
       -1   -1    0    0    0  501  0.00000000000E+00  0.00000000000E+00  0.84955415944E+03  0.84955415945E+03  0.50400001928E-02 0. -1.
        1   -1    0    0  501    0  0.00000000000E+00  0.00000000000E+00 -0.20340308178E+04  0.20340308178E+04  0.50400001928E-02 0.  1.
    10030    2    1    2    0    0  0.00000000000E+00  0.00000000000E+00 -0.11844766583E+04  0.28835849772E+04  0.26290829897E+04 0.  0.
        2    1    3    3  502    0 -0.94193303232E+02 -0.88184796557E+03  0.47199431221E+03  0.10046426447E+04  0.25500000920E-02 0. -1.
       -2    1    3    3    0  502  0.94193303232E+02  0.88184796557E+03 -0.16564709706E+04  0.18789423326E+04  0.25500000920E-02 0.  1.
</event>
<event>
 5   0  0.1136881E-05  0.2605696E+04  0.7818609E-02  0.8366269E-01
        2   -1    0    0  501    0  0.00000000000E+00  0.00000000000E+00  0.25393484586E+04  0.25393484586E+04  0.25500000920E-02 0.  1.
       -2   -1    0    0    0  501  0.00000000000E+00  0.00000000000E+00 -0.66844413010E+03  0.66844413011E+03  0.25500000920E-02 0. -1.
    10030    2    1    2    0    0  0.00000000000E+00  0.00000000000E+00  0.18709043285E+04  0.32077925887E+04  0.26056957393E+04 0.  0.
        3    1    3    3  502    0 -0.10238289405E+04 -0.41358338720E+03  0.17867041480E+04  0.21003782136E+04  0.10100000352E+00 0.  1.
       -3    1    3    3    0  502  0.10238289405E+04  0.41358338720E+03  0.84200180497E+02  0.11074143751E+04  0.10100000352E+00 0. -1.
</event>
<event>
 5   0  0.1086507E-05  0.2598051E+04  0.7818609E-02  0.8368863E-01
        2   -1    0    0  501    0  0.00000000000E+00  0.00000000000E+00  0.10232245562E+04  0.10232245562E+04  0.25500000920E-02 0.  1.
       -2   -1    0    0    0  501  0.00000000000E+00  0.00000000000E+00 -0.16491664702E+04  0.16491664702E+04  0.25500000920E-02 0. -1.
    10030    2    1    2    0    0  0.00000000000E+00  0.00000000000E+00 -0.62594191402E+03  0.26723910264E+04  0.25980512925E+04 0.  0.
        2    1    3    3  502    0  0.10431876803E+04  0.76785336099E+03 -0.21203932429E+03  0.13125547590E+04  0.25500000920E-02 0.  1.
       -2    1    3    3    0  502 -0.10431876803E+04 -0.76785336099E+03 -0.41390258974E+03  0.13598362674E+04  0.25500000920E-02 0. -1.
</event>
<event>
 5   0  0.1085061E-05  0.2573807E+04  0.7818609E-02  0.8377153E-01
        2   -1    0    0  501    0  0.00000000000E+00  0.00000000000E+00  0.16209224456E+04  0.16209224456E+04  0.25500000920E-02 0. -1.
       -2   -1    0    0    0  501  0.00000000000E+00  0.00000000000E+00 -0.10217147500E+04  0.10217147500E+04  0.25500000920E-02 0.  1.
    10030    2    1    2    0    0  0.00000000000E+00  0.00000000000E+00  0.59920769557E+03  0.26426371956E+04  0.25738068080E+04 0.  0.
        1    1    3    3  502    0 -0.10228765591E+04  0.41750526071E+03 -0.37799438992E+03  0.11676758355E+04  0.50400001928E-02 0. -1.
       -1    1    3    3    0  502  0.10228765591E+04 -0.41750526071E+03  0.97720208548E+03  0.14749613601E+04  0.50400001928E-02 0.  1.
</event>
<event>
 5   0  0.4415080E-06  0.2584064E+04  0.7818609E-02  0.8373635E-01
       -1   -1    0    0    0  501  0.00000000000E+00  0.00000000000E+00  0.95030466572E+03  0.95030466573E+03  0.50400001928E-02 0. -1.
        1   -1    0    0  501    0  0.00000000000E+00  0.00000000000E+00 -0.17566436280E+04  0.17566436280E+04  0.50400001928E-02 0.  1.
    10030    2    1    2    0    0  0.00000000000E+00  0.00000000000E+00 -0.80633896230E+03  0.27069482938E+04  0.25840639588E+04 0.  0.
        2    1    3    3  502    0  0.74465380994E+03  0.61167272646E+03  0.49839347834E+03  0.10849188358E+04  0.25500000920E-02 0. -1.
       -2    1    3    3    0  502 -0.74465380994E+03 -0.61167272646E+03 -0.13047324406E+04  0.16220294580E+04  0.25500000920E-02 0.  1.
</event>
<event>
 5   0  0.1116310E-05  0.2598129E+04  0.7818609E-02  0.8368837E-01
       -2   -1    0    0    0  501  0.00000000000E+00  0.00000000000E+00  0.13693566724E+04  0.13693566724E+04  0.25500000920E-02 0.  1.
        2   -1    0    0  501    0  0.00000000000E+00  0.00000000000E+00 -0.12323807532E+04  0.12323807532E+04  0.25500000920E-02 0. -1.
    10030    2    1    2    0    0  0.00000000000E+00  0.00000000000E+00  0.13697591919E+03  0.26017374257E+04  0.25981291788E+04 0.  0.
        4    1    3    3  502    0 -0.64363524765E+03 -0.34594442536E+03  0.11440481928E+04  0.13574946621E+04  0.12699999809E+01 0.  1.
       -4    1    3    3    0  502  0.64363524765E+03  0.34594442536E+03 -0.10070722736E+04  0.12442427635E+04  0.12699999809E+01 0. -1.
</event>
<event>
 5   0  0.4218590E-06  0.2607460E+04  0.7818609E-02  0.8365672E-01
        1   -1    0    0  501    0  0.00000000000E+00  0.00000000000E+00  0.14179591974E+04  0.14179591974E+04  0.50400001928E-02 0.  1.
       -1   -1    0    0    0  501  0.00000000000E+00  0.00000000000E+00 -0.11987028612E+04  0.11987028612E+04  0.50400001928E-02 0. -1.
    10030    2    1    2    0    0  0.00000000000E+00  0.00000000000E+00  0.21925633621E+03  0.26166620587E+04  0.26074598728E+04 0.  0.
        1    1    3    3  502    0 -0.29433051835E+03 -0.45416984119E+03 -0.10806484128E+04  0.12085949242E+04  0.50400001928E-02 0. -1.
       -1    1    3    3    0  502  0.29433051835E+03  0.45416984119E+03  0.12999047490E+04  0.14080671345E+04  0.50400001928E-02 0.  1.
</event>
<event>
 5   0  0.4464297E-06  0.2594559E+04  0.7818609E-02  0.8370052E-01
       -1   -1    0    0    0  501  0.00000000000E+00  0.00000000000E+00  0.13703691868E+04  0.13703691868E+04  0.50400001928E-02 0.  1.
        1   -1    0    0  501    0  0.00000000000E+00  0.00000000000E+00 -0.12280884032E+04  0.12280884032E+04  0.50400001928E-02 0. -1.
    10030    2    1    2    0    0  0.00000000000E+00  0.00000000000E+00  0.14228078363E+03  0.25984575901E+04  0.25945593125E+04 0.  0.
        4    1    3    3  502    0  0.48983024389E+03 -0.82842661311E+03  0.94233736269E+03  0.13469319356E+04  0.12699999809E+01 0.  1.
       -4    1    3    3    0  502 -0.48983024389E+03  0.82842661311E+03 -0.80005657906E+03  0.12515256544E+04  0.12699999809E+01 0. -1.
</event>
<event>
 5   0  0.1136881E-05  0.2359813E+04  0.7818609E-02  0.8454704E-01
       -2   -1    0    0    0  501  0.00000000000E+00  0.00000000000E+00  0.13058005079E+04  0.13058005079E+04  0.25500000920E-02 0.  1.
        2   -1    0    0  501    0  0.00000000000E+00  0.00000000000E+00 -0.10661498729E+04  0.10661498729E+04  0.25500000920E-02 0. -1.
    10030    2    1    2    0    0  0.00000000000E+00  0.00000000000E+00  0.23965063497E+03  0.23719503808E+04  0.23598127430E+04 0.  0.
        3    1    3    3  502    0 -0.13648561901E+03  0.12140519002E+03 -0.10518510305E+04  0.10675945602E+04  0.10100000352E+00 0. -1.
       -3    1    3    3    0  502  0.13648561901E+03 -0.12140519002E+03  0.12915016655E+04  0.13043558205E+04  0.10100000352E+00 0.  1.
</event>
<event>
 5   0  0.4597705E-06  0.2609034E+04  0.7818609E-02  0.8365139E-01
        1   -1    0    0  501    0  0.00000000000E+00  0.00000000000E+00  0.18833826707E+04  0.18833826707E+04  0.50400001928E-02 0. -1.
       -1   -1    0    0    0  501  0.00000000000E+00  0.00000000000E+00 -0.90356849124E+03  0.90356849126E+03  0.50400001928E-02 0.  1.
    10030    2    1    2    0    0  0.00000000000E+00  0.00000000000E+00  0.97981417942E+03  0.27869511619E+04  0.26090344867E+04 0.  0.
        5    1    3    3  502    0 -0.95045912488E+03 -0.89088733219E+03  0.56306355206E+03  0.14191953496E+04  0.46999998093E+01 0. -1.
       -5    1    3    3    0  502  0.95045912488E+03  0.89088733219E+03  0.41675062736E+03  0.13677558123E+04  0.46999998093E+01 0.  1.
</event>
<event>
 5   0  0.1136881E-05  0.2656055E+04  0.7818609E-02  0.8349406E-01
       -2   -1    0    0    0  501  0.00000000000E+00  0.00000000000E+00  0.85641478475E+03  0.85641478476E+03  0.25500000920E-02 0. -1.
        2   -1    0    0  501    0  0.00000000000E+00  0.00000000000E+00 -0.20593496609E+04  0.20593496609E+04  0.25500000920E-02 0.  1.
    10030    2    1    2    0    0  0.00000000000E+00  0.00000000000E+00 -0.12029348761E+04  0.29157644457E+04  0.26560553432E+04 0.  0.
        3    1    3    3  502    0 -0.17767207997E+03 -0.13806559298E+03 -0.20382715033E+04  0.20506536049E+04  0.10100000352E+00 0.  1.
       -3    1    3    3    0  502  0.17767207997E+03  0.13806559298E+03  0.83533662714E+03  0.86511084076E+03  0.10100000352E+00 0. -1.
</event>
<event>
 5   0  0.4464297E-06  0.2597267E+04  0.7818609E-02  0.8369130E-01
        1   -1    0    0  501    0  0.00000000000E+00  0.00000000000E+00  0.25359127407E+04  0.25359127407E+04  0.50400001928E-02 0. -1.
       -1   -1    0    0    0  501  0.00000000000E+00  0.00000000000E+00 -0.66502634915E+03  0.66502634917E+03  0.50400001928E-02 0.  1.
    10030    2    1    2    0    0  0.00000000000E+00  0.00000000000E+00  0.18708863915E+04  0.32009390899E+04  0.25972668648E+04 0.  0.
        4    1    3    3  502    0  0.91600490534E+02 -0.23929957265E+02 -0.66076675427E+03  0.66751599919E+03  0.12699999809E+01 0.  1.
       -4    1    3    3    0  502 -0.91600490534E+02  0.23929957265E+02  0.25316531458E+04  0.25334230907E+04  0.12699999809E+01 0. -1.
</event>
<event>
 5   0  0.4597705E-06  0.2610919E+04  0.7818609E-02  0.8364502E-01
       -1   -1    0    0    0  501  0.00000000000E+00  0.00000000000E+00  0.12229158608E+04  0.12229158608E+04  0.50400001928E-02 0. -1.
        1   -1    0    0  501    0  0.00000000000E+00  0.00000000000E+00 -0.13935747289E+04  0.13935747289E+04  0.50400001928E-02 0.  1.
    10030    2    1    2    0    0  0.00000000000E+00  0.00000000000E+00 -0.17065886811E+03  0.26164905896E+04  0.26109191019E+04 0.  0.
        5    1    3    3  502    0  0.55391910389E+02 -0.50397398709E+03  0.11202108064E+04  0.12296147300E+04  0.46999998093E+01 0. -1.
       -5    1    3    3    0  502 -0.55391910389E+02  0.50397398709E+03 -0.12908696745E+04  0.13868758596E+04  0.46999998093E+01 0.  1.
</event>
<event>
 5   0  0.1085255E-05  0.2566881E+04  0.7818609E-02  0.8379539E-01
       -2   -1    0    0    0  501  0.00000000000E+00  0.00000000000E+00  0.70030256619E+03  0.70030256620E+03  0.25500000920E-02 0.  1.
        2   -1    0    0  501    0  0.00000000000E+00  0.00000000000E+00 -0.23521544904E+04  0.23521544904E+04  0.25500000920E-02 0. -1.
    10030    2    1    2    0    0  0.00000000000E+00  0.00000000000E+00 -0.16518519242E+04  0.30524570566E+04  0.25668812405E+04 0.  0.
        5    1    3    3  502    0  0.58031419731E+02 -0.10937701935E+01 -0.23505827502E+04  0.23513039356E+04  0.46999998093E+01 0. -1.
       -5    1    3    3    0  502 -0.58031419731E+02  0.10937701935E+01  0.69873082595E+03  0.70115312104E+03  0.46999998093E+01 0.  1.
</event>
<event>
 5   0  0.4218590E-06  0.2632497E+04  0.7818609E-02  0.8357246E-01
       -1   -1    0    0    0  501  0.00000000000E+00  0.00000000000E+00  0.18727161649E+04  0.18727161649E+04  0.50400001928E-02 0. -1.
        1   -1    0    0  501    0  0.00000000000E+00  0.00000000000E+00 -0.92513193343E+03  0.92513193344E+03  0.50400001928E-02 0.  1.
    10030    2    1    2    0    0  0.00000000000E+00  0.00000000000E+00  0.94758423143E+03  0.27978480983E+04  0.26324965537E+04 0.  0.
        1    1    3    3  502    0 -0.12794675608E+04 -0.24203458931E+03  0.67792818152E+03  0.14680615113E+04  0.50400001928E-02 0. -1.
       -1    1    3    3    0  502  0.12794675608E+04  0.24203458931E+03  0.26965604990E+03  0.13297865870E+04  0.50400001928E-02 0.  1.
</event>
<event>
 5   0  0.1085255E-05  0.2569371E+04  0.7818609E-02  0.8378680E-01
        2   -1    0    0  501    0  0.00000000000E+00  0.00000000000E+00  0.11680718664E+04  0.11680718664E+04  0.25500000920E-02 0. -1.
       -2   -1    0    0    0  501  0.00000000000E+00  0.00000000000E+00 -0.14129412156E+04  0.14129412156E+04  0.25500000920E-02 0.  1.
    10030    2    1    2    0    0  0.00000000000E+00  0.00000000000E+00 -0.24486934923E+03  0.25810130820E+04  0.25693710381E+04 0.  0.
        5    1    3    3  502    0  0.12289801104E+04  0.31870295199E+03  0.74492134211E+02  0.12718234356E+04  0.46999998093E+01 0. -1.
       -5    1    3    3    0  502 -0.12289801104E+04 -0.31870295199E+03 -0.31936148344E+03  0.13091896464E+04  0.46999998093E+01 0.  1.
</event>
<event>
 5   0  0.4415080E-06  0.2598154E+04  0.7818609E-02  0.8368829E-01
       -1   -1    0    0    0  501  0.00000000000E+00  0.00000000000E+00  0.10455382851E+04  0.10455382851E+04  0.50400001928E-02 0. -1.
        1   -1    0    0  501    0  0.00000000000E+00  0.00000000000E+00 -0.16140971913E+04  0.16140971913E+04  0.50400001928E-02 0.  1.
    10030    2    1    2    0    0  0.00000000000E+00  0.00000000000E+00 -0.56855890624E+03  0.26596354764E+04  0.25981535054E+04 0.  0.
        2    1    3    3  502    0 -0.76062034133E+03  0.99419487848E+01 -0.13622698979E+04  0.15602632536E+04  0.25500000920E-02 0.  1.
       -2    1    3    3    0  502  0.76062034133E+03 -0.99419487848E+01  0.79371099163E+03  0.10993722228E+04  0.25500000920E-02 0. -1.
</event>
<event>
 5   0  0.4361864E-06  0.2622967E+04  0.7818609E-02  0.8360441E-01
       -1   -1    0    0    0  501  0.00000000000E+00  0.00000000000E+00  0.12324003637E+04  0.12324003637E+04  0.50400001928E-02 0. -1.
        1   -1    0    0  501    0  0.00000000000E+00  0.00000000000E+00 -0.13956418542E+04  0.13956418542E+04  0.50400001928E-02 0.  1.
    10030    2    1    2    0    0  0.00000000000E+00  0.00000000000E+00 -0.16324149051E+03  0.26280422179E+04  0.26229674254E+04 0.  0.
        3    1    3    3  502    0  0.28019154504E+03  0.87444950222E+03  0.85657775563E+03  0.12557446777E+04  0.10100000352E+00 0. -1.
       -3    1    3    3    0  502 -0.28019154504E+03 -0.87444950222E+03 -0.10198192461E+04  0.13722975402E+04  0.10100000352E+00 0.  1.
</event>
<event>
 5   0  0.4597705E-06  0.2638641E+04  0.7818609E-02  0.8355193E-01
       -1   -1    0    0    0  501  0.00000000000E+00  0.00000000000E+00  0.13998224582E+04  0.13998224582E+04  0.50400001928E-02 0. -1.
        1   -1    0    0  501    0  0.00000000000E+00  0.00000000000E+00 -0.12434477881E+04  0.12434477881E+04  0.50400001928E-02 0.  1.
    10030    2    1    2    0    0  0.00000000000E+00  0.00000000000E+00  0.15637467010E+03  0.26432702463E+04  0.26386406648E+04 0.  0.
        5    1    3    3  502    0 -0.55657077793E+03 -0.11960147548E+04  0.59134896855E+02  0.13205079896E+04  0.46999998093E+01 0. -1.
       -5    1    3    3    0  502  0.55657077793E+03  0.11960147548E+04  0.97239773243E+02  0.13227622568E+04  0.46999998093E+01 0.  1.
</event>
<event>
 5   0  0.1086507E-05  0.2588322E+04  0.7818609E-02  0.8372179E-01
        2   -1    0    0  501    0  0.00000000000E+00  0.00000000000E+00  0.16231747133E+04  0.16231747133E+04  0.25500000920E-02 0. -1.
       -2   -1    0    0    0  501  0.00000000000E+00  0.00000000000E+00 -0.10318374431E+04  0.10318374431E+04  0.25500000920E-02 0.  1.
    10030    2    1    2    0    0  0.00000000000E+00  0.00000000000E+00  0.59133727026E+03  0.26550121564E+04  0.25883218083E+04 0.  0.
        2    1    3    3  502    0  0.56278520572E+03  0.39765356615E+03 -0.82800011822E+03  0.10772370873E+04  0.25500000920E-02 0.  1.
       -2    1    3    3    0  502 -0.56278520572E+03 -0.39765356615E+03  0.14193373885E+04  0.15777750691E+04  0.25500000920E-02 0. -1.
</event>
<event>
 5   0  0.1085061E-05  0.2609240E+04  0.7818609E-02  0.8365069E-01
       -2   -1    0    0    0  501  0.00000000000E+00  0.00000000000E+00  0.11395244472E+04  0.11395244472E+04  0.25500000920E-02 0.  1.
        2   -1    0    0  501    0  0.00000000000E+00  0.00000000000E+00 -0.14936350352E+04  0.14936350352E+04  0.25500000920E-02 0. -1.
    10030    2    1    2    0    0  0.00000000000E+00  0.00000000000E+00 -0.35411058802E+03  0.26331594824E+04  0.26092402249E+04 0.  0.
        1    1    3    3  502    0  0.30827130424E+03  0.99884819882E+03  0.61068011680E+03  0.12106440957E+04  0.50400001928E-02 0.  1.
       -1    1    3    3    0  502 -0.30827130424E+03 -0.99884819882E+03 -0.96479070483E+03  0.14225153867E+04  0.50400001928E-02 0. -1.
</event>
<event>
 5   0  0.4218590E-06  0.2606703E+04  0.7818609E-02  0.8365928E-01
        1   -1    0    0  501    0  0.00000000000E+00  0.00000000000E+00  0.14870569623E+04  0.14870569623E+04  0.50400001928E-02 0.  1.
       -1   -1    0    0    0  501  0.00000000000E+00  0.00000000000E+00 -0.11423406894E+04  0.11423406894E+04  0.50400001928E-02 0. -1.
    10030    2    1    2    0    0  0.00000000000E+00  0.00000000000E+00  0.34471627289E+03  0.26293976517E+04  0.26067034166E+04 0.  0.
        1    1    3    3  502    0 -0.16482578711E+03  0.49617213982E+03 -0.10319251557E+04  0.11568162600E+04  0.50400001928E-02 0. -1.
       -1    1    3    3    0  502  0.16482578711E+03 -0.49617213982E+03  0.13766414286E+04  0.14725813917E+04  0.50400001928E-02 0.  1.
</event>
<event>
 5   0  0.4361864E-06  0.2644913E+04  0.7818609E-02  0.8353103E-01
       -1   -1    0    0    0  501  0.00000000000E+00  0.00000000000E+00  0.82183364449E+03  0.82183364451E+03  0.50400001928E-02 0. -1.
        1   -1    0    0  501    0  0.00000000000E+00  0.00000000000E+00 -0.21280358364E+04  0.21280358364E+04  0.50400001928E-02 0.  1.
    10030    2    1    2    0    0  0.00000000000E+00  0.00000000000E+00 -0.13062021919E+04  0.29498694809E+04  0.26449131911E+04 0.  0.
        3    1    3    3  502    0  0.31337865549E+03 -0.12832951631E+04 -0.72220267265E+03  0.15055329183E+04  0.10100000352E+00 0.  1.
       -3    1    3    3    0  502 -0.31337865549E+03  0.12832951631E+04 -0.58399951927E+03  0.14443365626E+04  0.10100000352E+00 0. -1.
</event>
<event>
 5   0  0.4361864E-06  0.2612540E+04  0.7818609E-02  0.8363954E-01
        1   -1    0    0  501    0  0.00000000000E+00  0.00000000000E+00  0.18307049343E+04  0.18307049343E+04  0.50400001928E-02 0.  1.
       -1   -1    0    0    0  501  0.00000000000E+00  0.00000000000E+00 -0.93206805521E+03  0.93206805522E+03  0.50400001928E-02 0. -1.
    10030    2    1    2    0    0  0.00000000000E+00  0.00000000000E+00  0.89863687905E+03  0.27627729895E+04  0.26125402104E+04 0.  0.
        3    1    3    3  502    0 -0.13140935285E+03 -0.57362856870E+03  0.16825806163E+04  0.17825250891E+04  0.10100000352E+00 0.  1.
       -3    1    3    3    0  502  0.13140935285E+03  0.57362856870E+03 -0.78394373723E+03  0.98024790037E+03  0.10100000352E+00 0. -1.
</event>
<event>
 5   0  0.4464297E-06  0.2812711E+04  0.7818609E-02  0.8299333E-01
        1   -1    0    0  501    0  0.00000000000E+00  0.00000000000E+00  0.13926532823E+04  0.13926532823E+04  0.50400001928E-02 0. -1.
       -1   -1    0    0    0  501  0.00000000000E+00  0.00000000000E+00 -0.14201929442E+04  0.14201929442E+04  0.50400001928E-02 0.  1.
    10030    2    1    2    0    0  0.00000000000E+00  0.00000000000E+00 -0.27539661936E+02  0.28128462265E+04  0.28127114073E+04 0.  0.
        4    1    3    3  502    0  0.24366928714E+02 -0.12920711102E+03 -0.14140321201E+04  0.14201326256E+04  0.12699999809E+01 0.  1.
       -4    1    3    3    0  502 -0.24366928714E+02  0.12920711102E+03  0.13864924581E+04  0.13927136009E+04  0.12699999809E+01 0. -1.
</event>
<event>
 5   0  0.1085061E-05  0.2637359E+04  0.7818609E-02  0.8355621E-01
       -2   -1    0    0    0  501  0.00000000000E+00  0.00000000000E+00  0.11535498801E+04  0.11535498801E+04  0.25500000920E-02 0. -1.
        2   -1    0    0  501    0  0.00000000000E+00  0.00000000000E+00 -0.15074472062E+04  0.15074472062E+04  0.25500000920E-02 0.  1.
    10030    2    1    2    0    0  0.00000000000E+00  0.00000000000E+00 -0.35389732613E+03  0.26609970863E+04  0.26373589395E+04 0.  0.
        1    1    3    3  502    0  0.20547788708E+03 -0.61632079792E+03 -0.13347716497E+04  0.14844823491E+04  0.50400001928E-02 0.  1.
       -1    1    3    3    0  502 -0.20547788708E+03  0.61632079792E+03  0.98087432358E+03  0.11765147371E+04  0.50400001928E-02 0. -1.
</event>
<event>
 5   0  0.1136881E-05  0.2602784E+04  0.7818609E-02  0.8367256E-01
        2   -1    0    0  501    0  0.00000000000E+00  0.00000000000E+00  0.18757716286E+04  0.18757716286E+04  0.25500000920E-02 0.  1.
       -2   -1    0    0    0  501  0.00000000000E+00  0.00000000000E+00 -0.90289314628E+03  0.90289314628E+03  0.25500000920E-02 0. -1.
    10030    2    1    2    0    0  0.00000000000E+00  0.00000000000E+00  0.97287848232E+03  0.27786647749E+04  0.26027841612E+04 0.  0.
        3    1    3    3  502    0 -0.21932455870E+03 -0.44251924043E+03  0.17718333065E+04  0.18393802805E+04  0.10100000352E+00 0.  1.
       -3    1    3    3    0  502  0.21932455870E+03  0.44251924043E+03 -0.79895482413E+03  0.93928449439E+03  0.10100000352E+00 0. -1.
</event>
<event>
 5   0  0.4361864E-06  0.2599090E+04  0.7818609E-02  0.8368510E-01
       -1   -1    0    0    0  501  0.00000000000E+00  0.00000000000E+00  0.11199496745E+04  0.11199496745E+04  0.50400001928E-02 0. -1.
        1   -1    0    0  501    0  0.00000000000E+00  0.00000000000E+00 -0.15079400966E+04  0.15079400966E+04  0.50400001928E-02 0.  1.
    10030    2    1    2    0    0  0.00000000000E+00  0.00000000000E+00 -0.38799042207E+03  0.26278897711E+04  0.25990898563E+04 0.  0.
        3    1    3    3  502    0 -0.36861809179E+02  0.10100626287E+04 -0.10198889749E+04  0.14358825990E+04  0.10100000352E+00 0.  1.
       -3    1    3    3    0  502  0.36861809179E+02 -0.10100626287E+04  0.63189855280E+03  0.11920071720E+04  0.10100000352E+00 0. -1.
</event>
<event>
 5   0  0.1116310E-05  0.2623919E+04  0.7818609E-02  0.8360122E-01
       -2   -1    0    0    0  501  0.00000000000E+00  0.00000000000E+00  0.93101339671E+03  0.93101339671E+03  0.25500000920E-02 0. -1.
        2   -1    0    0  501    0  0.00000000000E+00  0.00000000000E+00 -0.18487789790E+04  0.18487789790E+04  0.25500000920E-02 0.  1.
    10030    2    1    2    0    0  0.00000000000E+00  0.00000000000E+00 -0.91776558227E+03  0.27797923757E+04  0.26239192038E+04 0.  0.
        4    1    3    3  502    0 -0.77260474826E+03  0.52260748919E+03  0.51852913112E+03  0.10671976188E+04  0.12699999809E+01 0. -1.
       -4    1    3    3    0  502  0.77260474826E+03 -0.52260748919E+03 -0.14362947134E+04  0.17125947569E+04  0.12699999809E+01 0.  1.
</event>
<event>
 5   0  0.4361864E-06  0.2606401E+04  0.7818609E-02  0.8366030E-01
        1   -1    0    0  501    0  0.00000000000E+00  0.00000000000E+00  0.14751160286E+04  0.14751160286E+04  0.50400001928E-02 0.  1.
       -1   -1    0    0    0  501  0.00000000000E+00  0.00000000000E+00 -0.11513202271E+04  0.11513202271E+04  0.50400001928E-02 0. -1.
    10030    2    1    2    0    0  0.00000000000E+00  0.00000000000E+00  0.32379580143E+03  0.26264362557E+04  0.26064005226E+04 0.  0.
        3    1    3    3  502    0 -0.74375467267E+03 -0.10589592816E+04  0.31724239915E+03  0.13323695145E+04  0.10100000352E+00 0. -1.
       -3    1    3    3    0  502  0.74375467267E+03  0.10589592816E+04  0.65534022757E+01  0.12940667412E+04  0.10100000352E+00 0.  1.
</event>
<event>
 5   0  0.4361864E-06  0.2608843E+04  0.7818609E-02  0.8365204E-01
       -1   -1    0    0    0  501  0.00000000000E+00  0.00000000000E+00  0.12244196159E+04  0.12244196159E+04  0.50400001928E-02 0.  1.
        1   -1    0    0  501    0  0.00000000000E+00  0.00000000000E+00 -0.13896507218E+04  0.13896507218E+04  0.50400001928E-02 0. -1.
    10030    2    1    2    0    0  0.00000000000E+00  0.00000000000E+00 -0.16523110593E+03  0.26140703378E+04  0.26088431176E+04 0.  0.
        3    1    3    3  502    0 -0.55358479376E+03 -0.26001004236E+03  0.10718449684E+04  0.12340636096E+04  0.10100000352E+00 0.  1.
       -3    1    3    3    0  502  0.55358479376E+03  0.26001004236E+03 -0.12370760743E+04  0.13800067282E+04  0.10100000352E+00 0. -1.
</event>
<event>
 5   0  0.1085255E-05  0.2591049E+04  0.7818609E-02  0.8371248E-01
        2   -1    0    0  501    0  0.00000000000E+00  0.00000000000E+00  0.11963783986E+04  0.11963783986E+04  0.25500000920E-02 0.  1.
       -2   -1    0    0    0  501  0.00000000000E+00  0.00000000000E+00 -0.14028867456E+04  0.14028867456E+04  0.25500000920E-02 0. -1.
    10030    2    1    2    0    0  0.00000000000E+00  0.00000000000E+00 -0.20650834703E+03  0.25992651442E+04  0.25910487437E+04 0.  0.
        5    1    3    3  502    0 -0.33850608767E+03 -0.12472396727E+04 -0.12589840716E+02  0.12924294049E+04  0.46999998093E+01 0.  1.
       -5    1    3    3    0  502  0.33850608767E+03  0.12472396727E+04 -0.19391850632E+03  0.13068357393E+04  0.46999998093E+01 0. -1.
</event>
<event>
 5   0  0.4464297E-06  0.2597798E+04  0.7818609E-02  0.8368950E-01
        1   -1    0    0  501    0  0.00000000000E+00  0.00000000000E+00  0.19307657340E+04  0.19307657340E+04  0.50400001928E-02 0.  1.
       -1   -1    0    0    0  501  0.00000000000E+00  0.00000000000E+00 -0.87381822028E+03  0.87381822029E+03  0.50400001928E-02 0. -1.
    10030    2    1    2    0    0  0.00000000000E+00  0.00000000000E+00  0.10569475137E+04  0.28045839543E+04  0.25977977423E+04 0.  0.
        4    1    3    3  502    0  0.48142051148E+03 -0.56162248184E+03 -0.62419953199E+03  0.96789058763E+03  0.12699999809E+01 0. -1.
       -4    1    3    3    0  502 -0.48142051148E+03  0.56162248184E+03  0.16811470457E+04  0.18366933667E+04  0.12699999809E+01 0.  1.
</event>
<event>
 5   0  0.4361864E-06  0.2650220E+04  0.7818609E-02  0.8351340E-01
        1   -1    0    0  501    0  0.00000000000E+00  0.00000000000E+00  0.86073501217E+03  0.86073501218E+03  0.50400001928E-02 0. -1.
       -1   -1    0    0    0  501  0.00000000000E+00  0.00000000000E+00 -0.20400191969E+04  0.20400191969E+04  0.50400001928E-02 0.  1.
    10030    2    1    2    0    0  0.00000000000E+00  0.00000000000E+00 -0.11792841847E+04  0.29007542091E+04  0.26502195745E+04 0.  0.
        3    1    3    3  502    0 -0.62961115280E+03 -0.68657033781E+02  0.68434602364E+03  0.93244489504E+03  0.10100000352E+00 0. -1.
       -3    1    3    3    0  502  0.62961115280E+03  0.68657033781E+02 -0.18636302084E+04  0.19683093140E+04  0.10100000352E+00 0.  1.
</event>
<event>
 5   0  0.1086507E-05  0.2604138E+04  0.7818609E-02  0.8366797E-01
       -2   -1    0    0    0  501  0.00000000000E+00  0.00000000000E+00  0.70163364089E+03  0.70163364090E+03  0.25500000920E-02 0.  1.
        2   -1    0    0  501    0  0.00000000000E+00  0.00000000000E+00 -0.24163367512E+04  0.24163367512E+04  0.25500000920E-02 0. -1.
    10030    2    1    2    0    0  0.00000000000E+00  0.00000000000E+00 -0.17147031103E+04  0.31179703921E+04  0.26041375942E+04 0.  0.
        2    1    3    3  502    0  0.12593154347E+04  0.32431351529E+03 -0.77857837539E+03  0.15156645100E+04  0.25500000920E-02 0.  1.
       -2    1    3    3    0  502 -0.12593154347E+04 -0.32431351529E+03 -0.93612473494E+03  0.16023058821E+04  0.25500000920E-02 0. -1.
</event>
<event>
 5   0  0.4464297E-06  0.2583828E+04  0.7818609E-02  0.8373715E-01
        1   -1    0    0  501    0  0.00000000000E+00  0.00000000000E+00  0.13459013177E+04  0.13459013177E+04  0.50400001928E-02 0.  1.
       -1   -1    0    0    0  501  0.00000000000E+00  0.00000000000E+00 -0.12400918533E+04  0.12400918533E+04  0.50400001928E-02 0. -1.
    10030    2    1    2    0    0  0.00000000000E+00  0.00000000000E+00  0.10580946439E+03  0.25859931710E+04  0.25838275944E+04 0.  0.
        4    1    3    3  502    0  0.11848905485E+04 -0.12892439969E+03  0.55177262844E+03  0.13134084510E+04  0.12699999809E+01 0.  1.
       -4    1    3    3    0  502 -0.11848905485E+04  0.12892439969E+03 -0.44596316405E+03  0.12725847199E+04  0.12699999809E+01 0. -1.
</event>
<event>
 5   0  0.1085061E-05  0.2596468E+04  0.7818609E-02  0.8369402E-01
       -2   -1    0    0    0  501  0.00000000000E+00  0.00000000000E+00  0.82965626193E+03  0.82965626193E+03  0.25500000920E-02 0. -1.
        2   -1    0    0  501    0  0.00000000000E+00  0.00000000000E+00 -0.20314583133E+04  0.20314583133E+04  0.25500000920E-02 0.  1.
    10030    2    1    2    0    0  0.00000000000E+00  0.00000000000E+00 -0.12018020513E+04  0.28611145752E+04  0.25964684558E+04 0.  0.
        1    1    3    3  502    0 -0.11880188776E+04 -0.52113363727E+03 -0.54643659581E+03  0.14076796776E+04  0.50400001928E-02 0.  1.
       -1    1    3    3    0  502  0.11880188776E+04  0.52113363727E+03 -0.65536545552E+03  0.14534348976E+04  0.50400001928E-02 0. -1.
</event>
<event>
 5   0  0.4415080E-06  0.2608356E+04  0.7818609E-02  0.8365368E-01
        1   -1    0    0  501    0  0.00000000000E+00  0.00000000000E+00  0.96534885880E+03  0.96534885881E+03  0.50400001928E-02 0. -1.
       -1   -1    0    0    0  501  0.00000000000E+00  0.00000000000E+00 -0.17619335708E+04  0.17619335708E+04  0.50400001928E-02 0.  1.
    10030    2    1    2    0    0  0.00000000000E+00  0.00000000000E+00 -0.79658471199E+03  0.27272824296E+04  0.26083562348E+04 0.  0.
        2    1    3    3  502    0  0.47010722988E+03 -0.21278839919E+03  0.85406638711E+03  0.99785224558E+03  0.25500000920E-02 0. -1.
       -2    1    3    3    0  502 -0.47010722988E+03  0.21278839919E+03 -0.16506510991E+04  0.17294301840E+04  0.25500000920E-02 0.  1.
</event>
<event>
 5   0  0.4464297E-06  0.2575331E+04  0.7818609E-02  0.8376629E-01
       -1   -1    0    0    0  501  0.00000000000E+00  0.00000000000E+00  0.12160771369E+04  0.12160771369E+04  0.50400001928E-02 0. -1.
        1   -1    0    0  501    0  0.00000000000E+00  0.00000000000E+00 -0.13634681994E+04  0.13634681994E+04  0.50400001928E-02 0.  1.
    10030    2    1    2    0    0  0.00000000000E+00  0.00000000000E+00 -0.14739106257E+03  0.25795453363E+04  0.25753310500E+04 0.  0.
        4    1    3    3  502    0 -0.79744709767E+03  0.98703855339E+03  0.14555513199E+03  0.12772450387E+04  0.12699999809E+01 0.  1.
       -4    1    3    3    0  502  0.79744709767E+03 -0.98703855339E+03 -0.29294619456E+03  0.13023002977E+04  0.12699999809E+01 0. -1.
</event>
<event>
 5   0  0.1136881E-05  0.2586598E+04  0.7818609E-02  0.8372768E-01
        2   -1    0    0  501    0  0.00000000000E+00  0.00000000000E+00  0.14142415182E+04  0.14142415182E+04  0.25500000920E-02 0. -1.
       -2   -1    0    0    0  501  0.00000000000E+00  0.00000000000E+00 -0.11826992089E+04  0.11826992089E+04  0.25500000920E-02 0.  1.
    10030    2    1    2    0    0  0.00000000000E+00  0.00000000000E+00  0.23154230935E+03  0.25969407271E+04  0.25865980165E+04 0.  0.
        3    1    3    3  502    0  0.54181124088E+02 -0.36681194679E+03 -0.11281890443E+04  0.11875593157E+04  0.10100000352E+00 0.  1.
       -3    1    3    3    0  502 -0.54181124088E+02  0.36681194679E+03  0.13597313536E+04  0.14093814114E+04  0.10100000352E+00 0. -1.
</event>
<event>
 5   0  0.4361864E-06  0.2613454E+04  0.7818609E-02  0.8363645E-01
        1   -1    0    0  501    0  0.00000000000E+00  0.00000000000E+00  0.28525994566E+04  0.28525994566E+04  0.50400001928E-02 0.  1.
       -1   -1    0    0    0  501  0.00000000000E+00  0.00000000000E+00 -0.59858945372E+03  0.59858945374E+03  0.50400001928E-02 0. -1.
    10030    2    1    2    0    0  0.00000000000E+00  0.00000000000E+00  0.22540100029E+04  0.34511889103E+04  0.26134543810E+04 0.  0.
        3    1    3    3  502    0 -0.11393619684E+04  0.24157888495E+03  0.19093996225E+04  0.22365851160E+04  0.10100000352E+00 0.  1.
       -3    1    3    3    0  502  0.11393619684E+04 -0.24157888495E+03  0.34461038036E+03  0.12146037943E+04  0.10100000352E+00 0. -1.
</event>
<event>
 5   0  0.1086507E-05  0.2593494E+04  0.7818609E-02  0.8370414E-01
       -2   -1    0    0    0  501  0.00000000000E+00  0.00000000000E+00  0.11407376745E+04  0.11407376745E+04  0.25500000920E-02 0.  1.
        2   -1    0    0  501    0  0.00000000000E+00  0.00000000000E+00 -0.14740925581E+04  0.14740925581E+04  0.25500000920E-02 0. -1.
    10030    2    1    2    0    0  0.00000000000E+00  0.00000000000E+00 -0.33335488360E+03  0.26148302327E+04  0.25934941039E+04 0.  0.
        2    1    3    3  502    0 -0.91617213003E+03 -0.75686462113E+03 -0.68992430935E+03  0.13741218939E+04  0.25500000920E-02 0. -1.
       -2    1    3    3    0  502  0.91617213003E+03  0.75686462113E+03  0.35656942574E+03  0.12407083388E+04  0.25500000920E-02 0.  1.
</event>
<event>
 5   0  0.1136881E-05  0.2606902E+04  0.7818609E-02  0.8365860E-01
       -2   -1    0    0    0  501  0.00000000000E+00  0.00000000000E+00  0.11334614475E+04  0.11334614475E+04  0.25500000920E-02 0. -1.
        2   -1    0    0  501    0  0.00000000000E+00  0.00000000000E+00 -0.14989347660E+04  0.14989347660E+04  0.25500000920E-02 0.  1.
    10030    2    1    2    0    0  0.00000000000E+00  0.00000000000E+00 -0.36547331852E+03  0.26323962135E+04  0.26069021996E+04 0.  0.
        3    1    3    3  502    0 -0.10213045208E+04 -0.24593433527E+03  0.59645598283E+03  0.12080175376E+04  0.10100000352E+00 0. -1.
       -3    1    3    3    0  502  0.10213045208E+04  0.24593433527E+03 -0.96192930135E+03  0.14243786759E+04  0.10100000352E+00 0.  1.
</event>
<event>
 5   0  0.1086507E-05  0.2596297E+04  0.7818609E-02  0.8369460E-01
        2   -1    0    0  501    0  0.00000000000E+00  0.00000000000E+00  0.12200505177E+04  0.12200505177E+04  0.25500000920E-02 0.  1.
       -2   -1    0    0    0  501  0.00000000000E+00  0.00000000000E+00 -0.13812452997E+04  0.13812452997E+04  0.25500000920E-02 0. -1.
    10030    2    1    2    0    0  0.00000000000E+00  0.00000000000E+00 -0.16119478193E+03  0.26012958174E+04  0.25962966263E+04 0.  0.
        2    1    3    3  502    0  0.47552635542E+03 -0.72741225919E+03 -0.10467856631E+04  0.13605198028E+04  0.25500000920E-02 0. -1.
       -2    1    3    3    0  502 -0.47552635542E+03  0.72741225919E+03  0.88559088114E+03  0.12407760146E+04  0.25500000920E-02 0.  1.
</event>
<event>
 5   0  0.1086507E-05  0.2576226E+04  0.7818609E-02  0.8376322E-01
       -2   -1    0    0    0  501  0.00000000000E+00  0.00000000000E+00  0.22512010451E+04  0.22512010451E+04  0.25500000920E-02 0.  1.
        2   -1    0    0  501    0  0.00000000000E+00  0.00000000000E+00 -0.73704464941E+03  0.73704464941E+03  0.25500000920E-02 0. -1.
    10030    2    1    2    0    0  0.00000000000E+00  0.00000000000E+00  0.15141563957E+04  0.29882456945E+04  0.25762264536E+04 0.  0.
        2    1    3    3  502    0  0.56878767185E+03 -0.11090088189E+04  0.11343960383E+04  0.16853113504E+04  0.25500000920E-02 0.  1.
       -2    1    3    3    0  502 -0.56878767185E+03  0.11090088189E+04  0.37976035739E+03  0.13029343441E+04  0.25500000920E-02 0. -1.
</event>
<event>
 5   0  0.4597705E-06  0.2594173E+04  0.7818609E-02  0.8370183E-01
        1   -1    0    0  501    0  0.00000000000E+00  0.00000000000E+00  0.24580660347E+04  0.24580660347E+04  0.50400001928E-02 0. -1.
       -1   -1    0    0    0  501  0.00000000000E+00  0.00000000000E+00 -0.68445403377E+03  0.68445403379E+03  0.50400001928E-02 0.  1.
    10030    2    1    2    0    0  0.00000000000E+00  0.00000000000E+00  0.17736120009E+04  0.31425200685E+04  0.25941728645E+04 0.  0.
        5    1    3    3  502    0  0.95530529869E+02  0.47684866319E+03 -0.56982093151E+03  0.74915199640E+03  0.46999998093E+01 0.  1.
       -5    1    3    3    0  502 -0.95530529869E+02 -0.47684866319E+03  0.23434329324E+04  0.23933680721E+04  0.46999998093E+01 0. -1.
</event>
<event>
 5   0  0.4218590E-06  0.2600483E+04  0.7818609E-02  0.8368037E-01
       -1   -1    0    0    0  501  0.00000000000E+00  0.00000000000E+00  0.81287480443E+03  0.81287480445E+03  0.50400001928E-02 0. -1.
        1   -1    0    0  501    0  0.00000000000E+00  0.00000000000E+00 -0.20798126978E+04  0.20798126978E+04  0.50400001928E-02 0.  1.
    10030    2    1    2    0    0  0.00000000000E+00  0.00000000000E+00 -0.12669378933E+04  0.28926875022E+04  0.26004825244E+04 0.  0.
        1    1    3    3  502    0  0.50293938931E+03  0.13208653985E+03 -0.19591141243E+04  0.20269491941E+04  0.50400001928E-02 0.  1.
       -1    1    3    3    0  502 -0.50293938931E+03 -0.13208653985E+03  0.69217623100E+03  0.86573830810E+03  0.50400001928E-02 0. -1.
</event>
<event>
 5   0  0.1086507E-05  0.2551547E+04  0.7818609E-02  0.8384848E-01
       -2   -1    0    0    0  501  0.00000000000E+00  0.00000000000E+00  0.12154846546E+04  0.12154846546E+04  0.25500000920E-02 0. -1.
        2   -1    0    0  501    0  0.00000000000E+00  0.00000000000E+00 -0.13390531999E+04  0.13390531999E+04  0.25500000920E-02 0.  1.
    10030    2    1    2    0    0  0.00000000000E+00  0.00000000000E+00 -0.12356854530E+03  0.25545378546E+04  0.25515474648E+04 0.  0.
        2    1    3    3  502    0  0.65841513863E+03 -0.42880849817E+03  0.94448641537E+03  0.12285934282E+04  0.25500000920E-02 0. -1.
       -2    1    3    3    0  502 -0.65841513863E+03  0.42880849817E+03 -0.10680549607E+04  0.13259444264E+04  0.25500000920E-02 0.  1.
</event>
<event>
 5   0  0.1086507E-05  0.2454391E+04  0.7818609E-02  0.8419416E-01
        2   -1    0    0  501    0  0.00000000000E+00  0.00000000000E+00  0.23528408652E+04  0.23528408652E+04  0.25500000920E-02 0. -1.
       -2   -1    0    0    0  501  0.00000000000E+00  0.00000000000E+00 -0.64008124265E+03  0.64008124266E+03  0.25500000920E-02 0.  1.
    10030    2    1    2    0    0  0.00000000000E+00  0.00000000000E+00  0.17127596226E+04  0.29929221079E+04  0.24543914152E+04 0.  0.
        2    1    3    3  502    0  0.65773960713E+03 -0.91127612750E+03  0.14574460258E+04  0.18404332342E+04  0.25500000920E-02 0. -1.
       -2    1    3    3    0  502 -0.65773960713E+03  0.91127612750E+03  0.25531359679E+03  0.11524888737E+04  0.25500000920E-02 0.  1.
</event>
<event>
 5   0  0.1136881E-05  0.2550580E+04  0.7818609E-02  0.8385184E-01
        2   -1    0    0  501    0  0.00000000000E+00  0.00000000000E+00  0.17450488793E+04  0.17450488793E+04  0.25500000920E-02 0.  1.
       -2   -1    0    0    0  501  0.00000000000E+00  0.00000000000E+00 -0.93198833734E+03  0.93198833734E+03  0.25500000920E-02 0. -1.
    10030    2    1    2    0    0  0.00000000000E+00  0.00000000000E+00  0.81306054200E+03  0.26770372167E+04  0.25505804858E+04 0.  0.
        3    1    3    3  502    0 -0.86865496389E+03 -0.41491174829E+03 -0.47139270003E+03  0.10718788612E+04  0.10100000352E+00 0. -1.
       -3    1    3    3    0  502  0.86865496389E+03  0.41491174829E+03  0.12844532420E+04  0.16051583555E+04  0.10100000352E+00 0.  1.
</event>
<event>
 5   0  0.4415080E-06  0.2579933E+04  0.7818609E-02  0.8375050E-01
        1   -1    0    0  501    0  0.00000000000E+00  0.00000000000E+00  0.97589116034E+03  0.97589116036E+03  0.50400001928E-02 0.  1.
       -1   -1    0    0    0  501  0.00000000000E+00  0.00000000000E+00 -0.17051219055E+04  0.17051219055E+04  0.50400001928E-02 0. -1.
    10030    2    1    2    0    0  0.00000000000E+00  0.00000000000E+00 -0.72923074512E+03  0.26810130658E+04  0.25799328634E+04 0.  0.
        2    1    3    3  502    0 -0.10540544940E+04  0.38924591641E+03  0.29382605516E+03  0.11614116456E+04  0.25500000920E-02 0.  1.
       -2    1    3    3    0  502  0.10540544940E+04 -0.38924591641E+03 -0.10230568003E+04  0.15196014202E+04  0.25500000920E-02 0. -1.
</event>
<event>
 5   0  0.4218590E-06  0.2596169E+04  0.7818609E-02  0.8369504E-01
        1   -1    0    0  501    0  0.00000000000E+00  0.00000000000E+00  0.83630565982E+03  0.83630565984E+03  0.50400001928E-02 0. -1.
       -1   -1    0    0    0  501  0.00000000000E+00  0.00000000000E+00 -0.20148407638E+04  0.20148407638E+04  0.50400001928E-02 0.  1.
    10030    2    1    2    0    0  0.00000000000E+00  0.00000000000E+00 -0.11785351040E+04  0.28511464236E+04  0.25961685110E+04 0.  0.
        1    1    3    3  502    0 -0.65601573046E+03  0.26196130416E+03 -0.17852828802E+04  0.19199519072E+04  0.50400001928E-02 0.  1.
       -1    1    3    3    0  502  0.65601573046E+03 -0.26196130416E+03  0.60674777624E+03  0.93119451646E+03  0.50400001928E-02 0. -1.
</event>
<event>
 5   0  0.1086507E-05  0.2556953E+04  0.7818609E-02  0.8382972E-01
       -2   -1    0    0    0  501  0.00000000000E+00  0.00000000000E+00  0.14690060791E+04  0.14690060791E+04  0.25500000920E-02 0. -1.
        2   -1    0    0  501    0  0.00000000000E+00  0.00000000000E+00 -0.11126586627E+04  0.11126586627E+04  0.25500000920E-02 0.  1.
    10030    2    1    2    0    0  0.00000000000E+00  0.00000000000E+00  0.35634741633E+03  0.25816647418E+04  0.25569531396E+04 0.  0.
        2    1    3    3  502    0 -0.59441624433E+03 -0.11087469770E+04 -0.51736910737E+02  0.12590977875E+04  0.25500000920E-02 0. -1.
       -2    1    3    3    0  502  0.59441624433E+03  0.11087469770E+04  0.40808432706E+03  0.13225669543E+04  0.25500000920E-02 0.  1.
</event>
<event>
 5   0  0.1085255E-05  0.2602468E+04  0.7818609E-02  0.8367363E-01
       -2   -1    0    0    0  501  0.00000000000E+00  0.00000000000E+00  0.85378788185E+03  0.85378788185E+03  0.25500000920E-02 0.  1.
        2   -1    0    0  501    0  0.00000000000E+00  0.00000000000E+00 -0.19831734112E+04  0.19831734112E+04  0.25500000920E-02 0. -1.
    10030    2    1    2    0    0  0.00000000000E+00  0.00000000000E+00 -0.11293855294E+04  0.28369612931E+04  0.26024676183E+04 0.  0.
        5    1    3    3  502    0 -0.82657909624E+03  0.78990798609E+03 -0.12419623357E+04  0.16880995712E+04  0.46999998093E+01 0. -1.
       -5    1    3    3    0  502  0.82657909624E+03 -0.78990798609E+03  0.11257680631E+03  0.11488617219E+04  0.46999998093E+01 0.  1.
</event>
<event>
 5   0  0.4415080E-06  0.2612480E+04  0.7818609E-02  0.8363974E-01
        1   -1    0    0  501    0  0.00000000000E+00  0.00000000000E+00  0.11036366011E+04  0.11036366011E+04  0.50400001928E-02 0.  1.
       -1   -1    0    0    0  501  0.00000000000E+00  0.00000000000E+00 -0.15460372458E+04  0.15460372458E+04  0.50400001928E-02 0. -1.
    10030    2    1    2    0    0  0.00000000000E+00  0.00000000000E+00 -0.44240064470E+03  0.26496738468E+04  0.26124802706E+04 0.  0.
        2    1    3    3  502    0 -0.27719074580E+03  0.97968850849E+03  0.60876466530E+03  0.11862624924E+04  0.25500000920E-02 0.  1.
       -2    1    3    3    0  502  0.27719074580E+03 -0.97968850849E+03 -0.10511653100E+04  0.14634113544E+04  0.25500000920E-02 0. -1.
</event>
<event>
 5   0  0.4597705E-06  0.2607670E+04  0.7818609E-02  0.8365600E-01
       -1   -1    0    0    0  501  0.00000000000E+00  0.00000000000E+00  0.78768623099E+03  0.78768623101E+03  0.50400001928E-02 0.  1.
        1   -1    0    0  501    0  0.00000000000E+00  0.00000000000E+00 -0.21582021573E+04  0.21582021573E+04  0.50400001928E-02 0. -1.
    10030    2    1    2    0    0  0.00000000000E+00  0.00000000000E+00 -0.13705159263E+04  0.29458883883E+04  0.26076703189E+04 0.  0.
        5    1    3    3  502    0 -0.13504077362E+03  0.61983564486E+03 -0.19720922068E+04  0.20716182079E+04  0.46999998093E+01 0. -1.
       -5    1    3    3    0  502  0.13504077362E+03 -0.61983564486E+03  0.60157628047E+03  0.87427018043E+03  0.46999998093E+01 0.  1.
</event>
<event>
 5   0  0.1116310E-05  0.2586170E+04  0.7818609E-02  0.8372914E-01
       -2   -1    0    0    0  501  0.00000000000E+00  0.00000000000E+00  0.81746980606E+03  0.81746980606E+03  0.25500000920E-02 0. -1.
        2   -1    0    0  501    0  0.00000000000E+00  0.00000000000E+00 -0.20454196774E+04  0.20454196774E+04  0.25500000920E-02 0.  1.
    10030    2    1    2    0    0  0.00000000000E+00  0.00000000000E+00 -0.12279498714E+04  0.28628894835E+04  0.25861700076E+04 0.  0.
        4    1    3    3  502    0  0.62228619871E+03  0.55646988510E+03 -0.17071439549E+04  0.19003265356E+04  0.12699999809E+01 0.  1.
       -4    1    3    3    0  502 -0.62228619871E+03 -0.55646988510E+03  0.47919408353E+03  0.96256294792E+03  0.12699999809E+01 0. -1.
</event>
<event>
 5   0  0.4361864E-06  0.2611718E+04  0.7818609E-02  0.8364232E-01
        1   -1    0    0  501    0  0.00000000000E+00  0.00000000000E+00  0.13530951410E+04  0.13530951410E+04  0.50400001928E-02 0. -1.
       -1   -1    0    0    0  501  0.00000000000E+00  0.00000000000E+00 -0.12602721274E+04  0.12602721274E+04  0.50400001928E-02 0.  1.
    10030    2    1    2    0    0  0.00000000000E+00  0.00000000000E+00  0.92823013598E+02  0.26133672684E+04  0.26117182788E+04 0.  0.
        3    1    3    3  502    0 -0.54292259268E+03  0.10564205757E+04 -0.49659004131E+03  0.12873970071E+04  0.10100000352E+00 0.  1.
       -3    1    3    3    0  502  0.54292259268E+03 -0.10564205757E+04  0.58941305490E+03  0.13259702613E+04  0.10100000352E+00 0. -1.
</event>
<event>
 5   0  0.4415080E-06  0.2654232E+04  0.7818609E-02  0.8350010E-01
       -1   -1    0    0    0  501  0.00000000000E+00  0.00000000000E+00  0.10626950279E+04  0.10626950279E+04  0.50400001928E-02 0.  1.
        1   -1    0    0  501    0  0.00000000000E+00  0.00000000000E+00 -0.16573306735E+04  0.16573306736E+04  0.50400001928E-02 0. -1.
    10030    2    1    2    0    0  0.00000000000E+00  0.00000000000E+00 -0.59463564567E+03  0.27200257014E+04  0.26542321423E+04 0.  0.
        2    1    3    3  502    0  0.50112750394E+03 -0.67793217183E+03 -0.13476713383E+04  0.15896348137E+04  0.25500000920E-02 0. -1.
       -2    1    3    3    0  502 -0.50112750394E+03  0.67793217183E+03  0.75303569261E+03  0.11303908878E+04  0.25500000920E-02 0.  1.
</event>
<event>
 5   0  0.1086507E-05  0.2576315E+04  0.7818609E-02  0.8376291E-01
       -2   -1    0    0    0  501  0.00000000000E+00  0.00000000000E+00  0.11031921112E+04  0.11031921112E+04  0.25500000920E-02 0. -1.
        2   -1    0    0  501    0  0.00000000000E+00  0.00000000000E+00 -0.15041345861E+04  0.15041345861E+04  0.25500000920E-02 0.  1.
    10030    2    1    2    0    0  0.00000000000E+00  0.00000000000E+00 -0.40094247486E+03  0.26073266972E+04  0.25763147397E+04 0.  0.
        2    1    3    3  502    0 -0.10056094578E+04 -0.67918341288E+03 -0.63788791515E+03  0.13709272345E+04  0.25500000920E-02 0.  1.
       -2    1    3    3    0  502  0.10056094578E+04  0.67918341288E+03  0.23694544028E+03  0.12363994628E+04  0.25500000920E-02 0. -1.
</event>
<event>
 5   0  0.1085255E-05  0.2610693E+04  0.7818609E-02  0.8364578E-01
        2   -1    0    0  501    0  0.00000000000E+00  0.00000000000E+00  0.11120140266E+04  0.11120140266E+04  0.25500000920E-02 0.  1.
       -2   -1    0    0    0  501  0.00000000000E+00  0.00000000000E+00 -0.15322916459E+04  0.15322916459E+04  0.25500000920E-02 0. -1.
    10030    2    1    2    0    0  0.00000000000E+00  0.00000000000E+00 -0.42027761928E+03  0.26443056725E+04  0.26106932437E+04 0.  0.
        5    1    3    3  502    0 -0.56122305843E+02 -0.94504365471E+02  0.11073100854E+04  0.11127616562E+04  0.46999998093E+01 0.  1.
       -5    1    3    3    0  502  0.56122305843E+02  0.94504365471E+02 -0.15275877047E+04  0.15315440163E+04  0.46999998093E+01 0. -1.
</event>
<event>
 5   0  0.4464297E-06  0.2598465E+04  0.7818609E-02  0.8368723E-01
       -1   -1    0    0    0  501  0.00000000000E+00  0.00000000000E+00  0.70753181865E+03  0.70753181867E+03  0.50400001928E-02 0. -1.
        1   -1    0    0  501    0  0.00000000000E+00  0.00000000000E+00 -0.23857661817E+04  0.23857661818E+04  0.50400001928E-02 0.  1.
    10030    2    1    2    0    0  0.00000000000E+00  0.00000000000E+00 -0.16782343631E+04  0.30932980004E+04  0.25984653051E+04 0.  0.
        4    1    3    3  502    0 -0.11945293611E+03  0.42869208975E+03 -0.22922049459E+04  0.23350055758E+04  0.12699999809E+01 0.  1.
       -4    1    3    3    0  502  0.11945293611E+03 -0.42869208975E+03  0.61397058286E+03  0.75829242465E+03  0.12699999809E+01 0. -1.
</event>
<event>
 5   0  0.1085255E-05  0.2602779E+04  0.7818609E-02  0.8367258E-01
        2   -1    0    0  501    0  0.00000000000E+00  0.00000000000E+00  0.19716751902E+04  0.19716751902E+04  0.25500000920E-02 0.  1.
       -2   -1    0    0    0  501  0.00000000000E+00  0.00000000000E+00 -0.85897219814E+03  0.85897219815E+03  0.25500000920E-02 0. -1.
    10030    2    1    2    0    0  0.00000000000E+00  0.00000000000E+00  0.11127029920E+04  0.28306473883E+04  0.26027786476E+04 0.  0.
        5    1    3    3  502    0 -0.71297279633E+03  0.41636489332E+03  0.16503526924E+04  0.18453660970E+04  0.46999998093E+01 0.  1.
       -5    1    3    3    0  502  0.71297279633E+03 -0.41636489332E+03 -0.53764970037E+03  0.98528129131E+03  0.46999998093E+01 0. -1.
</event>
<event>
 5   0  0.4361864E-06  0.2598239E+04  0.7818609E-02  0.8368800E-01
       -1   -1    0    0    0  501  0.00000000000E+00  0.00000000000E+00  0.61028030563E+03  0.61028030565E+03  0.50400001928E-02 0. -1.
        1   -1    0    0  501    0  0.00000000000E+00  0.00000000000E+00 -0.27654691450E+04  0.27654691450E+04  0.50400001928E-02 0.  1.
    10030    2    1    2    0    0  0.00000000000E+00  0.00000000000E+00 -0.21551888393E+04  0.33757494506E+04  0.25982389074E+04 0.  0.
        3    1    3    3  502    0 -0.42858340859E+03 -0.10535335299E+04 -0.26196773623E+03  0.11671519789E+04  0.10100000352E+00 0. -1.
       -3    1    3    3    0  502  0.42858340859E+03  0.10535335299E+04 -0.18932211031E+04  0.22085974717E+04  0.10100000352E+00 0.  1.
</event>
<event>
 5   0  0.1086507E-05  0.2593302E+04  0.7818609E-02  0.8370480E-01
       -2   -1    0    0    0  501  0.00000000000E+00  0.00000000000E+00  0.14082571646E+04  0.14082571647E+04  0.25500000920E-02 0. -1.
        2   -1    0    0  501    0  0.00000000000E+00  0.00000000000E+00 -0.11938895880E+04  0.11938895880E+04  0.25500000920E-02 0.  1.
    10030    2    1    2    0    0  0.00000000000E+00  0.00000000000E+00  0.21436757669E+03  0.26021467526E+04  0.25933018074E+04 0.  0.
        2    1    3    3  502    0 -0.81440589480E+03 -0.33295383493E+03 -0.84852912651E+03  0.12223407447E+04  0.25500000920E-02 0.  1.
       -2    1    3    3    0  502  0.81440589480E+03  0.33295383493E+03  0.10628967032E+04  0.13798060079E+04  0.25500000920E-02 0. -1.
</event>
<event>
 5   0  0.1136881E-05  0.2604996E+04  0.7818609E-02  0.8366506E-01
        2   -1    0    0  501    0  0.00000000000E+00  0.00000000000E+00  0.11261026523E+04  0.11261026523E+04  0.25500000920E-02 0.  1.
       -2   -1    0    0    0  501  0.00000000000E+00  0.00000000000E+00 -0.15065240401E+04  0.15065240401E+04  0.25500000920E-02 0. -1.
    10030    2    1    2    0    0  0.00000000000E+00  0.00000000000E+00 -0.38042138777E+03  0.26326266924E+04  0.26049957522E+04 0.  0.
        3    1    3    3  502    0  0.10357488136E+04 -0.59188335446E+03  0.33821129122E+03  0.12399549983E+04  0.10100000352E+00 0.  1.
       -3    1    3    3    0  502 -0.10357488136E+04  0.59188335446E+03 -0.71863267899E+03  0.13926716941E+04  0.10100000352E+00 0. -1.
</event>
<event>
 5   0  0.1085061E-05  0.2696652E+04  0.7818609E-02  0.8336092E-01
       -2   -1    0    0    0  501  0.00000000000E+00  0.00000000000E+00  0.75107420567E+03  0.75107420568E+03  0.25500000920E-02 0. -1.
        2   -1    0    0  501    0  0.00000000000E+00  0.00000000000E+00 -0.24205102313E+04  0.24205102313E+04  0.25500000920E-02 0.  1.
    10030    2    1    2    0    0  0.00000000000E+00  0.00000000000E+00 -0.16694360256E+04  0.31715844370E+04  0.26966518495E+04 0.  0.
        1    1    3    3  502    0  0.13482895181E+04  0.26783854119E+00 -0.82306890835E+03  0.15796604459E+04  0.50400001928E-02 0.  1.
       -1    1    3    3    0  502 -0.13482895181E+04 -0.26783854119E+00 -0.84636711728E+03  0.15919239911E+04  0.50400001928E-02 0. -1.
</event>
<event>
 5   0  0.4218590E-06  0.2573351E+04  0.7818609E-02  0.8377310E-01
       -1   -1    0    0    0  501  0.00000000000E+00  0.00000000000E+00  0.77447676066E+03  0.77447676068E+03  0.50400001928E-02 0. -1.
        1   -1    0    0  501    0  0.00000000000E+00  0.00000000000E+00 -0.21376155458E+04  0.21376155459E+04  0.50400001928E-02 0.  1.
    10030    2    1    2    0    0  0.00000000000E+00  0.00000000000E+00 -0.13631387852E+04  0.29120923065E+04  0.25733507833E+04 0.  0.
        1    1    3    3  502    0  0.70910268997E+03  0.41582948008E+03  0.43857307877E+03  0.93171193342E+03  0.50400001928E-02 0. -1.
       -1    1    3    3    0  502 -0.70910268997E+03 -0.41582948008E+03 -0.18017118640E+04  0.19803803731E+04  0.50400001928E-02 0.  1.
</event>
<event>
 5   0  0.1136881E-05  0.2651426E+04  0.7818609E-02  0.8350940E-01
       -2   -1    0    0    0  501  0.00000000000E+00  0.00000000000E+00  0.89751756877E+03  0.89751756878E+03  0.25500000920E-02 0. -1.
        2   -1    0    0  501    0  0.00000000000E+00  0.00000000000E+00 -0.19581959526E+04  0.19581959526E+04  0.25500000920E-02 0.  1.
    10030    2    1    2    0    0  0.00000000000E+00  0.00000000000E+00 -0.10606783838E+04  0.28557135213E+04  0.26514262355E+04 0.  0.
        3    1    3    3  502    0 -0.12957517052E+04  0.25131005764E+03 -0.39674166174E+03  0.13782355325E+04  0.10100000352E+00 0.  1.
       -3    1    3    3    0  502  0.12957517052E+04 -0.25131005764E+03 -0.66393672204E+03  0.14774779889E+04  0.10100000352E+00 0. -1.
</event>
<event>
 5   0  0.4464297E-06  0.2599041E+04  0.7818609E-02  0.8368527E-01
        1   -1    0    0  501    0  0.00000000000E+00  0.00000000000E+00  0.12021952916E+04  0.12021952916E+04  0.50400001928E-02 0.  1.
       -1   -1    0    0    0  501  0.00000000000E+00  0.00000000000E+00 -0.14047246078E+04  0.14047246078E+04  0.50400001928E-02 0. -1.
    10030    2    1    2    0    0  0.00000000000E+00  0.00000000000E+00 -0.20252931621E+03  0.26069198994E+04  0.25990408304E+04 0.  0.
        4    1    3    3  502    0  0.57582663438E+03  0.10084550173E+04  0.48376491698E+03  0.12580095161E+04  0.12699999809E+01 0. -1.
       -4    1    3    3    0  502 -0.57582663438E+03 -0.10084550173E+04 -0.68629423319E+03  0.13489103833E+04  0.12699999809E+01 0.  1.
</event>
<event>
 5   0  0.1085255E-05  0.2610125E+04  0.7818609E-02  0.8364770E-01
        2   -1    0    0  501    0  0.00000000000E+00  0.00000000000E+00  0.25981331353E+04  0.25981331353E+04  0.25500000920E-02 0.  1.
       -2   -1    0    0    0  501  0.00000000000E+00  0.00000000000E+00 -0.65554286351E+03  0.65554286351E+03  0.25500000920E-02 0. -1.
    10030    2    1    2    0    0  0.00000000000E+00  0.00000000000E+00  0.19425902718E+04  0.32536759988E+04  0.26101246218E+04 0.  0.
        5    1    3    3  502    0  0.51233657304E+03  0.80595084453E+03 -0.13745643196E+03  0.96486366320E+03  0.46999998093E+01 0. -1.
       -5    1    3    3    0  502 -0.51233657304E+03 -0.80595084453E+03  0.20800467038E+04  0.22888123356E+04  0.46999998093E+01 0.  1.
</event>
<event>
 5   0  0.4464297E-06  0.2612525E+04  0.7818609E-02  0.8363959E-01
       -1   -1    0    0    0  501  0.00000000000E+00  0.00000000000E+00  0.11484098890E+04  0.11484098890E+04  0.50400001928E-02 0.  1.
        1   -1    0    0  501    0  0.00000000000E+00  0.00000000000E+00 -0.14858125219E+04  0.14858125219E+04  0.50400001928E-02 0. -1.
    10030    2    1    2    0    0  0.00000000000E+00  0.00000000000E+00 -0.33740263292E+03  0.26342224109E+04  0.26125250570E+04 0.  0.
        4    1    3    3  502    0 -0.72202767444E+03  0.92072913255E+03 -0.75426021257E+03  0.13921121289E+04  0.12699999809E+01 0. -1.
       -4    1    3    3    0  502  0.72202767444E+03 -0.92072913255E+03  0.41685757965E+03  0.12421102821E+04  0.12699999809E+01 0.  1.
</event>
<event>
 5   0  0.4361864E-06  0.2629567E+04  0.7818609E-02  0.8358227E-01
        1   -1    0    0  501    0  0.00000000000E+00  0.00000000000E+00  0.17641242440E+04  0.17641242440E+04  0.50400001928E-02 0. -1.
       -1   -1    0    0    0  501  0.00000000000E+00  0.00000000000E+00 -0.97989435585E+03  0.97989435587E+03  0.50400001928E-02 0.  1.
    10030    2    1    2    0    0  0.00000000000E+00  0.00000000000E+00  0.78422988813E+03  0.27440185999E+04  0.26295668006E+04 0.  0.
        3    1    3    3  502    0  0.71424166003E+03  0.66313593351E+03  0.13130013147E+04  0.16351950580E+04  0.10100000352E+00 0.  1.
       -3    1    3    3    0  502 -0.71424166003E+03 -0.66313593351E+03 -0.52877142653E+03  0.11088235418E+04  0.10100000352E+00 0. -1.
</event>
<event>
 5   0  0.1085061E-05  0.2567725E+04  0.7818609E-02  0.8379247E-01
        2   -1    0    0  501    0  0.00000000000E+00  0.00000000000E+00  0.16653917816E+04  0.16653917816E+04  0.25500000920E-02 0. -1.
       -2   -1    0    0    0  501  0.00000000000E+00  0.00000000000E+00 -0.98973913790E+03  0.98973913790E+03  0.25500000920E-02 0.  1.
    10030    2    1    2    0    0  0.00000000000E+00  0.00000000000E+00  0.67565264369E+03  0.26551309195E+04  0.25677253951E+04 0.  0.
        1    1    3    3  502    0  0.34942274496E+03 -0.44005139923E+03 -0.85583484681E+03  0.10238138374E+04  0.50400001928E-02 0.  1.
       -1    1    3    3    0  502 -0.34942274496E+03  0.44005139923E+03  0.15314874905E+04  0.16313170821E+04  0.50400001928E-02 0. -1.
</event>
<event>
 5   0  0.1116310E-05  0.2565278E+04  0.7818609E-02  0.8380092E-01
       -2   -1    0    0    0  501  0.00000000000E+00  0.00000000000E+00  0.11514614503E+04  0.11514614504E+04  0.25500000920E-02 0.  1.
        2   -1    0    0  501    0  0.00000000000E+00  0.00000000000E+00 -0.14287602854E+04  0.14287602854E+04  0.25500000920E-02 0. -1.
    10030    2    1    2    0    0  0.00000000000E+00  0.00000000000E+00 -0.27729883505E+03  0.25802217358E+04  0.25652776773E+04 0.  0.
        4    1    3    3  502    0 -0.48051327070E+02 -0.87929494880E+03  0.79935621242E+03  0.11893025285E+04  0.12699999809E+01 0.  1.
       -4    1    3    3    0  502  0.48051327070E+02  0.87929494880E+03 -0.10766550475E+04  0.13909192073E+04  0.12699999809E+01 0. -1.
</event>
<event>
 5   0  0.1136881E-05  0.2501799E+04  0.7818609E-02  0.8402345E-01
       -2   -1    0    0    0  501  0.00000000000E+00  0.00000000000E+00  0.10521914578E+04  0.10521914578E+04  0.25500000920E-02 0.  1.
        2   -1    0    0  501    0  0.00000000000E+00  0.00000000000E+00 -0.14871340731E+04  0.14871340731E+04  0.25500000920E-02 0. -1.
    10030    2    1    2    0    0  0.00000000000E+00  0.00000000000E+00 -0.43494261528E+03  0.25393255309E+04  0.25017991673E+04 0.  0.
        3    1    3    3  502    0 -0.60704686074E+03 -0.55259733716E+03 -0.11754934621E+04  0.14337554177E+04  0.10100000352E+00 0. -1.
       -3    1    3    3    0  502  0.60704686074E+03  0.55259733716E+03  0.74055084687E+03  0.11055701132E+04  0.10100000352E+00 0.  1.
</event>
<event>
 5   0  0.4464297E-06  0.2573747E+04  0.7818609E-02  0.8377174E-01
        1   -1    0    0  501    0  0.00000000000E+00  0.00000000000E+00  0.17645004110E+04  0.17645004110E+04  0.50400001928E-02 0. -1.
       -1   -1    0    0    0  501  0.00000000000E+00  0.00000000000E+00 -0.93853397403E+03  0.93853397405E+03  0.50400001928E-02 0.  1.
    10030    2    1    2    0    0  0.00000000000E+00  0.00000000000E+00  0.82596643698E+03  0.27030343851E+04  0.25737471383E+04 0.  0.
        4    1    3    3  502    0  0.52522609356E+03  0.77040303575E+03 -0.51850821238E+03  0.10668812802E+04  0.12699999809E+01 0.  1.
       -4    1    3    3    0  502 -0.52522609356E+03 -0.77040303575E+03  0.13444746494E+04  0.16361531049E+04  0.12699999809E+01 0. -1.
</event>
<event>
 5   0  0.4415080E-06  0.2602281E+04  0.7818609E-02  0.8367427E-01
        1   -1    0    0  501    0  0.00000000000E+00  0.00000000000E+00  0.17233497077E+04  0.17233497077E+04  0.50400001928E-02 0.  1.
       -1   -1    0    0    0  501  0.00000000000E+00  0.00000000000E+00 -0.98237002750E+03  0.98237002751E+03  0.50400001928E-02 0. -1.
    10030    2    1    2    0    0  0.00000000000E+00  0.00000000000E+00  0.74097968019E+03  0.27057197352E+04  0.26022813835E+04 0.  0.
        2    1    3    3  502    0  0.21192085298E+02  0.10922910826E+04 -0.36429591966E+03  0.11516338093E+04  0.25500000920E-02 0. -1.
       -2    1    3    3    0  502 -0.21192085298E+02 -0.10922910826E+04  0.11052755999E+04  0.15540859259E+04  0.25500000920E-02 0.  1.
</event>
<event>
 5   0  0.1085255E-05  0.2597225E+04  0.7818609E-02  0.8369144E-01
       -2   -1    0    0    0  501  0.00000000000E+00  0.00000000000E+00  0.99185755627E+03  0.99185755627E+03  0.25500000920E-02 0. -1.
        2   -1    0    0  501    0  0.00000000000E+00  0.00000000000E+00 -0.17002384553E+04  0.17002384553E+04  0.25500000920E-02 0.  1.
    10030    2    1    2    0    0  0.00000000000E+00  0.00000000000E+00 -0.70838089899E+03  0.26920960115E+04  0.25972249493E+04 0.  0.
        5    1    3    3  502    0  0.11672399652E+04 -0.30923207994E+03 -0.84944976576E+03  0.14763673696E+04  0.46999998093E+01 0.  1.
       -5    1    3    3    0  502 -0.11672399652E+04  0.30923207994E+03  0.14106886677E+03  0.12157286419E+04  0.46999998093E+01 0. -1.
</event>
<event>
 5   0  0.4218590E-06  0.2604916E+04  0.7818609E-02  0.8366533E-01
        1   -1    0    0  501    0  0.00000000000E+00  0.00000000000E+00  0.14099365748E+04  0.14099365749E+04  0.50400001928E-02 0.  1.
       -1   -1    0    0    0  501  0.00000000000E+00  0.00000000000E+00 -0.12031723319E+04  0.12031723319E+04  0.50400001928E-02 0. -1.
    10030    2    1    2    0    0  0.00000000000E+00  0.00000000000E+00  0.20676424296E+03  0.26131089067E+04  0.26049158732E+04 0.  0.
        1    1    3    3  502    0 -0.88832616880E+03  0.49726008411E+02  0.10575839676E+04  0.13820564050E+04  0.50400001928E-02 0.  1.
       -1    1    3    3    0  502  0.88832616880E+03 -0.49726008411E+02 -0.85081972466E+03  0.12310525017E+04  0.50400001928E-02 0. -1.
</event>
<event>
 5   0  0.1136881E-05  0.2590907E+04  0.7818609E-02  0.8371297E-01
        2   -1    0    0  501    0  0.00000000000E+00  0.00000000000E+00  0.13182650035E+04  0.13182650035E+04  0.25500000920E-02 0. -1.
       -2   -1    0    0    0  501  0.00000000000E+00  0.00000000000E+00 -0.12730364251E+04  0.12730364251E+04  0.25500000920E-02 0.  1.
    10030    2    1    2    0    0  0.00000000000E+00  0.00000000000E+00  0.45228578405E+02  0.25913014286E+04  0.25909066887E+04 0.  0.
        3    1    3    3  502    0  0.38625524446E+03 -0.77314767370E+03 -0.94254512879E+03  0.12788048206E+04  0.10100000352E+00 0.  1.
       -3    1    3    3    0  502 -0.38625524446E+03  0.77314767370E+03  0.98777370719E+03  0.13124966080E+04  0.10100000352E+00 0. -1.
</event>
<event>
 5   0  0.4415080E-06  0.2601680E+04  0.7818609E-02  0.8367631E-01
       -1   -1    0    0    0  501  0.00000000000E+00  0.00000000000E+00  0.13056345577E+04  0.13056345577E+04  0.50400001928E-02 0. -1.
        1   -1    0    0  501    0  0.00000000000E+00  0.00000000000E+00 -0.12960627359E+04  0.12960627359E+04  0.50400001928E-02 0.  1.
    10030    2    1    2    0    0  0.00000000000E+00  0.00000000000E+00  0.95718218009E+01  0.26016972936E+04  0.26016796859E+04 0.  0.
        2    1    3    3  502    0 -0.69513553378E+03  0.58150072673E+03  0.93797376913E+03  0.13042819086E+04  0.25500000920E-02 0. -1.
       -2    1    3    3    0  502  0.69513553378E+03 -0.58150072673E+03 -0.92840194733E+03  0.12974153850E+04  0.25500000920E-02 0.  1.
</event>
<event>
 5   0  0.4464297E-06  0.2562387E+04  0.7818609E-02  0.8381091E-01
        1   -1    0    0  501    0  0.00000000000E+00  0.00000000000E+00  0.12768234860E+04  0.12768234860E+04  0.50400001928E-02 0. -1.
       -1   -1    0    0    0  501  0.00000000000E+00  0.00000000000E+00 -0.12855783649E+04  0.12855783649E+04  0.50400001928E-02 0.  1.
    10030    2    1    2    0    0  0.00000000000E+00  0.00000000000E+00 -0.87548788382E+01  0.25624018509E+04  0.25623868946E+04 0.  0.
        4    1    3    3  502    0  0.11542585334E+04  0.49332433458E+03  0.25208726267E+03  0.12803246705E+04  0.12699999809E+01 0. -1.
       -4    1    3    3    0  502 -0.11542585334E+04 -0.49332433458E+03 -0.26084214151E+03  0.12820771804E+04  0.12699999809E+01 0.  1.
</event>
<event>
 5   0  0.3705250E-06  0.2605840E+04  0.7818609E-02  0.8366220E-01
       -3   -1    0    0    0  501  0.00000000000E+00  0.00000000000E+00  0.15206300583E+04  0.15206300617E+04  0.10100000352E+00 0.  1.
        3   -1    0    0  501    0  0.00000000000E+00  0.00000000000E+00 -0.11163801159E+04  0.11163801204E+04  0.10100000352E+00 0. -1.
    10030    2    1    2    0    0  0.00000000000E+00  0.00000000000E+00  0.40424994249E+03  0.26370101821E+04  0.26058404949E+04 0.  0.
        1    1    3    3  502    0  0.21720413649E+03  0.32382895818E+03  0.14602003975E+04  0.15113662799E+04  0.50400001928E-02 0.  1.
       -1    1    3    3    0  502 -0.21720413649E+03 -0.32382895818E+03 -0.10559504550E+04  0.11256439022E+04  0.50400001928E-02 0. -1.
</event>
<event>
 5   0  0.1116310E-05  0.2614660E+04  0.7818609E-02  0.8363238E-01
       -2   -1    0    0    0  501  0.00000000000E+00  0.00000000000E+00  0.10369322581E+04  0.10369322581E+04  0.25500000920E-02 0.  1.
        2   -1    0    0  501    0  0.00000000000E+00  0.00000000000E+00 -0.16482388755E+04  0.16482388755E+04  0.25500000920E-02 0. -1.
    10030    2    1    2    0    0  0.00000000000E+00  0.00000000000E+00 -0.61130661741E+03  0.26851711335E+04  0.26146602525E+04 0.  0.
        4    1    3    3  502    0 -0.11256416141E+04 -0.66425745188E+03 -0.27654389094E+03  0.13359585107E+04  0.12699999809E+01 0.  1.
       -4    1    3    3    0  502  0.11256416141E+04  0.66425745188E+03 -0.33476272647E+03  0.13492126229E+04  0.12699999809E+01 0. -1.
</event>
<event>
 5   0  0.4597705E-06  0.2536777E+04  0.7818609E-02  0.8390000E-01
        1   -1    0    0  501    0  0.00000000000E+00  0.00000000000E+00  0.27250753998E+04  0.27250753999E+04  0.50400001928E-02 0. -1.
       -1   -1    0    0    0  501  0.00000000000E+00  0.00000000000E+00 -0.59037236827E+03  0.59037236829E+03  0.50400001928E-02 0.  1.
    10030    2    1    2    0    0  0.00000000000E+00  0.00000000000E+00  0.21347030316E+04  0.33154477681E+04  0.25367768665E+04 0.  0.
        5    1    3    3  502    0  0.48545638364E+02  0.12655844807E+04  0.11572027012E+04  0.17155759787E+04  0.46999998093E+01 0. -1.
       -5    1    3    3    0  502 -0.48545638364E+02 -0.12655844807E+04  0.97750033039E+03  0.15998717895E+04  0.46999998093E+01 0.  1.
</event>
<event>
 5   0  0.1086507E-05  0.2588879E+04  0.7818609E-02  0.8371989E-01
        2   -1    0    0  501    0  0.00000000000E+00  0.00000000000E+00  0.14786740310E+04  0.14786740310E+04  0.25500000920E-02 0. -1.
       -2   -1    0    0    0  501  0.00000000000E+00  0.00000000000E+00 -0.11331595782E+04  0.11331595783E+04  0.25500000920E-02 0.  1.
    10030    2    1    2    0    0  0.00000000000E+00  0.00000000000E+00  0.34551445270E+03  0.26118336092E+04  0.25888790171E+04 0.  0.
        2    1    3    3  502    0 -0.80496312356E+02  0.33503813921E+03  0.14315557350E+04  0.14724408421E+04  0.25500000920E-02 0. -1.
       -2    1    3    3    0  502  0.80496312356E+02 -0.33503813921E+03 -0.10860412823E+04  0.11393927671E+04  0.25500000920E-02 0.  1.
</event>
<event>
 5   0  0.4464297E-06  0.2605308E+04  0.7818609E-02  0.8366401E-01
        1   -1    0    0  501    0  0.00000000000E+00  0.00000000000E+00  0.19005107796E+04  0.19005107796E+04  0.50400001928E-02 0.  1.
       -1   -1    0    0    0  501  0.00000000000E+00  0.00000000000E+00 -0.89286890923E+03  0.89286890924E+03  0.50400001928E-02 0. -1.
    10030    2    1    2    0    0  0.00000000000E+00  0.00000000000E+00  0.10076418704E+04  0.27933796889E+04  0.26053076492E+04 0.  0.
        4    1    3    3  502    0  0.74262222656E+02 -0.12909663740E+04  0.33498513127E+03  0.13357865501E+04  0.12699999809E+01 0. -1.
       -4    1    3    3    0  502 -0.74262222656E+02  0.12909663740E+04  0.67265673911E+03  0.14575931387E+04  0.12699999809E+01 0.  1.
</event>
<event>
 5   0  0.4218590E-06  0.2587770E+04  0.7818609E-02  0.8372367E-01
       -1   -1    0    0    0  501  0.00000000000E+00  0.00000000000E+00  0.88492689520E+03  0.88492689522E+03  0.50400001928E-02 0.  1.
        1   -1    0    0  501    0  0.00000000000E+00  0.00000000000E+00 -0.18918386470E+04  0.18918386470E+04  0.50400001928E-02 0. -1.
    10030    2    1    2    0    0  0.00000000000E+00  0.00000000000E+00 -0.10069117518E+04  0.27767655422E+04  0.25877703918E+04 0.  0.
        1    1    3    3  502    0 -0.10146991832E+04 -0.29691840337E+03 -0.13038298437E+04  0.16786146764E+04  0.50400001928E-02 0. -1.
       -1    1    3    3    0  502  0.10146991832E+04  0.29691840337E+03  0.29691809196E+03  0.10981508657E+04  0.50400001928E-02 0.  1.
</event>
<event>
 5   0  0.1086507E-05  0.2529005E+04  0.7818609E-02  0.8392724E-01
       -2   -1    0    0    0  501  0.00000000000E+00  0.00000000000E+00  0.70118231931E+03  0.70118231931E+03  0.25500000920E-02 0. -1.
        2   -1    0    0  501    0  0.00000000000E+00  0.00000000000E+00 -0.22803870637E+04  0.22803870637E+04  0.25500000920E-02 0.  1.
    10030    2    1    2    0    0  0.00000000000E+00  0.00000000000E+00 -0.15792047444E+04  0.29815693830E+04  0.25290054094E+04 0.  0.
        2    1    3    3  502    0  0.37492646932E+03 -0.56510031286E+03 -0.20478561611E+04  0.21572257827E+04  0.25500000920E-02 0.  1.
       -2    1    3    3    0  502 -0.37492646932E+03  0.56510031286E+03  0.46865141671E+03  0.82434360031E+03  0.25500000920E-02 0. -1.
</event>
<event>
 5   0  0.1085061E-05  0.2598597E+04  0.7818609E-02  0.8368678E-01
        2   -1    0    0  501    0  0.00000000000E+00  0.00000000000E+00  0.12741723646E+04  0.12741723646E+04  0.25500000920E-02 0. -1.
       -2   -1    0    0    0  501  0.00000000000E+00  0.00000000000E+00 -0.13249205906E+04  0.13249205906E+04  0.25500000920E-02 0.  1.
    10030    2    1    2    0    0  0.00000000000E+00  0.00000000000E+00 -0.50748225990E+02  0.25990929552E+04  0.25985974693E+04 0.  0.
        1    1    3    3  502    0  0.47827834146E+03 -0.11014604795E+04 -0.52166610712E+03  0.13092367575E+04  0.50400001928E-02 0.  1.
       -1    1    3    3    0  502 -0.47827834146E+03  0.11014604795E+04  0.47091788113E+03  0.12898561977E+04  0.50400001928E-02 0. -1.
</event>
<event>
 5   0  0.4415080E-06  0.2588455E+04  0.7818609E-02  0.8372133E-01
       -1   -1    0    0    0  501  0.00000000000E+00  0.00000000000E+00  0.75388774440E+03  0.75388774442E+03  0.50400001928E-02 0. -1.
        1   -1    0    0  501    0  0.00000000000E+00  0.00000000000E+00 -0.22218489372E+04  0.22218489373E+04  0.50400001928E-02 0.  1.
    10030    2    1    2    0    0  0.00000000000E+00  0.00000000000E+00 -0.14679611928E+04  0.29757366817E+04  0.25884548934E+04 0.  0.
        2    1    3    3  502    0  0.31844906562E+02  0.71296907110E+03 -0.19751887780E+04  0.21001689701E+04  0.25500000920E-02 0.  1.
       -2    1    3    3    0  502 -0.31844906562E+02 -0.71296907110E+03  0.50722758511E+03  0.87556771156E+03  0.25500000920E-02 0. -1.
</event>
<event>
 5   0  0.4218590E-06  0.2599634E+04  0.7818609E-02  0.8368325E-01
        1   -1    0    0  501    0  0.00000000000E+00  0.00000000000E+00  0.12522347676E+04  0.12522347676E+04  0.50400001928E-02 0. -1.
       -1   -1    0    0    0  501  0.00000000000E+00  0.00000000000E+00 -0.13492076421E+04  0.13492076421E+04  0.50400001928E-02 0.  1.
    10030    2    1    2    0    0  0.00000000000E+00  0.00000000000E+00 -0.96972874547E+02  0.26014424097E+04  0.25996343729E+04 0.  0.
        1    1    3    3  502    0 -0.14229086976E+03 -0.12155509073E+04 -0.48664255538E+03  0.13170541662E+04  0.50400001928E-02 0.  1.
       -1    1    3    3    0  502  0.14229086976E+03  0.12155509073E+04  0.38966968083E+03  0.12843882435E+04  0.50400001928E-02 0. -1.
</event>
<event>
 5   0  0.4218590E-06  0.2604965E+04  0.7818609E-02  0.8366517E-01
       -1   -1    0    0    0  501  0.00000000000E+00  0.00000000000E+00  0.12149104176E+04  0.12149104176E+04  0.50400001928E-02 0.  1.
        1   -1    0    0  501    0  0.00000000000E+00  0.00000000000E+00 -0.13963670905E+04  0.13963670905E+04  0.50400001928E-02 0. -1.
    10030    2    1    2    0    0  0.00000000000E+00  0.00000000000E+00 -0.18145667293E+03  0.26112775081E+04  0.26049652013E+04 0.  0.
        1    1    3    3  502    0 -0.52659444962E+03 -0.71838745544E+03  0.86187894179E+03  0.12394424395E+04  0.50400001928E-02 0.  1.
       -1    1    3    3    0  502  0.52659444962E+03  0.71838745544E+03 -0.10433356147E+04  0.13718350686E+04  0.50400001928E-02 0. -1.
</event>
<event>
 5   0  0.1116310E-05  0.2591680E+04  0.7818609E-02  0.8371033E-01
       -2   -1    0    0    0  501  0.00000000000E+00  0.00000000000E+00  0.10532749024E+04  0.10532749024E+04  0.25500000920E-02 0.  1.
        2   -1    0    0  501    0  0.00000000000E+00  0.00000000000E+00 -0.15942662814E+04  0.15942662814E+04  0.25500000920E-02 0. -1.
    10030    2    1    2    0    0  0.00000000000E+00  0.00000000000E+00 -0.54099137895E+03  0.26475411838E+04  0.25916795033E+04 0.  0.
        4    1    3    3  502    0  0.57756964688E+03  0.80187649361E+03 -0.11267790284E+04  0.14987412051E+04  0.12699999809E+01 0. -1.
       -4    1    3    3    0  502 -0.57756964688E+03 -0.80187649361E+03  0.58578764947E+03  0.11487999787E+04  0.12699999809E+01 0.  1.
</event>
<event>
 5   0  0.4361864E-06  0.2592020E+04  0.7818609E-02  0.8370917E-01
        1   -1    0    0  501    0  0.00000000000E+00  0.00000000000E+00  0.23245222818E+04  0.23245222818E+04  0.50400001928E-02 0.  1.
       -1   -1    0    0    0  501  0.00000000000E+00  0.00000000000E+00 -0.72257499500E+03  0.72257499501E+03  0.50400001928E-02 0. -1.
    10030    2    1    2    0    0  0.00000000000E+00  0.00000000000E+00  0.16019472868E+04  0.30470972768E+04  0.25920198118E+04 0.  0.
        3    1    3    3  502    0  0.12166939705E+04 -0.44111013138E+03  0.88173187608E+03  0.15660055802E+04  0.10100000352E+00 0. -1.
       -3    1    3    3    0  502 -0.12166939705E+04  0.44111013138E+03  0.72021541076E+03  0.14810916966E+04  0.10100000352E+00 0.  1.
</event>
<event>
 5   0  0.4218590E-06  0.2633928E+04  0.7818609E-02  0.8356767E-01
       -1   -1    0    0    0  501  0.00000000000E+00  0.00000000000E+00  0.90039228792E+03  0.90039228793E+03  0.50400001928E-02 0. -1.
        1   -1    0    0  501    0  0.00000000000E+00  0.00000000000E+00 -0.19262648601E+04  0.19262648601E+04  0.50400001928E-02 0.  1.
    10030    2    1    2    0    0  0.00000000000E+00  0.00000000000E+00 -0.10258725721E+04  0.28266571480E+04  0.26339278840E+04 0.  0.
        1    1    3    3  502    0  0.81027582260E+03 -0.99362291597E+03 -0.18998357054E+03  0.12961200426E+04  0.50400001928E-02 0. -1.
       -1    1    3    3    0  502 -0.81027582260E+03  0.99362291597E+03 -0.83588900160E+03  0.15305371054E+04  0.50400001928E-02 0.  1.
</event>
<event>
 5   0  0.4218590E-06  0.2589137E+04  0.7818609E-02  0.8371900E-01
       -1   -1    0    0    0  501  0.00000000000E+00  0.00000000000E+00  0.98357006678E+03  0.98357006679E+03  0.50400001928E-02 0.  1.
        1   -1    0    0  501    0  0.00000000000E+00  0.00000000000E+00 -0.17039029148E+04  0.17039029148E+04  0.50400001928E-02 0. -1.
    10030    2    1    2    0    0  0.00000000000E+00  0.00000000000E+00 -0.72033284802E+03  0.26874729816E+04  0.25891372337E+04 0.  0.
        1    1    3    3  502    0 -0.80193728832E+03  0.49510008142E+03 -0.12813879037E+04  0.15906547284E+04  0.50400001928E-02 0. -1.
       -1    1    3    3    0  502  0.80193728832E+03 -0.49510008142E+03  0.56105505573E+03  0.10968182532E+04  0.50400001928E-02 0.  1.
</event>
<event>
 5   0  0.1116310E-05  0.2598576E+04  0.7818609E-02  0.8368685E-01
        2   -1    0    0  501    0  0.00000000000E+00  0.00000000000E+00  0.14114271352E+04  0.14114271352E+04  0.25500000920E-02 0. -1.
       -2   -1    0    0    0  501  0.00000000000E+00  0.00000000000E+00 -0.11960584383E+04  0.11960584383E+04  0.25500000920E-02 0.  1.
    10030    2    1    2    0    0  0.00000000000E+00  0.00000000000E+00  0.21536869684E+03  0.26074855735E+04  0.25985760217E+04 0.  0.
        4    1    3    3  502    0 -0.41842501163E+03  0.11851754378E+04  0.43809651934E+03  0.13310336141E+04  0.12699999809E+01 0. -1.
       -4    1    3    3    0  502  0.41842501163E+03 -0.11851754378E+04 -0.22272782250E+03  0.12764519594E+04  0.12699999809E+01 0.  1.
</event>
<event>
 5   0  0.1136881E-05  0.2605504E+04  0.7818609E-02  0.8366334E-01
       -2   -1    0    0    0  501  0.00000000000E+00  0.00000000000E+00  0.10188007559E+04  0.10188007559E+04  0.25500000920E-02 0. -1.
        2   -1    0    0  501    0  0.00000000000E+00  0.00000000000E+00 -0.16658439663E+04  0.16658439663E+04  0.25500000920E-02 0.  1.
    10030    2    1    2    0    0  0.00000000000E+00  0.00000000000E+00 -0.64704321039E+03  0.26846447221E+04  0.26055042445E+04 0.  0.
        3    1    3    3  502    0 -0.98077340613E+03 -0.47148851943E+03  0.41443447233E+03  0.11644628977E+04  0.10100000352E+00 0. -1.
       -3    1    3    3    0  502  0.98077340613E+03  0.47148851943E+03 -0.10614776827E+04  0.15201818244E+04  0.10100000352E+00 0.  1.
</event>
<event>
 5   0  0.1085255E-05  0.2578711E+04  0.7818609E-02  0.8375469E-01
       -2   -1    0    0    0  501  0.00000000000E+00  0.00000000000E+00  0.10561678675E+04  0.10561678675E+04  0.25500000920E-02 0. -1.
        2   -1    0    0  501    0  0.00000000000E+00  0.00000000000E+00 -0.15740282864E+04  0.15740282864E+04  0.25500000920E-02 0.  1.
    10030    2    1    2    0    0  0.00000000000E+00  0.00000000000E+00 -0.51786041890E+03  0.26301961539E+04  0.25787113826E+04 0.  0.
        5    1    3    3  502    0 -0.68491206608E+03  0.43348467151E+03  0.76378657540E+03  0.11137349422E+04  0.46999998093E+01 0. -1.
       -5    1    3    3    0  502  0.68491206608E+03 -0.43348467151E+03 -0.12816469943E+04  0.15164612117E+04  0.46999998093E+01 0.  1.
</event>
<event>
 5   0  0.1136881E-05  0.2588914E+04  0.7818609E-02  0.8371977E-01
       -2   -1    0    0    0  501  0.00000000000E+00  0.00000000000E+00  0.14348905324E+04  0.14348905324E+04  0.25500000920E-02 0. -1.
        2   -1    0    0  501    0  0.00000000000E+00  0.00000000000E+00 -0.11677680651E+04  0.11677680651E+04  0.25500000920E-02 0.  1.
    10030    2    1    2    0    0  0.00000000000E+00  0.00000000000E+00  0.26712246736E+03  0.26026585975E+04  0.25889143212E+04 0.  0.
        3    1    3    3  502    0 -0.16754304124E+03  0.12834375618E+04  0.11511485244E+03  0.12994360643E+04  0.10100000352E+00 0.  1.
       -3    1    3    3    0  502  0.16754304124E+03 -0.12834375618E+04  0.15200761492E+03  0.13032225332E+04  0.10100000352E+00 0. -1.
</event>
<event>
 5   0  0.4597705E-06  0.2614511E+04  0.7818609E-02  0.8363289E-01
       -1   -1    0    0    0  501  0.00000000000E+00  0.00000000000E+00  0.35183092118E+04  0.35183092118E+04  0.50400001928E-02 0. -1.
        1   -1    0    0  501    0  0.00000000000E+00  0.00000000000E+00 -0.48572090118E+03  0.48572090120E+03  0.50400001928E-02 0.  1.
    10030    2    1    2    0    0  0.00000000000E+00  0.00000000000E+00  0.30325883106E+04  0.40040301130E+04  0.26145105248E+04 0.  0.
        5    1    3    3  502    0 -0.25373565918E+03 -0.12557146723E+04  0.11178392588E+04  0.17002316964E+04  0.46999998093E+01 0.  1.
       -5    1    3    3    0  502  0.25373565918E+03  0.12557146723E+04  0.19147490518E+04  0.23037984166E+04  0.46999998093E+01 0. -1.
</event>
<event>
 5   0  0.1085255E-05  0.2595644E+04  0.7818609E-02  0.8369682E-01
        2   -1    0    0  501    0  0.00000000000E+00  0.00000000000E+00  0.18324717511E+04  0.18324717511E+04  0.25500000920E-02 0. -1.
       -2   -1    0    0    0  501  0.00000000000E+00  0.00000000000E+00 -0.91916418611E+03  0.91916418611E+03  0.25500000920E-02 0.  1.
    10030    2    1    2    0    0  0.00000000000E+00  0.00000000000E+00  0.91330756504E+03  0.27516359373E+04  0.25956443560E+04 0.  0.
        5    1    3    3  502    0 -0.43170849883E+03  0.57876631443E+03  0.15998781386E+04  0.17552705840E+04  0.46999998093E+01 0. -1.
       -5    1    3    3    0  502  0.43170849883E+03 -0.57876631443E+03 -0.68657057356E+03  0.99636535326E+03  0.46999998093E+01 0.  1.
</event>
<event>
 5   0  0.1086507E-05  0.2581578E+04  0.7818609E-02  0.8374486E-01
        2   -1    0    0  501    0  0.00000000000E+00  0.00000000000E+00  0.10649002198E+04  0.10649002198E+04  0.25500000920E-02 0. -1.
       -2   -1    0    0    0  501  0.00000000000E+00  0.00000000000E+00 -0.15645931691E+04  0.15645931691E+04  0.25500000920E-02 0.  1.
    10030    2    1    2    0    0  0.00000000000E+00  0.00000000000E+00 -0.49969294931E+03  0.26294933888E+04  0.25815775096E+04 0.  0.
        2    1    3    3  502    0 -0.79718148730E+03 -0.84354210371E+03  0.32550419941E+03  0.12054105476E+04  0.25500000920E-02 0. -1.
       -2    1    3    3    0  502  0.79718148730E+03  0.84354210371E+03 -0.82519714872E+03  0.14240828412E+04  0.25500000920E-02 0.  1.
</event>
<event>
 5   0  0.1085255E-05  0.2534884E+04  0.7818609E-02  0.8390662E-01
       -2   -1    0    0    0  501  0.00000000000E+00  0.00000000000E+00  0.84188818933E+03  0.84188818933E+03  0.25500000920E-02 0. -1.
        2   -1    0    0  501    0  0.00000000000E+00  0.00000000000E+00 -0.19081022798E+04  0.19081022798E+04  0.25500000920E-02 0.  1.
    10030    2    1    2    0    0  0.00000000000E+00  0.00000000000E+00 -0.10662140905E+04  0.27499904691E+04  0.25348836450E+04 0.  0.
        5    1    3    3  502    0  0.81612943120E+03  0.18655490285E+03  0.49922971468E+03  0.97474221119E+03  0.46999998093E+01 0. -1.
       -5    1    3    3    0  502 -0.81612943120E+03 -0.18655490285E+03 -0.15654438052E+04  0.17752482580E+04  0.46999998093E+01 0.  1.
</event>
<event>
 5   0  0.4218590E-06  0.2596801E+04  0.7818609E-02  0.8369289E-01
        1   -1    0    0  501    0  0.00000000000E+00  0.00000000000E+00  0.12502045938E+04  0.12502045938E+04  0.50400001928E-02 0. -1.
       -1   -1    0    0    0  501  0.00000000000E+00  0.00000000000E+00 -0.13484541404E+04  0.13484541404E+04  0.50400001928E-02 0.  1.
    10030    2    1    2    0    0  0.00000000000E+00  0.00000000000E+00 -0.98249546584E+02  0.25986587342E+04  0.25968007708E+04 0.  0.
        1    1    3    3  502    0 -0.10677842584E+04  0.64241157974E+03 -0.41406047870E+03  0.13131267800E+04  0.50400001928E-02 0.  1.
       -1    1    3    3    0  502  0.10677842584E+04 -0.64241157974E+03  0.31581093212E+03  0.12855319542E+04  0.50400001928E-02 0. -1.
</event>
<event>
 5   0  0.1086507E-05  0.2610706E+04  0.7818609E-02  0.8364574E-01
       -2   -1    0    0    0  501  0.00000000000E+00  0.00000000000E+00  0.10742344614E+04  0.10742344614E+04  0.25500000920E-02 0.  1.
        2   -1    0    0  501    0  0.00000000000E+00  0.00000000000E+00 -0.15861957156E+04  0.15861957156E+04  0.25500000920E-02 0. -1.
    10030    2    1    2    0    0  0.00000000000E+00  0.00000000000E+00 -0.51196125420E+03  0.26604301769E+04  0.26107057284E+04 0.  0.
        2    1    3    3  502    0 -0.21749607691E+03 -0.61481437813E+03  0.89632825087E+03  0.11084699348E+04  0.25500000920E-02 0.  1.
       -2    1    3    3    0  502  0.21749607691E+03  0.61481437813E+03 -0.14082895051E+04  0.15519602421E+04  0.25500000920E-02 0. -1.
</event>
<event>
 5   0  0.4597705E-06  0.2593158E+04  0.7818609E-02  0.8370529E-01
        1   -1    0    0  501    0  0.00000000000E+00  0.00000000000E+00  0.16696354402E+04  0.16696354402E+04  0.50400001928E-02 0.  1.
       -1   -1    0    0    0  501  0.00000000000E+00  0.00000000000E+00 -0.10068765316E+04  0.10068765316E+04  0.50400001928E-02 0. -1.
    10030    2    1    2    0    0  0.00000000000E+00  0.00000000000E+00  0.66275890859E+03  0.26765119718E+04  0.25931577207E+04 0.  0.
        5    1    3    3  502    0  0.10537190440E+04  0.11771997852E+03 -0.43887438427E+03  0.11475254386E+04  0.46999998093E+01 0. -1.
       -5    1    3    3    0  502 -0.10537190440E+04 -0.11771997852E+03  0.11016332929E+04  0.15289865333E+04  0.46999998093E+01 0.  1.
</event>
<event>
 5   0  0.4361864E-06  0.2609945E+04  0.7818609E-02  0.8364831E-01
       -1   -1    0    0    0  501  0.00000000000E+00  0.00000000000E+00  0.11684030319E+04  0.11684030319E+04  0.50400001928E-02 0. -1.
        1   -1    0    0  501    0  0.00000000000E+00  0.00000000000E+00 -0.14575054569E+04  0.14575054569E+04  0.50400001928E-02 0.  1.
    10030    2    1    2    0    0  0.00000000000E+00  0.00000000000E+00 -0.28910242498E+03  0.26259084889E+04  0.26099454362E+04 0.  0.
        3    1    3    3  502    0 -0.23544036473E+03  0.29805598466E+03  0.11115575134E+04  0.11746615049E+04  0.10100000352E+00 0. -1.
       -3    1    3    3    0  502  0.23544036473E+03 -0.29805598466E+03 -0.14006599384E+04  0.14512469840E+04  0.10100000352E+00 0.  1.
</event>
<event>
 5   0  0.1116310E-05  0.2592693E+04  0.7818609E-02  0.8370688E-01
        2   -1    0    0  501    0  0.00000000000E+00  0.00000000000E+00  0.13643140153E+04  0.13643140153E+04  0.25500000920E-02 0.  1.
       -2   -1    0    0    0  501  0.00000000000E+00  0.00000000000E+00 -0.12317646252E+04  0.12317646252E+04  0.25500000920E-02 0. -1.
    10030    2    1    2    0    0  0.00000000000E+00  0.00000000000E+00  0.13254939009E+03  0.25960786405E+04  0.25926926094E+04 0.  0.
        4    1    3    3  502    0  0.76427519235E+03  0.36853567616E+03  0.10476449927E+04  0.13481456739E+04  0.12699999809E+01 0.  1.
       -4    1    3    3    0  502 -0.76427519235E+03 -0.36853567616E+03 -0.91509560265E+03  0.12479329666E+04  0.12699999809E+01 0. -1.
</event>
<event>
 5   0  0.4597705E-06  0.2602989E+04  0.7818609E-02  0.8367187E-01
        1   -1    0    0  501    0  0.00000000000E+00  0.00000000000E+00  0.15656910775E+04  0.15656910775E+04  0.50400001928E-02 0. -1.
       -1   -1    0    0    0  501  0.00000000000E+00  0.00000000000E+00 -0.10818785154E+04  0.10818785154E+04  0.50400001928E-02 0.  1.
    10030    2    1    2    0    0  0.00000000000E+00  0.00000000000E+00  0.48381256204E+03  0.26475695929E+04  0.26029886965E+04 0.  0.
        5    1    3    3  502    0 -0.50841696955E+03 -0.10776567973E+04  0.77435391350E+03  0.14210834110E+04  0.46999998093E+01 0. -1.
       -5    1    3    3    0  502  0.50841696955E+03  0.10776567973E+04 -0.29054135145E+03  0.12264861819E+04  0.46999998093E+01 0.  1.
</event>
<event>
 5   0  0.4218590E-06  0.2598466E+04  0.7818609E-02  0.8368722E-01
        1   -1    0    0  501    0  0.00000000000E+00  0.00000000000E+00  0.13690708942E+04  0.13690708942E+04  0.50400001928E-02 0. -1.
       -1   -1    0    0    0  501  0.00000000000E+00  0.00000000000E+00 -0.12329577401E+04  0.12329577402E+04  0.50400001928E-02 0.  1.
    10030    2    1    2    0    0  0.00000000000E+00  0.00000000000E+00  0.13611315401E+03  0.26020286343E+04  0.25984661289E+04 0.  0.
        1    1    3    3  502    0  0.48024165516E+03 -0.33937471332E+03 -0.10920650349E+04  0.12403278937E+04  0.50400001928E-02 0.  1.
       -1    1    3    3    0  502 -0.48024165516E+03  0.33937471332E+03  0.12281781889E+04  0.13617007406E+04  0.50400001928E-02 0. -1.
</event>
<event>
 5   0  0.4361864E-06  0.2430498E+04  0.7818609E-02  0.8428173E-01
       -1   -1    0    0    0  501  0.00000000000E+00  0.00000000000E+00  0.13588777695E+04  0.13588777695E+04  0.50400001928E-02 0. -1.
        1   -1    0    0  501    0  0.00000000000E+00  0.00000000000E+00 -0.10868012035E+04  0.10868012035E+04  0.50400001928E-02 0.  1.
    10030    2    1    2    0    0  0.00000000000E+00  0.00000000000E+00  0.27207656598E+03  0.24456789730E+04  0.24304978875E+04 0.  0.
        3    1    3    3  502    0  0.19632388679E+03  0.10788193970E+03 -0.10658460641E+04  0.10891324180E+04  0.10100000352E+00 0.  1.
       -3    1    3    3    0  502 -0.19632388679E+03 -0.10788193970E+03  0.13379226301E+04  0.13565465549E+04  0.10100000352E+00 0. -1.
</event>
<event>
 5   0  0.1085255E-05  0.2604428E+04  0.7818609E-02  0.8366699E-01
       -2   -1    0    0    0  501  0.00000000000E+00  0.00000000000E+00  0.10543886002E+04  0.10543886002E+04  0.25500000920E-02 0. -1.
        2   -1    0    0  501    0  0.00000000000E+00  0.00000000000E+00 -0.16082886645E+04  0.16082886645E+04  0.25500000920E-02 0.  1.
    10030    2    1    2    0    0  0.00000000000E+00  0.00000000000E+00 -0.55390006428E+03  0.26626772648E+04  0.26044279478E+04 0.  0.
        5    1    3    3  502    0 -0.71123649672E+03 -0.10857542745E+04 -0.38427136088E+03  0.13536640158E+04  0.46999998093E+01 0.  1.
       -5    1    3    3    0  502  0.71123649672E+03  0.10857542745E+04 -0.16962870340E+03  0.13090132490E+04  0.46999998093E+01 0. -1.
</event>
<event>
 5   0  0.4218590E-06  0.2587654E+04  0.7818609E-02  0.8372407E-01
       -1   -1    0    0    0  501  0.00000000000E+00  0.00000000000E+00  0.13487937621E+04  0.13487937621E+04  0.50400001928E-02 0. -1.
        1   -1    0    0  501    0  0.00000000000E+00  0.00000000000E+00 -0.12411003504E+04  0.12411003504E+04  0.50400001928E-02 0.  1.
    10030    2    1    2    0    0  0.00000000000E+00  0.00000000000E+00  0.10769341172E+03  0.25898941125E+04  0.25876540810E+04 0.  0.
        1    1    3    3  502    0 -0.65970144029E+03 -0.93865413815E+03 -0.54476035227E+03  0.12700556771E+04  0.50400001928E-02 0.  1.
       -1    1    3    3    0  502  0.65970144029E+03  0.93865413815E+03  0.65245376400E+03  0.13198384354E+04  0.50400001928E-02 0. -1.
</event>
<event>
 5   0  0.3705250E-06  0.2592632E+04  0.7818609E-02  0.8370708E-01
       -3   -1    0    0    0  501  0.00000000000E+00  0.00000000000E+00  0.76562037328E+03  0.76562037994E+03  0.10100000352E+00 0.  1.
        3   -1    0    0  501    0  0.00000000000E+00  0.00000000000E+00 -0.21948666258E+04  0.21948666281E+04  0.10100000352E+00 0. -1.
    10030    2    1    2    0    0  0.00000000000E+00  0.00000000000E+00 -0.14292462525E+04  0.29604870080E+04  0.25926315732E+04 0.  0.
        2    1    3    3  502    0  0.19218186217E+03 -0.15271374100E+03  0.73883956593E+03  0.77854945831E+03  0.25500000920E-02 0.  1.
       -2    1    3    3    0  502 -0.19218186217E+03  0.15271374100E+03 -0.21680858184E+04  0.21819375497E+04  0.25500000920E-02 0. -1.
</event>
<event>
 5   0  0.1085255E-05  0.2858463E+04  0.7818609E-02  0.8285344E-01
       -2   -1    0    0    0  501  0.00000000000E+00  0.00000000000E+00  0.14018119272E+04  0.14018119272E+04  0.25500000920E-02 0.  1.
        2   -1    0    0  501    0  0.00000000000E+00  0.00000000000E+00 -0.14571878265E+04  0.14571878265E+04  0.25500000920E-02 0. -1.
    10030    2    1    2    0    0  0.00000000000E+00  0.00000000000E+00 -0.55375899261E+02  0.28589997537E+04  0.28584634162E+04 0.  0.
        5    1    3    3  502    0 -0.13815264963E+04  0.30085808350E+03 -0.23641380617E+03  0.14335426831E+04  0.46999998093E+01 0. -1.
       -5    1    3    3    0  502  0.13815264963E+04 -0.30085808350E+03  0.18103790691E+03  0.14254570706E+04  0.46999998093E+01 0.  1.
</event>
<event>
 5   0  0.4597705E-06  0.2607014E+04  0.7818609E-02  0.8365823E-01
        1   -1    0    0  501    0  0.00000000000E+00  0.00000000000E+00  0.17882699101E+04  0.17882699101E+04  0.50400001928E-02 0. -1.
       -1   -1    0    0    0  501  0.00000000000E+00  0.00000000000E+00 -0.95015331843E+03  0.95015331844E+03  0.50400001928E-02 0.  1.
    10030    2    1    2    0    0  0.00000000000E+00  0.00000000000E+00  0.83811659169E+03  0.27384232286E+04  0.26070140693E+04 0.  0.
        5    1    3    3  502    0  0.74145369193E+03  0.75721046477E+03  0.12162515667E+04  0.16131990667E+04  0.46999998093E+01 0.  1.
       -5    1    3    3    0  502 -0.74145369193E+03 -0.75721046477E+03 -0.37813497499E+03  0.11252241619E+04  0.46999998093E+01 0. -1.
</event>
<event>
 5   0  0.1116310E-05  0.2595040E+04  0.7818609E-02  0.8369888E-01
       -2   -1    0    0    0  501  0.00000000000E+00  0.00000000000E+00  0.15015209407E+04  0.15015209407E+04  0.25500000920E-02 0.  1.
        2   -1    0    0  501    0  0.00000000000E+00  0.00000000000E+00 -0.11212355148E+04  0.11212355148E+04  0.25500000920E-02 0. -1.
    10030    2    1    2    0    0  0.00000000000E+00  0.00000000000E+00  0.38028542594E+03  0.26227564555E+04  0.25950403503E+04 0.  0.
        4    1    3    3  502    0  0.91364672549E+03  0.41355891441E+03 -0.64192149225E+03  0.11907334420E+04  0.12699999809E+01 0. -1.
       -4    1    3    3    0  502 -0.91364672549E+03 -0.41355891441E+03  0.10222069182E+04  0.14320230135E+04  0.12699999809E+01 0.  1.
</event>
<event>
 5   0  0.4464297E-06  0.2600702E+04  0.7818609E-02  0.8367963E-01
       -1   -1    0    0    0  501  0.00000000000E+00  0.00000000000E+00  0.86317779417E+03  0.86317779419E+03  0.50400001928E-02 0.  1.
        1   -1    0    0  501    0  0.00000000000E+00  0.00000000000E+00 -0.19589385893E+04  0.19589385893E+04  0.50400001928E-02 0. -1.
    10030    2    1    2    0    0  0.00000000000E+00  0.00000000000E+00 -0.10957607951E+04  0.28221163834E+04  0.26007016672E+04 0.  0.
        4    1    3    3  502    0 -0.12880496274E+04  0.15422069649E+03 -0.64526988511E+03  0.14488722177E+04  0.12699999809E+01 0. -1.
       -4    1    3    3    0  502  0.12880496274E+04 -0.15422069649E+03 -0.45049090997E+03  0.13732441657E+04  0.12699999809E+01 0.  1.
</event>
<event>
 5   0  0.4415080E-06  0.2596984E+04  0.7818609E-02  0.8369226E-01
       -1   -1    0    0    0  501  0.00000000000E+00  0.00000000000E+00  0.68879526606E+03  0.68879526608E+03  0.50400001928E-02 0.  1.
        1   -1    0    0  501    0  0.00000000000E+00  0.00000000000E+00 -0.24478710403E+04  0.24478710403E+04  0.50400001928E-02 0. -1.
    10030    2    1    2    0    0  0.00000000000E+00  0.00000000000E+00 -0.17590757742E+04  0.31366663064E+04  0.25969843931E+04 0.  0.
        2    1    3    3  502    0  0.91122611238E+03  0.59509958875E+03 -0.17349592588E+04  0.20480625425E+04  0.25500000920E-02 0. -1.
       -2    1    3    3    0  502 -0.91122611238E+03 -0.59509958875E+03 -0.24116515460E+02  0.10886037639E+04  0.25500000920E-02 0.  1.
</event>
<event>
 5   0  0.4361864E-06  0.2631900E+04  0.7818609E-02  0.8357446E-01
        1   -1    0    0  501    0  0.00000000000E+00  0.00000000000E+00  0.20540557882E+04  0.20540557882E+04  0.50400001928E-02 0.  1.
       -1   -1    0    0    0  501  0.00000000000E+00  0.00000000000E+00 -0.84307543658E+03  0.84307543660E+03  0.50400001928E-02 0. -1.
    10030    2    1    2    0    0  0.00000000000E+00  0.00000000000E+00  0.12109803516E+04  0.28971312248E+04  0.26318996793E+04 0.  0.
        3    1    3    3  502    0 -0.58737899879E+03 -0.10834953232E+04  0.11132184403E+04  0.16607924342E+04  0.10100000352E+00 0.  1.
       -3    1    3    3    0  502  0.58737899879E+03  0.10834953232E+04  0.97761911290E+02  0.12363387906E+04  0.10100000352E+00 0. -1.
</event>
<event>
 5   0  0.1136881E-05  0.2599020E+04  0.7818609E-02  0.8368534E-01
       -2   -1    0    0    0  501  0.00000000000E+00  0.00000000000E+00  0.73342478738E+03  0.73342478738E+03  0.25500000920E-02 0. -1.
        2   -1    0    0  501    0  0.00000000000E+00  0.00000000000E+00 -0.23025213318E+04  0.23025213318E+04  0.25500000920E-02 0.  1.
    10030    2    1    2    0    0  0.00000000000E+00  0.00000000000E+00 -0.15690965445E+04  0.30359461192E+04  0.25990199832E+04 0.  0.
        3    1    3    3  502    0  0.38374685514E+03 -0.94279457327E+03  0.15909741165E+03  0.10302597987E+04  0.10100000352E+00 0. -1.
       -3    1    3    3    0  502 -0.38374685514E+03  0.94279457327E+03 -0.17281939561E+04  0.20056863205E+04  0.10100000352E+00 0.  1.
</event>
<event>
 5   0  0.4415080E-06  0.2585057E+04  0.7818609E-02  0.8373295E-01
       -1   -1    0    0    0  501  0.00000000000E+00  0.00000000000E+00  0.12606150381E+04  0.12606150381E+04  0.50400001928E-02 0. -1.
        1   -1    0    0  501    0  0.00000000000E+00  0.00000000000E+00 -0.13252499720E+04  0.13252499720E+04  0.50400001928E-02 0.  1.
    10030    2    1    2    0    0  0.00000000000E+00  0.00000000000E+00 -0.64634933840E+02  0.25858650101E+04  0.25850570933E+04 0.  0.
        2    1    3    3  502    0  0.82932281054E+03  0.94559399276E+03  0.26561067268E+03  0.12854856486E+04  0.25500000920E-02 0.  1.
       -2    1    3    3    0  502 -0.82932281054E+03 -0.94559399276E+03 -0.33024560652E+03  0.13003793615E+04  0.25500000920E-02 0. -1.
</event>
<event>
 5   0  0.4415080E-06  0.2619041E+04  0.7818609E-02  0.8361762E-01
       -1   -1    0    0    0  501  0.00000000000E+00  0.00000000000E+00  0.16224847255E+04  0.16224847255E+04  0.50400001928E-02 0.  1.
        1   -1    0    0  501    0  0.00000000000E+00  0.00000000000E+00 -0.10569242094E+04  0.10569242094E+04  0.50400001928E-02 0. -1.
    10030    2    1    2    0    0  0.00000000000E+00  0.00000000000E+00  0.56556051605E+03  0.26794089349E+04  0.26190405769E+04 0.  0.
        2    1    3    3  502    0  0.86228148783E+02  0.11950366183E+04  0.82344593505E+03  0.14538263379E+04  0.25500000920E-02 0.  1.
       -2    1    3    3    0  502 -0.86228148783E+02 -0.11950366183E+04 -0.25788541899E+03  0.12255825970E+04  0.25500000920E-02 0. -1.
</event>
<event>
 5   0  0.1085255E-05  0.2614941E+04  0.7818609E-02  0.8363144E-01
       -2   -1    0    0    0  501  0.00000000000E+00  0.00000000000E+00  0.14460947546E+04  0.14460947546E+04  0.25500000920E-02 0. -1.
        2   -1    0    0  501    0  0.00000000000E+00  0.00000000000E+00 -0.11821349381E+04  0.11821349381E+04  0.25500000920E-02 0.  1.
    10030    2    1    2    0    0  0.00000000000E+00  0.00000000000E+00  0.26395981652E+03  0.26282296927E+04  0.26149410190E+04 0.  0.
        5    1    3    3  502    0  0.49439638533E+03 -0.85378407558E+03  0.99429209042E+03  0.14007190598E+04  0.46999998093E+01 0. -1.
       -5    1    3    3    0  502 -0.49439638533E+03  0.85378407558E+03 -0.73033227390E+03  0.12275106329E+04  0.46999998093E+01 0.  1.
</event>
<event>
 5   0  0.1116310E-05  0.2603399E+04  0.7818609E-02  0.8367047E-01
        2   -1    0    0  501    0  0.00000000000E+00  0.00000000000E+00  0.18109034213E+04  0.18109034213E+04  0.25500000920E-02 0. -1.
       -2   -1    0    0    0  501  0.00000000000E+00  0.00000000000E+00 -0.93567783066E+03  0.93567783066E+03  0.25500000920E-02 0.  1.
    10030    2    1    2    0    0  0.00000000000E+00  0.00000000000E+00  0.87522559068E+03  0.27465812520E+04  0.26033994583E+04 0.  0.
        4    1    3    3  502    0  0.33386983427E+03  0.11587169134E+03  0.17593216378E+04  0.17944663700E+04  0.12699999809E+01 0. -1.
       -4    1    3    3    0  502 -0.33386983427E+03 -0.11587169134E+03 -0.88409604710E+03  0.95211488198E+03  0.12699999809E+01 0.  1.
</event>
<event>
 5   0  0.4415080E-06  0.2598730E+04  0.7818609E-02  0.8368633E-01
       -1   -1    0    0    0  501  0.00000000000E+00  0.00000000000E+00  0.90000880469E+03  0.90000880470E+03  0.50400001928E-02 0.  1.
        1   -1    0    0  501    0  0.00000000000E+00  0.00000000000E+00 -0.18759249008E+04  0.18759249008E+04  0.50400001928E-02 0. -1.
    10030    2    1    2    0    0  0.00000000000E+00  0.00000000000E+00 -0.97591609615E+03  0.27759337056E+04  0.25987296340E+04 0.  0.
        2    1    3    3  502    0 -0.68448186834E+03 -0.84269396664E+03  0.27465717319E+03  0.11198594163E+04  0.25500000920E-02 0.  1.
       -2    1    3    3    0  502  0.68448186834E+03  0.84269396664E+03 -0.12505732693E+04  0.16560742892E+04  0.25500000920E-02 0. -1.
</event>
<event>
 5   0  0.4361864E-06  0.2588991E+04  0.7818609E-02  0.8371950E-01
       -1   -1    0    0    0  501  0.00000000000E+00  0.00000000000E+00  0.16994596460E+04  0.16994596461E+04  0.50400001928E-02 0.  1.
        1   -1    0    0  501    0  0.00000000000E+00  0.00000000000E+00 -0.98603049936E+03  0.98603049937E+03  0.50400001928E-02 0. -1.
    10030    2    1    2    0    0  0.00000000000E+00  0.00000000000E+00  0.71342914669E+03  0.26854901454E+04  0.25889913429E+04 0.  0.
        3    1    3    3  502    0  0.29744641204E+03  0.34802941898E+03 -0.89925104777E+03  0.10090843878E+04  0.10100000352E+00 0. -1.
       -3    1    3    3    0  502 -0.29744641204E+03 -0.34802941898E+03  0.16126801945E+04  0.16764057577E+04  0.10100000352E+00 0.  1.
</event>
<event>
 5   0  0.4361864E-06  0.2597202E+04  0.7818609E-02  0.8369152E-01
        1   -1    0    0  501    0  0.00000000000E+00  0.00000000000E+00  0.13329238570E+04  0.13329238570E+04  0.50400001928E-02 0.  1.
       -1   -1    0    0    0  501  0.00000000000E+00  0.00000000000E+00 -0.12651622240E+04  0.12651622240E+04  0.50400001928E-02 0. -1.
    10030    2    1    2    0    0  0.00000000000E+00  0.00000000000E+00  0.67761633017E+02  0.25980860810E+04  0.25972022727E+04 0.  0.
        3    1    3    3  502    0 -0.50475738357E+03 -0.10233384859E+04  0.65406213234E+03  0.13152182162E+04  0.10100000352E+00 0.  1.
       -3    1    3    3    0  502  0.50475738357E+03  0.10233384859E+04 -0.58630049933E+03  0.12828678649E+04  0.10100000352E+00 0. -1.
</event>
<event>
 5   0  0.1086507E-05  0.2606119E+04  0.7818609E-02  0.8366126E-01
       -2   -1    0    0    0  501  0.00000000000E+00  0.00000000000E+00  0.16693927818E+04  0.16693927818E+04  0.25500000920E-02 0. -1.
        2   -1    0    0  501    0  0.00000000000E+00  0.00000000000E+00 -0.10171149659E+04  0.10171149659E+04  0.25500000920E-02 0.  1.
    10030    2    1    2    0    0  0.00000000000E+00  0.00000000000E+00  0.65227781586E+03  0.26865077477E+04  0.26061192469E+04 0.  0.
        2    1    3    3  502    0  0.40075012921E+03  0.10537054696E+04 -0.34752391888E+03  0.11796901106E+04  0.25500000920E-02 0.  1.
       -2    1    3    3    0  502 -0.40075012921E+03 -0.10537054696E+04  0.99980173474E+03  0.15068176371E+04  0.25500000920E-02 0. -1.
</event>
<event>
 5   0  0.4218590E-06  0.2585957E+04  0.7818609E-02  0.8372987E-01
        1   -1    0    0  501    0  0.00000000000E+00  0.00000000000E+00  0.15200366894E+04  0.15200366894E+04  0.50400001928E-02 0.  1.
       -1   -1    0    0    0  501  0.00000000000E+00  0.00000000000E+00 -0.10998379148E+04  0.10998379148E+04  0.50400001928E-02 0. -1.
    10030    2    1    2    0    0  0.00000000000E+00  0.00000000000E+00  0.42019877462E+03  0.26198746042E+04  0.25859574496E+04 0.  0.
        1    1    3    3  502    0 -0.23099849078E+03  0.10711004711E+04 -0.48532735022E+03  0.11983985809E+04  0.50400001928E-02 0. -1.
       -1    1    3    3    0  502  0.23099849078E+03 -0.10711004711E+04  0.90552612485E+03  0.14214760232E+04  0.50400001928E-02 0.  1.
</event>
<event>
 5   0  0.1085255E-05  0.2622536E+04  0.7818609E-02  0.8360586E-01
       -2   -1    0    0    0  501  0.00000000000E+00  0.00000000000E+00  0.60700393623E+03  0.60700393624E+03  0.25500000920E-02 0.  1.
        2   -1    0    0  501    0  0.00000000000E+00  0.00000000000E+00 -0.28326405778E+04  0.28326405778E+04  0.25500000920E-02 0. -1.
    10030    2    1    2    0    0  0.00000000000E+00  0.00000000000E+00 -0.22256366416E+04  0.34396445141E+04  0.26225361623E+04 0.  0.
        5    1    3    3  502    0 -0.10600132201E+04  0.77159879847E+03 -0.11393483453E+04  0.17369886225E+04  0.46999998093E+01 0. -1.
       -5    1    3    3    0  502  0.10600132201E+04 -0.77159879847E+03 -0.10862882963E+04  0.17026558916E+04  0.46999998093E+01 0.  1.
</event>
<event>
 5   0  0.4361864E-06  0.2601934E+04  0.7818609E-02  0.8367545E-01
       -1   -1    0    0    0  501  0.00000000000E+00  0.00000000000E+00  0.11004408499E+04  0.11004408499E+04  0.50400001928E-02 0. -1.
        1   -1    0    0  501    0  0.00000000000E+00  0.00000000000E+00 -0.15380337361E+04  0.15380337361E+04  0.50400001928E-02 0.  1.
    10030    2    1    2    0    0  0.00000000000E+00  0.00000000000E+00 -0.43759288618E+03  0.26384745861E+04  0.26019340129E+04 0.  0.
        3    1    3    3  502    0  0.10021206285E+04  0.74159743759E+02 -0.10566994777E+04  0.14582041071E+04  0.10100000352E+00 0.  1.
       -3    1    3    3    0  502 -0.10021206285E+04 -0.74159743759E+02  0.61910659148E+03  0.11802704790E+04  0.10100000352E+00 0. -1.
</event>
<event>
 5   0  0.1086507E-05  0.2579234E+04  0.7818609E-02  0.8375289E-01
        2   -1    0    0  501    0  0.00000000000E+00  0.00000000000E+00  0.13401928544E+04  0.13401928544E+04  0.25500000920E-02 0.  1.
       -2   -1    0    0    0  501  0.00000000000E+00  0.00000000000E+00 -0.12409495699E+04  0.12409495699E+04  0.25500000920E-02 0. -1.
    10030    2    1    2    0    0  0.00000000000E+00  0.00000000000E+00  0.99243284461E+02  0.25811424243E+04  0.25792337980E+04 0.  0.
        2    1    3    3  502    0  0.46883662514E+03 -0.12867066746E+03 -0.11457277565E+04  0.12446107881E+04  0.25500000920E-02 0. -1.
       -2    1    3    3    0  502 -0.46883662514E+03  0.12867066746E+03  0.12449710410E+04  0.13365316362E+04  0.25500000920E-02 0.  1.
</event>
<event>
 5   0  0.1085255E-05  0.2613008E+04  0.7818609E-02  0.8363796E-01
       -2   -1    0    0    0  501  0.00000000000E+00  0.00000000000E+00  0.88308581536E+03  0.88308581536E+03  0.25500000920E-02 0.  1.
        2   -1    0    0  501    0  0.00000000000E+00  0.00000000000E+00 -0.19329415012E+04  0.19329415012E+04  0.25500000920E-02 0. -1.
    10030    2    1    2    0    0  0.00000000000E+00  0.00000000000E+00 -0.10498556858E+04  0.28160273166E+04  0.26130083977E+04 0.  0.
        5    1    3    3  502    0  0.14324965667E+03 -0.30521098424E+03  0.83538552182E+03  0.90086917424E+03  0.46999998093E+01 0.  1.
       -5    1    3    3    0  502 -0.14324965667E+03  0.30521098424E+03 -0.18852412077E+04  0.19151581423E+04  0.46999998093E+01 0. -1.
</event>
<event>
 5   0  0.4218590E-06  0.2574600E+04  0.7818609E-02  0.8376881E-01
       -1   -1    0    0    0  501  0.00000000000E+00  0.00000000000E+00  0.10049608149E+04  0.10049608149E+04  0.50400001928E-02 0. -1.
        1   -1    0    0  501    0  0.00000000000E+00  0.00000000000E+00 -0.16489608471E+04  0.16489608471E+04  0.50400001928E-02 0.  1.
    10030    2    1    2    0    0  0.00000000000E+00  0.00000000000E+00 -0.64400003221E+03  0.26539216619E+04  0.25745998031E+04 0.  0.
        1    1    3    3  502    0  0.10522076548E+04 -0.33391887037E+03 -0.10045937741E+04  0.14925988784E+04  0.50400001928E-02 0.  1.
       -1    1    3    3    0  502 -0.10522076548E+04  0.33391887037E+03  0.36059374192E+03  0.11613227835E+04  0.50400001928E-02 0. -1.
</event>
<event>
 5   0  0.4464297E-06  0.2618962E+04  0.7818609E-02  0.8361789E-01
       -1   -1    0    0    0  501  0.00000000000E+00  0.00000000000E+00  0.94030713761E+03  0.94030713762E+03  0.50400001928E-02 0. -1.
        1   -1    0    0  501    0  0.00000000000E+00  0.00000000000E+00 -0.18235962463E+04  0.18235962463E+04  0.50400001928E-02 0.  1.
    10030    2    1    2    0    0  0.00000000000E+00  0.00000000000E+00 -0.88328910867E+03  0.27639033839E+04  0.26189620589E+04 0.  0.
        4    1    3    3  502    0 -0.11487885920E+04  0.53510401181E+03 -0.78956767728E+03  0.14931410725E+04  0.12699999809E+01 0.  1.
       -4    1    3    3    0  502  0.11487885920E+04 -0.53510401181E+03 -0.93721431387E+02  0.12707623114E+04  0.12699999809E+01 0. -1.
</event>
<event>
 5   0  0.1136881E-05  0.2525849E+04  0.7818609E-02  0.8393834E-01
        2   -1    0    0  501    0  0.00000000000E+00  0.00000000000E+00  0.72368653746E+03  0.72368653746E+03  0.25500000920E-02 0. -1.
       -2   -1    0    0    0  501  0.00000000000E+00  0.00000000000E+00 -0.22039634472E+04  0.22039634472E+04  0.25500000920E-02 0.  1.
    10030    2    1    2    0    0  0.00000000000E+00  0.00000000000E+00 -0.14802769098E+04  0.29276499847E+04  0.25258493034E+04 0.  0.
        3    1    3    3  502    0  0.82465221644E+03  0.71851310852E+03 -0.14719790232E+04  0.18338578516E+04  0.10100000352E+00 0.  1.
       -3    1    3    3    0  502 -0.82465221644E+03 -0.71851310852E+03 -0.82978866089E+01  0.10937921330E+04  0.10100000352E+00 0. -1.
</event>
<event>
 5   0  0.4597705E-06  0.2601943E+04  0.7818609E-02  0.8367542E-01
        1   -1    0    0  501    0  0.00000000000E+00  0.00000000000E+00  0.14460966491E+04  0.14460966491E+04  0.50400001928E-02 0.  1.
       -1   -1    0    0    0  501  0.00000000000E+00  0.00000000000E+00 -0.11704105586E+04  0.11704105586E+04  0.50400001928E-02 0. -1.
    10030    2    1    2    0    0  0.00000000000E+00  0.00000000000E+00  0.27568609047E+03  0.26165072077E+04  0.26019429562E+04 0.  0.
        5    1    3    3  502    0 -0.68224780955E+03  0.42448969452E+03  0.11667275481E+04  0.14166611577E+04  0.46999998093E+01 0.  1.
       -5    1    3    3    0  502  0.68224780955E+03 -0.42448969452E+03 -0.89104145762E+03  0.11998460500E+04  0.46999998093E+01 0. -1.
</event>
<event>
 5   0  0.1085061E-05  0.2615906E+04  0.7818609E-02  0.8362818E-01
        2   -1    0    0  501    0  0.00000000000E+00  0.00000000000E+00  0.23526287811E+04  0.23526287811E+04  0.25500000920E-02 0. -1.
       -2   -1    0    0    0  501  0.00000000000E+00  0.00000000000E+00 -0.72716144835E+03  0.72716144836E+03  0.25500000920E-02 0.  1.
    10030    2    1    2    0    0  0.00000000000E+00  0.00000000000E+00  0.16254673328E+04  0.30797902295E+04  0.26159059249E+04 0.  0.
        1    1    3    3  502    0  0.39753529575E+03 -0.12291725901E+04  0.57190840690E+03  0.14127911359E+04  0.50400001928E-02 0.  1.
       -1    1    3    3    0  502 -0.39753529575E+03  0.12291725901E+04  0.10535589259E+04  0.16669990936E+04  0.50400001928E-02 0. -1.
</event>
<event>
 5   0  0.4218590E-06  0.2613349E+04  0.7818609E-02  0.8363681E-01
       -1   -1    0    0    0  501  0.00000000000E+00  0.00000000000E+00  0.90460575346E+03  0.90460575347E+03  0.50400001928E-02 0.  1.
        1   -1    0    0  501    0  0.00000000000E+00  0.00000000000E+00 -0.18874495734E+04  0.18874495734E+04  0.50400001928E-02 0. -1.
    10030    2    1    2    0    0  0.00000000000E+00  0.00000000000E+00 -0.98284381992E+03  0.27920553269E+04  0.26133486132E+04 0.  0.
        1    1    3    3  502    0  0.20427225156E+03  0.12566867187E+04 -0.80547738408E+03  0.15065797284E+04  0.50400001928E-02 0. -1.
       -1    1    3    3    0  502 -0.20427225156E+03 -0.12566867187E+04 -0.17736643583E+03  0.12854755985E+04  0.50400001928E-02 0.  1.
</event>
<event>
 5   0  0.1086507E-05  0.2608713E+04  0.7818609E-02  0.8365248E-01
        2   -1    0    0  501    0  0.00000000000E+00  0.00000000000E+00  0.71038339006E+03  0.71038339006E+03  0.25500000920E-02 0. -1.
       -2   -1    0    0    0  501  0.00000000000E+00  0.00000000000E+00 -0.23949681921E+04  0.23949681921E+04  0.25500000920E-02 0.  1.
    10030    2    1    2    0    0  0.00000000000E+00  0.00000000000E+00 -0.16845848020E+04  0.31053515821E+04  0.26087128039E+04 0.  0.
        2    1    3    3  502    0  0.58403489526E+03 -0.17822441638E+03  0.52973511847E+03  0.80838109653E+03  0.25500000920E-02 0. -1.
       -2    1    3    3    0  502 -0.58403489526E+03  0.17822441638E+03 -0.22143199205E+04  0.22969704856E+04  0.25500000920E-02 0.  1.
</event>
<event>
 5   0  0.4361864E-06  0.2599081E+04  0.7818609E-02  0.8368513E-01
        1   -1    0    0  501    0  0.00000000000E+00  0.00000000000E+00  0.23411623964E+04  0.23411623964E+04  0.50400001928E-02 0.  1.
       -1   -1    0    0    0  501  0.00000000000E+00  0.00000000000E+00 -0.72135343501E+03  0.72135343503E+03  0.50400001928E-02 0. -1.
    10030    2    1    2    0    0  0.00000000000E+00  0.00000000000E+00  0.16198089614E+04  0.30625158314E+04  0.25990810196E+04 0.  0.
        3    1    3    3  502    0  0.12632026395E+04  0.29113145945E+03  0.91768636572E+03  0.15882653151E+04  0.10100000352E+00 0.  1.
       -3    1    3    3    0  502 -0.12632026395E+04 -0.29113145945E+03  0.70212259563E+03  0.14742505163E+04  0.10100000352E+00 0. -1.
</event>
<event>
 5   0  0.1116310E-05  0.2602692E+04  0.7818609E-02  0.8367287E-01
        2   -1    0    0  501    0  0.00000000000E+00  0.00000000000E+00  0.10314256062E+04  0.10314256062E+04  0.25500000920E-02 0. -1.
       -2   -1    0    0    0  501  0.00000000000E+00  0.00000000000E+00 -0.16419038487E+04  0.16419038487E+04  0.25500000920E-02 0.  1.
    10030    2    1    2    0    0  0.00000000000E+00  0.00000000000E+00 -0.61047824247E+03  0.26733294549E+04  0.26026922004E+04 0.  0.
        4    1    3    3  502    0  0.12675686675E+04 -0.13356295815E+03 -0.35567081593E+02  0.12750827505E+04  0.12699999809E+01 0. -1.
       -4    1    3    3    0  502 -0.12675686675E+04  0.13356295815E+03 -0.57491116088E+03  0.13982467044E+04  0.12699999809E+01 0.  1.
</event>
<event>
 5   0  0.1085061E-05  0.2602560E+04  0.7818609E-02  0.8367332E-01
        2   -1    0    0  501    0  0.00000000000E+00  0.00000000000E+00  0.10031387860E+04  0.10031387860E+04  0.25500000920E-02 0.  1.
       -2   -1    0    0    0  501  0.00000000000E+00  0.00000000000E+00 -0.16880317956E+04  0.16880317956E+04  0.25500000920E-02 0. -1.
    10030    2    1    2    0    0  0.00000000000E+00  0.00000000000E+00 -0.68489300968E+03  0.26911705816E+04  0.26025604055E+04 0.  0.
        1    1    3    3  502    0 -0.10943151618E+04  0.30761183566E+03 -0.99739892068E+03  0.15122682704E+04  0.50400001928E-02 0. -1.
       -1    1    3    3    0  502  0.10943151618E+04 -0.30761183566E+03  0.31250591100E+03  0.11789023111E+04  0.50400001928E-02 0.  1.
</event>
<event>
 5   0  0.4361864E-06  0.2588589E+04  0.7818609E-02  0.8372088E-01
        1   -1    0    0  501    0  0.00000000000E+00  0.00000000000E+00  0.17218251261E+04  0.17218251261E+04  0.50400001928E-02 0.  1.
       -1   -1    0    0    0  501  0.00000000000E+00  0.00000000000E+00 -0.97292011544E+03  0.97292011545E+03  0.50400001928E-02 0. -1.
    10030    2    1    2    0    0  0.00000000000E+00  0.00000000000E+00  0.74890501068E+03  0.26947452416E+04  0.25885890369E+04 0.  0.
        3    1    3    3  502    0 -0.20804181854E+03 -0.11756699316E+04  0.89466257079E+03  0.14919458141E+04  0.10100000352E+00 0.  1.
       -3    1    3    3    0  502  0.20804181854E+03  0.11756699316E+04 -0.14575756011E+03  0.12027994275E+04  0.10100000352E+00 0. -1.
</event>
<event>
 5   0  0.4597705E-06  0.2631346E+04  0.7818609E-02  0.8357631E-01
        1   -1    0    0  501    0  0.00000000000E+00  0.00000000000E+00  0.24534441412E+04  0.24534441412E+04  0.50400001928E-02 0. -1.
       -1   -1    0    0    0  501  0.00000000000E+00  0.00000000000E+00 -0.70553667360E+03  0.70553667362E+03  0.50400001928E-02 0.  1.
    10030    2    1    2    0    0  0.00000000000E+00  0.00000000000E+00  0.17479074676E+04  0.31589808148E+04  0.26313455252E+04 0.  0.
        5    1    3    3  502    0 -0.71230212092E+03 -0.59381860645E+03 -0.24644516004E+03  0.95955831284E+03  0.46999998093E+01 0.  1.
       -5    1    3    3    0  502  0.71230212092E+03  0.59381860645E+03  0.19943526276E+04  0.21994225020E+04  0.46999998093E+01 0. -1.
</event>
<event>
 5   0  0.4361864E-06  0.2601782E+04  0.7818609E-02  0.8367596E-01
       -1   -1    0    0    0  501  0.00000000000E+00  0.00000000000E+00  0.11010053057E+04  0.11010053057E+04  0.50400001928E-02 0.  1.
        1   -1    0    0  501    0  0.00000000000E+00  0.00000000000E+00 -0.15370650222E+04  0.15370650222E+04  0.50400001928E-02 0. -1.
    10030    2    1    2    0    0  0.00000000000E+00  0.00000000000E+00 -0.43605971650E+03  0.26380703280E+04  0.26017815010E+04 0.  0.
        3    1    3    3  502    0  0.41271951308E+03 -0.60189866325E+03  0.87388274220E+03  0.11385475197E+04  0.10100000352E+00 0.  1.
       -3    1    3    3    0  502 -0.41271951308E+03  0.60189866325E+03 -0.13099424587E+04  0.14995228083E+04  0.10100000352E+00 0. -1.
</event>
<event>
 5   0  0.3705250E-06  0.2612306E+04  0.7818609E-02  0.8364033E-01
        3   -1    0    0  501    0  0.00000000000E+00  0.00000000000E+00  0.18978741526E+04  0.18978741553E+04  0.10100000352E+00 0.  1.
       -3   -1    0    0    0  501  0.00000000000E+00  0.00000000000E+00 -0.89891941183E+03  0.89891941750E+03  0.10100000352E+00 0. -1.
    10030    2    1    2    0    0  0.00000000000E+00  0.00000000000E+00  0.99895474079E+03  0.27967935728E+04  0.26123062062E+04 0.  0.
        2    1    3    3  502    0  0.66784685678E+03 -0.11031132458E+04  0.72189301549E+03  0.14778388894E+04  0.25500000920E-02 0. -1.
       -2    1    3    3    0  502 -0.66784685678E+03  0.11031132458E+04  0.27706172529E+03  0.13189546834E+04  0.25500000920E-02 0.  1.
</event>
<event>
 5   0  0.1086507E-05  0.2608227E+04  0.7818609E-02  0.8365412E-01
       -2   -1    0    0    0  501  0.00000000000E+00  0.00000000000E+00  0.12548464535E+04  0.12548464535E+04  0.25500000920E-02 0.  1.
        2   -1    0    0  501    0  0.00000000000E+00  0.00000000000E+00 -0.13553149094E+04  0.13553149094E+04  0.25500000920E-02 0. -1.
    10030    2    1    2    0    0  0.00000000000E+00  0.00000000000E+00 -0.10046845595E+03  0.26101613629E+04  0.26082270664E+04 0.  0.
        2    1    3    3  502    0  0.11387553439E+04  0.52626827756E+03 -0.40685517398E+03  0.13188074787E+04  0.25500000920E-02 0.  1.
       -2    1    3    3    0  502 -0.11387553439E+04 -0.52626827756E+03  0.30638671803E+03  0.12913538842E+04  0.25500000920E-02 0. -1.
</event>
<event>
 5   0  0.4361864E-06  0.2602846E+04  0.7818609E-02  0.8367235E-01
       -1   -1    0    0    0  501  0.00000000000E+00  0.00000000000E+00  0.64077323133E+03  0.64077323135E+03  0.50400001928E-02 0. -1.
        1   -1    0    0  501    0  0.00000000000E+00  0.00000000000E+00 -0.26432165698E+04  0.26432165698E+04  0.50400001928E-02 0.  1.
    10030    2    1    2    0    0  0.00000000000E+00  0.00000000000E+00 -0.20024433385E+04  0.32839898012E+04  0.26028464592E+04 0.  0.
        3    1    3    3  502    0 -0.17021360320E+03  0.15562368630E+03  0.61478379292E+03  0.65662053325E+03  0.10100000352E+00 0. -1.
       -3    1    3    3    0  502  0.17021360320E+03 -0.15562368630E+03 -0.26172271314E+04  0.26273692679E+04  0.10100000352E+00 0.  1.
</event>
<event>
 5   0  0.1085061E-05  0.2597818E+04  0.7818609E-02  0.8368943E-01
       -2   -1    0    0    0  501  0.00000000000E+00  0.00000000000E+00  0.94885852553E+03  0.94885852554E+03  0.25500000920E-02 0. -1.
        2   -1    0    0  501    0  0.00000000000E+00  0.00000000000E+00 -0.17780990248E+04  0.17780990248E+04  0.25500000920E-02 0.  1.
    10030    2    1    2    0    0  0.00000000000E+00  0.00000000000E+00 -0.82924049928E+03  0.27269575504E+04  0.25978178681E+04 0.  0.
        1    1    3    3  502    0  0.45236416324E+03 -0.56102386383E+03 -0.15489800025E+04  0.17084262232E+04  0.50400001928E-02 0.  1.
       -1    1    3    3    0  502 -0.45236416324E+03  0.56102386383E+03  0.71973950319E+03  0.10185313272E+04  0.50400001928E-02 0. -1.
</event>
<event>
 5   0  0.1116310E-05  0.2543998E+04  0.7818609E-02  0.8387476E-01
       -2   -1    0    0    0  501  0.00000000000E+00  0.00000000000E+00  0.12355486751E+04  0.12355486752E+04  0.25500000920E-02 0.  1.
        2   -1    0    0  501    0  0.00000000000E+00  0.00000000000E+00 -0.13095250022E+04  0.13095250022E+04  0.25500000920E-02 0. -1.
    10030    2    1    2    0    0  0.00000000000E+00  0.00000000000E+00 -0.73976327084E+02  0.25450736774E+04  0.25439983346E+04 0.  0.
        4    1    3    3  502    0 -0.81892627001E+03  0.93484263410E+03 -0.30804416415E+03  0.12804154819E+04  0.12699999809E+01 0. -1.
       -4    1    3    3    0  502  0.81892627001E+03 -0.93484263410E+03  0.23406783707E+03  0.12646581955E+04  0.12699999809E+01 0.  1.
</event>
<event>
 5   0  0.4597705E-06  0.2603467E+04  0.7818609E-02  0.8367025E-01
        1   -1    0    0  501    0  0.00000000000E+00  0.00000000000E+00  0.22387983623E+04  0.22387983623E+04  0.50400001928E-02 0. -1.
       -1   -1    0    0    0  501  0.00000000000E+00  0.00000000000E+00 -0.75688362147E+03  0.75688362149E+03  0.50400001928E-02 0.  1.
    10030    2    1    2    0    0  0.00000000000E+00  0.00000000000E+00  0.14819147409E+04  0.29956819838E+04  0.26034667751E+04 0.  0.
        5    1    3    3  502    0 -0.73812332836E+03 -0.10429202235E+04  0.10274188539E+04  0.16395487891E+04  0.46999998093E+01 0. -1.
       -5    1    3    3    0  502  0.73812332836E+03  0.10429202235E+04  0.45449588701E+03  0.13561331947E+04  0.46999998093E+01 0.  1.
</event>
<event>
 5   0  0.1136881E-05  0.2588744E+04  0.7818609E-02  0.8372035E-01
       -2   -1    0    0    0  501  0.00000000000E+00  0.00000000000E+00  0.63504218632E+03  0.63504218632E+03  0.25500000920E-02 0.  1.
        2   -1    0    0  501    0  0.00000000000E+00  0.00000000000E+00 -0.26382483551E+04  0.26382483551E+04  0.25500000920E-02 0. -1.
    10030    2    1    2    0    0  0.00000000000E+00  0.00000000000E+00 -0.20032061688E+04  0.32732905414E+04  0.25887440997E+04 0.  0.
        3    1    3    3  502    0  0.69469797187E+03  0.64988947082E+03  0.10824646765E+03  0.95743349866E+03  0.10100000352E+00 0.  1.
       -3    1    3    3    0  502 -0.69469797187E+03 -0.64988947082E+03 -0.21114526364E+04  0.23158570428E+04  0.10100000352E+00 0. -1.
</event>
<event>
 5   0  0.1136881E-05  0.2603444E+04  0.7818609E-02  0.8367032E-01
       -2   -1    0    0    0  501  0.00000000000E+00  0.00000000000E+00  0.11179436588E+04  0.11179436588E+04  0.25500000920E-02 0.  1.
        2   -1    0    0  501    0  0.00000000000E+00  0.00000000000E+00 -0.15157118547E+04  0.15157118547E+04  0.25500000920E-02 0. -1.
    10030    2    1    2    0    0  0.00000000000E+00  0.00000000000E+00 -0.39776819591E+03  0.26336555135E+04  0.26034442237E+04 0.  0.
        3    1    3    3  502    0  0.57155432203E+03  0.55292366541E+02  0.98289705572E+03  0.11383401167E+04  0.10100000352E+00 0.  1.
       -3    1    3    3    0  502 -0.57155432203E+03 -0.55292366541E+02 -0.13806652516E+04  0.14953153969E+04  0.10100000352E+00 0. -1.
</event>
<event>
 5   0  0.4415080E-06  0.2638549E+04  0.7818609E-02  0.8355224E-01
       -1   -1    0    0    0  501  0.00000000000E+00  0.00000000000E+00  0.12810489554E+04  0.12810489554E+04  0.50400001928E-02 0.  1.
        1   -1    0    0  501    0  0.00000000000E+00  0.00000000000E+00 -0.13586409811E+04  0.13586409811E+04  0.50400001928E-02 0. -1.
    10030    2    1    2    0    0  0.00000000000E+00  0.00000000000E+00 -0.77592025680E+02  0.26396899366E+04  0.26385493057E+04 0.  0.
        2    1    3    3  502    0 -0.18747586115E+03  0.13033666696E+04 -0.11990964049E+03  0.13222292524E+04  0.25500000920E-02 0. -1.
       -2    1    3    3    0  502  0.18747586115E+03 -0.13033666696E+04  0.42317614811E+02  0.13174606842E+04  0.25500000920E-02 0.  1.
</event>
<event>
 5   0  0.4597705E-06  0.2467592E+04  0.7818609E-02  0.8414623E-01
       -1   -1    0    0    0  501  0.00000000000E+00  0.00000000000E+00  0.75222547062E+03  0.75222547064E+03  0.50400001928E-02 0.  1.
        1   -1    0    0  501    0  0.00000000000E+00  0.00000000000E+00 -0.20236650054E+04  0.20236650054E+04  0.50400001928E-02 0. -1.
    10030    2    1    2    0    0  0.00000000000E+00  0.00000000000E+00 -0.12714395348E+04  0.27758904760E+04  0.24675918310E+04 0.  0.
        5    1    3    3  502    0  0.10669114179E+04 -0.52586850241E+03 -0.10043714437E+04  0.15567985555E+04  0.46999998093E+01 0. -1.
       -5    1    3    3    0  502 -0.10669114179E+04  0.52586850241E+03 -0.26706809105E+03  0.12190919205E+04  0.46999998093E+01 0.  1.
</event>
<event>
 5   0  0.4218590E-06  0.2591659E+04  0.7818609E-02  0.8371040E-01
        1   -1    0    0  501    0  0.00000000000E+00  0.00000000000E+00  0.17439466291E+04  0.17439466291E+04  0.50400001928E-02 0.  1.
       -1   -1    0    0    0  501  0.00000000000E+00  0.00000000000E+00 -0.96285884580E+03  0.96285884582E+03  0.50400001928E-02 0. -1.
    10030    2    1    2    0    0  0.00000000000E+00  0.00000000000E+00  0.78108778327E+03  0.27068054749E+04  0.25916592665E+04 0.  0.
        1    1    3    3  502    0 -0.10184649564E+04  0.24963888012E+03  0.11856724231E+04  0.15828485502E+04  0.50400001928E-02 0.  1.
       -1    1    3    3    0  502  0.10184649564E+04 -0.24963888012E+03 -0.40458463981E+03  0.11239569247E+04  0.50400001928E-02 0. -1.
</event>
<event>
 5   0  0.1085255E-05  0.2605465E+04  0.7818609E-02  0.8366347E-01
        2   -1    0    0  501    0  0.00000000000E+00  0.00000000000E+00  0.14701414858E+04  0.14701414858E+04  0.25500000920E-02 0.  1.
       -2   -1    0    0    0  501  0.00000000000E+00  0.00000000000E+00 -0.11543866048E+04  0.11543866048E+04  0.25500000920E-02 0. -1.
    10030    2    1    2    0    0  0.00000000000E+00  0.00000000000E+00  0.31575488102E+03  0.26245280906E+04  0.26054647481E+04 0.  0.
        5    1    3    3  502    0  0.45683761637E+03  0.87266452551E+03  0.10166676739E+04  0.14155844133E+04  0.46999998093E+01 0.  1.
       -5    1    3    3    0  502 -0.45683761637E+03 -0.87266452551E+03 -0.70091279292E+03  0.12089436774E+04  0.46999998093E+01 0. -1.
</event>
<event>
 5   0  0.1136881E-05  0.2597636E+04  0.7818609E-02  0.8369005E-01
       -2   -1    0    0    0  501  0.00000000000E+00  0.00000000000E+00  0.15605608487E+04  0.15605608487E+04  0.25500000920E-02 0. -1.
        2   -1    0    0  501    0  0.00000000000E+00  0.00000000000E+00 -0.10809752787E+04  0.10809752787E+04  0.25500000920E-02 0.  1.
    10030    2    1    2    0    0  0.00000000000E+00  0.00000000000E+00  0.47958557000E+03  0.26415361275E+04  0.25976356161E+04 0.  0.
        3    1    3    3  502    0  0.86038618561E+03  0.71649381598E+03  0.90917261932E+03  0.14422976942E+04  0.10100000352E+00 0. -1.
       -3    1    3    3    0  502 -0.86038618561E+03 -0.71649381598E+03 -0.42958704933E+03  0.11992384333E+04  0.10100000352E+00 0.  1.
</event>
<event>
 5   0  0.1116310E-05  0.2630702E+04  0.7818609E-02  0.8357847E-01
       -2   -1    0    0    0  501  0.00000000000E+00  0.00000000000E+00  0.11896785263E+04  0.11896785263E+04  0.25500000920E-02 0.  1.
        2   -1    0    0  501    0  0.00000000000E+00  0.00000000000E+00 -0.14542985389E+04  0.14542985389E+04  0.25500000920E-02 0. -1.
    10030    2    1    2    0    0  0.00000000000E+00  0.00000000000E+00 -0.26462001266E+03  0.26439770652E+04  0.26307016118E+04 0.  0.
        4    1    3    3  502    0  0.49339823396E+03 -0.46690932069E+03  0.99973987214E+03  0.12086883618E+04  0.12699999809E+01 0.  1.
       -4    1    3    3    0  502 -0.49339823396E+03  0.46690932069E+03 -0.12643598848E+04  0.14352887034E+04  0.12699999809E+01 0. -1.
</event>
<event>
 5   0  0.1136881E-05  0.2598941E+04  0.7818609E-02  0.8368561E-01
        2   -1    0    0  501    0  0.00000000000E+00  0.00000000000E+00  0.24429852797E+04  0.24429852797E+04  0.25500000920E-02 0. -1.
       -2   -1    0    0    0  501  0.00000000000E+00  0.00000000000E+00 -0.69121291077E+03  0.69121291078E+03  0.25500000920E-02 0.  1.
    10030    2    1    2    0    0  0.00000000000E+00  0.00000000000E+00  0.17517723689E+04  0.31341981905E+04  0.25989405273E+04 0.  0.
        3    1    3    3  502    0 -0.11701469033E+04  0.54395794669E+02  0.15542493654E+04  0.19462512114E+04  0.10100000352E+00 0. -1.
       -3    1    3    3    0  502  0.11701469033E+04 -0.54395794669E+02  0.19752300350E+03  0.11879469790E+04  0.10100000352E+00 0.  1.
</event>
<event>
 5   0  0.4597705E-06  0.2589751E+04  0.7818609E-02  0.8371691E-01
        1   -1    0    0  501    0  0.00000000000E+00  0.00000000000E+00  0.24767997678E+04  0.24767997678E+04  0.50400001928E-02 0. -1.
       -1   -1    0    0    0  501  0.00000000000E+00  0.00000000000E+00 -0.67696331778E+03  0.67696331779E+03  0.50400001928E-02 0.  1.
    10030    2    1    2    0    0  0.00000000000E+00  0.00000000000E+00  0.17998364500E+04  0.31537630856E+04  0.25897510215E+04 0.  0.
        5    1    3    3  502    0  0.11239445894E+04 -0.44527119802E+03  0.14647959677E+04  0.18992543791E+04  0.46999998093E+01 0.  1.
       -5    1    3    3    0  502 -0.11239445894E+04  0.44527119802E+03  0.33504048234E+03  0.12545087065E+04  0.46999998093E+01 0. -1.
</event>
<event>
 5   0  0.4464297E-06  0.2593748E+04  0.7818609E-02  0.8370328E-01
        1   -1    0    0  501    0  0.00000000000E+00  0.00000000000E+00  0.12702423907E+04  0.12702423908E+04  0.50400001928E-02 0.  1.
       -1   -1    0    0    0  501  0.00000000000E+00  0.00000000000E+00 -0.13240644540E+04  0.13240644540E+04  0.50400001928E-02 0. -1.
    10030    2    1    2    0    0  0.00000000000E+00  0.00000000000E+00 -0.53822063209E+02  0.25943068447E+04  0.25937484824E+04 0.  0.
        4    1    3    3  502    0 -0.99470055788E+03 -0.52193118899E+02  0.80376631473E+03  0.12799200065E+04  0.12699999809E+01 0.  1.
       -4    1    3    3    0  502  0.99470055788E+03  0.52193118899E+02 -0.85758837794E+03  0.13143868382E+04  0.12699999809E+01 0. -1.
</event>
<event>
 5   0  0.4597705E-06  0.2586127E+04  0.7818609E-02  0.8372929E-01
        1   -1    0    0  501    0  0.00000000000E+00  0.00000000000E+00  0.13002625362E+04  0.13002625362E+04  0.50400001928E-02 0. -1.
       -1   -1    0    0    0  501  0.00000000000E+00  0.00000000000E+00 -0.12859040397E+04  0.12859040398E+04  0.50400001928E-02 0.  1.
    10030    2    1    2    0    0  0.00000000000E+00  0.00000000000E+00  0.14358496415E+02  0.25861665759E+04  0.25861267162E+04 0.  0.
        5    1    3    3  502    0 -0.27060903126E+03 -0.57090013286E+03 -0.11210378342E+04  0.12868193833E+04  0.46999998093E+01 0.  1.
       -5    1    3    3    0  502  0.27060903126E+03  0.57090013286E+03  0.11353963306E+04  0.12993471927E+04  0.46999998093E+01 0. -1.
</event>
<event>
 5   0  0.4464297E-06  0.2635173E+04  0.7818609E-02  0.8356351E-01
       -1   -1    0    0    0  501  0.00000000000E+00  0.00000000000E+00  0.84121480275E+03  0.84121480277E+03  0.50400001928E-02 0. -1.
        1   -1    0    0  501    0  0.00000000000E+00  0.00000000000E+00 -0.20637225509E+04  0.20637225509E+04  0.50400001928E-02 0.  1.
    10030    2    1    2    0    0  0.00000000000E+00  0.00000000000E+00 -0.12225077481E+04  0.29049373536E+04  0.26351728282E+04 0.  0.
        4    1    3    3  502    0 -0.21816731696E+03  0.80827187305E+03 -0.17328216511E+04  0.19244669097E+04  0.12699999809E+01 0.  1.
       -4    1    3    3    0  502  0.21816731696E+03 -0.80827187305E+03  0.51031390302E+03  0.98047044395E+03  0.12699999809E+01 0. -1.
</event>
<event>
 5   0  0.1136881E-05  0.2580073E+04  0.7818609E-02  0.8375002E-01
       -2   -1    0    0    0  501  0.00000000000E+00  0.00000000000E+00  0.69951834917E+03  0.69951834918E+03  0.25500000920E-02 0. -1.
        2   -1    0    0  501    0  0.00000000000E+00  0.00000000000E+00 -0.23790562883E+04  0.23790562883E+04  0.25500000920E-02 0.  1.
    10030    2    1    2    0    0  0.00000000000E+00  0.00000000000E+00 -0.16795379391E+04  0.30785746375E+04  0.25800725008E+04 0.  0.
        3    1    3    3  502    0 -0.12592051277E+03 -0.76540577449E+03  0.39016137933E+03  0.86829020913E+03  0.10100000352E+00 0. -1.
       -3    1    3    3    0  502  0.12592051277E+03  0.76540577449E+03 -0.20696993184E+04  0.22102844283E+04  0.10100000352E+00 0.  1.
</event>
<event>
 5   0  0.4361864E-06  0.2606839E+04  0.7818609E-02  0.8365882E-01
        1   -1    0    0  501    0  0.00000000000E+00  0.00000000000E+00  0.21217605887E+04  0.21217605887E+04  0.50400001928E-02 0.  1.
       -1   -1    0    0    0  501  0.00000000000E+00  0.00000000000E+00 -0.80070407246E+03  0.80070407247E+03  0.50400001928E-02 0. -1.
    10030    2    1    2    0    0  0.00000000000E+00  0.00000000000E+00  0.13210565162E+04  0.29224646611E+04  0.26068389625E+04 0.  0.
        3    1    3    3  502    0 -0.11447399730E+02 -0.11471100709E+04 -0.33190267114E+02  0.11476472288E+04  0.10100000352E+00 0. -1.
       -3    1    3    3    0  502  0.11447399730E+02  0.11471100709E+04  0.13542467833E+04  0.17748174323E+04  0.10100000352E+00 0.  1.
</event>
<event>
 5   0  0.3705250E-06  0.2575636E+04  0.7818609E-02  0.8376525E-01
        4   -1    0    0  501    0  0.00000000000E+00  0.00000000000E+00  0.12545324108E+04  0.12545330536E+04  0.12699999809E+01 0.  1.
       -4   -1    0    0    0  501  0.00000000000E+00  0.00000000000E+00 -0.13219852176E+04  0.13219858276E+04  0.12699999809E+01 0. -1.
    10030    2    1    2    0    0  0.00000000000E+00  0.00000000000E+00 -0.67452806773E+02  0.25765188812E+04  0.25756357786E+04 0.  0.
        4    1    3    3  502    0 -0.84715344397E+01  0.12493771324E+04 -0.34601658780E+03  0.12964351422E+04  0.12699999809E+01 0. -1.
       -4    1    3    3    0  502  0.84715344397E+01 -0.12493771324E+04  0.27856378102E+03  0.12800837390E+04  0.12699999809E+01 0.  1.
</event>
<event>
 5   0  0.1136881E-05  0.2594617E+04  0.7818609E-02  0.8370032E-01
       -2   -1    0    0    0  501  0.00000000000E+00  0.00000000000E+00  0.19877487771E+04  0.19877487771E+04  0.25500000920E-02 0. -1.
        2   -1    0    0  501    0  0.00000000000E+00  0.00000000000E+00 -0.84669094417E+03  0.84669094418E+03  0.25500000920E-02 0.  1.
    10030    2    1    2    0    0  0.00000000000E+00  0.00000000000E+00  0.11410578329E+04  0.28344397213E+04  0.25946166490E+04 0.  0.
        3    1    3    3  502    0  0.48765398475E+02 -0.12475922134E+04  0.95543762612E+03  0.15721722115E+04  0.10100000352E+00 0. -1.
       -3    1    3    3    0  502 -0.48765398475E+02  0.12475922134E+04  0.18562020682E+03  0.12622675098E+04  0.10100000352E+00 0.  1.
</event>
<event>
 5   0  0.4361864E-06  0.2605266E+04  0.7818609E-02  0.8366415E-01
       -1   -1    0    0    0  501  0.00000000000E+00  0.00000000000E+00  0.17659940077E+04  0.17659940077E+04  0.50400001928E-02 0.  1.
        1   -1    0    0  501    0  0.00000000000E+00  0.00000000000E+00 -0.96084875143E+03  0.96084875144E+03  0.50400001928E-02 0. -1.
    10030    2    1    2    0    0  0.00000000000E+00  0.00000000000E+00  0.80514525626E+03  0.27268427591E+04  0.26052663106E+04 0.  0.
        3    1    3    3  502    0 -0.29365802410E+03 -0.12150815234E+04  0.78599381992E+03  0.14766328043E+04  0.10100000352E+00 0. -1.
       -3    1    3    3    0  502  0.29365802410E+03  0.12150815234E+04  0.19151436343E+02  0.12502099549E+04  0.10100000352E+00 0.  1.
</event>
<event>
 5   0  0.1116310E-05  0.2537096E+04  0.7818609E-02  0.8389888E-01
       -2   -1    0    0    0  501  0.00000000000E+00  0.00000000000E+00  0.77008717441E+03  0.77008717441E+03  0.25500000920E-02 0. -1.
        2   -1    0    0  501    0  0.00000000000E+00  0.00000000000E+00 -0.20896519500E+04  0.20896519500E+04  0.25500000920E-02 0.  1.
    10030    2    1    2    0    0  0.00000000000E+00  0.00000000000E+00 -0.13195647756E+04  0.28597391244E+04  0.25370961083E+04 0.  0.
        4    1    3    3  502    0  0.61327305088E+03 -0.85393196702E+03  0.14035675792E+03  0.10606626568E+04  0.12699999809E+01 0. -1.
       -4    1    3    3    0  502 -0.61327305088E+03  0.85393196702E+03 -0.14599215335E+04  0.17990764676E+04  0.12699999809E+01 0.  1.
</event>
<event>
 5   0  0.3705250E-06  0.2628598E+04  0.7818609E-02  0.8358552E-01
        4   -1    0    0  501    0  0.00000000000E+00  0.00000000000E+00  0.14897339248E+04  0.14897344661E+04  0.12699999809E+01 0.  1.
       -4   -1    0    0    0  501  0.00000000000E+00  0.00000000000E+00 -0.11595225773E+04  0.11595232728E+04  0.12699999809E+01 0. -1.
    10030    2    1    2    0    0  0.00000000000E+00  0.00000000000E+00  0.33021134754E+03  0.26492577389E+04  0.26285979215E+04 0.  0.
        3    1    3    3  502    0 -0.88499800934E+03  0.89206747436E+03  0.55332908733E+03  0.13730181879E+04  0.10100000352E+00 0.  1.
       -3    1    3    3    0  502  0.88499800934E+03 -0.89206747436E+03 -0.22311773980E+03  0.12762395509E+04  0.10100000352E+00 0. -1.
</event>
<event>
 5   0  0.4415080E-06  0.2588122E+04  0.7818609E-02  0.8372247E-01
       -1   -1    0    0    0  501  0.00000000000E+00  0.00000000000E+00  0.91325155263E+03  0.91325155264E+03  0.50400001928E-02 0.  1.
        1   -1    0    0  501    0  0.00000000000E+00  0.00000000000E+00 -0.18336609147E+04  0.18336609147E+04  0.50400001928E-02 0. -1.
    10030    2    1    2    0    0  0.00000000000E+00  0.00000000000E+00 -0.92040936210E+03  0.27469124674E+04  0.25881218498E+04 0.  0.
        2    1    3    3  502    0  0.12468348775E+04 -0.34633259062E+03 -0.46772475041E+03  0.13759759872E+04  0.25500000920E-02 0. -1.
       -2    1    3    3    0  502 -0.12468348775E+04  0.34633259062E+03 -0.45268461169E+03  0.13709364802E+04  0.25500000920E-02 0.  1.
</event>
<event>
 5   0  0.4464297E-06  0.2592051E+04  0.7818609E-02  0.8370906E-01
        1   -1    0    0  501    0  0.00000000000E+00  0.00000000000E+00  0.89292453947E+03  0.89292453948E+03  0.50400001928E-02 0. -1.
       -1   -1    0    0    0  501  0.00000000000E+00  0.00000000000E+00 -0.18811026682E+04  0.18811026682E+04  0.50400001928E-02 0.  1.
    10030    2    1    2    0    0  0.00000000000E+00  0.00000000000E+00 -0.98817812872E+03  0.27740272077E+04  0.25920514916E+04 0.  0.
        4    1    3    3  502    0 -0.90701430906E+03 -0.92092144404E+03 -0.39307020043E+03  0.13510281486E+04  0.12699999809E+01 0. -1.
       -4    1    3    3    0  502  0.90701430906E+03  0.92092144404E+03 -0.59510792829E+03  0.14229990591E+04  0.12699999809E+01 0.  1.
</event>
<event>
 5   0  0.4361864E-06  0.2596295E+04  0.7818609E-02  0.8369461E-01
        1   -1    0    0  501    0  0.00000000000E+00  0.00000000000E+00  0.19437379676E+04  0.19437379676E+04  0.50400001928E-02 0. -1.
       -1   -1    0    0    0  501  0.00000000000E+00  0.00000000000E+00 -0.86698286970E+03  0.86698286972E+03  0.50400001928E-02 0.  1.
    10030    2    1    2    0    0  0.00000000000E+00  0.00000000000E+00  0.10767550979E+04  0.28107208373E+04  0.25962954540E+04 0.  0.
        3    1    3    3  502    0  0.67147053014E+03 -0.48311246218E+03  0.16214628795E+04  0.18202780567E+04  0.10100000352E+00 0. -1.
       -3    1    3    3    0  502 -0.67147053014E+03  0.48311246218E+03 -0.54470778166E+03  0.99044278056E+03  0.10100000352E+00 0.  1.
</event>
<event>
 5   0  0.4597705E-06  0.2580159E+04  0.7818609E-02  0.8374972E-01
       -1   -1    0    0    0  501  0.00000000000E+00  0.00000000000E+00  0.12945069134E+04  0.12945069134E+04  0.50400001928E-02 0.  1.
        1   -1    0    0  501    0  0.00000000000E+00  0.00000000000E+00 -0.12856672664E+04  0.12856672664E+04  0.50400001928E-02 0. -1.
    10030    2    1    2    0    0  0.00000000000E+00  0.00000000000E+00  0.88396469933E+01  0.25801741798E+04  0.25801590375E+04 0.  0.
        5    1    3    3  502    0 -0.30600270063E+03 -0.26304628363E+03  0.12297645497E+04  0.12942851068E+04  0.46999998093E+01 0.  1.
       -5    1    3    3    0  502  0.30600270063E+03  0.26304628363E+03 -0.12209249027E+04  0.12858890730E+04  0.46999998093E+01 0. -1.
</event>
<event>
 5   0  0.1136881E-05  0.2602311E+04  0.7818609E-02  0.8367417E-01
        2   -1    0    0  501    0  0.00000000000E+00  0.00000000000E+00  0.18296400770E+04  0.18296400770E+04  0.25500000920E-02 0. -1.
       -2   -1    0    0    0  501  0.00000000000E+00  0.00000000000E+00 -0.92532187647E+03  0.92532187647E+03  0.25500000920E-02 0.  1.
    10030    2    1    2    0    0  0.00000000000E+00  0.00000000000E+00  0.90431820049E+03  0.27549619534E+04  0.26023112721E+04 0.  0.
        3    1    3    3  502    0 -0.16907017865E+03  0.12827185214E+04  0.59829420524E+03  0.14254499278E+04  0.10100000352E+00 0.  1.
       -3    1    3    3    0  502  0.16907017865E+03 -0.12827185214E+04  0.30602399525E+03  0.13295120256E+04  0.10100000352E+00 0. -1.
</event>
<event>
 5   0  0.4218590E-06  0.2609170E+04  0.7818609E-02  0.8365093E-01
        1   -1    0    0  501    0  0.00000000000E+00  0.00000000000E+00  0.12768499270E+04  0.12768499270E+04  0.50400001928E-02 0. -1.
       -1   -1    0    0    0  501  0.00000000000E+00  0.00000000000E+00 -0.13329223135E+04  0.13329223135E+04  0.50400001928E-02 0.  1.
    10030    2    1    2    0    0  0.00000000000E+00  0.00000000000E+00 -0.56072386443E+02  0.26097722405E+04  0.26091697980E+04 0.  0.
        1    1    3    3  502    0  0.11415869873E+04 -0.53125890937E+03  0.31334142468E+03  0.12975514351E+04  0.50400001928E-02 0. -1.
       -1    1    3    3    0  502 -0.11415869873E+04  0.53125890937E+03 -0.36941381112E+03  0.13122208054E+04  0.50400001928E-02 0.  1.
</event>
<event>
 5   0  0.1085061E-05  0.2615209E+04  0.7818609E-02  0.8363053E-01
        2   -1    0    0  501    0  0.00000000000E+00  0.00000000000E+00  0.20452929958E+04  0.20452929958E+04  0.25500000920E-02 0.  1.
       -2   -1    0    0    0  501  0.00000000000E+00  0.00000000000E+00 -0.83598287353E+03  0.83598287353E+03  0.25500000920E-02 0. -1.
    10030    2    1    2    0    0  0.00000000000E+00  0.00000000000E+00  0.12093101223E+04  0.28812758693E+04  0.26152092963E+04 0.  0.
        1    1    3    3  502    0 -0.62262155932E+03 -0.41088878341E+02  0.18706878821E+04  0.19720088880E+04  0.50400001928E-02 0.  1.
       -1    1    3    3    0  502  0.62262155932E+03  0.41088878341E+02 -0.66137775985E+03  0.90926698131E+03  0.50400001928E-02 0. -1.
</event>
<event>
 5   0  0.4361864E-06  0.2460319E+04  0.7818609E-02  0.8417260E-01
       -1   -1    0    0    0  501  0.00000000000E+00  0.00000000000E+00  0.17693961521E+04  0.17693961521E+04  0.50400001928E-02 0. -1.
        1   -1    0    0  501    0  0.00000000000E+00  0.00000000000E+00 -0.85525900260E+03  0.85525900261E+03  0.50400001928E-02 0.  1.
    10030    2    1    2    0    0  0.00000000000E+00  0.00000000000E+00  0.91413714952E+03  0.26246551547E+04  0.24603186690E+04 0.  0.
        3    1    3    3  502    0 -0.58015796175E+03 -0.22602501884E+03 -0.67475063582E+03  0.91812798697E+03  0.10100000352E+00 0.  1.
       -3    1    3    3    0  502  0.58015796175E+03  0.22602501884E+03  0.15888877853E+04  0.17065271678E+04  0.10100000352E+00 0. -1.
</event>
<event>
 5   0  0.4415080E-06  0.2613401E+04  0.7818609E-02  0.8363663E-01
        1   -1    0    0  501    0  0.00000000000E+00  0.00000000000E+00  0.19900376372E+04  0.19900376372E+04  0.50400001928E-02 0. -1.
       -1   -1    0    0    0  501  0.00000000000E+00  0.00000000000E+00 -0.85800693298E+03  0.85800693300E+03  0.50400001928E-02 0.  1.
    10030    2    1    2    0    0  0.00000000000E+00  0.00000000000E+00  0.11320307043E+04  0.28480445702E+04  0.26134009181E+04 0.  0.
        2    1    3    3  502    0 -0.78408802813E+03  0.41799346832E+03  0.16101369674E+04  0.18390360598E+04  0.25500000920E-02 0. -1.
       -2    1    3    3    0  502  0.78408802813E+03 -0.41799346832E+03 -0.47810626310E+03  0.10090085105E+04  0.25500000920E-02 0.  1.
</event>
<event>
 5   0  0.4597705E-06  0.2607050E+04  0.7818609E-02  0.8365810E-01
        1   -1    0    0  501    0  0.00000000000E+00  0.00000000000E+00  0.13422441162E+04  0.13422441162E+04  0.50400001928E-02 0.  1.
       -1   -1    0    0    0  501  0.00000000000E+00  0.00000000000E+00 -0.12659228786E+04  0.12659228786E+04  0.50400001928E-02 0. -1.
    10030    2    1    2    0    0  0.00000000000E+00  0.00000000000E+00  0.76321237597E+02  0.26081669948E+04  0.26070500842E+04 0.  0.
        5    1    3    3  502    0  0.93964202381E+03  0.62514949406E+03 -0.61435835709E+03  0.12849892232E+04  0.46999998093E+01 0. -1.
       -5    1    3    3    0  502 -0.93964202381E+03 -0.62514949406E+03  0.69067959468E+03  0.13231777716E+04  0.46999998093E+01 0.  1.
</event>
<event>
 5   0  0.1085255E-05  0.2541253E+04  0.7818609E-02  0.8388435E-01
        2   -1    0    0  501    0  0.00000000000E+00  0.00000000000E+00  0.67013499854E+03  0.67013499855E+03  0.25500000920E-02 0. -1.
       -2   -1    0    0    0  501  0.00000000000E+00  0.00000000000E+00 -0.24092038586E+04  0.24092038586E+04  0.25500000920E-02 0.  1.
    10030    2    1    2    0    0  0.00000000000E+00  0.00000000000E+00 -0.17390688600E+04  0.30793388571E+04  0.25412530958E+04 0.  0.
        5    1    3    3  502    0 -0.84453694384E+03  0.75515694241E+03 -0.15666433608E+04  0.19333644683E+04  0.46999998093E+01 0.  1.
       -5    1    3    3    0  502  0.84453694384E+03 -0.75515694241E+03 -0.17242549924E+03  0.11459743889E+04  0.46999998093E+01 0. -1.
</event>
<event>
 5   0  0.1085255E-05  0.2585878E+04  0.7818609E-02  0.8373014E-01
       -2   -1    0    0    0  501  0.00000000000E+00  0.00000000000E+00  0.12607962958E+04  0.12607962958E+04  0.25500000920E-02 0.  1.
        2   -1    0    0  501    0  0.00000000000E+00  0.00000000000E+00 -0.13259010725E+04  0.13259010725E+04  0.25500000920E-02 0. -1.
    10030    2    1    2    0    0  0.00000000000E+00  0.00000000000E+00 -0.65104776708E+02  0.25866973682E+04  0.25858779250E+04 0.  0.
        5    1    3    3  502    0  0.23672458631E+03 -0.12594966606E+04 -0.20377526933E+03  0.12976582054E+04  0.46999998093E+01 0. -1.
       -5    1    3    3    0  502 -0.23672458631E+03  0.12594966606E+04  0.13867049263E+03  0.12890391628E+04  0.46999998093E+01 0.  1.
</event>
<event>
 5   0  0.1085255E-05  0.2600850E+04  0.7818609E-02  0.8367913E-01
        2   -1    0    0  501    0  0.00000000000E+00  0.00000000000E+00  0.13132678310E+04  0.13132678310E+04  0.25500000920E-02 0. -1.
       -2   -1    0    0    0  501  0.00000000000E+00  0.00000000000E+00 -0.12877078260E+04  0.12877078260E+04  0.25500000920E-02 0.  1.
    10030    2    1    2    0    0  0.00000000000E+00  0.00000000000E+00  0.25560005008E+02  0.26009756569E+04  0.26008500637E+04 0.  0.
        5    1    3    3  502    0 -0.78376976453E+03  0.29609055111E+03  0.10073724041E+04  0.13102617711E+04  0.46999998093E+01 0. -1.
       -5    1    3    3    0  502  0.78376976453E+03 -0.29609055111E+03 -0.98181239905E+03  0.12907138859E+04  0.46999998093E+01 0.  1.
</event>
<event>
 5   0  0.4464297E-06  0.2611284E+04  0.7818609E-02  0.8364378E-01
        1   -1    0    0  501    0  0.00000000000E+00  0.00000000000E+00  0.12392654315E+04  0.12392654315E+04  0.50400001928E-02 0.  1.
       -1   -1    0    0    0  501  0.00000000000E+00  0.00000000000E+00 -0.13755739687E+04  0.13755739687E+04  0.50400001928E-02 0. -1.
    10030    2    1    2    0    0  0.00000000000E+00  0.00000000000E+00 -0.13630853719E+03  0.26148394002E+04  0.26112841805E+04 0.  0.
        4    1    3    3  502    0 -0.79295094721E+02 -0.93396869411E+03 -0.97830010007E+03  0.13548645439E+04  0.12699999809E+01 0. -1.
       -4    1    3    3    0  502  0.79295094721E+02  0.93396869411E+03  0.84199156288E+03  0.12599748563E+04  0.12699999809E+01 0.  1.
</event>
<event>
 5   0  0.1086507E-05  0.2620021E+04  0.7818609E-02  0.8361432E-01
        2   -1    0    0  501    0  0.00000000000E+00  0.00000000000E+00  0.10746679840E+04  0.10746679840E+04  0.25500000920E-02 0.  1.
       -2   -1    0    0    0  501  0.00000000000E+00  0.00000000000E+00 -0.15968912433E+04  0.15968912433E+04  0.25500000920E-02 0. -1.
    10030    2    1    2    0    0  0.00000000000E+00  0.00000000000E+00 -0.52222325927E+03  0.26715592272E+04  0.26200212923E+04 0.  0.
        2    1    3    3  502    0 -0.10992288707E+04  0.26455767574E+03 -0.93581711558E+03  0.14676677239E+04  0.25500000920E-02 0. -1.
       -2    1    3    3    0  502  0.10992288707E+04 -0.26455767574E+03  0.41359385630E+03  0.12038915034E+04  0.25500000920E-02 0.  1.
</event>
<event>
 5   0  0.1136881E-05  0.2576642E+04  0.7818609E-02  0.8376179E-01
        2   -1    0    0  501    0  0.00000000000E+00  0.00000000000E+00  0.24497299780E+04  0.24497299780E+04  0.25500000920E-02 0.  1.
       -2   -1    0    0    0  501  0.00000000000E+00  0.00000000000E+00 -0.67753204977E+03  0.67753204978E+03  0.25500000920E-02 0. -1.
    10030    2    1    2    0    0  0.00000000000E+00  0.00000000000E+00  0.17721979283E+04  0.31272620278E+04  0.25766416696E+04 0.  0.
        3    1    3    3  502    0 -0.28723249117E+02 -0.11123070954E+04  0.16742719643E+04  0.20102832437E+04  0.10100000352E+00 0.  1.
       -3    1    3    3    0  502  0.28723249117E+02  0.11123070954E+04  0.97925963996E+02  0.11169787841E+04  0.10100000352E+00 0. -1.
</event>
<event>
 5   0  0.4361864E-06  0.2600511E+04  0.7818609E-02  0.8368028E-01
        1   -1    0    0  501    0  0.00000000000E+00  0.00000000000E+00  0.14506367838E+04  0.14506367838E+04  0.50400001928E-02 0. -1.
       -1   -1    0    0    0  501  0.00000000000E+00  0.00000000000E+00 -0.11654639610E+04  0.11654639610E+04  0.50400001928E-02 0.  1.
    10030    2    1    2    0    0  0.00000000000E+00  0.00000000000E+00  0.28517282277E+03  0.26161007448E+04  0.26005114051E+04 0.  0.
        3    1    3    3  502    0  0.62173613089E+03  0.11086099489E+04 -0.13308743378E+03  0.12780000432E+04  0.10100000352E+00 0. -1.
       -3    1    3    3    0  502 -0.62173613089E+03 -0.11086099489E+04  0.41826025656E+03  0.13381007016E+04  0.10100000352E+00 0.  1.
</event>
<event>
 5   0  0.1136881E-05  0.2651887E+04  0.7818609E-02  0.8350787E-01
        2   -1    0    0  501    0  0.00000000000E+00  0.00000000000E+00  0.31835028477E+04  0.31835028477E+04  0.25500000920E-02 0.  1.
       -2   -1    0    0    0  501  0.00000000000E+00  0.00000000000E+00 -0.55226151114E+03  0.55226151114E+03  0.25500000920E-02 0. -1.
    10030    2    1    2    0    0  0.00000000000E+00  0.00000000000E+00  0.26312413366E+04  0.37357643588E+04  0.26518869458E+04 0.  0.
        3    1    3    3  502    0  0.11316822207E+04  0.17906978182E+03  0.22557288958E+04  0.25300362639E+04  0.10100000352E+00 0.  1.
       -3    1    3    3    0  502 -0.11316822207E+04 -0.17906978182E+03  0.37551244078E+03  0.12057280949E+04  0.10100000352E+00 0. -1.
</event>
<event>
 5   0  0.4464297E-06  0.2596127E+04  0.7818609E-02  0.8369518E-01
        1   -1    0    0  501    0  0.00000000000E+00  0.00000000000E+00  0.79138020242E+03  0.79138020244E+03  0.50400001928E-02 0. -1.
       -1   -1    0    0    0  501  0.00000000000E+00  0.00000000000E+00 -0.21291523703E+04  0.21291523703E+04  0.50400001928E-02 0.  1.
    10030    2    1    2    0    0  0.00000000000E+00  0.00000000000E+00 -0.13377721679E+04  0.29205325728E+04  0.25961271416E+04 0.  0.
        4    1    3    3  502    0  0.69374055112E+02 -0.26902301868E+03  0.75754101253E+03  0.80688050086E+03  0.12699999809E+01 0. -1.
       -4    1    3    3    0  502 -0.69374055112E+02  0.26902301868E+03 -0.20953131804E+04  0.21136520719E+04  0.12699999809E+01 0.  1.
</event>
<event>
 5   0  0.1085255E-05  0.2599766E+04  0.7818609E-02  0.8368281E-01
        2   -1    0    0  501    0  0.00000000000E+00  0.00000000000E+00  0.15168914286E+04  0.15168914286E+04  0.25500000920E-02 0. -1.
       -2   -1    0    0    0  501  0.00000000000E+00  0.00000000000E+00 -0.11139202758E+04  0.11139202758E+04  0.25500000920E-02 0.  1.
    10030    2    1    2    0    0  0.00000000000E+00  0.00000000000E+00  0.40297115280E+03  0.26308117044E+04  0.25997662345E+04 0.  0.
        5    1    3    3  502    0 -0.82567440895E+03 -0.85164707642E+03  0.73946658368E+03  0.13978103916E+04  0.46999998093E+01 0. -1.
       -5    1    3    3    0  502  0.82567440895E+03  0.85164707642E+03 -0.33649543088E+03  0.12330013128E+04  0.46999998093E+01 0.  1.
</event>
<event>
 5   0  0.4361864E-06  0.2596220E+04  0.7818609E-02  0.8369486E-01
       -1   -1    0    0    0  501  0.00000000000E+00  0.00000000000E+00  0.79629640884E+03  0.79629640885E+03  0.50400001928E-02 0. -1.
        1   -1    0    0  501    0  0.00000000000E+00  0.00000000000E+00 -0.21161579521E+04  0.21161579521E+04  0.50400001928E-02 0.  1.
    10030    2    1    2    0    0  0.00000000000E+00  0.00000000000E+00 -0.13198615433E+04  0.29124543610E+04  0.25962195422E+04 0.  0.
        3    1    3    3  502    0  0.17161998639E+03 -0.12102881890E+04 -0.16986971033E+03  0.12341420700E+04  0.10100000352E+00 0. -1.
       -3    1    3    3    0  502 -0.17161998639E+03  0.12102881890E+04 -0.11499918330E+04  0.16783122910E+04  0.10100000352E+00 0.  1.
</event>
<event>
 5   0  0.1086507E-05  0.2608558E+04  0.7818609E-02  0.8365300E-01
       -2   -1    0    0    0  501  0.00000000000E+00  0.00000000000E+00  0.10600176117E+04  0.10600176117E+04  0.25500000920E-02 0. -1.
        2   -1    0    0  501    0  0.00000000000E+00  0.00000000000E+00 -0.16048262116E+04  0.16048262116E+04  0.25500000920E-02 0.  1.
    10030    2    1    2    0    0  0.00000000000E+00  0.00000000000E+00 -0.54480859991E+03  0.26648438234E+04  0.26085582594E+04 0.  0.
        2    1    3    3  502    0 -0.13008568954E+04 -0.65190081580E+02 -0.20262497145E+03  0.13181560182E+04  0.25500000920E-02 0.  1.
       -2    1    3    3    0  502  0.13008568954E+04  0.65190081580E+02 -0.34218362846E+03  0.13466878052E+04  0.25500000920E-02 0. -1.
</event>
<event>
 5   0  0.4597705E-06  0.2600624E+04  0.7818609E-02  0.8367989E-01
        1   -1    0    0  501    0  0.00000000000E+00  0.00000000000E+00  0.17234753388E+04  0.17234753388E+04  0.50400001928E-02 0.  1.
       -1   -1    0    0    0  501  0.00000000000E+00  0.00000000000E+00 -0.98104774393E+03  0.98104774395E+03  0.50400001928E-02 0. -1.
    10030    2    1    2    0    0  0.00000000000E+00  0.00000000000E+00  0.74242759488E+03  0.27045230828E+04  0.26006242273E+04 0.  0.
        5    1    3    3  502    0  0.69873010520E+03 -0.34509308992E+03 -0.71127357003E+03  0.10551043465E+04  0.46999998093E+01 0. -1.
       -5    1    3    3    0  502 -0.69873010520E+03  0.34509308992E+03  0.14537011649E+04  0.16494187363E+04  0.46999998093E+01 0.  1.
</event>
<event>
 5   0  0.4415080E-06  0.2607337E+04  0.7818609E-02  0.8365713E-01
        1   -1    0    0  501    0  0.00000000000E+00  0.00000000000E+00  0.18337407184E+04  0.18337407184E+04  0.50400001928E-02 0.  1.
       -1   -1    0    0    0  501  0.00000000000E+00  0.00000000000E+00 -0.92682220006E+03  0.92682220007E+03  0.50400001928E-02 0. -1.
    10030    2    1    2    0    0  0.00000000000E+00  0.00000000000E+00  0.90691851831E+03  0.27605629184E+04  0.26073370376E+04 0.  0.
        2    1    3    3  502    0  0.42247990537E+03 -0.24719362427E+03  0.17327539717E+04  0.18005638797E+04  0.25500000920E-02 0.  1.
       -2    1    3    3    0  502 -0.42247990537E+03  0.24719362427E+03 -0.82583545340E+03  0.95999903876E+03  0.25500000920E-02 0. -1.
</event>
<event>
 5   0  0.4597705E-06  0.2600051E+04  0.7818609E-02  0.8368184E-01
        1   -1    0    0  501    0  0.00000000000E+00  0.00000000000E+00  0.13431344922E+04  0.13431344922E+04  0.50400001928E-02 0. -1.
       -1   -1    0    0    0  501  0.00000000000E+00  0.00000000000E+00 -0.12583001835E+04  0.12583001835E+04  0.50400001928E-02 0.  1.
    10030    2    1    2    0    0  0.00000000000E+00  0.00000000000E+00  0.84834308686E+02  0.26014346756E+04  0.26000510594E+04 0.  0.
        5    1    3    3  502    0  0.31251006392E+03  0.85573845304E+03 -0.88548859962E+03  0.12704577876E+04  0.46999998093E+01 0.  1.
       -5    1    3    3    0  502 -0.31251006392E+03 -0.85573845304E+03  0.97032290830E+03  0.13309768880E+04  0.46999998093E+01 0. -1.
</event>
<event>
 5   0  0.1085255E-05  0.2611716E+04  0.7818609E-02  0.8364232E-01
        2   -1    0    0  501    0  0.00000000000E+00  0.00000000000E+00  0.18463875734E+04  0.18463875734E+04  0.25500000920E-02 0. -1.
       -2   -1    0    0    0  501  0.00000000000E+00  0.00000000000E+00 -0.92356852119E+03  0.92356852119E+03  0.25500000920E-02 0.  1.
    10030    2    1    2    0    0  0.00000000000E+00  0.00000000000E+00  0.92281905222E+03  0.27699560946E+04  0.26117162485E+04 0.  0.
        5    1    3    3  502    0  0.12657930713E+04 -0.31731273340E+03  0.41028211645E+03  0.13679447998E+04  0.46999998093E+01 0. -1.
       -5    1    3    3    0  502 -0.12657930713E+04  0.31731273340E+03  0.51253693577E+03  0.14020112948E+04  0.46999998093E+01 0.  1.
</event>
<event>
 5   0  0.4597705E-06  0.2522449E+04  0.7818609E-02  0.8395031E-01
        1   -1    0    0  501    0  0.00000000000E+00  0.00000000000E+00  0.17842145096E+04  0.17842145096E+04  0.50400001928E-02 0. -1.
       -1   -1    0    0    0  501  0.00000000000E+00  0.00000000000E+00 -0.89153369564E+03  0.89153369565E+03  0.50400001928E-02 0.  1.
    10030    2    1    2    0    0  0.00000000000E+00  0.00000000000E+00  0.89268081401E+03  0.26757482053E+04  0.25224490921E+04 0.  0.
        5    1    3    3  502    0  0.82550147226E+03 -0.94555618875E+03  0.57684611988E+03  0.13814133063E+04  0.46999998093E+01 0. -1.
       -5    1    3    3    0  502 -0.82550147226E+03  0.94555618875E+03  0.31583469413E+03  0.12943348990E+04  0.46999998093E+01 0.  1.
</event>
<event>
 5   0  0.1085061E-05  0.2609196E+04  0.7818609E-02  0.8365084E-01
       -2   -1    0    0    0  501  0.00000000000E+00  0.00000000000E+00  0.66478187057E+03  0.66478187058E+03  0.25500000920E-02 0. -1.
        2   -1    0    0  501    0  0.00000000000E+00  0.00000000000E+00 -0.25602022386E+04  0.25602022386E+04  0.25500000920E-02 0.  1.
    10030    2    1    2    0    0  0.00000000000E+00  0.00000000000E+00 -0.18954203680E+04  0.32249841092E+04  0.26091960702E+04 0.  0.
        1    1    3    3  502    0 -0.10354764116E+04  0.22332079246E+02  0.32768071407E+02  0.10362354304E+04  0.50400001928E-02 0. -1.
       -1    1    3    3    0  502  0.10354764116E+04 -0.22332079246E+02 -0.19281884394E+04  0.21887486787E+04  0.50400001928E-02 0.  1.
</event>
<event>
 5   0  0.1085255E-05  0.2615783E+04  0.7818609E-02  0.8362860E-01
       -2   -1    0    0    0  501  0.00000000000E+00  0.00000000000E+00  0.19851293190E+04  0.19851293190E+04  0.25500000920E-02 0. -1.
        2   -1    0    0  501    0  0.00000000000E+00  0.00000000000E+00 -0.86169680381E+03  0.86169680382E+03  0.25500000920E-02 0.  1.
    10030    2    1    2    0    0  0.00000000000E+00  0.00000000000E+00  0.11234325152E+04  0.28468261228E+04  0.26157825516E+04 0.  0.
        5    1    3    3  502    0  0.11079403641E+03 -0.12733628326E+04  0.86337969674E+03  0.15424573941E+04  0.46999998093E+01 0.  1.
       -5    1    3    3    0  502 -0.11079403641E+03  0.12733628326E+04  0.26005281845E+03  0.13043687287E+04  0.46999998093E+01 0. -1.
</event>
<event>
 5   0  0.1085255E-05  0.2612520E+04  0.7818609E-02  0.8363961E-01
       -2   -1    0    0    0  501  0.00000000000E+00  0.00000000000E+00  0.60938182857E+03  0.60938182857E+03  0.25500000920E-02 0. -1.
        2   -1    0    0  501    0  0.00000000000E+00  0.00000000000E+00 -0.28000754843E+04  0.28000754843E+04  0.25500000920E-02 0.  1.
    10030    2    1    2    0    0  0.00000000000E+00  0.00000000000E+00 -0.21906936558E+04  0.34094573129E+04  0.26125199473E+04 0.  0.
        5    1    3    3  502    0 -0.96117657852E+02  0.10420034453E+04 -0.21156914698E+04  0.23603352028E+04  0.46999998093E+01 0.  1.
       -5    1    3    3    0  502  0.96117657852E+02 -0.10420034453E+04 -0.75002185971E+02  0.10491221101E+04  0.46999998093E+01 0. -1.
</event>
<event>
 5   0  0.4597705E-06  0.2530870E+04  0.7818609E-02  0.8392070E-01
       -1   -1    0    0    0  501  0.00000000000E+00  0.00000000000E+00  0.83157701593E+03  0.83157701595E+03  0.50400001928E-02 0. -1.
        1   -1    0    0  501    0  0.00000000000E+00  0.00000000000E+00 -0.19256491428E+04  0.19256491428E+04  0.50400001928E-02 0.  1.
    10030    2    1    2    0    0  0.00000000000E+00  0.00000000000E+00 -0.10940721268E+04  0.27572261587E+04  0.25308698646E+04 0.  0.
        5    1    3    3  502    0  0.93134712093E+03 -0.83693545742E+03 -0.34782951155E+03  0.12995675737E+04  0.46999998093E+01 0. -1.
       -5    1    3    3    0  502 -0.93134712093E+03  0.83693545742E+03 -0.74624261527E+03  0.14576585850E+04  0.46999998093E+01 0.  1.
</event>
<event>
 5   0  0.4597705E-06  0.2610313E+04  0.7818609E-02  0.8364707E-01
       -1   -1    0    0    0  501  0.00000000000E+00  0.00000000000E+00  0.14898412343E+04  0.14898412343E+04  0.50400001928E-02 0.  1.
        1   -1    0    0  501    0  0.00000000000E+00  0.00000000000E+00 -0.11433657127E+04  0.11433657127E+04  0.50400001928E-02 0. -1.
    10030    2    1    2    0    0  0.00000000000E+00  0.00000000000E+00  0.34647552161E+03  0.26332069470E+04  0.26103129197E+04 0.  0.
        5    1    3    3  502    0  0.44815713358E+02  0.77998433961E+03 -0.88141117611E+03  0.11778335067E+04  0.46999998093E+01 0. -1.
       -5    1    3    3    0  502 -0.44815713358E+02 -0.77998433961E+03  0.12278866977E+04  0.14553734403E+04  0.46999998093E+01 0.  1.
</event>
<event>
 5   0  0.1085255E-05  0.2578351E+04  0.7818609E-02  0.8375592E-01
       -2   -1    0    0    0  501  0.00000000000E+00  0.00000000000E+00  0.12494857015E+04  0.12494857015E+04  0.25500000920E-02 0. -1.
        2   -1    0    0  501    0  0.00000000000E+00  0.00000000000E+00 -0.13301260614E+04  0.13301260614E+04  0.25500000920E-02 0.  1.
    10030    2    1    2    0    0  0.00000000000E+00  0.00000000000E+00 -0.80640359973E+02  0.25796117629E+04  0.25783510195E+04 0.  0.
        5    1    3    3  502    0 -0.77219475699E+03  0.30450683246E+02  0.99204648443E+03  0.12575334207E+04  0.46999998093E+01 0. -1.
       -5    1    3    3    0  502  0.77219475699E+03 -0.30450683246E+02 -0.10726868444E+04  0.13220783422E+04  0.46999998093E+01 0.  1.
</event>
<event>
 5   0  0.4464297E-06  0.2592362E+04  0.7818609E-02  0.8370800E-01
       -1   -1    0    0    0  501  0.00000000000E+00  0.00000000000E+00  0.12497485585E+04  0.12497485586E+04  0.50400001928E-02 0.  1.
        1   -1    0    0  501    0  0.00000000000E+00  0.00000000000E+00 -0.13443389082E+04  0.13443389082E+04  0.50400001928E-02 0. -1.
    10030    2    1    2    0    0  0.00000000000E+00  0.00000000000E+00 -0.94590349634E+02  0.25940874667E+04  0.25923623302E+04 0.  0.
        4    1    3    3  502    0  0.10790242035E+04 -0.67783499572E+03  0.19020321263E+03  0.12883836339E+04  0.12699999809E+01 0.  1.
       -4    1    3    3    0  502 -0.10790242035E+04  0.67783499572E+03 -0.28479356226E+03  0.13057038328E+04  0.12699999809E+01 0. -1.
</event>
<event>
 5   0  0.1085061E-05  0.2609313E+04  0.7818609E-02  0.8365045E-01
       -2   -1    0    0    0  501  0.00000000000E+00  0.00000000000E+00  0.71262830894E+03  0.71262830895E+03  0.25500000920E-02 0.  1.
        2   -1    0    0  501    0  0.00000000000E+00  0.00000000000E+00 -0.23885219711E+04  0.23885219711E+04  0.25500000920E-02 0. -1.
    10030    2    1    2    0    0  0.00000000000E+00  0.00000000000E+00 -0.16758936622E+04  0.31011502801E+04  0.26093128392E+04 0.  0.
        1    1    3    3  502    0 -0.60490689232E+03 -0.26216558480E+03  0.50009014442E+03  0.82748612967E+03  0.50400001928E-02 0.  1.
       -1    1    3    3    0  502  0.60490689232E+03  0.26216558480E+03 -0.21759838066E+04  0.22736641504E+04  0.50400001928E-02 0. -1.
</event>
<event>
 5   0  0.4597705E-06  0.2599485E+04  0.7818609E-02  0.8368376E-01
       -1   -1    0    0    0  501  0.00000000000E+00  0.00000000000E+00  0.85974349572E+03  0.85974349573E+03  0.50400001928E-02 0. -1.
        1   -1    0    0  501    0  0.00000000000E+00  0.00000000000E+00 -0.19649239559E+04  0.19649239559E+04  0.50400001928E-02 0.  1.
    10030    2    1    2    0    0  0.00000000000E+00  0.00000000000E+00 -0.11051804601E+04  0.28246674516E+04  0.25994850187E+04 0.  0.
        5    1    3    3  502    0 -0.77825691623E+03  0.92738050717E+03 -0.38775842849E+02  0.12112985135E+04  0.46999998093E+01 0. -1.
       -5    1    3    3    0  502  0.77825691623E+03 -0.92738050717E+03 -0.10664046173E+04  0.16133689381E+04  0.46999998093E+01 0.  1.
</event>
<event>
 5   0  0.4218590E-06  0.2591012E+04  0.7818609E-02  0.8371261E-01
       -1   -1    0    0    0  501  0.00000000000E+00  0.00000000000E+00  0.18941494195E+04  0.18941494195E+04  0.50400001928E-02 0.  1.
        1   -1    0    0  501    0  0.00000000000E+00  0.00000000000E+00 -0.88606317793E+03  0.88606317795E+03  0.50400001928E-02 0. -1.
    10030    2    1    2    0    0  0.00000000000E+00  0.00000000000E+00  0.10080862415E+04  0.27802125974E+04  0.25910121992E+04 0.  0.
        1    1    3    3  502    0  0.28628852159E+03  0.12564320622E+04  0.36107163356E+03  0.13382658066E+04  0.50400001928E-02 0.  1.
       -1    1    3    3    0  502 -0.28628852159E+03 -0.12564320622E+04  0.64701460798E+03  0.14419467908E+04  0.50400001928E-02 0. -1.
</event>
<event>
 5   0  0.4218590E-06  0.2592776E+04  0.7818609E-02  0.8370659E-01
       -1   -1    0    0    0  501  0.00000000000E+00  0.00000000000E+00  0.12547257053E+04  0.12547257053E+04  0.50400001928E-02 0.  1.
        1   -1    0    0  501    0  0.00000000000E+00  0.00000000000E+00 -0.13394341228E+04  0.13394341228E+04  0.50400001928E-02 0. -1.
    10030    2    1    2    0    0  0.00000000000E+00  0.00000000000E+00 -0.84708417484E+02  0.25941598281E+04  0.25927764458E+04 0.  0.
        1    1    3    3  502    0 -0.92161526978E+03  0.52058783623E+03  0.70653431020E+03  0.12726260772E+04  0.50400001928E-02 0.  1.
       -1    1    3    3    0  502  0.92161526978E+03 -0.52058783623E+03 -0.79124272769E+03  0.13215337509E+04  0.50400001928E-02 0. -1.
</event>
<event>
 5   0  0.4464297E-06  0.2596739E+04  0.7818609E-02  0.8369310E-01
       -1   -1    0    0    0  501  0.00000000000E+00  0.00000000000E+00  0.10725558742E+04  0.10725558742E+04  0.50400001928E-02 0.  1.
        1   -1    0    0  501    0  0.00000000000E+00  0.00000000000E+00 -0.15717259817E+04  0.15717259817E+04  0.50400001928E-02 0. -1.
    10030    2    1    2    0    0  0.00000000000E+00  0.00000000000E+00 -0.49917010748E+03  0.26442818559E+04  0.25967394434E+04 0.  0.
        4    1    3    3  502    0  0.56251255916E+03  0.72097562970E+03 -0.11881628701E+04  0.14993194645E+04  0.12699999809E+01 0. -1.
       -4    1    3    3    0  502 -0.56251255916E+03 -0.72097562970E+03  0.68899276261E+03  0.11449623914E+04  0.12699999809E+01 0.  1.
</event>
<event>
 5   0  0.1116310E-05  0.2606489E+04  0.7818609E-02  0.8366000E-01
        2   -1    0    0  501    0  0.00000000000E+00  0.00000000000E+00  0.25723935381E+04  0.25723935381E+04  0.25500000920E-02 0. -1.
       -2   -1    0    0    0  501  0.00000000000E+00  0.00000000000E+00 -0.66025907444E+03  0.66025907444E+03  0.25500000920E-02 0.  1.
    10030    2    1    2    0    0  0.00000000000E+00  0.00000000000E+00  0.19121344637E+04  0.32326526126E+04  0.26064889615E+04 0.  0.
        4    1    3    3  502    0  0.71182740027E+03 -0.66126634704E+03  0.20333384003E+04  0.22535390151E+04  0.12699999809E+01 0. -1.
       -4    1    3    3    0  502 -0.71182740027E+03  0.66126634704E+03 -0.12120393667E+03  0.97911359743E+03  0.12699999809E+01 0.  1.
</event>
<event>
 5   0  0.1136881E-05  0.2593205E+04  0.7818609E-02  0.8370513E-01
       -2   -1    0    0    0  501  0.00000000000E+00  0.00000000000E+00  0.13284920472E+04  0.13284920472E+04  0.25500000920E-02 0. -1.
        2   -1    0    0  501    0  0.00000000000E+00  0.00000000000E+00 -0.12654783188E+04  0.12654783188E+04  0.25500000920E-02 0.  1.
    10030    2    1    2    0    0  0.00000000000E+00  0.00000000000E+00  0.63013728403E+02  0.25939703659E+04  0.25932048761E+04 0.  0.
        3    1    3    3  502    0  0.94815287929E+02 -0.75603127451E+03  0.10809136097E+04  0.13224777763E+04  0.10100000352E+00 0.  1.
       -3    1    3    3    0  502 -0.94815287929E+02  0.75603127451E+03 -0.10178998813E+04  0.12714925896E+04  0.10100000352E+00 0. -1.
</event>
<event>
 5   0  0.4464297E-06  0.2568032E+04  0.7818609E-02  0.8379142E-01
        1   -1    0    0  501    0  0.00000000000E+00  0.00000000000E+00  0.19510200490E+04  0.19510200490E+04  0.50400001928E-02 0.  1.
       -1   -1    0    0    0  501  0.00000000000E+00  0.00000000000E+00 -0.84504332288E+03  0.84504332289E+03  0.50400001928E-02 0. -1.
    10030    2    1    2    0    0  0.00000000000E+00  0.00000000000E+00  0.11059767261E+04  0.27960633719E+04  0.25680315148E+04 0.  0.
        4    1    3    3  502    0  0.56326700133E+03  0.11536659229E+04  0.57684458133E+03  0.14074679607E+04  0.12699999809E+01 0. -1.
       -4    1    3    3    0  502 -0.56326700133E+03 -0.11536659229E+04  0.52913214477E+03  0.13885954112E+04  0.12699999809E+01 0.  1.
</event>
<event>
 5   0  0.1085255E-05  0.2608219E+04  0.7818609E-02  0.8365415E-01
       -2   -1    0    0    0  501  0.00000000000E+00  0.00000000000E+00  0.11312524481E+04  0.11312524482E+04  0.25500000920E-02 0.  1.
        2   -1    0    0  501    0  0.00000000000E+00  0.00000000000E+00 -0.15033794411E+04  0.15033794411E+04  0.25500000920E-02 0. -1.
    10030    2    1    2    0    0  0.00000000000E+00  0.00000000000E+00 -0.37212699296E+03  0.26346318893E+04  0.26082190654E+04 0.  0.
        5    1    3    3  502    0 -0.43147043194E+03 -0.54695371275E+03 -0.12996587294E+04  0.14746050320E+04  0.46999998093E+01 0. -1.
       -5    1    3    3    0  502  0.43147043194E+03  0.54695371275E+03  0.92753173642E+03  0.11600268573E+04  0.46999998093E+01 0.  1.
</event>
<event>
 5   0  0.1136881E-05  0.2584408E+04  0.7818609E-02  0.8373517E-01
       -2   -1    0    0    0  501  0.00000000000E+00  0.00000000000E+00  0.11809259874E+04  0.11809259874E+04  0.25500000920E-02 0. -1.
        2   -1    0    0  501    0  0.00000000000E+00  0.00000000000E+00 -0.14139677693E+04  0.14139677693E+04  0.25500000920E-02 0.  1.
    10030    2    1    2    0    0  0.00000000000E+00  0.00000000000E+00 -0.23304178188E+03  0.25948937566E+04  0.25844080824E+04 0.  0.
        3    1    3    3  502    0  0.40710972963E+03 -0.10847998071E+04 -0.69091039228E+03  0.13490315540E+04  0.10100000352E+00 0. -1.
       -3    1    3    3    0  502 -0.40710972963E+03  0.10847998071E+04  0.45786861040E+03  0.12458622026E+04  0.10100000352E+00 0.  1.
</event>
<event>
 5   0  0.1116310E-05  0.2585778E+04  0.7818609E-02  0.8373048E-01
       -2   -1    0    0    0  501  0.00000000000E+00  0.00000000000E+00  0.68209444306E+03  0.68209444306E+03  0.25500000920E-02 0. -1.
        2   -1    0    0  501    0  0.00000000000E+00  0.00000000000E+00 -0.24506306205E+04  0.24506306205E+04  0.25500000920E-02 0.  1.
    10030    2    1    2    0    0  0.00000000000E+00  0.00000000000E+00 -0.17685361775E+04  0.31327250636E+04  0.25857776612E+04 0.  0.
        4    1    3    3  502    0  0.21568799917E+03  0.22299430289E+03 -0.24048660815E+04  0.24247948892E+04  0.12699999809E+01 0.  1.
       -4    1    3    3    0  502 -0.21568799917E+03 -0.22299430289E+03  0.63632990402E+03  0.70793017435E+03  0.12699999809E+01 0. -1.
</event>
<event>
 5   0  0.1086507E-05  0.2587140E+04  0.7818609E-02  0.8372583E-01
       -2   -1    0    0    0  501  0.00000000000E+00  0.00000000000E+00  0.29698269099E+04  0.29698269099E+04  0.25500000920E-02 0.  1.
        2   -1    0    0  501    0  0.00000000000E+00  0.00000000000E+00 -0.56344116308E+03  0.56344116309E+03  0.25500000920E-02 0. -1.
    10030    2    1    2    0    0  0.00000000000E+00  0.00000000000E+00  0.24063857469E+04  0.35332680730E+04  0.25871395233E+04 0.  0.
        2    1    3    3  502    0 -0.80276016537E+03 -0.53375646834E+03  0.23811894982E+04  0.25689264834E+04  0.25500000920E-02 0.  1.
       -2    1    3    3    0  502  0.80276016537E+03  0.53375646834E+03  0.25196248653E+02  0.96434158966E+03  0.25500000920E-02 0. -1.
</event>
<event>
 5   0  0.1086507E-05  0.2600544E+04  0.7818609E-02  0.8368016E-01
       -2   -1    0    0    0  501  0.00000000000E+00  0.00000000000E+00  0.15123021404E+04  0.15123021404E+04  0.25500000920E-02 0. -1.
        2   -1    0    0  501    0  0.00000000000E+00  0.00000000000E+00 -0.11179693074E+04  0.11179693074E+04  0.25500000920E-02 0.  1.
    10030    2    1    2    0    0  0.00000000000E+00  0.00000000000E+00  0.39433283296E+03  0.26302714478E+04  0.26005440788E+04 0.  0.
        2    1    3    3  502    0  0.51511148155E+03 -0.74911093119E+03 -0.74308407769E+03  0.11741724627E+04  0.25500000920E-02 0.  1.
       -2    1    3    3    0  502 -0.51511148155E+03  0.74911093119E+03  0.11374169106E+04  0.14560989851E+04  0.25500000920E-02 0. -1.
</event>
<event>
 5   0  0.1086507E-05  0.2549980E+04  0.7818609E-02  0.8385393E-01
       -2   -1    0    0    0  501  0.00000000000E+00  0.00000000000E+00  0.17784777267E+04  0.17784777267E+04  0.25500000920E-02 0. -1.
        2   -1    0    0  501    0  0.00000000000E+00  0.00000000000E+00 -0.91403972405E+03  0.91403972405E+03  0.25500000920E-02 0.  1.
    10030    2    1    2    0    0  0.00000000000E+00  0.00000000000E+00  0.86443800265E+03  0.26925174508E+04  0.25499798356E+04 0.  0.
        2    1    3    3  502    0 -0.10234016638E+04  0.75938747726E+03  0.39026139377E+03  0.13327881533E+04  0.25500000920E-02 0.  1.
       -2    1    3    3    0  502  0.10234016638E+04 -0.75938747726E+03  0.47417660889E+03  0.13597292975E+04  0.25500000920E-02 0. -1.
</event>
<event>
 5   0  0.1136881E-05  0.2592248E+04  0.7818609E-02  0.8370839E-01
       -2   -1    0    0    0  501  0.00000000000E+00  0.00000000000E+00  0.14899194480E+04  0.14899194480E+04  0.25500000920E-02 0.  1.
        2   -1    0    0  501    0  0.00000000000E+00  0.00000000000E+00 -0.11275360969E+04  0.11275360970E+04  0.25500000920E-02 0. -1.
    10030    2    1    2    0    0  0.00000000000E+00  0.00000000000E+00  0.36238335110E+03  0.26174555450E+04  0.25922484134E+04 0.  0.
        3    1    3    3  502    0 -0.91664960730E+03  0.45608360293E+03 -0.62131930436E+03  0.11976211603E+04  0.10100000352E+00 0. -1.
       -3    1    3    3    0  502  0.91664960730E+03 -0.45608360293E+03  0.98370265545E+03  0.14198343847E+04  0.10100000352E+00 0.  1.
</event>
<event>
 5   0  0.1116310E-05  0.2554858E+04  0.7818609E-02  0.8383699E-01
       -2   -1    0    0    0  501  0.00000000000E+00  0.00000000000E+00  0.13962235224E+04  0.13962235224E+04  0.25500000920E-02 0. -1.
        2   -1    0    0  501    0  0.00000000000E+00  0.00000000000E+00 -0.11687418323E+04  0.11687418323E+04  0.25500000920E-02 0.  1.
    10030    2    1    2    0    0  0.00000000000E+00  0.00000000000E+00  0.22748169005E+03  0.25649653547E+04  0.25548579905E+04 0.  0.
        4    1    3    3  502    0 -0.88821633431E+03  0.24974903296E+03 -0.77322493427E+03  0.12038194416E+04  0.12699999809E+01 0.  1.
       -4    1    3    3    0  502  0.88821633431E+03 -0.24974903296E+03  0.10007066243E+04  0.13611459131E+04  0.12699999809E+01 0. -1.
</event>
<event>
 5   0  0.1085061E-05  0.2594045E+04  0.7818609E-02  0.8370227E-01
        2   -1    0    0  501    0  0.00000000000E+00  0.00000000000E+00  0.17616175614E+04  0.17616175614E+04  0.25500000920E-02 0.  1.
       -2   -1    0    0    0  501  0.00000000000E+00  0.00000000000E+00 -0.95495584390E+03  0.95495584390E+03  0.25500000920E-02 0. -1.
    10030    2    1    2    0    0  0.00000000000E+00  0.00000000000E+00  0.80666171751E+03  0.27165734053E+04  0.25940447066E+04 0.  0.
        1    1    3    3  502    0 -0.90084858866E+03  0.85637519774E+03  0.79145856398E+03  0.14735376879E+04  0.50400001928E-02 0.  1.
       -1    1    3    3    0  502  0.90084858866E+03 -0.85637519774E+03  0.15203153534E+02  0.12430357175E+04  0.50400001928E-02 0. -1.
</event>
<event>
 5   0  0.4218590E-06  0.2517179E+04  0.7818609E-02  0.8396891E-01
        1   -1    0    0  501    0  0.00000000000E+00  0.00000000000E+00  0.11942861419E+04  0.11942861419E+04  0.50400001928E-02 0. -1.
       -1   -1    0    0    0  501  0.00000000000E+00  0.00000000000E+00 -0.13263551951E+04  0.13263551951E+04  0.50400001928E-02 0.  1.
    10030    2    1    2    0    0  0.00000000000E+00  0.00000000000E+00 -0.13206905321E+03  0.25206413370E+04  0.25171790789E+04 0.  0.
        1    1    3    3  502    0  0.54169174354E+03  0.96912868741E+02 -0.11995037724E+04  0.13197088123E+04  0.50400001928E-02 0.  1.
       -1    1    3    3    0  502 -0.54169174354E+03 -0.96912868741E+02  0.10674347192E+04  0.12009325247E+04  0.50400001928E-02 0. -1.
</event>
<event>
 5   0  0.4361864E-06  0.2607729E+04  0.7818609E-02  0.8365581E-01
        1   -1    0    0  501    0  0.00000000000E+00  0.00000000000E+00  0.18398765110E+04  0.18398765110E+04  0.50400001928E-02 0.  1.
       -1   -1    0    0    0  501  0.00000000000E+00  0.00000000000E+00 -0.92400879751E+03  0.92400879752E+03  0.50400001928E-02 0. -1.
    10030    2    1    2    0    0  0.00000000000E+00  0.00000000000E+00  0.91586771348E+03  0.27638853085E+04  0.26077285768E+04 0.  0.
        3    1    3    3  502    0 -0.32031790994E+03  0.61507011789E+03 -0.71233517978E+03  0.99415101061E+03  0.10100000352E+00 0. -1.
       -3    1    3    3    0  502  0.32031790994E+03 -0.61507011789E+03  0.16282028933E+04  0.17697342979E+04  0.10100000352E+00 0.  1.
</event>
<event>
 5   0  0.4218590E-06  0.2608781E+04  0.7818609E-02  0.8365224E-01
       -1   -1    0    0    0  501  0.00000000000E+00  0.00000000000E+00  0.98207898477E+03  0.98207898478E+03  0.50400001928E-02 0. -1.
        1   -1    0    0  501    0  0.00000000000E+00  0.00000000000E+00 -0.17324829938E+04  0.17324829939E+04  0.50400001928E-02 0.  1.
    10030    2    1    2    0    0  0.00000000000E+00  0.00000000000E+00 -0.75040400908E+03  0.27145619786E+04  0.26087814318E+04 0.  0.
        1    1    3    3  502    0  0.10845371215E+04 -0.63952058079E+03 -0.20456359209E+02  0.12592163452E+04  0.50400001928E-02 0. -1.
       -1    1    3    3    0  502 -0.10845371215E+04  0.63952058079E+03 -0.72994764987E+03  0.14553456335E+04  0.50400001928E-02 0.  1.
</event>
<event>
 5   0  0.1116310E-05  0.2577911E+04  0.7818609E-02  0.8375743E-01
       -2   -1    0    0    0  501  0.00000000000E+00  0.00000000000E+00  0.12191781971E+04  0.12191781971E+04  0.25500000920E-02 0. -1.
        2   -1    0    0  501    0  0.00000000000E+00  0.00000000000E+00 -0.13627267561E+04  0.13627267561E+04  0.25500000920E-02 0.  1.
    10030    2    1    2    0    0  0.00000000000E+00  0.00000000000E+00 -0.14354855897E+03  0.25819049532E+04  0.25779113636E+04 0.  0.
        4    1    3    3  502    0  0.26939295891E+03  0.79083145273E+02  0.11881803029E+04  0.12209016157E+04  0.12699999809E+01 0. -1.
       -4    1    3    3    0  502 -0.26939295891E+03 -0.79083145273E+02 -0.13317288619E+04  0.13610033375E+04  0.12699999809E+01 0.  1.
</event>
<event>
 5   0  0.1086507E-05  0.2591877E+04  0.7818609E-02  0.8370966E-01
       -2   -1    0    0    0  501  0.00000000000E+00  0.00000000000E+00  0.78109398447E+03  0.78109398448E+03  0.25500000920E-02 0. -1.
        2   -1    0    0  501    0  0.00000000000E+00  0.00000000000E+00 -0.21501332606E+04  0.21501332606E+04  0.25500000920E-02 0.  1.
    10030    2    1    2    0    0  0.00000000000E+00  0.00000000000E+00 -0.13690392761E+04  0.29312272451E+04  0.25918766604E+04 0.  0.
        2    1    3    3  502    0  0.10454794447E+04 -0.76575931308E+03 -0.69181047020E+03  0.14690188295E+04  0.25500000920E-02 0. -1.
       -2    1    3    3    0  502 -0.10454794447E+04  0.76575931308E+03 -0.67722880593E+03  0.14622084155E+04  0.25500000920E-02 0.  1.
</event>
<event>
 5   0  0.1086507E-05  0.2572102E+04  0.7818609E-02  0.8377740E-01
       -2   -1    0    0    0  501  0.00000000000E+00  0.00000000000E+00  0.15454875391E+04  0.15454875391E+04  0.25500000920E-02 0. -1.
        2   -1    0    0  501    0  0.00000000000E+00  0.00000000000E+00 -0.10701653510E+04  0.10701653510E+04  0.25500000920E-02 0.  1.
    10030    2    1    2    0    0  0.00000000000E+00  0.00000000000E+00  0.47532218807E+03  0.26156528902E+04  0.25721020313E+04 0.  0.
        2    1    3    3  502    0 -0.37794508099E+03 -0.82516706330E+03 -0.68891077387E+03  0.11394477702E+04  0.25500000920E-02 0.  1.
       -2    1    3    3    0  502  0.37794508099E+03  0.82516706330E+03  0.11642329619E+04  0.14762051200E+04  0.25500000920E-02 0. -1.
</event>
<event>
 5   0  0.1085061E-05  0.2595678E+04  0.7818609E-02  0.8369671E-01
       -2   -1    0    0    0  501  0.00000000000E+00  0.00000000000E+00  0.98442939623E+03  0.98442939623E+03  0.25500000920E-02 0. -1.
        2   -1    0    0  501    0  0.00000000000E+00  0.00000000000E+00 -0.17110282352E+04  0.17110282352E+04  0.25500000920E-02 0.  1.
    10030    2    1    2    0    0  0.00000000000E+00  0.00000000000E+00 -0.72659883894E+03  0.26954576314E+04  0.25956783256E+04 0.  0.
        1    1    3    3  502    0  0.59039553657E+03 -0.10659522856E+04  0.10060037894E+03  0.12226780447E+04  0.50400001928E-02 0. -1.
       -1    1    3    3    0  502 -0.59039553657E+03  0.10659522856E+04 -0.82719921788E+03  0.14727795867E+04  0.50400001928E-02 0.  1.
</event>
<event>
 5   0  0.1085255E-05  0.2615740E+04  0.7818609E-02  0.8362874E-01
        2   -1    0    0  501    0  0.00000000000E+00  0.00000000000E+00  0.84130002680E+03  0.84130002680E+03  0.25500000920E-02 0. -1.
       -2   -1    0    0    0  501  0.00000000000E+00  0.00000000000E+00 -0.20331917009E+04  0.20331917009E+04  0.25500000920E-02 0.  1.
    10030    2    1    2    0    0  0.00000000000E+00  0.00000000000E+00 -0.11918916741E+04  0.28744917278E+04  0.26157402260E+04 0.  0.
        5    1    3    3  502    0  0.45632443653E+03 -0.59678114516E+03  0.58052713760E+03  0.94942802470E+03  0.46999998093E+01 0. -1.
       -5    1    3    3    0  502 -0.45632443653E+03  0.59678114516E+03 -0.17724188117E+04  0.19250637031E+04  0.46999998093E+01 0.  1.
</event>
<event>
 5   0  0.4415080E-06  0.2575461E+04  0.7818609E-02  0.8376585E-01
       -1   -1    0    0    0  501  0.00000000000E+00  0.00000000000E+00  0.64740953733E+03  0.64740953735E+03  0.50400001928E-02 0.  1.
        1   -1    0    0  501    0  0.00000000000E+00  0.00000000000E+00 -0.25613617034E+04  0.25613617034E+04  0.50400001928E-02 0. -1.
    10030    2    1    2    0    0  0.00000000000E+00  0.00000000000E+00 -0.19139521660E+04  0.32087712407E+04  0.25754611201E+04 0.  0.
        2    1    3    3  502    0  0.91549867412E+03 -0.25000723301E+03  0.12746557912E+03  0.95754316495E+03  0.25500000920E-02 0.  1.
       -2    1    3    3    0  502 -0.91549867412E+03  0.25000723301E+03 -0.20414177452E+04  0.22512280758E+04  0.25500000920E-02 0. -1.
</event>
<event>
 5   0  0.4361864E-06  0.2578916E+04  0.7818609E-02  0.8375398E-01
        1   -1    0    0  501    0  0.00000000000E+00  0.00000000000E+00  0.16181354945E+04  0.16181354945E+04  0.50400001928E-02 0.  1.
       -1   -1    0    0    0  501  0.00000000000E+00  0.00000000000E+00 -0.10275421149E+04  0.10275421149E+04  0.50400001928E-02 0. -1.
    10030    2    1    2    0    0  0.00000000000E+00  0.00000000000E+00  0.59059337962E+03  0.26456776094E+04  0.25789163369E+04 0.  0.
        3    1    3    3  502    0 -0.38539342027E+03 -0.10898111056E+04 -0.29088461845E+03  0.11919858245E+04  0.10100000352E+00 0. -1.
       -3    1    3    3    0  502  0.38539342027E+03  0.10898111056E+04  0.88147799808E+03  0.14536917849E+04  0.10100000352E+00 0.  1.
</event>
<event>
 5   0  0.4218590E-06  0.2590032E+04  0.7818609E-02  0.8371595E-01
        1   -1    0    0  501    0  0.00000000000E+00  0.00000000000E+00  0.15359510729E+04  0.15359510729E+04  0.50400001928E-02 0.  1.
       -1   -1    0    0    0  501  0.00000000000E+00  0.00000000000E+00 -0.10918751319E+04  0.10918751319E+04  0.50400001928E-02 0. -1.
    10030    2    1    2    0    0  0.00000000000E+00  0.00000000000E+00  0.44407594101E+03  0.26278262048E+04  0.25900322626E+04 0.  0.
        1    1    3    3  502    0  0.63204712556E+02 -0.82109206715E+03 -0.79198565178E+03  0.11425534084E+04  0.50400001928E-02 0. -1.
       -1    1    3    3    0  502 -0.63204712556E+02  0.82109206715E+03  0.12360615928E+04  0.14852727964E+04  0.50400001928E-02 0.  1.
</event>
<event>
 5   0  0.4415080E-06  0.2603202E+04  0.7818609E-02  0.8367114E-01
        1   -1    0    0  501    0  0.00000000000E+00  0.00000000000E+00  0.10642214395E+04  0.10642214395E+04  0.50400001928E-02 0.  1.
       -1   -1    0    0    0  501  0.00000000000E+00  0.00000000000E+00 -0.15919288536E+04  0.15919288536E+04  0.50400001928E-02 0. -1.
    10030    2    1    2    0    0  0.00000000000E+00  0.00000000000E+00 -0.52770741406E+03  0.26561502931E+04  0.26032017334E+04 0.  0.
        2    1    3    3  502    0  0.12879119653E+03  0.10581728989E+04 -0.10259373971E+04  0.14794811925E+04  0.25500000920E-02 0. -1.
       -2    1    3    3    0  502 -0.12879119653E+03 -0.10581728989E+04  0.49822998304E+03  0.11766691006E+04  0.25500000920E-02 0.  1.
</event>
<event>
 5   0  0.1136881E-05  0.2602106E+04  0.7818609E-02  0.8367486E-01
        2   -1    0    0  501    0  0.00000000000E+00  0.00000000000E+00  0.14813889848E+04  0.14813889848E+04  0.25500000920E-02 0. -1.
       -2   -1    0    0    0  501  0.00000000000E+00  0.00000000000E+00 -0.11426699554E+04  0.11426699554E+04  0.25500000920E-02 0.  1.
    10030    2    1    2    0    0  0.00000000000E+00  0.00000000000E+00  0.33871902945E+03  0.26240589402E+04  0.26021058281E+04 0.  0.
        3    1    3    3  502    0  0.43932035501E+03  0.23283191565E+02 -0.10653863378E+04  0.11526458867E+04  0.10100000352E+00 0.  1.
       -3    1    3    3    0  502 -0.43932035501E+03 -0.23283191565E+02  0.14041053672E+04  0.14714130534E+04  0.10100000352E+00 0. -1.
</event>
<event>
 5   0  0.4415080E-06  0.2654986E+04  0.7818609E-02  0.8349760E-01
        1   -1    0    0  501    0  0.00000000000E+00  0.00000000000E+00  0.24763785913E+04  0.24763785913E+04  0.50400001928E-02 0.  1.
       -1   -1    0    0    0  501  0.00000000000E+00  0.00000000000E+00 -0.71161873322E+03  0.71161873324E+03  0.50400001928E-02 0. -1.
    10030    2    1    2    0    0  0.00000000000E+00  0.00000000000E+00  0.17647598581E+04  0.31879973245E+04  0.26549857974E+04 0.  0.
        2    1    3    3  502    0  0.86655302721E+03  0.98425734424E+03  0.63466038763E+03  0.14568700959E+04  0.25500000920E-02 0.  1.
       -2    1    3    3    0  502 -0.86655302721E+03 -0.98425734424E+03  0.11300994704E+04  0.17311272286E+04  0.25500000920E-02 0. -1.
</event>
<event>
 5   0  0.1085255E-05  0.2559656E+04  0.7818609E-02  0.8382036E-01
        2   -1    0    0  501    0  0.00000000000E+00  0.00000000000E+00  0.13970536622E+04  0.13970536622E+04  0.25500000920E-02 0.  1.
       -2   -1    0    0    0  501  0.00000000000E+00  0.00000000000E+00 -0.11724386164E+04  0.11724386164E+04  0.25500000920E-02 0. -1.
    10030    2    1    2    0    0  0.00000000000E+00  0.00000000000E+00  0.22461504573E+03  0.25694922786E+04  0.25596559634E+04 0.  0.
        5    1    3    3  502    0 -0.94210511813E+03  0.13875101326E+03  0.97065106477E+03  0.13597792015E+04  0.46999998093E+01 0.  1.
       -5    1    3    3    0  502  0.94210511813E+03 -0.13875101326E+03 -0.74603601904E+03  0.12097130771E+04  0.46999998093E+01 0. -1.
</event>
<event>
 5   0  0.1085061E-05  0.2603710E+04  0.7818609E-02  0.8366942E-01
       -2   -1    0    0    0  501  0.00000000000E+00  0.00000000000E+00  0.10474002116E+04  0.10474002116E+04  0.25500000920E-02 0.  1.
        2   -1    0    0  501    0  0.00000000000E+00  0.00000000000E+00 -0.16181267368E+04  0.16181267368E+04  0.25500000920E-02 0. -1.
    10030    2    1    2    0    0  0.00000000000E+00  0.00000000000E+00 -0.57072652527E+03  0.26655269484E+04  0.26037098813E+04 0.  0.
        1    1    3    3  502    0  0.10928879241E+04  0.50728596478E+03  0.21937703360E+03  0.12246915316E+04  0.50400001928E-02 0.  1.
       -1    1    3    3    0  502 -0.10928879241E+04 -0.50728596478E+03 -0.79010355887E+03  0.14408354168E+04  0.50400001928E-02 0. -1.
</event>
<event>
 5   0  0.4597705E-06  0.2588663E+04  0.7818609E-02  0.8372062E-01
       -1   -1    0    0    0  501  0.00000000000E+00  0.00000000000E+00  0.80723732662E+03  0.80723732664E+03  0.50400001928E-02 0.  1.
        1   -1    0    0  501    0  0.00000000000E+00  0.00000000000E+00 -0.20753424095E+04  0.20753424095E+04  0.50400001928E-02 0. -1.
    10030    2    1    2    0    0  0.00000000000E+00  0.00000000000E+00 -0.12681050829E+04  0.28825797361E+04  0.25886628660E+04 0.  0.
        5    1    3    3  502    0 -0.40122742066E+03  0.54774495748E+03 -0.18611028163E+04  0.19810940827E+04  0.46999998093E+01 0. -1.
       -5    1    3    3    0  502  0.40122742066E+03 -0.54774495748E+03  0.59299773344E+03  0.90148565346E+03  0.46999998093E+01 0.  1.
</event>
<event>
 5   0  0.4361864E-06  0.2605530E+04  0.7818609E-02  0.8366325E-01
       -1   -1    0    0    0  501  0.00000000000E+00  0.00000000000E+00  0.99744270226E+03  0.99744270227E+03  0.50400001928E-02 0.  1.
        1   -1    0    0  501    0  0.00000000000E+00  0.00000000000E+00 -0.17015478040E+04  0.17015478040E+04  0.50400001928E-02 0. -1.
    10030    2    1    2    0    0  0.00000000000E+00  0.00000000000E+00 -0.70410510171E+03  0.26989905063E+04  0.26055298422E+04 0.  0.
        3    1    3    3  502    0 -0.39577254020E+03 -0.23118491084E+03  0.91116294788E+03  0.10199511235E+04  0.10100000352E+00 0.  1.
       -3    1    3    3    0  502  0.39577254020E+03  0.23118491084E+03 -0.16152680496E+04  0.16790393827E+04  0.10100000352E+00 0. -1.
</event>
<event>
 5   0  0.4218590E-06  0.2641514E+04  0.7818609E-02  0.8354235E-01
       -1   -1    0    0    0  501  0.00000000000E+00  0.00000000000E+00  0.11420058986E+04  0.11420058986E+04  0.50400001928E-02 0.  1.
        1   -1    0    0  501    0  0.00000000000E+00  0.00000000000E+00 -0.15274869337E+04  0.15274869337E+04  0.50400001928E-02 0. -1.
    10030    2    1    2    0    0  0.00000000000E+00  0.00000000000E+00 -0.38548103512E+03  0.26694928324E+04  0.26415140268E+04 0.  0.
        1    1    3    3  502    0  0.19360019715E+03 -0.97971056840E+03  0.68075548165E+03  0.12086115422E+04  0.50400001928E-02 0.  1.
       -1    1    3    3    0  502 -0.19360019715E+03  0.97971056840E+03 -0.10662365168E+04  0.14608812901E+04  0.50400001928E-02 0. -1.
</event>
<event>
 5   0  0.4597705E-06  0.2611876E+04  0.7818609E-02  0.8364178E-01
       -1   -1    0    0    0  501  0.00000000000E+00  0.00000000000E+00  0.17983855310E+04  0.17983855310E+04  0.50400001928E-02 0.  1.
        1   -1    0    0  501    0  0.00000000000E+00  0.00000000000E+00 -0.94833642230E+03  0.94833642231E+03  0.50400001928E-02 0. -1.
    10030    2    1    2    0    0  0.00000000000E+00  0.00000000000E+00  0.85004910868E+03  0.27467219533E+04  0.26118763373E+04 0.  0.
        5    1    3    3  502    0 -0.12522249640E+04 -0.20757797195E+03  0.74795554584E+03  0.14733009073E+04  0.46999998093E+01 0. -1.
       -5    1    3    3    0  502  0.12522249640E+04  0.20757797195E+03  0.10209356284E+03  0.12734210460E+04  0.46999998093E+01 0.  1.
</event>
<event>
 5   0  0.1086507E-05  0.2588977E+04  0.7818609E-02  0.8371955E-01
       -2   -1    0    0    0  501  0.00000000000E+00  0.00000000000E+00  0.12191934802E+04  0.12191934802E+04  0.25500000920E-02 0. -1.
        2   -1    0    0  501    0  0.00000000000E+00  0.00000000000E+00 -0.13744337558E+04  0.13744337558E+04  0.25500000920E-02 0.  1.
    10030    2    1    2    0    0  0.00000000000E+00  0.00000000000E+00 -0.15524027567E+03  0.25936272360E+04  0.25889771525E+04 0.  0.
        2    1    3    3  502    0 -0.54169328776E+02  0.69586672814E+03 -0.11697781699E+04  0.13621841969E+04  0.25500000920E-02 0.  1.
       -2    1    3    3    0  502  0.54169328776E+02 -0.69586672814E+03  0.10145378943E+04  0.12314430390E+04  0.25500000920E-02 0. -1.
</event>
<event>
 5   0  0.4415080E-06  0.2596254E+04  0.7818609E-02  0.8369475E-01
       -1   -1    0    0    0  501  0.00000000000E+00  0.00000000000E+00  0.87692776937E+03  0.87692776938E+03  0.50400001928E-02 0. -1.
        1   -1    0    0  501    0  0.00000000000E+00  0.00000000000E+00 -0.19216340092E+04  0.19216340092E+04  0.50400001928E-02 0.  1.
    10030    2    1    2    0    0  0.00000000000E+00  0.00000000000E+00 -0.10447062398E+04  0.27985617786E+04  0.25962543984E+04 0.  0.
        2    1    3    3  502    0 -0.24985531454E+03 -0.10666330612E+04 -0.12730398318E+04  0.16795130779E+04  0.25500000920E-02 0.  1.
       -2    1    3    3    0  502  0.24985531454E+03  0.10666330612E+04  0.22833359191E+03  0.11190487007E+04  0.25500000920E-02 0. -1.
</event>
<event>
 5   0  0.1085255E-05  0.2533699E+04  0.7818609E-02  0.8391077E-01
       -2   -1    0    0    0  501  0.00000000000E+00  0.00000000000E+00  0.66070106423E+03  0.66070106423E+03  0.25500000920E-02 0.  1.
        2   -1    0    0  501    0  0.00000000000E+00  0.00000000000E+00 -0.24290989611E+04  0.24290989611E+04  0.25500000920E-02 0. -1.
    10030    2    1    2    0    0  0.00000000000E+00  0.00000000000E+00 -0.17683978968E+04  0.30898000253E+04  0.25336994839E+04 0.  0.
        5    1    3    3  502    0  0.86178537974E+03  0.43211671705E+03 -0.18864669317E+04  0.21185321504E+04  0.46999998093E+01 0. -1.
       -5    1    3    3    0  502 -0.86178537974E+03 -0.43211671705E+03  0.11806903483E+03  0.97126787493E+03  0.46999998093E+01 0.  1.
</event>
<event>
 5   0  0.4218590E-06  0.2597736E+04  0.7818609E-02  0.8368970E-01
       -1   -1    0    0    0  501  0.00000000000E+00  0.00000000000E+00  0.87711795107E+03  0.87711795109E+03  0.50400001928E-02 0. -1.
        1   -1    0    0  501    0  0.00000000000E+00  0.00000000000E+00 -0.19234113670E+04  0.19234113670E+04  0.50400001928E-02 0.  1.
    10030    2    1    2    0    0  0.00000000000E+00  0.00000000000E+00 -0.10462934159E+04  0.28005293181E+04  0.25977364280E+04 0.  0.
        1    1    3    3  502    0 -0.17559555563E+02  0.12974054217E+04 -0.45946351298E+03  0.13764722612E+04  0.50400001928E-02 0. -1.
       -1    1    3    3    0  502  0.17559555563E+02 -0.12974054217E+04 -0.58682990294E+03  0.14240570569E+04  0.50400001928E-02 0.  1.
</event>
<event>
 5   0  0.1136881E-05  0.2579936E+04  0.7818609E-02  0.8375049E-01
       -2   -1    0    0    0  501  0.00000000000E+00  0.00000000000E+00  0.86718784104E+03  0.86718784104E+03  0.25500000920E-02 0. -1.
        2   -1    0    0  501    0  0.00000000000E+00  0.00000000000E+00 -0.19188660525E+04  0.19188660525E+04  0.25500000920E-02 0.  1.
    10030    2    1    2    0    0  0.00000000000E+00  0.00000000000E+00 -0.10516782114E+04  0.27860538935E+04  0.25799358979E+04 0.  0.
        3    1    3    3  502    0  0.87218921862E+03  0.80890062296E+03 -0.10646861283E+04  0.15964306477E+04  0.10100000352E+00 0.  1.
       -3    1    3    3    0  502 -0.87218921862E+03 -0.80890062296E+03  0.13007916836E+02  0.11896232458E+04  0.10100000352E+00 0. -1.
</event>
<event>
 5   0  0.1085255E-05  0.2561233E+04  0.7818609E-02  0.8381490E-01
        2   -1    0    0  501    0  0.00000000000E+00  0.00000000000E+00  0.22014574061E+04  0.22014574061E+04  0.25500000920E-02 0.  1.
       -2   -1    0    0    0  501  0.00000000000E+00  0.00000000000E+00 -0.74495140039E+03  0.74495140039E+03  0.25500000920E-02 0. -1.
    10030    2    1    2    0    0  0.00000000000E+00  0.00000000000E+00  0.14565060057E+04  0.29464088065E+04  0.25612331230E+04 0.  0.
        5    1    3    3  502    0 -0.20638884295E+03  0.20158404113E+03 -0.70707029294E+03  0.76367726775E+03  0.46999998093E+01 0. -1.
       -5    1    3    3    0  502  0.20638884295E+03 -0.20158404113E+03  0.21635762986E+04  0.21827315387E+04  0.46999998093E+01 0.  1.
</event>
<event>
 5   0  0.1085255E-05  0.2589943E+04  0.7818609E-02  0.8371625E-01
       -2   -1    0    0    0  501  0.00000000000E+00  0.00000000000E+00  0.20777888953E+04  0.20777888953E+04  0.25500000920E-02 0. -1.
        2   -1    0    0  501    0  0.00000000000E+00  0.00000000000E+00 -0.80708471167E+03  0.80708471167E+03  0.25500000920E-02 0.  1.
    10030    2    1    2    0    0  0.00000000000E+00  0.00000000000E+00  0.12707041836E+04  0.28848736070E+04  0.25899433596E+04 0.  0.
        5    1    3    3  502    0 -0.10899130123E+04 -0.27440556932E+03 -0.81105000964E+02  0.11268579778E+04  0.46999998093E+01 0.  1.
       -5    1    3    3    0  502  0.10899130123E+04  0.27440556932E+03  0.13518091846E+04  0.17580156292E+04  0.46999998093E+01 0. -1.
</event>
<event>
 5   0  0.1136881E-05  0.2595029E+04  0.7818609E-02  0.8369892E-01
        2   -1    0    0  501    0  0.00000000000E+00  0.00000000000E+00  0.86577154674E+03  0.86577154674E+03  0.25500000920E-02 0.  1.
       -2   -1    0    0    0  501  0.00000000000E+00  0.00000000000E+00 -0.19445589808E+04  0.19445589808E+04  0.25500000920E-02 0. -1.
    10030    2    1    2    0    0  0.00000000000E+00  0.00000000000E+00 -0.10787874341E+04  0.28103305276E+04  0.25950289683E+04 0.  0.
        3    1    3    3  502    0 -0.82942688494E+03 -0.11122209244E+01  0.54118459273E+03  0.99036910700E+03  0.10100000352E+00 0.  1.
       -3    1    3    3    0  502  0.82942688494E+03  0.11122209244E+01 -0.16199720268E+04  0.18199614206E+04  0.10100000352E+00 0. -1.
</event>
<event>
 5   0  0.4218590E-06  0.2573625E+04  0.7818609E-02  0.8377216E-01
       -1   -1    0    0    0  501  0.00000000000E+00  0.00000000000E+00  0.16759277312E+04  0.16759277312E+04  0.50400001928E-02 0.  1.
        1   -1    0    0  501    0  0.00000000000E+00  0.00000000000E+00 -0.98804151121E+03  0.98804151123E+03  0.50400001928E-02 0. -1.
    10030    2    1    2    0    0  0.00000000000E+00  0.00000000000E+00  0.68788622002E+03  0.26639692425E+04  0.25736248120E+04 0.  0.
        1    1    3    3  502    0 -0.36427120965E+03  0.34497788744E+02  0.16209453597E+04  0.16617302641E+04  0.50400001928E-02 0.  1.
       -1    1    3    3    0  502  0.36427120965E+03 -0.34497788744E+02 -0.93305913965E+03  0.10022389783E+04  0.50400001928E-02 0. -1.
</event>
<event>
 5   0  0.4464297E-06  0.2606343E+04  0.7818609E-02  0.8366050E-01
        1   -1    0    0  501    0  0.00000000000E+00  0.00000000000E+00  0.20849580670E+04  0.20849580670E+04  0.50400001928E-02 0.  1.
       -1   -1    0    0    0  501  0.00000000000E+00  0.00000000000E+00 -0.81452773682E+03  0.81452773684E+03  0.50400001928E-02 0. -1.
    10030    2    1    2    0    0  0.00000000000E+00  0.00000000000E+00  0.12704303302E+04  0.28994858039E+04  0.26063431668E+04 0.  0.
        4    1    3    3  502    0 -0.13165113331E+03  0.10384274564E+04 -0.22836109657E+03  0.10713608199E+04  0.12699999809E+01 0. -1.
       -4    1    3    3    0  502  0.13165113331E+03 -0.10384274564E+04  0.14987914268E+04  0.18281249840E+04  0.12699999809E+01 0.  1.
</event>
<event>
 5   0  0.4597705E-06  0.2601270E+04  0.7818609E-02  0.8367770E-01
       -1   -1    0    0    0  501  0.00000000000E+00  0.00000000000E+00  0.12778964988E+04  0.12778964988E+04  0.50400001928E-02 0.  1.
        1   -1    0    0  501    0  0.00000000000E+00  0.00000000000E+00 -0.13237785224E+04  0.13237785224E+04  0.50400001928E-02 0. -1.
    10030    2    1    2    0    0  0.00000000000E+00  0.00000000000E+00 -0.45882023573E+02  0.26016750212E+04  0.26012704119E+04 0.  0.
        5    1    3    3  502    0 -0.11874895345E+04 -0.43116489774E+03 -0.33217397578E+03  0.13062910104E+04  0.46999998093E+01 0.  1.
       -5    1    3    3    0  502  0.11874895345E+04  0.43116489774E+03  0.28629195221E+03  0.12953840108E+04  0.46999998093E+01 0. -1.
</event>
<event>
 5   0  0.1086507E-05  0.2580625E+04  0.7818609E-02  0.8374812E-01
        2   -1    0    0  501    0  0.00000000000E+00  0.00000000000E+00  0.12050430052E+04  0.12050430052E+04  0.25500000920E-02 0. -1.
       -2   -1    0    0    0  501  0.00000000000E+00  0.00000000000E+00 -0.13816156856E+04  0.13816156856E+04  0.25500000920E-02 0.  1.
    10030    2    1    2    0    0  0.00000000000E+00  0.00000000000E+00 -0.17657268045E+03  0.25866586908E+04  0.25806249768E+04 0.  0.
        2    1    3    3  502    0  0.45826581214E+03  0.10377529362E+04 -0.70451447307E+03  0.13353948307E+04  0.25500000920E-02 0.  1.
       -2    1    3    3    0  502 -0.45826581214E+03 -0.10377529362E+04  0.52794179261E+03  0.12512638601E+04  0.25500000920E-02 0. -1.
</event>
<event>
 5   0  0.4361864E-06  0.2609193E+04  0.7818609E-02  0.8365085E-01
        1   -1    0    0  501    0  0.00000000000E+00  0.00000000000E+00  0.10732370589E+04  0.10732370589E+04  0.50400001928E-02 0.  1.
       -1   -1    0    0    0  501  0.00000000000E+00  0.00000000000E+00 -0.15858307742E+04  0.15858307742E+04  0.50400001928E-02 0. -1.
    10030    2    1    2    0    0  0.00000000000E+00  0.00000000000E+00 -0.51259371531E+03  0.26590678331E+04  0.26091932515E+04 0.  0.
        3    1    3    3  502    0  0.28588638350E+03  0.23920909275E+03  0.10178089151E+04  0.10839220507E+04  0.10100000352E+00 0.  1.
       -3    1    3    3    0  502 -0.28588638350E+03 -0.23920909275E+03 -0.15304026304E+04  0.15751457823E+04  0.10100000352E+00 0. -1.
</event>
<event>
 5   0  0.4464297E-06  0.2613271E+04  0.7818609E-02  0.8363707E-01
        1   -1    0    0  501    0  0.00000000000E+00  0.00000000000E+00  0.82855132915E+03  0.82855132917E+03  0.50400001928E-02 0. -1.
       -1   -1    0    0    0  501  0.00000000000E+00  0.00000000000E+00 -0.20605801170E+04  0.20605801170E+04  0.50400001928E-02 0.  1.
    10030    2    1    2    0    0  0.00000000000E+00  0.00000000000E+00 -0.12320287879E+04  0.28891314462E+04  0.26132710497E+04 0.  0.
        4    1    3    3  502    0  0.35460625157E+03  0.79217044585E+03  0.46382827691E+03  0.98408225891E+03  0.12699999809E+01 0. -1.
       -4    1    3    3    0  502 -0.35460625157E+03 -0.79217044585E+03 -0.16958570648E+04  0.19050491873E+04  0.12699999809E+01 0.  1.
</event>
<event>
 5   0  0.1116310E-05  0.2608767E+04  0.7818609E-02  0.8365229E-01
        2   -1    0    0  501    0  0.00000000000E+00  0.00000000000E+00  0.16413793206E+04  0.16413793206E+04  0.25500000920E-02 0.  1.
       -2   -1    0    0    0  501  0.00000000000E+00  0.00000000000E+00 -0.10365768895E+04  0.10365768895E+04  0.25500000920E-02 0. -1.
    10030    2    1    2    0    0  0.00000000000E+00  0.00000000000E+00  0.60480243114E+03  0.26779562101E+04  0.26087666592E+04 0.  0.
        4    1    3    3  502    0  0.10710573838E+03 -0.10047670523E+04  0.11491329810E+04  0.15302080543E+04  0.12699999809E+01 0.  1.
       -4    1    3    3    0  502 -0.10710573838E+03  0.10047670523E+04 -0.54433054990E+03  0.11477481557E+04  0.12699999809E+01 0. -1.
</event>
<event>
 5   0  0.4464297E-06  0.2612778E+04  0.7818609E-02  0.8363874E-01
        1   -1    0    0  501    0  0.00000000000E+00  0.00000000000E+00  0.15919253489E+04  0.15919253489E+04  0.50400001928E-02 0.  1.
       -1   -1    0    0    0  501  0.00000000000E+00  0.00000000000E+00 -0.10720676391E+04  0.10720676391E+04  0.50400001928E-02 0. -1.
    10030    2    1    2    0    0  0.00000000000E+00  0.00000000000E+00  0.51985770983E+03  0.26639929880E+04  0.26127775645E+04 0.  0.
        4    1    3    3  502    0  0.89340470623E+03  0.51375668647E+03  0.10784933944E+04  0.14917330581E+04  0.12699999809E+01 0.  1.
       -4    1    3    3    0  502 -0.89340470623E+03 -0.51375668647E+03 -0.55863568462E+03  0.11722599298E+04  0.12699999809E+01 0. -1.
</event>
<event>
 5   0  0.4464297E-06  0.2657171E+04  0.7818609E-02  0.8349037E-01
        1   -1    0    0  501    0  0.00000000000E+00  0.00000000000E+00  0.12861440921E+04  0.12861440921E+04  0.50400001928E-02 0. -1.
       -1   -1    0    0    0  501  0.00000000000E+00  0.00000000000E+00 -0.13724275566E+04  0.13724275566E+04  0.50400001928E-02 0.  1.
    10030    2    1    2    0    0  0.00000000000E+00  0.00000000000E+00 -0.86283464446E+02  0.26585716487E+04  0.26571711227E+04 0.  0.
        4    1    3    3  502    0 -0.18735877009E+03 -0.13126924085E+04 -0.12609087433E+03  0.13319779238E+04  0.12699999809E+01 0. -1.
       -4    1    3    3    0  502  0.18735877009E+03  0.13126924085E+04  0.39807409881E+02  0.13265937249E+04  0.12699999809E+01 0.  1.
</event>
<event>
 5   0  0.4218590E-06  0.2568326E+04  0.7818609E-02  0.8379040E-01
       -1   -1    0    0    0  501  0.00000000000E+00  0.00000000000E+00  0.72914156086E+03  0.72914156088E+03  0.50400001928E-02 0.  1.
        1   -1    0    0  501    0  0.00000000000E+00  0.00000000000E+00 -0.22616660429E+04  0.22616660430E+04  0.50400001928E-02 0. -1.
    10030    2    1    2    0    0  0.00000000000E+00  0.00000000000E+00 -0.15325244821E+04  0.29908076038E+04  0.25683260764E+04 0.  0.
        1    1    3    3  502    0 -0.50349791792E+03 -0.32937923715E+03  0.55485102080E+03  0.81845005377E+03  0.50400001928E-02 0.  1.
       -1    1    3    3    0  502  0.50349791792E+03  0.32937923715E+03 -0.20873755029E+04  0.21723575501E+04  0.50400001928E-02 0. -1.
</event>
<event>
 5   0  0.1085061E-05  0.2589700E+04  0.7818609E-02  0.8371708E-01
       -2   -1    0    0    0  501  0.00000000000E+00  0.00000000000E+00  0.11215612739E+04  0.11215612739E+04  0.25500000920E-02 0.  1.
        2   -1    0    0  501    0  0.00000000000E+00  0.00000000000E+00 -0.14949126072E+04  0.14949126072E+04  0.25500000920E-02 0. -1.
    10030    2    1    2    0    0  0.00000000000E+00  0.00000000000E+00 -0.37335133335E+03  0.26164738811E+04  0.25896996645E+04 0.  0.
        1    1    3    3  502    0 -0.56025288951E+03  0.86345947418E+03  0.60706133828E+03  0.11949765823E+04  0.50400001928E-02 0.  1.
       -1    1    3    3    0  502  0.56025288951E+03 -0.86345947418E+03 -0.98041267163E+03  0.14214972988E+04  0.50400001928E-02 0. -1.
</event>
<event>
 5   0  0.4361864E-06  0.2515351E+04  0.7818609E-02  0.8397537E-01
        1   -1    0    0  501    0  0.00000000000E+00  0.00000000000E+00  0.14327894593E+04  0.14327894593E+04  0.50400001928E-02 0.  1.
       -1   -1    0    0    0  501  0.00000000000E+00  0.00000000000E+00 -0.11039638759E+04  0.11039638759E+04  0.50400001928E-02 0. -1.
    10030    2    1    2    0    0  0.00000000000E+00  0.00000000000E+00  0.32882558339E+03  0.25367533352E+04  0.25153511125E+04 0.  0.
        3    1    3    3  502    0  0.31601392319E+03  0.10344398274E+04  0.81160292133E+03  0.13522684158E+04  0.10100000352E+00 0. -1.
       -3    1    3    3    0  502 -0.31601392319E+03 -0.10344398274E+04 -0.48277733794E+03  0.11844849194E+04  0.10100000352E+00 0.  1.
</event>
<event>
 5   0  0.1086507E-05  0.2604795E+04  0.7818609E-02  0.8366574E-01
       -2   -1    0    0    0  501  0.00000000000E+00  0.00000000000E+00  0.18108198526E+04  0.18108198526E+04  0.25500000920E-02 0.  1.
        2   -1    0    0  501    0  0.00000000000E+00  0.00000000000E+00 -0.93672416461E+03  0.93672416462E+03  0.25500000920E-02 0. -1.
    10030    2    1    2    0    0  0.00000000000E+00  0.00000000000E+00  0.87409568795E+03  0.27475440172E+04  0.26047945897E+04 0.  0.
        2    1    3    3  502    0 -0.40271333263E+03  0.60429177988E+03 -0.70335527114E+03  0.10109674678E+04  0.25500000920E-02 0. -1.
       -2    1    3    3    0  502  0.40271333263E+03 -0.60429177988E+03  0.15774509591E+04  0.17365765494E+04  0.25500000920E-02 0.  1.
</event>
<event>
 5   0  0.1136881E-05  0.2598078E+04  0.7818609E-02  0.8368854E-01
       -2   -1    0    0    0  501  0.00000000000E+00  0.00000000000E+00  0.64454656460E+03  0.64454656461E+03  0.25500000920E-02 0.  1.
        2   -1    0    0  501    0  0.00000000000E+00  0.00000000000E+00 -0.26181239571E+04  0.26181239571E+04  0.25500000920E-02 0. -1.
    10030    2    1    2    0    0  0.00000000000E+00  0.00000000000E+00 -0.19735773925E+04  0.32626705217E+04  0.25980783685E+04 0.  0.
        3    1    3    3  502    0 -0.20691439281E+03  0.12782434252E+04 -0.11171924862E+04  0.17102160335E+04  0.10100000352E+00 0. -1.
       -3    1    3    3    0  502  0.20691439281E+03 -0.12782434252E+04 -0.85638490625E+03  0.15524544881E+04  0.10100000352E+00 0.  1.
</event>
<event>
 5   0  0.4597705E-06  0.2572901E+04  0.7818609E-02  0.8377465E-01
        1   -1    0    0  501    0  0.00000000000E+00  0.00000000000E+00  0.87388649177E+03  0.87388649179E+03  0.50400001928E-02 0. -1.
       -1   -1    0    0    0  501  0.00000000000E+00  0.00000000000E+00 -0.18937868133E+04  0.18937868133E+04  0.50400001928E-02 0.  1.
    10030    2    1    2    0    0  0.00000000000E+00  0.00000000000E+00 -0.10199003215E+04  0.27676733051E+04  0.25729008644E+04 0.  0.
        5    1    3    3  502    0 -0.30903523202E+03 -0.87805568354E+03  0.44521465883E+03  0.10318540306E+04  0.46999998093E+01 0. -1.
       -5    1    3    3    0  502  0.30903523202E+03  0.87805568354E+03 -0.14651149804E+04  0.17358192745E+04  0.46999998093E+01 0.  1.
</event>
<event>
 5   0  0.1116310E-05  0.2632207E+04  0.7818609E-02  0.8357343E-01
        2   -1    0    0  501    0  0.00000000000E+00  0.00000000000E+00  0.16304218000E+04  0.16304218000E+04  0.25500000920E-02 0. -1.
       -2   -1    0    0    0  501  0.00000000000E+00  0.00000000000E+00 -0.10623806214E+04  0.10623806214E+04  0.25500000920E-02 0.  1.
    10030    2    1    2    0    0  0.00000000000E+00  0.00000000000E+00  0.56804117860E+03  0.26928024213E+04  0.26322070777E+04 0.  0.
        4    1    3    3  502    0  0.11386605065E+04 -0.64150222305E+03  0.44268467729E+03  0.13798710764E+04  0.12699999809E+01 0.  1.
       -4    1    3    3    0  502 -0.11386605065E+04  0.64150222305E+03  0.12535650131E+03  0.13129313449E+04  0.12699999809E+01 0. -1.
</event>
<event>
 5   0  0.1116310E-05  0.2562379E+04  0.7818609E-02  0.8381094E-01
        2   -1    0    0  501    0  0.00000000000E+00  0.00000000000E+00  0.33455075612E+04  0.33455075612E+04  0.25500000920E-02 0. -1.
       -2   -1    0    0    0  501  0.00000000000E+00  0.00000000000E+00 -0.49064181279E+03  0.49064181280E+03  0.25500000920E-02 0.  1.
    10030    2    1    2    0    0  0.00000000000E+00  0.00000000000E+00  0.28548657484E+04  0.38361493740E+04  0.25623785002E+04 0.  0.
        4    1    3    3  502    0 -0.23640925305E+03  0.45809125102E+03 -0.32852970726E+03  0.61128578475E+03  0.12699999809E+01 0.  1.
       -4    1    3    3    0  502  0.23640925305E+03 -0.45809125102E+03  0.31833954557E+04  0.32248635893E+04  0.12699999809E+01 0. -1.
</event>
<event>
 5   0  0.1086507E-05  0.2603323E+04  0.7818609E-02  0.8367073E-01
        2   -1    0    0  501    0  0.00000000000E+00  0.00000000000E+00  0.14872349002E+04  0.14872349002E+04  0.25500000920E-02 0. -1.
       -2   -1    0    0    0  501  0.00000000000E+00  0.00000000000E+00 -0.11392433623E+04  0.11392433623E+04  0.25500000920E-02 0.  1.
    10030    2    1    2    0    0  0.00000000000E+00  0.00000000000E+00  0.34799153788E+03  0.26264782625E+04  0.26033228676E+04 0.  0.
        2    1    3    3  502    0  0.11866073523E+04  0.45196963336E+03  0.46291493381E+03  0.13515190690E+04  0.25500000920E-02 0.  1.
       -2    1    3    3    0  502 -0.11866073523E+04 -0.45196963336E+03 -0.11492339593E+03  0.12749591935E+04  0.25500000920E-02 0. -1.
</event>
<event>
 5   0  0.4597705E-06  0.2616659E+04  0.7818609E-02  0.8362565E-01
       -1   -1    0    0    0  501  0.00000000000E+00  0.00000000000E+00  0.87085693959E+03  0.87085693960E+03  0.50400001928E-02 0.  1.
        1   -1    0    0  501    0  0.00000000000E+00  0.00000000000E+00 -0.19655648627E+04  0.19655648627E+04  0.50400001928E-02 0. -1.
    10030    2    1    2    0    0  0.00000000000E+00  0.00000000000E+00 -0.10947079231E+04  0.28364218023E+04  0.26166587862E+04 0.  0.
        5    1    3    3  502    0  0.10667612539E+04  0.71798603589E+03 -0.28580046414E+03  0.13172651653E+04  0.46999998093E+01 0.  1.
       -5    1    3    3    0  502 -0.10667612539E+04 -0.71798603589E+03 -0.80890745893E+03  0.15191566369E+04  0.46999998093E+01 0. -1.
</event>
<event>
 5   0  0.1136881E-05  0.2598744E+04  0.7818609E-02  0.8368628E-01
       -2   -1    0    0    0  501  0.00000000000E+00  0.00000000000E+00  0.14404685544E+04  0.14404685544E+04  0.25500000920E-02 0.  1.
        2   -1    0    0  501    0  0.00000000000E+00  0.00000000000E+00 -0.11720961397E+04  0.11720961397E+04  0.25500000920E-02 0. -1.
    10030    2    1    2    0    0  0.00000000000E+00  0.00000000000E+00  0.26837241475E+03  0.26125646941E+04  0.25987440290E+04 0.  0.
        3    1    3    3  502    0  0.38887980486E+03 -0.72967690513E+03 -0.87349761450E+03  0.12027692968E+04  0.10100000352E+00 0. -1.
       -3    1    3    3    0  502 -0.38887980486E+03  0.72967690513E+03  0.11418700293E+04  0.14097953974E+04  0.10100000352E+00 0.  1.
</event>
<event>
 5   0  0.3705250E-06  0.2601221E+04  0.7818609E-02  0.8367786E-01
       -3   -1    0    0    0  501  0.00000000000E+00  0.00000000000E+00  0.18191018773E+04  0.18191018801E+04  0.10100000352E+00 0.  1.
        3   -1    0    0  501    0  0.00000000000E+00  0.00000000000E+00 -0.92990295169E+03  0.92990295717E+03  0.10100000352E+00 0. -1.
    10030    2    1    2    0    0  0.00000000000E+00  0.00000000000E+00  0.88919892561E+03  0.27490048373E+04  0.26012214181E+04 0.  0.
        3    1    3    3  502    0  0.82505683344E+03 -0.47286529394E+03 -0.49309087003E+03  0.10711951180E+04  0.10100000352E+00 0. -1.
       -3    1    3    3    0  502 -0.82505683344E+03  0.47286529394E+03  0.13822897956E+04  0.16778097192E+04  0.10100000352E+00 0.  1.
</event>
<event>
 5   0  0.4361864E-06  0.2610310E+04  0.7818609E-02  0.8364708E-01
        1   -1    0    0  501    0  0.00000000000E+00  0.00000000000E+00  0.17439660382E+04  0.17439660382E+04  0.50400001928E-02 0. -1.
       -1   -1    0    0    0  501  0.00000000000E+00  0.00000000000E+00 -0.97675591475E+03  0.97675591476E+03  0.50400001928E-02 0.  1.
    10030    2    1    2    0    0  0.00000000000E+00  0.00000000000E+00  0.76721012345E+03  0.27207219530E+04  0.26103096697E+04 0.  0.
        3    1    3    3  502    0 -0.82541175289E+03  0.55241503792E+03  0.12661569680E+04  0.16092297579E+04  0.10100000352E+00 0. -1.
       -3    1    3    3    0  502  0.82541175289E+03 -0.55241503792E+03 -0.49894684450E+03  0.11114921951E+04  0.10100000352E+00 0.  1.
</event>
<event>
 5   0  0.3705250E-06  0.2608094E+04  0.7818609E-02  0.8365457E-01
        3   -1    0    0  501    0  0.00000000000E+00  0.00000000000E+00  0.12909173741E+04  0.12909173781E+04  0.10100000352E+00 0. -1.
       -3   -1    0    0    0  501  0.00000000000E+00  0.00000000000E+00 -0.13173100586E+04  0.13173100625E+04  0.10100000352E+00 0.  1.
    10030    2    1    2    0    0  0.00000000000E+00  0.00000000000E+00 -0.26392684474E+02  0.26082274406E+04  0.26080939032E+04 0.  0.
        5    1    3    3  502    0  0.98755718706E+03  0.84596971766E+03  0.84698409173E+02  0.13031231221E+04  0.46999998093E+01 0. -1.
       -5    1    3    3    0  502 -0.98755718706E+03 -0.84596971766E+03 -0.11109109365E+03  0.13051043184E+04  0.46999998093E+01 0.  1.
</event>
<event>
 5   0  0.1116310E-05  0.2605982E+04  0.7818609E-02  0.8366172E-01
       -2   -1    0    0    0  501  0.00000000000E+00  0.00000000000E+00  0.13013519136E+04  0.13013519136E+04  0.25500000920E-02 0.  1.
        2   -1    0    0  501    0  0.00000000000E+00  0.00000000000E+00 -0.13046326015E+04  0.13046326015E+04  0.25500000920E-02 0. -1.
    10030    2    1    2    0    0  0.00000000000E+00  0.00000000000E+00 -0.32806879337E+01  0.26059845151E+04  0.26059824501E+04 0.  0.
        4    1    3    3  502    0 -0.49248307317E+03 -0.93257956535E+02  0.12010858046E+04  0.13014781391E+04  0.12699999809E+01 0.  1.
       -4    1    3    3    0  502  0.49248307317E+03  0.93257956535E+02 -0.12043664925E+04  0.13045063760E+04  0.12699999809E+01 0. -1.
</event>
<event>
 5   0  0.4464297E-06  0.2597228E+04  0.7818609E-02  0.8369143E-01
       -1   -1    0    0    0  501  0.00000000000E+00  0.00000000000E+00  0.13612115875E+04  0.13612115876E+04  0.50400001928E-02 0. -1.
        1   -1    0    0  501    0  0.00000000000E+00  0.00000000000E+00 -0.12388954722E+04  0.12388954722E+04  0.50400001928E-02 0.  1.
    10030    2    1    2    0    0  0.00000000000E+00  0.00000000000E+00  0.12231611539E+03  0.26001070597E+04  0.25972284247E+04 0.  0.
        4    1    3    3  502    0 -0.22500921520E+03 -0.19297426975E+03  0.13268888597E+04  0.13595969530E+04  0.12699999809E+01 0. -1.
       -4    1    3    3    0  502  0.22500921520E+03  0.19297426975E+03 -0.12045727443E+04  0.12405101067E+04  0.12699999809E+01 0.  1.
</event>
<event>
 5   0  0.4361864E-06  0.2645034E+04  0.7818609E-02  0.8353063E-01
       -1   -1    0    0    0  501  0.00000000000E+00  0.00000000000E+00  0.19074121603E+04  0.19074121603E+04  0.50400001928E-02 0. -1.
        1   -1    0    0  501    0  0.00000000000E+00  0.00000000000E+00 -0.91697606270E+03  0.91697606271E+03  0.50400001928E-02 0.  1.
    10030    2    1    2    0    0  0.00000000000E+00  0.00000000000E+00  0.99043609760E+03  0.28243882230E+04  0.26450340585E+04 0.  0.
        3    1    3    3  502    0  0.87334318513E+03  0.29733859311E+03  0.15070541871E+04  0.17670175129E+04  0.10100000352E+00 0. -1.
       -3    1    3    3    0  502 -0.87334318513E+03 -0.29733859311E+03 -0.51661808949E+03  0.10573707101E+04  0.10100000352E+00 0.  1.
</event>
<event>
 5   0  0.1086507E-05  0.2600663E+04  0.7818609E-02  0.8367976E-01
        2   -1    0    0  501    0  0.00000000000E+00  0.00000000000E+00  0.24785543169E+04  0.24785543169E+04  0.25500000920E-02 0.  1.
       -2   -1    0    0    0  501  0.00000000000E+00  0.00000000000E+00 -0.68219706876E+03  0.68219706876E+03  0.25500000920E-02 0. -1.
    10030    2    1    2    0    0  0.00000000000E+00  0.00000000000E+00  0.17963572482E+04  0.31607513857E+04  0.26006633691E+04 0.  0.
        2    1    3    3  502    0 -0.91107932396E+03 -0.18482780291E+03 -0.20682387165E+03  0.95236703280E+03  0.25500000920E-02 0. -1.
       -2    1    3    3    0  502  0.91107932396E+03  0.18482780291E+03  0.20031811198E+04  0.22083843529E+04  0.25500000920E-02 0.  1.
</event>
<event>
 5   0  0.4361864E-06  0.2607027E+04  0.7818609E-02  0.8365818E-01
       -1   -1    0    0    0  501  0.00000000000E+00  0.00000000000E+00  0.13065752997E+04  0.13065752997E+04  0.50400001928E-02 0.  1.
        1   -1    0    0  501    0  0.00000000000E+00  0.00000000000E+00 -0.13004588608E+04  0.13004588608E+04  0.50400001928E-02 0. -1.
    10030    2    1    2    0    0  0.00000000000E+00  0.00000000000E+00  0.61164389552E+01  0.26070341605E+04  0.26070269855E+04 0.  0.
        3    1    3    3  502    0 -0.28654364064E+03  0.12126528115E+04  0.38582985231E+03  0.13044151119E+04  0.10100000352E+00 0.  1.
       -3    1    3    3    0  502  0.28654364064E+03 -0.12126528115E+04 -0.37971341335E+03  0.13026190485E+04  0.10100000352E+00 0. -1.
</event>
<event>
 5   0  0.1116310E-05  0.2604598E+04  0.7818609E-02  0.8366641E-01
       -2   -1    0    0    0  501  0.00000000000E+00  0.00000000000E+00  0.92548823204E+03  0.92548823205E+03  0.25500000920E-02 0. -1.
        2   -1    0    0  501    0  0.00000000000E+00  0.00000000000E+00 -0.18325272499E+04  0.18325272499E+04  0.25500000920E-02 0.  1.
    10030    2    1    2    0    0  0.00000000000E+00  0.00000000000E+00 -0.90703901786E+03  0.27580154820E+04  0.26045977845E+04 0.  0.
        4    1    3    3  502    0  0.47661285552E+02 -0.54810531755E+03 -0.17034237875E+04  0.17900685043E+04  0.12699999809E+01 0.  1.
       -4    1    3    3    0  502 -0.47661285552E+02  0.54810531755E+03  0.79638476967E+03  0.96794697765E+03  0.12699999809E+01 0. -1.
</event>
<event>
 5   0  0.1085061E-05  0.2613363E+04  0.7818609E-02  0.8363676E-01
        2   -1    0    0  501    0  0.00000000000E+00  0.00000000000E+00  0.11192189101E+04  0.11192189101E+04  0.25500000920E-02 0.  1.
       -2   -1    0    0    0  501  0.00000000000E+00  0.00000000000E+00 -0.15255434626E+04  0.15255434626E+04  0.25500000920E-02 0. -1.
    10030    2    1    2    0    0  0.00000000000E+00  0.00000000000E+00 -0.40632455258E+03  0.26447623727E+04  0.26133634202E+04 0.  0.
        1    1    3    3  502    0 -0.39805297671E+03 -0.12061657067E+04 -0.51366319613E+03  0.13700845826E+04  0.50400001928E-02 0. -1.
       -1    1    3    3    0  502  0.39805297671E+03  0.12061657067E+04  0.10733864355E+03  0.12746777902E+04  0.50400001928E-02 0.  1.
</event>
<event>
 5   0  0.1136881E-05  0.2608390E+04  0.7818609E-02  0.8365357E-01
       -2   -1    0    0    0  501  0.00000000000E+00  0.00000000000E+00  0.10123127240E+04  0.10123127240E+04  0.25500000920E-02 0.  1.
        2   -1    0    0  501    0  0.00000000000E+00  0.00000000000E+00 -0.16802357455E+04  0.16802357455E+04  0.25500000920E-02 0. -1.
    10030    2    1    2    0    0  0.00000000000E+00  0.00000000000E+00 -0.66792302153E+03  0.26925484694E+04  0.26083895602E+04 0.  0.
        3    1    3    3  502    0 -0.12370495291E+04 -0.44427857683E+02 -0.75789270681E+03  0.14514360948E+04  0.10100000352E+00 0. -1.
       -3    1    3    3    0  502  0.12370495291E+04  0.44427857683E+02  0.89969685274E+02  0.12411123746E+04  0.10100000352E+00 0.  1.
</event>
<event>
 5   0  0.1136881E-05  0.2601258E+04  0.7818609E-02  0.8367774E-01
        2   -1    0    0  501    0  0.00000000000E+00  0.00000000000E+00  0.13970158835E+04  0.13970158835E+04  0.25500000920E-02 0. -1.
       -2   -1    0    0    0  501  0.00000000000E+00  0.00000000000E+00 -0.12108918697E+04  0.12108918697E+04  0.25500000920E-02 0.  1.
    10030    2    1    2    0    0  0.00000000000E+00  0.00000000000E+00  0.18612401384E+03  0.26079077532E+04  0.26012575229E+04 0.  0.
        3    1    3    3  502    0 -0.10972200249E+04  0.66057343053E+03 -0.13420260187E+03  0.12877342073E+04  0.10100000352E+00 0. -1.
       -3    1    3    3    0  502  0.10972200249E+04 -0.66057343053E+03  0.32032661571E+03  0.13201735458E+04  0.10100000352E+00 0.  1.
</event>
<event>
 5   0  0.1085255E-05  0.2578848E+04  0.7818609E-02  0.8375422E-01
       -2   -1    0    0    0  501  0.00000000000E+00  0.00000000000E+00  0.79870350015E+03  0.79870350015E+03  0.25500000920E-02 0.  1.
        2   -1    0    0  501    0  0.00000000000E+00  0.00000000000E+00 -0.20816417876E+04  0.20816417876E+04  0.25500000920E-02 0. -1.
    10030    2    1    2    0    0  0.00000000000E+00  0.00000000000E+00 -0.12829382875E+04  0.28803452878E+04  0.25788482560E+04 0.  0.
        5    1    3    3  502    0 -0.10108001107E+04 -0.20836686749E+02  0.25236817760E+03  0.10420474166E+04  0.46999998093E+01 0.  1.
       -5    1    3    3    0  502  0.10108001107E+04  0.20836686749E+02 -0.15353064651E+04  0.18382978712E+04  0.46999998093E+01 0. -1.
</event>
<event>
 5   0  0.4361864E-06  0.2585070E+04  0.7818609E-02  0.8373290E-01
       -1   -1    0    0    0  501  0.00000000000E+00  0.00000000000E+00  0.76572496524E+03  0.76572496526E+03  0.50400001928E-02 0.  1.
        1   -1    0    0  501    0  0.00000000000E+00  0.00000000000E+00 -0.21817840731E+04  0.21817840731E+04  0.50400001928E-02 0. -1.
    10030    2    1    2    0    0  0.00000000000E+00  0.00000000000E+00 -0.14160591079E+04  0.29475090384E+04  0.25850698510E+04 0.  0.
        3    1    3    3  502    0  0.18907903941E+03 -0.24479412363E+03 -0.21389622574E+04  0.21612113721E+04  0.10100000352E+00 0. -1.
       -3    1    3    3    0  502 -0.18907903941E+03  0.24479412363E+03  0.72290314956E+03  0.78629766625E+03  0.10100000352E+00 0.  1.
</event>
<event>
 5   0  0.4464297E-06  0.2605101E+04  0.7818609E-02  0.8366471E-01
       -1   -1    0    0    0  501  0.00000000000E+00  0.00000000000E+00  0.11513711039E+04  0.11513711039E+04  0.50400001928E-02 0. -1.
        1   -1    0    0  501    0  0.00000000000E+00  0.00000000000E+00 -0.14735803548E+04  0.14735803548E+04  0.50400001928E-02 0.  1.
    10030    2    1    2    0    0  0.00000000000E+00  0.00000000000E+00 -0.32220925089E+03  0.26249514587E+04  0.26051010267E+04 0.  0.
        4    1    3    3  502    0  0.45896554296E+03  0.17297026809E+03  0.10547665333E+04  0.11632291846E+04  0.12699999809E+01 0. -1.
       -4    1    3    3    0  502 -0.45896554296E+03 -0.17297026809E+03 -0.13769757842E+04  0.14617222741E+04  0.12699999809E+01 0.  1.
</event>
<event>
 5   0  0.1116310E-05  0.2599549E+04  0.7818609E-02  0.8368355E-01
       -2   -1    0    0    0  501  0.00000000000E+00  0.00000000000E+00  0.11707504547E+04  0.11707504547E+04  0.25500000920E-02 0.  1.
        2   -1    0    0  501    0  0.00000000000E+00  0.00000000000E+00 -0.14430172550E+04  0.14430172550E+04  0.25500000920E-02 0. -1.
    10030    2    1    2    0    0  0.00000000000E+00  0.00000000000E+00 -0.27226680030E+03  0.26137677097E+04  0.25995485050E+04 0.  0.
        4    1    3    3  502    0 -0.19109942126E+01 -0.10556256914E+04  0.62634314694E+03  0.12274594098E+04  0.12699999809E+01 0.  1.
       -4    1    3    3    0  502  0.19109942126E+01  0.10556256914E+04 -0.89860994724E+03  0.13863082999E+04  0.12699999809E+01 0. -1.
</event>
<event>
 5   0  0.4361864E-06  0.2611610E+04  0.7818609E-02  0.8364268E-01
        1   -1    0    0  501    0  0.00000000000E+00  0.00000000000E+00  0.27344816562E+04  0.27344816562E+04  0.50400001928E-02 0.  1.
       -1   -1    0    0    0  501  0.00000000000E+00  0.00000000000E+00 -0.62356500309E+03  0.62356500311E+03  0.50400001928E-02 0. -1.
    10030    2    1    2    0    0  0.00000000000E+00  0.00000000000E+00  0.21109166531E+04  0.33580466593E+04  0.26116102791E+04 0.  0.
        3    1    3    3  502    0 -0.12295972093E+04 -0.41537206551E+03  0.87053421298E+03  0.15627773598E+04  0.10100000352E+00 0. -1.
       -3    1    3    3    0  502  0.12295972093E+04  0.41537206551E+03  0.12403824401E+04  0.17952692996E+04  0.10100000352E+00 0.  1.
</event>
<event>
 5   0  0.4415080E-06  0.2647136E+04  0.7818609E-02  0.8352364E-01
        1   -1    0    0  501    0  0.00000000000E+00  0.00000000000E+00  0.23751316576E+04  0.23751316576E+04  0.50400001928E-02 0. -1.
       -1   -1    0    0    0  501  0.00000000000E+00  0.00000000000E+00 -0.73757294304E+03  0.73757294306E+03  0.50400001928E-02 0.  1.
    10030    2    1    2    0    0  0.00000000000E+00  0.00000000000E+00  0.16375587145E+04  0.31127046006E+04  0.26471364504E+04 0.  0.
        2    1    3    3  502    0 -0.11293346928E+04 -0.56851864967E+03  0.12790602143E+04  0.17985008577E+04  0.25500000920E-02 0. -1.
       -2    1    3    3    0  502  0.11293346928E+04  0.56851864967E+03  0.35849850027E+03  0.13142037430E+04  0.25500000920E-02 0.  1.
</event>
<event>
 5   0  0.4361864E-06  0.2590086E+04  0.7818609E-02  0.8371577E-01
       -1   -1    0    0    0  501  0.00000000000E+00  0.00000000000E+00  0.77429764117E+03  0.77429764119E+03  0.50400001928E-02 0. -1.
        1   -1    0    0  501    0  0.00000000000E+00  0.00000000000E+00 -0.21660091348E+04  0.21660091348E+04  0.50400001928E-02 0.  1.
    10030    2    1    2    0    0  0.00000000000E+00  0.00000000000E+00 -0.13917114936E+04  0.29403067760E+04  0.25900855305E+04 0.  0.
        3    1    3    3  502    0 -0.28053350715E+02  0.24657243475E+03  0.74705294014E+03  0.78719315395E+03  0.10100000352E+00 0. -1.
       -3    1    3    3    0  502  0.28053350715E+02 -0.24657243475E+03 -0.21387644337E+04  0.21531136220E+04  0.10100000352E+00 0.  1.
</event>
<event>
 5   0  0.4361864E-06  0.2593178E+04  0.7818609E-02  0.8370522E-01
        1   -1    0    0  501    0  0.00000000000E+00  0.00000000000E+00  0.20385788391E+04  0.20385788392E+04  0.50400001928E-02 0. -1.
       -1   -1    0    0    0  501  0.00000000000E+00  0.00000000000E+00 -0.82466425621E+03  0.82466425622E+03  0.50400001928E-02 0.  1.
    10030    2    1    2    0    0  0.00000000000E+00  0.00000000000E+00  0.12139145829E+04  0.28632430954E+04  0.25931780518E+04 0.  0.
        3    1    3    3  502    0 -0.83591665269E+03 -0.35677382959E+03 -0.41406224665E+03  0.99874509762E+03  0.10100000352E+00 0.  1.
       -3    1    3    3    0  502  0.83591665269E+03  0.35677382959E+03  0.16279768296E+04  0.18644979978E+04  0.10100000352E+00 0. -1.
</event>
<event>
 5   0  0.4597705E-06  0.2601659E+04  0.7818609E-02  0.8367638E-01
       -1   -1    0    0    0  501  0.00000000000E+00  0.00000000000E+00  0.84932786113E+03  0.84932786114E+03  0.50400001928E-02 0.  1.
        1   -1    0    0  501    0  0.00000000000E+00  0.00000000000E+00 -0.19923495981E+04  0.19923495981E+04  0.50400001928E-02 0. -1.
    10030    2    1    2    0    0  0.00000000000E+00  0.00000000000E+00 -0.11430217370E+04  0.28416774593E+04  0.26016594879E+04 0.  0.
        5    1    3    3  502    0  0.59667117440E+03  0.60109219962E+03 -0.16499205634E+04  0.18546127030E+04  0.46999998093E+01 0. -1.
       -5    1    3    3    0  502 -0.59667117440E+03 -0.60109219962E+03  0.50689882639E+03  0.98706475623E+03  0.46999998093E+01 0.  1.
</event>
<event>
 5   0  0.4415080E-06  0.2628434E+04  0.7818609E-02  0.8358606E-01
        1   -1    0    0  501    0  0.00000000000E+00  0.00000000000E+00  0.18679164788E+04  0.18679164788E+04  0.50400001928E-02 0. -1.
       -1   -1    0    0    0  501  0.00000000000E+00  0.00000000000E+00 -0.92464863584E+03  0.92464863585E+03  0.50400001928E-02 0.  1.
    10030    2    1    2    0    0  0.00000000000E+00  0.00000000000E+00  0.94326784298E+03  0.27925651147E+04  0.26284340768E+04 0.  0.
        2    1    3    3  502    0 -0.50017661962E+03 -0.90723469398E+03  0.13307797062E+04  0.16864833433E+04  0.25500000920E-02 0. -1.
       -2    1    3    3    0  502  0.50017661962E+03  0.90723469398E+03 -0.38751186325E+03  0.11060817714E+04  0.25500000920E-02 0.  1.
</event>
<event>
 5   0  0.4415080E-06  0.2599981E+04  0.7818609E-02  0.8368208E-01
        1   -1    0    0  501    0  0.00000000000E+00  0.00000000000E+00  0.25064920202E+04  0.25064920202E+04  0.50400001928E-02 0. -1.
       -1   -1    0    0    0  501  0.00000000000E+00  0.00000000000E+00 -0.67423911320E+03  0.67423911322E+03  0.50400001928E-02 0.  1.
    10030    2    1    2    0    0  0.00000000000E+00  0.00000000000E+00  0.18322529070E+04  0.31807311334E+04  0.25999807361E+04 0.  0.
        2    1    3    3  502    0 -0.55638086841E+03  0.72105538932E+02 -0.51851144778E+03  0.76394567933E+03  0.25500000920E-02 0.  1.
       -2    1    3    3    0  502  0.55638086841E+03 -0.72105538932E+02  0.23507643548E+04  0.24167854541E+04  0.25500000920E-02 0. -1.
</event>
<event>
 5   0  0.1085255E-05  0.2924227E+04  0.7818609E-02  0.8265706E-01
        2   -1    0    0  501    0  0.00000000000E+00  0.00000000000E+00  0.14722844549E+04  0.14722844549E+04  0.25500000920E-02 0.  1.
       -2   -1    0    0    0  501  0.00000000000E+00  0.00000000000E+00 -0.14520128972E+04  0.14520128972E+04  0.25500000920E-02 0. -1.
    10030    2    1    2    0    0  0.00000000000E+00  0.00000000000E+00  0.20271557742E+02  0.29242973521E+04  0.29242270888E+04 0.  0.
        5    1    3    3  502    0  0.61347313755E+01  0.12967561063E+04 -0.66526174349E+03  0.14574667445E+04  0.46999998093E+01 0. -1.
       -5    1    3    3    0  502 -0.61347313755E+01 -0.12967561063E+04  0.68553330124E+03  0.14668306075E+04  0.46999998093E+01 0.  1.
</event>
<event>
 5   0  0.4361864E-06  0.2594955E+04  0.7818609E-02  0.8369917E-01
        1   -1    0    0  501    0  0.00000000000E+00  0.00000000000E+00  0.10518739364E+04  0.10518739364E+04  0.50400001928E-02 0.  1.
       -1   -1    0    0    0  501  0.00000000000E+00  0.00000000000E+00 -0.16004273867E+04  0.16004273867E+04  0.50400001928E-02 0. -1.
    10030    2    1    2    0    0  0.00000000000E+00  0.00000000000E+00 -0.54855345023E+03  0.26523013231E+04  0.25949549940E+04 0.  0.
        3    1    3    3  502    0 -0.10115412573E+04 -0.38561458891E+03  0.45674465703E+03  0.11749595816E+04  0.10100000352E+00 0. -1.
       -3    1    3    3    0  502  0.10115412573E+04  0.38561458891E+03 -0.10052981073E+04  0.14773417415E+04  0.10100000352E+00 0.  1.
</event>
<event>
 5   0  0.1085255E-05  0.2611639E+04  0.7818609E-02  0.8364258E-01
       -2   -1    0    0    0  501  0.00000000000E+00  0.00000000000E+00  0.73028186245E+03  0.73028186246E+03  0.25500000920E-02 0. -1.
        2   -1    0    0  501    0  0.00000000000E+00  0.00000000000E+00 -0.23349401851E+04  0.23349401851E+04  0.25500000920E-02 0.  1.
    10030    2    1    2    0    0  0.00000000000E+00  0.00000000000E+00 -0.16046583227E+04  0.30652220476E+04  0.26116389238E+04 0.  0.
        5    1    3    3  502    0  0.16334833412E+03  0.80421003129E+03  0.38980949378E+03  0.90852076703E+03  0.46999998093E+01 0. -1.
       -5    1    3    3    0  502 -0.16334833412E+03 -0.80421003129E+03 -0.19944678164E+04  0.21567012805E+04  0.46999998093E+01 0.  1.
</event>
<event>
 5   0  0.4361864E-06  0.2614031E+04  0.7818609E-02  0.8363451E-01
        1   -1    0    0  501    0  0.00000000000E+00  0.00000000000E+00  0.17188069424E+04  0.17188069425E+04  0.50400001928E-02 0.  1.
       -1   -1    0    0    0  501  0.00000000000E+00  0.00000000000E+00 -0.99388094411E+03  0.99388094413E+03  0.50400001928E-02 0. -1.
    10030    2    1    2    0    0  0.00000000000E+00  0.00000000000E+00  0.72492599833E+03  0.27126878866E+04  0.26140309614E+04 0.  0.
        3    1    3    3  502    0 -0.10097162054E+04 -0.79605825538E+03  0.60595411864E+03  0.14214133690E+04  0.10100000352E+00 0.  1.
       -3    1    3    3    0  502  0.10097162054E+04  0.79605825538E+03  0.11897187970E+03  0.12912745176E+04  0.10100000352E+00 0. -1.
</event>
<event>
 5   0  0.1116310E-05  0.2534604E+04  0.7818609E-02  0.8390760E-01
       -2   -1    0    0    0  501  0.00000000000E+00  0.00000000000E+00  0.12642510557E+04  0.12642510558E+04  0.25500000920E-02 0.  1.
        2   -1    0    0  501    0  0.00000000000E+00  0.00000000000E+00 -0.12703607287E+04  0.12703607287E+04  0.25500000920E-02 0. -1.
    10030    2    1    2    0    0  0.00000000000E+00  0.00000000000E+00 -0.61096729117E+01  0.25346117844E+04  0.25346044207E+04 0.  0.
        4    1    3    3  502    0  0.44699705756E+03  0.10978143263E+04 -0.45144281935E+03  0.12683867299E+04  0.12699999809E+01 0. -1.
       -4    1    3    3    0  502 -0.44699705756E+03 -0.10978143263E+04  0.44533314644E+03  0.12662250545E+04  0.12699999809E+01 0.  1.
</event>
<event>
 5   0  0.4464297E-06  0.2567509E+04  0.7818609E-02  0.8379322E-01
        1   -1    0    0  501    0  0.00000000000E+00  0.00000000000E+00  0.12545596967E+04  0.12545596967E+04  0.50400001928E-02 0.  1.
       -1   -1    0    0    0  501  0.00000000000E+00  0.00000000000E+00 -0.13136288228E+04  0.13136288228E+04  0.50400001928E-02 0. -1.
    10030    2    1    2    0    0  0.00000000000E+00  0.00000000000E+00 -0.59069126095E+02  0.25681885195E+04  0.25675091256E+04 0.  0.
        4    1    3    3  502    0 -0.70235252581E+02  0.11398045209E+03  0.12475568325E+04  0.12547207647E+04  0.12699999809E+01 0.  1.
       -4    1    3    3    0  502  0.70235252581E+02 -0.11398045209E+03 -0.13066259586E+04  0.13134677548E+04  0.12699999809E+01 0. -1.
</event>
<event>
 5   0  0.1116310E-05  0.2613475E+04  0.7818609E-02  0.8363639E-01
       -2   -1    0    0    0  501  0.00000000000E+00  0.00000000000E+00  0.83078281955E+03  0.83078281955E+03  0.25500000920E-02 0. -1.
        2   -1    0    0  501    0  0.00000000000E+00  0.00000000000E+00 -0.20553654175E+04  0.20553654175E+04  0.25500000920E-02 0.  1.
    10030    2    1    2    0    0  0.00000000000E+00  0.00000000000E+00 -0.12245825980E+04  0.28861482371E+04  0.26134745277E+04 0.  0.
        4    1    3    3  502    0  0.58817378316E+03  0.13086627731E+03  0.66820565437E+03  0.89976374186E+03  0.12699999809E+01 0. -1.
       -4    1    3    3    0  502 -0.58817378316E+03 -0.13086627731E+03 -0.18927882524E+04  0.19863844952E+04  0.12699999809E+01 0.  1.
</event>
<event>
 5   0  0.1086507E-05  0.2604715E+04  0.7818609E-02  0.8366601E-01
       -2   -1    0    0    0  501  0.00000000000E+00  0.00000000000E+00  0.12309164819E+04  0.12309164820E+04  0.25500000920E-02 0. -1.
        2   -1    0    0  501    0  0.00000000000E+00  0.00000000000E+00 -0.13779448378E+04  0.13779448378E+04  0.25500000920E-02 0.  1.
    10030    2    1    2    0    0  0.00000000000E+00  0.00000000000E+00 -0.14702835583E+03  0.26088613197E+04  0.26047149649E+04 0.  0.
        2    1    3    3  502    0  0.27067167566E+03  0.97290811109E+03  0.75018273415E+03  0.12580093335E+04  0.25500000920E-02 0. -1.
       -2    1    3    3    0  502 -0.27067167566E+03 -0.97290811109E+03 -0.89721108998E+03  0.13508519862E+04  0.25500000920E-02 0.  1.
</event>
<event>
 5   0  0.4218590E-06  0.2579174E+04  0.7818609E-02  0.8375310E-01
        1   -1    0    0  501    0  0.00000000000E+00  0.00000000000E+00  0.25857698295E+04  0.25857698295E+04  0.50400001928E-02 0. -1.
       -1   -1    0    0    0  501  0.00000000000E+00  0.00000000000E+00 -0.64314897985E+03  0.64314897986E+03  0.50400001928E-02 0.  1.
    10030    2    1    2    0    0  0.00000000000E+00  0.00000000000E+00  0.19426208496E+04  0.32289188093E+04  0.25791744632E+04 0.  0.
        1    1    3    3  502    0 -0.63547399437E+02  0.11120904024E+04  0.17848191351E+04  0.21038922691E+04  0.50400001928E-02 0. -1.
       -1    1    3    3    0  502  0.63547399437E+02 -0.11120904024E+04  0.15780171448E+03  0.11250265402E+04  0.50400001928E-02 0.  1.
</event>
<event>
 5   0  0.3705250E-06  0.2606838E+04  0.7818609E-02  0.8365882E-01
       -3   -1    0    0    0  501  0.00000000000E+00  0.00000000000E+00  0.13389228204E+04  0.13389228242E+04  0.10100000352E+00 0. -1.
        3   -1    0    0  501    0  0.00000000000E+00  0.00000000000E+00 -0.12688566649E+04  0.12688566689E+04  0.10100000352E+00 0.  1.
    10030    2    1    2    0    0  0.00000000000E+00  0.00000000000E+00  0.70066155472E+02  0.26077794931E+04  0.26068380499E+04 0.  0.
        5    1    3    3  502    0  0.12034874535E+04  0.49685444503E+03  0.95326514477E+02  0.13055097184E+04  0.46999998093E+01 0. -1.
       -5    1    3    3    0  502 -0.12034874535E+04 -0.49685444503E+03 -0.25260359004E+02  0.13022697747E+04  0.46999998093E+01 0.  1.
</event>
<event>
 5   0  0.4218590E-06  0.2600958E+04  0.7818609E-02  0.8367876E-01
        1   -1    0    0  501    0  0.00000000000E+00  0.00000000000E+00  0.15760776685E+04  0.15760776685E+04  0.50400001928E-02 0.  1.
       -1   -1    0    0    0  501  0.00000000000E+00  0.00000000000E+00 -0.10730724619E+04  0.10730724619E+04  0.50400001928E-02 0. -1.
    10030    2    1    2    0    0  0.00000000000E+00  0.00000000000E+00  0.50300520660E+03  0.26491501304E+04  0.26009579343E+04 0.  0.
        1    1    3    3  502    0  0.13884518165E+03  0.27449411095E+03  0.15384894223E+04  0.15689406311E+04  0.50400001928E-02 0.  1.
       -1    1    3    3    0  502 -0.13884518165E+03 -0.27449411095E+03 -0.10354842157E+04  0.10802094993E+04  0.50400001928E-02 0. -1.
</event>
<event>
 5   0  0.1085255E-05  0.2611640E+04  0.7818609E-02  0.8364258E-01
        2   -1    0    0  501    0  0.00000000000E+00  0.00000000000E+00  0.23143326180E+04  0.23143326181E+04  0.25500000920E-02 0. -1.
       -2   -1    0    0    0  501  0.00000000000E+00  0.00000000000E+00 -0.73678491819E+03  0.73678491819E+03  0.25500000920E-02 0.  1.
    10030    2    1    2    0    0  0.00000000000E+00  0.00000000000E+00  0.15775476999E+04  0.30511175362E+04  0.26116396142E+04 0.  0.
        5    1    3    3  502    0 -0.57115319343E+03  0.81159617045E+03  0.17802539384E+04  0.20381929470E+04  0.46999998093E+01 0. -1.
       -5    1    3    3    0  502  0.57115319343E+03 -0.81159617045E+03 -0.20270623853E+03  0.10129245892E+04  0.46999998093E+01 0.  1.
</event>
<event>
 5   0  0.1136881E-05  0.2629759E+04  0.7818609E-02  0.8358163E-01
       -2   -1    0    0    0  501  0.00000000000E+00  0.00000000000E+00  0.23343265662E+04  0.23343265662E+04  0.25500000920E-02 0. -1.
        2   -1    0    0  501    0  0.00000000000E+00  0.00000000000E+00 -0.74064522757E+03  0.74064522757E+03  0.25500000920E-02 0.  1.
    10030    2    1    2    0    0  0.00000000000E+00  0.00000000000E+00  0.15936813387E+04  0.30749717938E+04  0.26297587957E+04 0.  0.
        3    1    3    3  502    0 -0.79811555451E+03  0.94549406141E+03  0.27658797278E+03  0.12678518744E+04  0.10100000352E+00 0.  1.
       -3    1    3    3    0  502  0.79811555451E+03 -0.94549406141E+03  0.13170933659E+04  0.18071199194E+04  0.10100000352E+00 0. -1.
</event>
<event>
 5   0  0.1085255E-05  0.2592047E+04  0.7818609E-02  0.8370908E-01
        2   -1    0    0  501    0  0.00000000000E+00  0.00000000000E+00  0.17482978793E+04  0.17482978793E+04  0.25500000920E-02 0. -1.
       -2   -1    0    0    0  501  0.00000000000E+00  0.00000000000E+00 -0.96074965301E+03  0.96074965302E+03  0.25500000920E-02 0.  1.
    10030    2    1    2    0    0  0.00000000000E+00  0.00000000000E+00  0.78754822626E+03  0.27090475323E+04  0.25920467441E+04 0.  0.
        5    1    3    3  502    0  0.93216741799E+02  0.48133112469E+03 -0.86008074717E+03  0.99001514847E+03  0.46999998093E+01 0.  1.
       -5    1    3    3    0  502 -0.93216741799E+02 -0.48133112469E+03  0.16476289734E+04  0.17190323838E+04  0.46999998093E+01 0. -1.
</event>
<event>
 5   0  0.4415080E-06  0.2601170E+04  0.7818609E-02  0.8367804E-01
       -1   -1    0    0    0  501  0.00000000000E+00  0.00000000000E+00  0.23976954646E+04  0.23976954646E+04  0.50400001928E-02 0.  1.
        1   -1    0    0  501    0  0.00000000000E+00  0.00000000000E+00 -0.70547789410E+03  0.70547789412E+03  0.50400001928E-02 0. -1.
    10030    2    1    2    0    0  0.00000000000E+00  0.00000000000E+00  0.16922175705E+04  0.31031733587E+04  0.26011698500E+04 0.  0.
        2    1    3    3  502    0 -0.93902397909E+03 -0.25190974843E+03  0.18767157094E+04  0.21135956114E+04  0.25500000920E-02 0.  1.
       -2    1    3    3    0  502  0.93902397909E+03  0.25190974843E+03 -0.18449813892E+03  0.98957774729E+03  0.25500000920E-02 0. -1.
</event>
<event>
 5   0  0.1116310E-05  0.2600121E+04  0.7818609E-02  0.8368160E-01
       -2   -1    0    0    0  501  0.00000000000E+00  0.00000000000E+00  0.13389442456E+04  0.13389442456E+04  0.25500000920E-02 0. -1.
        2   -1    0    0  501    0  0.00000000000E+00  0.00000000000E+00 -0.12623060906E+04  0.12623060906E+04  0.25500000920E-02 0.  1.
    10030    2    1    2    0    0  0.00000000000E+00  0.00000000000E+00  0.76638155044E+02  0.26012503362E+04  0.26001211328E+04 0.  0.
        4    1    3    3  502    0 -0.39000490784E+03  0.41082595326E+03  0.12089871135E+04  0.13351154427E+04  0.12699999809E+01 0. -1.
       -4    1    3    3    0  502  0.39000490784E+03 -0.41082595326E+03 -0.11323489584E+04  0.12661348935E+04  0.12699999809E+01 0.  1.
</event>
<event>
 5   0  0.4218590E-06  0.2600335E+04  0.7818609E-02  0.8368087E-01
        1   -1    0    0  501    0  0.00000000000E+00  0.00000000000E+00  0.13499958938E+04  0.13499958938E+04  0.50400001928E-02 0. -1.
       -1   -1    0    0    0  501  0.00000000000E+00  0.00000000000E+00 -0.12521786739E+04  0.12521786739E+04  0.50400001928E-02 0.  1.
    10030    2    1    2    0    0  0.00000000000E+00  0.00000000000E+00  0.97817219902E+02  0.26021745677E+04  0.26003354153E+04 0.  0.
        1    1    3    3  502    0 -0.10623882648E+04  0.74943536684E+03  0.59587319347E+02  0.13014887026E+04  0.50400001928E-02 0. -1.
       -1    1    3    3    0  502  0.10623882648E+04 -0.74943536684E+03  0.38229900555E+02  0.13006858651E+04  0.50400001928E-02 0.  1.
</event>
<event>
 5   0  0.1136881E-05  0.2588973E+04  0.7818609E-02  0.8371956E-01
       -2   -1    0    0    0  501  0.00000000000E+00  0.00000000000E+00  0.53993352924E+03  0.53993352925E+03  0.25500000920E-02 0. -1.
        2   -1    0    0  501    0  0.00000000000E+00  0.00000000000E+00 -0.31035220055E+04  0.31035220055E+04  0.25500000920E-02 0.  1.
    10030    2    1    2    0    0  0.00000000000E+00  0.00000000000E+00 -0.25635884762E+04  0.36434555347E+04  0.25889732247E+04 0.  0.
        3    1    3    3  502    0  0.99470856624E+03  0.13529245675E+03 -0.24319501632E+04  0.26309942583E+04  0.10100000352E+00 0.  1.
       -3    1    3    3    0  502 -0.99470856624E+03 -0.13529245675E+03 -0.13163831299E+03  0.10124612764E+04  0.10100000352E+00 0. -1.
</event>
<event>
 5   0  0.4218590E-06  0.2572621E+04  0.7818609E-02  0.8377561E-01
       -1   -1    0    0    0  501  0.00000000000E+00  0.00000000000E+00  0.13840904960E+04  0.13840904960E+04  0.50400001928E-02 0.  1.
        1   -1    0    0  501    0  0.00000000000E+00  0.00000000000E+00 -0.11954381697E+04  0.11954381697E+04  0.50400001928E-02 0. -1.
    10030    2    1    2    0    0  0.00000000000E+00  0.00000000000E+00  0.18865232638E+03  0.25795286657E+04  0.25726209276E+04 0.  0.
        1    1    3    3  502    0 -0.62260861998E+03  0.55612333869E+03 -0.88691273764E+03  0.12180019974E+04  0.50400001928E-02 0. -1.
       -1    1    3    3    0  502  0.62260861998E+03 -0.55612333869E+03  0.10755650640E+04  0.13615266683E+04  0.50400001928E-02 0.  1.
</event>
<event>
 5   0  0.1085255E-05  0.2598520E+04  0.7818609E-02  0.8368704E-01
        2   -1    0    0  501    0  0.00000000000E+00  0.00000000000E+00  0.13820778368E+04  0.13820778368E+04  0.25500000920E-02 0. -1.
       -2   -1    0    0    0  501  0.00000000000E+00  0.00000000000E+00 -0.12214045009E+04  0.12214045009E+04  0.25500000920E-02 0.  1.
    10030    2    1    2    0    0  0.00000000000E+00  0.00000000000E+00  0.16067333584E+03  0.26034823377E+04  0.25985196481E+04 0.  0.
        5    1    3    3  502    0 -0.10651363850E+04 -0.23908152647E+03  0.78622355493E+03  0.13453048217E+04  0.46999998093E+01 0.  1.
       -5    1    3    3    0  502  0.10651363850E+04  0.23908152647E+03 -0.62555021909E+03  0.12581775160E+04  0.46999998093E+01 0. -1.
</event>
<event>
 5   0  0.4464297E-06  0.2571187E+04  0.7818609E-02  0.8378055E-01
       -1   -1    0    0    0  501  0.00000000000E+00  0.00000000000E+00  0.26410409810E+04  0.26410409810E+04  0.50400001928E-02 0. -1.
        1   -1    0    0  501    0  0.00000000000E+00  0.00000000000E+00 -0.62579513600E+03  0.62579513602E+03  0.50400001928E-02 0.  1.
    10030    2    1    2    0    0  0.00000000000E+00  0.00000000000E+00  0.20152458450E+04  0.32668361170E+04  0.25711869632E+04 0.  0.
        4    1    3    3  502    0 -0.47445315289E+03  0.74001749445E+03 -0.18427564019E+03  0.89815968004E+03  0.12699999809E+01 0.  1.
       -4    1    3    3    0  502  0.47445315289E+03 -0.74001749445E+03  0.21995214852E+04  0.23686764370E+04  0.12699999809E+01 0. -1.
</event>
<event>
 5   0  0.1086507E-05  0.2585247E+04  0.7818609E-02  0.8373230E-01
        2   -1    0    0  501    0  0.00000000000E+00  0.00000000000E+00  0.11780048879E+04  0.11780048879E+04  0.25500000920E-02 0. -1.
       -2   -1    0    0    0  501  0.00000000000E+00  0.00000000000E+00 -0.14183948055E+04  0.14183948055E+04  0.25500000920E-02 0.  1.
    10030    2    1    2    0    0  0.00000000000E+00  0.00000000000E+00 -0.24038991763E+03  0.25963996934E+04  0.25852473876E+04 0.  0.
        2    1    3    3  502    0 -0.21375797345E+03  0.94212210317E+03  0.74234018577E+03  0.12183412822E+04  0.25500000920E-02 0. -1.
       -2    1    3    3    0  502  0.21375797345E+03 -0.94212210317E+03 -0.98273010340E+03  0.13780584112E+04  0.25500000920E-02 0.  1.
</event>
<event>
 5   0  0.1136881E-05  0.2509632E+04  0.7818609E-02  0.8399562E-01
       -2   -1    0    0    0  501  0.00000000000E+00  0.00000000000E+00  0.18517235376E+04  0.18517235376E+04  0.25500000920E-02 0. -1.
        2   -1    0    0  501    0  0.00000000000E+00  0.00000000000E+00 -0.85032283776E+03  0.85032283777E+03  0.25500000920E-02 0.  1.
    10030    2    1    2    0    0  0.00000000000E+00  0.00000000000E+00  0.10014006999E+04  0.27020463754E+04  0.25096316967E+04 0.  0.
        3    1    3    3  502    0  0.43486152863E+03 -0.81073468351E+03 -0.41805199682E+03  0.10105259811E+04  0.10100000352E+00 0.  1.
       -3    1    3    3    0  502 -0.43486152863E+03  0.81073468351E+03  0.14194526967E+04  0.16915203943E+04  0.10100000352E+00 0. -1.
</event>
<event>
 5   0  0.4597705E-06  0.2634231E+04  0.7818609E-02  0.8356666E-01
       -1   -1    0    0    0  501  0.00000000000E+00  0.00000000000E+00  0.93370134062E+03  0.93370134063E+03  0.50400001928E-02 0. -1.
        1   -1    0    0  501    0  0.00000000000E+00  0.00000000000E+00 -0.18579741268E+04  0.18579741268E+04  0.50400001928E-02 0.  1.
    10030    2    1    2    0    0  0.00000000000E+00  0.00000000000E+00 -0.92427278622E+03  0.27916754675E+04  0.26342307667E+04 0.  0.
        5    1    3    3  502    0  0.10509584052E+04 -0.73769712147E+03 -0.77303041055E+03  0.14987690677E+04  0.46999998093E+01 0.  1.
       -5    1    3    3    0  502 -0.10509584052E+04  0.73769712147E+03 -0.15124237567E+03  0.12929063998E+04  0.46999998093E+01 0. -1.
</event>
<event>
 5   0  0.4415080E-06  0.2428830E+04  0.7818609E-02  0.8428788E-01
        1   -1    0    0  501    0  0.00000000000E+00  0.00000000000E+00  0.15620538000E+04  0.15620538000E+04  0.50400001928E-02 0. -1.
       -1   -1    0    0    0  501  0.00000000000E+00  0.00000000000E+00 -0.94414403069E+03  0.94414403070E+03  0.50400001928E-02 0.  1.
    10030    2    1    2    0    0  0.00000000000E+00  0.00000000000E+00  0.61790976931E+03  0.25061978307E+04  0.24288299824E+04 0.  0.
        2    1    3    3  502    0  0.46822344030E+03  0.91848625663E+03 -0.35332623389E+03  0.10898117366E+04  0.25500000920E-02 0.  1.
       -2    1    3    3    0  502 -0.46822344030E+03 -0.91848625663E+03  0.97123600320E+03  0.14163860941E+04  0.25500000920E-02 0. -1.
</event>
<event>
 5   0  0.1116310E-05  0.2596587E+04  0.7818609E-02  0.8369361E-01
       -2   -1    0    0    0  501  0.00000000000E+00  0.00000000000E+00  0.86324778541E+03  0.86324778541E+03  0.25500000920E-02 0.  1.
        2   -1    0    0  501    0  0.00000000000E+00  0.00000000000E+00 -0.19525865479E+04  0.19525865479E+04  0.25500000920E-02 0. -1.
    10030    2    1    2    0    0  0.00000000000E+00  0.00000000000E+00 -0.10893387625E+04  0.28158343333E+04  0.25965870009E+04 0.  0.
        4    1    3    3  502    0 -0.11265535061E+04  0.64512261926E+03 -0.52723709960E+03  0.14011732826E+04  0.12699999809E+01 0. -1.
       -4    1    3    3    0  502  0.11265535061E+04 -0.64512261926E+03 -0.56210166287E+03  0.14146610506E+04  0.12699999809E+01 0.  1.
</event>
<event>
 5   0  0.1086507E-05  0.2596781E+04  0.7818609E-02  0.8369295E-01
       -2   -1    0    0    0  501  0.00000000000E+00  0.00000000000E+00  0.10780259587E+04  0.10780259587E+04  0.25500000920E-02 0.  1.
        2   -1    0    0  501    0  0.00000000000E+00  0.00000000000E+00 -0.15638013010E+04  0.15638013010E+04  0.25500000920E-02 0. -1.
    10030    2    1    2    0    0  0.00000000000E+00  0.00000000000E+00 -0.48577534233E+03  0.26418272597E+04  0.25967813899E+04 0.  0.
        2    1    3    3  502    0 -0.86641174172E+03  0.12997827146E+03 -0.12177664491E+04  0.15001729173E+04  0.25500000920E-02 0. -1.
       -2    1    3    3    0  502  0.86641174172E+03 -0.12997827146E+03  0.73199110676E+03  0.11416543424E+04  0.25500000920E-02 0.  1.
</event>
<event>
 5   0  0.4415080E-06  0.2608094E+04  0.7818609E-02  0.8365457E-01
        1   -1    0    0  501    0  0.00000000000E+00  0.00000000000E+00  0.54185182451E+03  0.54185182453E+03  0.50400001928E-02 0. -1.
       -1   -1    0    0    0  501  0.00000000000E+00  0.00000000000E+00 -0.31383838853E+04  0.31383838853E+04  0.50400001928E-02 0.  1.
    10030    2    1    2    0    0  0.00000000000E+00  0.00000000000E+00 -0.25965320607E+04  0.36802357098E+04  0.26080943497E+04 0.  0.
        2    1    3    3  502    0  0.69810333058E+03  0.73391984007E+03 -0.13932804821E+03  0.10224475032E+04  0.25500000920E-02 0. -1.
       -2    1    3    3    0  502 -0.69810333058E+03 -0.73391984007E+03 -0.24572040125E+04  0.26577882066E+04  0.25500000920E-02 0.  1.
</event>
<event>
 5   0  0.1086507E-05  0.2601523E+04  0.7818609E-02  0.8367684E-01
        2   -1    0    0  501    0  0.00000000000E+00  0.00000000000E+00  0.19467189480E+04  0.19467189480E+04  0.25500000920E-02 0.  1.
       -2   -1    0    0    0  501  0.00000000000E+00  0.00000000000E+00 -0.86914445647E+03  0.86914445648E+03  0.25500000920E-02 0. -1.
    10030    2    1    2    0    0  0.00000000000E+00  0.00000000000E+00  0.10775744915E+04  0.28158634045E+04  0.26015226172E+04 0.  0.
        2    1    3    3  502    0  0.40257806541E+03 -0.11664385523E+04  0.98419059653E+03  0.15783786382E+04  0.25500000920E-02 0.  1.
       -2    1    3    3    0  502 -0.40257806541E+03  0.11664385523E+04  0.93383894997E+02  0.12374847663E+04  0.25500000920E-02 0. -1.
</event>
<event>
 5   0  0.1085255E-05  0.2574680E+04  0.7818609E-02  0.8376853E-01
       -2   -1    0    0    0  501  0.00000000000E+00  0.00000000000E+00  0.11808548649E+04  0.11808548649E+04  0.25500000920E-02 0.  1.
        2   -1    0    0  501    0  0.00000000000E+00  0.00000000000E+00 -0.14034277091E+04  0.14034277091E+04  0.25500000920E-02 0. -1.
    10030    2    1    2    0    0  0.00000000000E+00  0.00000000000E+00 -0.22257284417E+03  0.25842825740E+04  0.25746801260E+04 0.  0.
        5    1    3    3  502    0  0.39010342212E+03  0.36947852252E+03 -0.12854901352E+04  0.13932702667E+04  0.46999998093E+01 0. -1.
       -5    1    3    3    0  502 -0.39010342212E+03 -0.36947852252E+03  0.10629172910E+04  0.11910123073E+04  0.46999998093E+01 0.  1.
</event>
<event>
 5   0  0.1116310E-05  0.2592244E+04  0.7818609E-02  0.8370840E-01
       -2   -1    0    0    0  501  0.00000000000E+00  0.00000000000E+00  0.86563995130E+03  0.86563995130E+03  0.25500000920E-02 0. -1.
        2   -1    0    0  501    0  0.00000000000E+00  0.00000000000E+00 -0.19406825521E+04  0.19406825521E+04  0.25500000920E-02 0.  1.
    10030    2    1    2    0    0  0.00000000000E+00  0.00000000000E+00 -0.10750426008E+04  0.28063225034E+04  0.25922440856E+04 0.  0.
        4    1    3    3  502    0  0.44568785978E+03 -0.95357131346E+03 -0.13562834055E+04  0.17168116400E+04  0.12699999809E+01 0.  1.
       -4    1    3    3    0  502 -0.44568785978E+03  0.95357131346E+03  0.28124080477E+03  0.10895108634E+04  0.12699999809E+01 0. -1.
</event>
<event>
 5   0  0.1086507E-05  0.2599340E+04  0.7818609E-02  0.8368425E-01
        2   -1    0    0  501    0  0.00000000000E+00  0.00000000000E+00  0.16430829626E+04  0.16430829626E+04  0.25500000920E-02 0.  1.
       -2   -1    0    0    0  501  0.00000000000E+00  0.00000000000E+00 -0.10280323075E+04  0.10280323075E+04  0.25500000920E-02 0. -1.
    10030    2    1    2    0    0  0.00000000000E+00  0.00000000000E+00  0.61505065512E+03  0.26711152701E+04  0.25993402005E+04 0.  0.
        2    1    3    3  502    0 -0.43209620723E+03  0.55451995272E+03 -0.81579359766E+03  0.10769023652E+04  0.25500000920E-02 0. -1.
       -2    1    3    3    0  502  0.43209620723E+03 -0.55451995272E+03  0.14308442528E+04  0.15942129048E+04  0.25500000920E-02 0.  1.
</event>
<event>
 5   0  0.1085255E-05  0.2579679E+04  0.7818609E-02  0.8375137E-01
        2   -1    0    0  501    0  0.00000000000E+00  0.00000000000E+00  0.11475777963E+04  0.11475777963E+04  0.25500000920E-02 0.  1.
       -2   -1    0    0    0  501  0.00000000000E+00  0.00000000000E+00 -0.14497374707E+04  0.14497374707E+04  0.25500000920E-02 0. -1.
    10030    2    1    2    0    0  0.00000000000E+00  0.00000000000E+00 -0.30215967439E+03  0.25973152670E+04  0.25796794621E+04 0.  0.
        5    1    3    3  502    0 -0.96009532099E+03  0.70606412574E+03 -0.64776243074E+03  0.13564393948E+04  0.46999998093E+01 0. -1.
       -5    1    3    3    0  502  0.96009532099E+03 -0.70606412574E+03  0.34560275634E+03  0.12408758722E+04  0.46999998093E+01 0.  1.
</event>
<event>
 5   0  0.4218590E-06  0.2708167E+04  0.7818609E-02  0.8332360E-01
        1   -1    0    0  501    0  0.00000000000E+00  0.00000000000E+00  0.95938941834E+03  0.95938941836E+03  0.50400001928E-02 0.  1.
       -1   -1    0    0    0  501  0.00000000000E+00  0.00000000000E+00 -0.19111555274E+04  0.19111555274E+04  0.50400001928E-02 0. -1.
    10030    2    1    2    0    0  0.00000000000E+00  0.00000000000E+00 -0.95176610905E+03  0.28705449458E+04  0.27081671956E+04 0.  0.
        1    1    3    3  502    0 -0.55866811313E+03 -0.11452000399E+04 -0.96155832199E+03  0.15963043565E+04  0.50400001928E-02 0. -1.
       -1    1    3    3    0  502  0.55866811313E+03  0.11452000399E+04  0.97922129314E+01  0.12742405893E+04  0.50400001928E-02 0.  1.
</event>
<event>
 5   0  0.1136881E-05  0.2624210E+04  0.7818609E-02  0.8360024E-01
       -2   -1    0    0    0  501  0.00000000000E+00  0.00000000000E+00  0.14280146854E+04  0.14280146854E+04  0.25500000920E-02 0.  1.
        2   -1    0    0  501    0  0.00000000000E+00  0.00000000000E+00 -0.12056035704E+04  0.12056035704E+04  0.25500000920E-02 0. -1.
    10030    2    1    2    0    0  0.00000000000E+00  0.00000000000E+00  0.22241111504E+03  0.26336182558E+04  0.26242100551E+04 0.  0.
        3    1    3    3  502    0 -0.59532009915E+03 -0.19201241546E+03  0.12687464380E+04  0.14145643577E+04  0.10100000352E+00 0.  1.
       -3    1    3    3    0  502  0.59532009915E+03  0.19201241546E+03 -0.10463353229E+04  0.12190538980E+04  0.10100000352E+00 0. -1.
</event>
<event>
 5   0  0.4218590E-06  0.2604265E+04  0.7818609E-02  0.8366754E-01
        1   -1    0    0  501    0  0.00000000000E+00  0.00000000000E+00  0.11082799617E+04  0.11082799617E+04  0.50400001928E-02 0. -1.
       -1   -1    0    0    0  501  0.00000000000E+00  0.00000000000E+00 -0.15298928203E+04  0.15298928203E+04  0.50400001928E-02 0.  1.
    10030    2    1    2    0    0  0.00000000000E+00  0.00000000000E+00 -0.42161285857E+03  0.26381727820E+04  0.26042653907E+04 0.  0.
        1    1    3    3  502    0  0.66640084118E+03  0.56214043742E+03  0.76897691110E+03  0.11625048139E+04  0.50400001928E-02 0. -1.
       -1    1    3    3    0  502 -0.66640084118E+03 -0.56214043742E+03 -0.11905897697E+04  0.14756679681E+04  0.50400001928E-02 0.  1.
</event>
<event>
 5   0  0.1086507E-05  0.2611084E+04  0.7818609E-02  0.8364446E-01
       -2   -1    0    0    0  501  0.00000000000E+00  0.00000000000E+00  0.75585331629E+03  0.75585331630E+03  0.25500000920E-02 0.  1.
        2   -1    0    0  501    0  0.00000000000E+00  0.00000000000E+00 -0.22549879835E+04  0.22549879835E+04  0.25500000920E-02 0. -1.
    10030    2    1    2    0    0  0.00000000000E+00  0.00000000000E+00 -0.14991346672E+04  0.30108412998E+04  0.26110841775E+04 0.  0.
        2    1    3    3  502    0 -0.61403924402E+03  0.11368312895E+04 -0.96532517669E+03  0.16128491159E+04  0.25500000920E-02 0. -1.
       -2    1    3    3    0  502  0.61403924402E+03 -0.11368312895E+04 -0.53380949047E+03  0.13979921838E+04  0.25500000920E-02 0.  1.
</event>
<event>
 5   0  0.1085255E-05  0.2593516E+04  0.7818609E-02  0.8370407E-01
        2   -1    0    0  501    0  0.00000000000E+00  0.00000000000E+00  0.14550919489E+04  0.14550919489E+04  0.25500000920E-02 0.  1.
       -2   -1    0    0    0  501  0.00000000000E+00  0.00000000000E+00 -0.11556530835E+04  0.11556530835E+04  0.25500000920E-02 0. -1.
    10030    2    1    2    0    0  0.00000000000E+00  0.00000000000E+00  0.29943886540E+03  0.26107450325E+04  0.25935161443E+04 0.  0.
        5    1    3    3  502    0 -0.19804117736E+03 -0.71008947667E+03 -0.92419087890E+03  0.11822005936E+04  0.46999998093E+01 0. -1.
       -5    1    3    3    0  502  0.19804117736E+03  0.71008947667E+03  0.12236297443E+04  0.14285444389E+04  0.46999998093E+01 0.  1.
</event>
<event>
 5   0  0.4361864E-06  0.2586137E+04  0.7818609E-02  0.8372925E-01
        1   -1    0    0  501    0  0.00000000000E+00  0.00000000000E+00  0.19906552882E+04  0.19906552883E+04  0.50400001928E-02 0.  1.
       -1   -1    0    0    0  501  0.00000000000E+00  0.00000000000E+00 -0.83993753153E+03  0.83993753155E+03  0.50400001928E-02 0. -1.
    10030    2    1    2    0    0  0.00000000000E+00  0.00000000000E+00  0.11507177567E+04  0.28305928198E+04  0.25861369561E+04 0.  0.
        3    1    3    3  502    0 -0.21497738323E+03 -0.12160099702E+04  0.15552515740E+03  0.12446218734E+04  0.10100000352E+00 0.  1.
       -3    1    3    3    0  502  0.21497738323E+03  0.12160099702E+04  0.99519259931E+03  0.15859709464E+04  0.10100000352E+00 0. -1.
</event>
<event>
 5   0  0.4218590E-06  0.2603410E+04  0.7818609E-02  0.8367044E-01
        1   -1    0    0  501    0  0.00000000000E+00  0.00000000000E+00  0.12300329058E+04  0.12300329058E+04  0.50400001928E-02 0. -1.
       -1   -1    0    0    0  501  0.00000000000E+00  0.00000000000E+00 -0.13775530113E+04  0.13775530113E+04  0.50400001928E-02 0.  1.
    10030    2    1    2    0    0  0.00000000000E+00  0.00000000000E+00 -0.14752010551E+03  0.26075859170E+04  0.26034097129E+04 0.  0.
        1    1    3    3  502    0  0.12572588901E+04  0.60391694868E+01 -0.41149399200E+03  0.13228997293E+04  0.50400001928E-02 0.  1.
       -1    1    3    3    0  502 -0.12572588901E+04 -0.60391694868E+01  0.26397388649E+03  0.12846861878E+04  0.50400001928E-02 0. -1.
</event>
<event>
 5   0  0.4597705E-06  0.2588290E+04  0.7818609E-02  0.8372190E-01
       -1   -1    0    0    0  501  0.00000000000E+00  0.00000000000E+00  0.83152082383E+03  0.83152082384E+03  0.50400001928E-02 0. -1.
        1   -1    0    0  501    0  0.00000000000E+00  0.00000000000E+00 -0.20141547560E+04  0.20141547560E+04  0.50400001928E-02 0.  1.
    10030    2    1    2    0    0  0.00000000000E+00  0.00000000000E+00 -0.11826339322E+04  0.28456755799E+04  0.25882902635E+04 0.  0.
        5    1    3    3  502    0  0.70380366980E+03 -0.70486716366E+03 -0.14996799618E+04  0.18003442454E+04  0.46999998093E+01 0.  1.
       -5    1    3    3    0  502 -0.70380366980E+03  0.70486716366E+03  0.31704602959E+03  0.10453313345E+04  0.46999998093E+01 0. -1.
</event>
<event>
 5   0  0.3705250E-06  0.2604283E+04  0.7818609E-02  0.8366748E-01
       -3   -1    0    0    0  501  0.00000000000E+00  0.00000000000E+00  0.14693129136E+04  0.14693129170E+04  0.10100000352E+00 0.  1.
        3   -1    0    0  501    0  0.00000000000E+00  0.00000000000E+00 -0.11539897553E+04  0.11539897598E+04  0.10100000352E+00 0. -1.
    10030    2    1    2    0    0  0.00000000000E+00  0.00000000000E+00  0.31532315821E+03  0.26233026768E+04  0.26042826728E+04 0.  0.
        3    1    3    3  502    0  0.12861060371E+04 -0.59263806218E+02  0.35399818834E+03  0.13352511617E+04  0.10100000352E+00 0. -1.
       -3    1    3    3    0  502 -0.12861060371E+04  0.59263806218E+02 -0.38675030126E+02  0.12880515151E+04  0.10100000352E+00 0.  1.
</event>
<event>
 5   0  0.4361864E-06  0.2598395E+04  0.7818609E-02  0.8368746E-01
       -1   -1    0    0    0  501  0.00000000000E+00  0.00000000000E+00  0.13333668769E+04  0.13333668769E+04  0.50400001928E-02 0.  1.
        1   -1    0    0  501    0  0.00000000000E+00  0.00000000000E+00 -0.12659040227E+04  0.12659040227E+04  0.50400001928E-02 0. -1.
    10030    2    1    2    0    0  0.00000000000E+00  0.00000000000E+00  0.67462854262E+02  0.25992708996E+04  0.25983952688E+04 0.  0.
        3    1    3    3  502    0  0.24844395070E+03 -0.90601164415E+03  0.93143731179E+03  0.13229349840E+04  0.10100000352E+00 0.  1.
       -3    1    3    3    0  502 -0.24844395070E+03  0.90601164415E+03 -0.86397445753E+03  0.12763359156E+04  0.10100000352E+00 0. -1.
</event>
<event>
 5   0  0.1085255E-05  0.2607993E+04  0.7818609E-02  0.8365491E-01
       -2   -1    0    0    0  501  0.00000000000E+00  0.00000000000E+00  0.67952925072E+03  0.67952925072E+03  0.25500000920E-02 0. -1.
        2   -1    0    0  501    0  0.00000000000E+00  0.00000000000E+00 -0.25023299479E+04  0.25023299479E+04  0.25500000920E-02 0.  1.
    10030    2    1    2    0    0  0.00000000000E+00  0.00000000000E+00 -0.18228006972E+04  0.31818591987E+04  0.26079926339E+04 0.  0.
        5    1    3    3  502    0  0.97853346313E+03 -0.85490738182E+03 -0.10449931341E+04  0.16674612770E+04  0.46999998093E+01 0. -1.
       -5    1    3    3    0  502 -0.97853346313E+03  0.85490738182E+03 -0.77780756318E+03  0.15143979217E+04  0.46999998093E+01 0.  1.
</event>
<event>
 5   0  0.3705250E-06  0.2616250E+04  0.7818609E-02  0.8362702E-01
        3   -1    0    0  501    0  0.00000000000E+00  0.00000000000E+00  0.96123805690E+03  0.96123806220E+03  0.10100000352E+00 0.  1.
       -3   -1    0    0    0  501  0.00000000000E+00  0.00000000000E+00 -0.17801946780E+04  0.17801946808E+04  0.10100000352E+00 0. -1.
    10030    2    1    2    0    0  0.00000000000E+00  0.00000000000E+00 -0.81895662109E+03  0.27414327430E+04  0.26162498997E+04 0.  0.
        3    1    3    3  502    0 -0.10283792429E+04 -0.78114242023E+02 -0.12526707406E+04  0.16226058352E+04  0.10100000352E+00 0. -1.
       -3    1    3    3    0  502  0.10283792429E+04  0.78114242023E+02  0.43371411952E+03  0.11188269078E+04  0.10100000352E+00 0.  1.
</event>
<event>
 5   0  0.1085255E-05  0.2582230E+04  0.7818609E-02  0.8374262E-01
       -2   -1    0    0    0  501  0.00000000000E+00  0.00000000000E+00  0.12782702993E+04  0.12782702993E+04  0.25500000920E-02 0.  1.
        2   -1    0    0  501    0  0.00000000000E+00  0.00000000000E+00 -0.13040890943E+04  0.13040890943E+04  0.25500000920E-02 0. -1.
    10030    2    1    2    0    0  0.00000000000E+00  0.00000000000E+00 -0.25818795066E+02  0.25823593936E+04  0.25822303204E+04 0.  0.
        5    1    3    3  502    0 -0.10002579178E+04  0.81515227423E+03 -0.57264006896E+02  0.12916231605E+04  0.46999998093E+01 0. -1.
       -5    1    3    3    0  502  0.10002579178E+04 -0.81515227423E+03  0.31445211830E+02  0.12907362331E+04  0.46999998093E+01 0.  1.
</event>
<event>
 5   0  0.4218590E-06  0.2609569E+04  0.7818609E-02  0.8364958E-01
        1   -1    0    0  501    0  0.00000000000E+00  0.00000000000E+00  0.11823080599E+04  0.11823080599E+04  0.50400001928E-02 0.  1.
       -1   -1    0    0    0  501  0.00000000000E+00  0.00000000000E+00 -0.14399479238E+04  0.14399479238E+04  0.50400001928E-02 0. -1.
    10030    2    1    2    0    0  0.00000000000E+00  0.00000000000E+00 -0.25763986389E+03  0.26222559837E+04  0.26095685744E+04 0.  0.
        1    1    3    3  502    0 -0.11648078176E+04 -0.19915348394E+03  0.42706278841E+03  0.12565118333E+04  0.50400001928E-02 0.  1.
       -1    1    3    3    0  502  0.11648078176E+04  0.19915348394E+03 -0.68470265230E+03  0.13657441503E+04  0.50400001928E-02 0. -1.
</event>
<event>
 5   0  0.4597705E-06  0.2597499E+04  0.7818609E-02  0.8369051E-01
        1   -1    0    0  501    0  0.00000000000E+00  0.00000000000E+00  0.12384575046E+04  0.12384575046E+04  0.50400001928E-02 0.  1.
       -1   -1    0    0    0  501  0.00000000000E+00  0.00000000000E+00 -0.13619770106E+04  0.13619770106E+04  0.50400001928E-02 0. -1.
    10030    2    1    2    0    0  0.00000000000E+00  0.00000000000E+00 -0.12351950606E+03  0.26004345152E+04  0.25974992973E+04 0.  0.
        5    1    3    3  502    0  0.44816148113E+03  0.72546157042E+03  0.91893147111E+03  0.12536348519E+04  0.46999998093E+01 0.  1.
       -5    1    3    3    0  502 -0.44816148113E+03 -0.72546157042E+03 -0.10424509772E+04  0.13467996633E+04  0.46999998093E+01 0. -1.
</event>
<event>
 5   0  0.1136881E-05  0.2594412E+04  0.7818609E-02  0.8370102E-01
       -2   -1    0    0    0  501  0.00000000000E+00  0.00000000000E+00  0.12989767973E+04  0.12989767973E+04  0.25500000920E-02 0.  1.
        2   -1    0    0  501    0  0.00000000000E+00  0.00000000000E+00 -0.12954381132E+04  0.12954381132E+04  0.25500000920E-02 0. -1.
    10030    2    1    2    0    0  0.00000000000E+00  0.00000000000E+00  0.35386841452E+01  0.25944149105E+04  0.25944124971E+04 0.  0.
        3    1    3    3  502    0  0.20894277203E+03 -0.11150337036E+04 -0.62734712995E+03  0.12963493641E+04  0.10100000352E+00 0. -1.
       -3    1    3    3    0  502 -0.20894277203E+03  0.11150337036E+04  0.63088581409E+03  0.12980655464E+04  0.10100000352E+00 0.  1.
</event>
<event>
 5   0  0.1085255E-05  0.2661082E+04  0.7818609E-02  0.8347744E-01
       -2   -1    0    0    0  501  0.00000000000E+00  0.00000000000E+00  0.10329908972E+04  0.10329908972E+04  0.25500000920E-02 0.  1.
        2   -1    0    0  501    0  0.00000000000E+00  0.00000000000E+00 -0.17137992171E+04  0.17137992171E+04  0.25500000920E-02 0. -1.
    10030    2    1    2    0    0  0.00000000000E+00  0.00000000000E+00 -0.68080831990E+03  0.27467901143E+04  0.26610817281E+04 0.  0.
        5    1    3    3  502    0  0.87832306425E+03  0.23557467011E+03  0.66215107618E+03  0.11249057596E+04  0.46999998093E+01 0. -1.
       -5    1    3    3    0  502 -0.87832306425E+03 -0.23557467011E+03 -0.13429593961E+04  0.16218843547E+04  0.46999998093E+01 0.  1.
</event>
<event>
 5   0  0.3705250E-06  0.2624885E+04  0.7818609E-02  0.8359797E-01
       -3   -1    0    0    0  501  0.00000000000E+00  0.00000000000E+00  0.10821085089E+04  0.10821085136E+04  0.10100000352E+00 0. -1.
        3   -1    0    0  501    0  0.00000000000E+00  0.00000000000E+00 -0.15918049936E+04  0.15918049968E+04  0.10100000352E+00 0.  1.
    10030    2    1    2    0    0  0.00000000000E+00  0.00000000000E+00 -0.50969648470E+03  0.26739135103E+04  0.26248853221E+04 0.  0.
        5    1    3    3  502    0  0.12949156981E+03 -0.49750658113E+03  0.97526751778E+03  0.11024743472E+04  0.46999998093E+01 0. -1.
       -5    1    3    3    0  502 -0.12949156981E+03  0.49750658113E+03 -0.14849640025E+04  0.15714391632E+04  0.46999998093E+01 0.  1.
</event>
<event>
 5   0  0.1116310E-05  0.2570661E+04  0.7818609E-02  0.8378236E-01
        2   -1    0    0  501    0  0.00000000000E+00  0.00000000000E+00  0.20829981626E+04  0.20829981626E+04  0.25500000920E-02 0.  1.
       -2   -1    0    0    0  501  0.00000000000E+00  0.00000000000E+00 -0.79312335893E+03  0.79312335893E+03  0.25500000920E-02 0. -1.
    10030    2    1    2    0    0  0.00000000000E+00  0.00000000000E+00  0.12898748037E+04  0.28761215216E+04  0.25706610040E+04 0.  0.
        4    1    3    3  502    0  0.96831519933E+03 -0.68292206109E+03  0.87703786236E+02  0.11881542130E+04  0.12699999809E+01 0. -1.
       -4    1    3    3    0  502 -0.96831519933E+03  0.68292206109E+03  0.12021710175E+04  0.16879673086E+04  0.12699999809E+01 0.  1.
</event>
<event>
 5   0  0.4361864E-06  0.2592650E+04  0.7818609E-02  0.8370702E-01
        1   -1    0    0  501    0  0.00000000000E+00  0.00000000000E+00  0.10511826937E+04  0.10511826937E+04  0.50400001928E-02 0.  1.
       -1   -1    0    0    0  501  0.00000000000E+00  0.00000000000E+00 -0.15986355713E+04  0.15986355713E+04  0.50400001928E-02 0. -1.
    10030    2    1    2    0    0  0.00000000000E+00  0.00000000000E+00 -0.54745287761E+03  0.26498182650E+04  0.25926496455E+04 0.  0.
        3    1    3    3  502    0 -0.92039832004E+03  0.64216056932E+03  0.38939027556E+03  0.11879091132E+04  0.10100000352E+00 0.  1.
       -3    1    3    3    0  502  0.92039832004E+03 -0.64216056932E+03 -0.93684315317E+03  0.14619091518E+04  0.10100000352E+00 0. -1.
</event>
<event>
 5   0  0.4464297E-06  0.2598451E+04  0.7818609E-02  0.8368727E-01
        1   -1    0    0  501    0  0.00000000000E+00  0.00000000000E+00  0.21604603896E+04  0.21604603896E+04  0.50400001928E-02 0. -1.
       -1   -1    0    0    0  501  0.00000000000E+00  0.00000000000E+00 -0.78130907412E+03  0.78130907413E+03  0.50400001928E-02 0.  1.
    10030    2    1    2    0    0  0.00000000000E+00  0.00000000000E+00  0.13791513154E+04  0.29417694637E+04  0.25984513131E+04 0.  0.
        4    1    3    3  502    0  0.19383575117E+03 -0.12068419637E+04  0.11881550451E+04  0.17046271874E+04  0.12699999809E+01 0. -1.
       -4    1    3    3    0  502 -0.19383575117E+03  0.12068419637E+04  0.19099627033E+03  0.12371422763E+04  0.12699999809E+01 0.  1.
</event>
<event>
 5   0  0.4464297E-06  0.2596130E+04  0.7818609E-02  0.8369517E-01
        1   -1    0    0  501    0  0.00000000000E+00  0.00000000000E+00  0.23956754533E+04  0.23956754533E+04  0.50400001928E-02 0.  1.
       -1   -1    0    0    0  501  0.00000000000E+00  0.00000000000E+00 -0.70333950496E+03  0.70333950498E+03  0.50400001928E-02 0. -1.
    10030    2    1    2    0    0  0.00000000000E+00  0.00000000000E+00  0.16923359483E+04  0.30990149582E+04  0.25961303414E+04 0.  0.
        4    1    3    3  502    0  0.77797202279E+03 -0.68456080240E+03 -0.86991837993E+02  0.10399197821E+04  0.12699999809E+01 0. -1.
       -4    1    3    3    0  502 -0.77797202279E+03  0.68456080240E+03  0.17793277863E+04  0.20590951761E+04  0.12699999809E+01 0.  1.
</event>
<event>
 5   0  0.4464297E-06  0.2579543E+04  0.7818609E-02  0.8375183E-01
        1   -1    0    0  501    0  0.00000000000E+00  0.00000000000E+00  0.20921161811E+04  0.20921161811E+04  0.50400001928E-02 0.  1.
       -1   -1    0    0    0  501  0.00000000000E+00  0.00000000000E+00 -0.79513273054E+03  0.79513273056E+03  0.50400001928E-02 0. -1.
    10030    2    1    2    0    0  0.00000000000E+00  0.00000000000E+00  0.12969834505E+04  0.28872489116E+04  0.25795426352E+04 0.  0.
        4    1    3    3  502    0  0.43930631180E+02  0.86095948513E+03  0.17222651943E+04  0.19259751161E+04  0.12699999809E+01 0.  1.
       -4    1    3    3    0  502 -0.43930631180E+02 -0.86095948513E+03 -0.42528174382E+03  0.96127379550E+03  0.12699999809E+01 0. -1.
</event>
<event>
 5   0  0.4218590E-06  0.2608965E+04  0.7818609E-02  0.8365162E-01
       -1   -1    0    0    0  501  0.00000000000E+00  0.00000000000E+00  0.13218108215E+04  0.13218108215E+04  0.50400001928E-02 0.  1.
        1   -1    0    0  501    0  0.00000000000E+00  0.00000000000E+00 -0.12873816126E+04  0.12873816126E+04  0.50400001928E-02 0. -1.
    10030    2    1    2    0    0  0.00000000000E+00  0.00000000000E+00  0.34429208942E+02  0.26091924342E+04  0.26089652715E+04 0.  0.
        1    1    3    3  502    0 -0.42987656851E+03 -0.78840551261E+03 -0.92906957297E+03  0.12921096656E+04  0.50400001928E-02 0. -1.
       -1    1    3    3    0  502  0.42987656851E+03  0.78840551261E+03  0.96349878191E+03  0.13170827686E+04  0.50400001928E-02 0.  1.
</event>
<event>
 5   0  0.4597705E-06  0.2661495E+04  0.7818609E-02  0.8347608E-01
       -1   -1    0    0    0  501  0.00000000000E+00  0.00000000000E+00  0.97964272755E+03  0.97964272756E+03  0.50400001928E-02 0.  1.
        1   -1    0    0  501    0  0.00000000000E+00  0.00000000000E+00 -0.18076891241E+04  0.18076891241E+04  0.50400001928E-02 0. -1.
    10030    2    1    2    0    0  0.00000000000E+00  0.00000000000E+00 -0.82804639655E+03  0.27873318517E+04  0.26614954474E+04 0.  0.
        5    1    3    3  502    0 -0.24911860068E+03 -0.34248919393E+02 -0.17825723221E+04  0.18002275521E+04  0.46999998093E+01 0. -1.
       -5    1    3    3    0  502  0.24911860068E+03  0.34248919393E+02  0.95452592557E+03  0.98710429959E+03  0.46999998093E+01 0.  1.
</event>
<event>
 5   0  0.1116310E-05  0.2600594E+04  0.7818609E-02  0.8368000E-01
       -2   -1    0    0    0  501  0.00000000000E+00  0.00000000000E+00  0.16788140604E+04  0.16788140604E+04  0.25500000920E-02 0.  1.
        2   -1    0    0  501    0  0.00000000000E+00  0.00000000000E+00 -0.10071228735E+04  0.10071228735E+04  0.25500000920E-02 0. -1.
    10030    2    1    2    0    0  0.00000000000E+00  0.00000000000E+00  0.67169118689E+03  0.26859369340E+04  0.26005938096E+04 0.  0.
        4    1    3    3  502    0  0.32456122274E+03  0.28432650189E+03  0.16027160565E+04  0.16597836960E+04  0.12699999809E+01 0.  1.
       -4    1    3    3    0  502 -0.32456122274E+03 -0.28432650189E+03 -0.93102486961E+03  0.10261532379E+04  0.12699999809E+01 0. -1.
</event>
<event>
 5   0  0.4597705E-06  0.2431828E+04  0.7818609E-02  0.8427683E-01
        1   -1    0    0  501    0  0.00000000000E+00  0.00000000000E+00  0.14438554440E+04  0.14438554441E+04  0.50400001928E-02 0. -1.
       -1   -1    0    0    0  501  0.00000000000E+00  0.00000000000E+00 -0.10239580342E+04  0.10239580342E+04  0.50400001928E-02 0.  1.
    10030    2    1    2    0    0  0.00000000000E+00  0.00000000000E+00  0.41989740985E+03  0.24678134783E+04  0.24318284332E+04 0.  0.
        5    1    3    3  502    0  0.15348680383E+02  0.22373609271E+03  0.14226771255E+04  0.14402519622E+04  0.46999998093E+01 0. -1.
       -5    1    3    3    0  502 -0.15348680383E+02 -0.22373609271E+03 -0.10027797157E+04  0.10275615161E+04  0.46999998093E+01 0.  1.
</event>
<event>
 5   0  0.1116310E-05  0.2609854E+04  0.7818609E-02  0.8364862E-01
       -2   -1    0    0    0  501  0.00000000000E+00  0.00000000000E+00  0.10263782571E+04  0.10263782571E+04  0.25500000920E-02 0. -1.
        2   -1    0    0  501    0  0.00000000000E+00  0.00000000000E+00 -0.16590709808E+04  0.16590709808E+04  0.25500000920E-02 0.  1.
    10030    2    1    2    0    0  0.00000000000E+00  0.00000000000E+00 -0.63269272368E+03  0.26854492380E+04  0.26098539283E+04 0.  0.
        4    1    3    3  502    0 -0.51273864268E+03 -0.11900951726E+04 -0.15825584630E+03  0.13054784415E+04  0.12699999809E+01 0. -1.
       -4    1    3    3    0  502  0.51273864268E+03  0.11900951726E+04 -0.47443687739E+03  0.13799707964E+04  0.12699999809E+01 0.  1.
</event>
<event>
 5   0  0.4218590E-06  0.2584834E+04  0.7818609E-02  0.8373371E-01
       -1   -1    0    0    0  501  0.00000000000E+00  0.00000000000E+00  0.95264152103E+03  0.95264152104E+03  0.50400001928E-02 0. -1.
        1   -1    0    0  501    0  0.00000000000E+00  0.00000000000E+00 -0.17533793263E+04  0.17533793263E+04  0.50400001928E-02 0.  1.
    10030    2    1    2    0    0  0.00000000000E+00  0.00000000000E+00 -0.80073780529E+03  0.27060208474E+04  0.25848341907E+04 0.  0.
        1    1    3    3  502    0 -0.68368478990E+02 -0.99500224528E+03  0.46014037417E+03  0.10983773855E+04  0.50400001928E-02 0. -1.
       -1    1    3    3    0  502  0.68368478990E+02  0.99500224528E+03 -0.12608781795E+04  0.16076434619E+04  0.50400001928E-02 0.  1.
</event>
<event>
 5   0  0.1085061E-05  0.2603049E+04  0.7818609E-02  0.8367166E-01
        2   -1    0    0  501    0  0.00000000000E+00  0.00000000000E+00  0.22177605977E+04  0.22177605977E+04  0.25500000920E-02 0.  1.
       -2   -1    0    0    0  501  0.00000000000E+00  0.00000000000E+00 -0.76381820351E+03  0.76381820352E+03  0.25500000920E-02 0. -1.
    10030    2    1    2    0    0  0.00000000000E+00  0.00000000000E+00  0.14539423942E+04  0.29815788013E+04  0.26030489166E+04 0.  0.
        1    1    3    3  502    0 -0.10749222577E+04  0.40665749169E+03  0.27292661863E+02  0.11495969142E+04  0.50400001928E-02 0. -1.
       -1    1    3    3    0  502  0.10749222577E+04 -0.40665749169E+03  0.14266497324E+04  0.18319818871E+04  0.50400001928E-02 0.  1.
</event>
<event>
 5   0  0.4361864E-06  0.2604500E+04  0.7818609E-02  0.8366674E-01
       -1   -1    0    0    0  501  0.00000000000E+00  0.00000000000E+00  0.93740332358E+03  0.93740332360E+03  0.50400001928E-02 0.  1.
        1   -1    0    0  501    0  0.00000000000E+00  0.00000000000E+00 -0.18090985276E+04  0.18090985276E+04  0.50400001928E-02 0. -1.
    10030    2    1    2    0    0  0.00000000000E+00  0.00000000000E+00 -0.87169520398E+03  0.27465018512E+04  0.26044999309E+04 0.  0.
        3    1    3    3  502    0  0.14680255555E+03 -0.12633467003E+04 -0.73084822543E+03  0.14668793455E+04  0.10100000352E+00 0. -1.
       -3    1    3    3    0  502 -0.14680255555E+03  0.12633467003E+04 -0.14084697855E+03  0.12796225057E+04  0.10100000352E+00 0.  1.
</event>
<event>
 5   0  0.1086507E-05  0.2600065E+04  0.7818609E-02  0.8368179E-01
       -2   -1    0    0    0  501  0.00000000000E+00  0.00000000000E+00  0.84968363427E+03  0.84968363428E+03  0.25500000920E-02 0. -1.
        2   -1    0    0  501    0  0.00000000000E+00  0.00000000000E+00 -0.19890750897E+04  0.19890750897E+04  0.25500000920E-02 0.  1.
    10030    2    1    2    0    0  0.00000000000E+00  0.00000000000E+00 -0.11393914554E+04  0.28387587240E+04  0.26000650385E+04 0.  0.
        2    1    3    3  502    0 -0.57648404449E+03  0.10529469714E+04 -0.24828754598E+02  0.12006863226E+04  0.25500000920E-02 0. -1.
       -2    1    3    3    0  502  0.57648404449E+03 -0.10529469714E+04 -0.11145627008E+04  0.16380724014E+04  0.25500000920E-02 0.  1.
</event>
<event>
 5   0  0.4218590E-06  0.2518321E+04  0.7818609E-02  0.8396488E-01
        1   -1    0    0  501    0  0.00000000000E+00  0.00000000000E+00  0.15585917952E+04  0.15585917952E+04  0.50400001928E-02 0.  1.
       -1   -1    0    0    0  501  0.00000000000E+00  0.00000000000E+00 -0.10172546943E+04  0.10172546943E+04  0.50400001928E-02 0. -1.
    10030    2    1    2    0    0  0.00000000000E+00  0.00000000000E+00  0.54133710090E+03  0.25758464896E+04  0.25183207264E+04 0.  0.
        1    1    3    3  502    0  0.50729843603E+03  0.56808521456E+03 -0.75493858961E+03  0.10723827620E+04  0.50400001928E-02 0. -1.
       -1    1    3    3    0  502 -0.50729843603E+03 -0.56808521456E+03  0.12962756905E+04  0.15034637275E+04  0.50400001928E-02 0.  1.
</event>
<event>
 5   0  0.4361864E-06  0.2607353E+04  0.7818609E-02  0.8365708E-01
       -1   -1    0    0    0  501  0.00000000000E+00  0.00000000000E+00  0.16990057352E+04  0.16990057352E+04  0.50400001928E-02 0. -1.
        1   -1    0    0  501    0  0.00000000000E+00  0.00000000000E+00 -0.10003337842E+04  0.10003337842E+04  0.50400001928E-02 0.  1.
    10030    2    1    2    0    0  0.00000000000E+00  0.00000000000E+00  0.69867195097E+03  0.26993395194E+04  0.26073533220E+04 0.  0.
        3    1    3    3  502    0 -0.72827362702E+03 -0.66495909669E+03 -0.53339980639E+03  0.11211906349E+04  0.10100000352E+00 0.  1.
       -3    1    3    3    0  502  0.72827362702E+03  0.66495909669E+03  0.12320717574E+04  0.15781488845E+04  0.10100000352E+00 0. -1.
</event>
<event>
 5   0  0.4218590E-06  0.2606791E+04  0.7818609E-02  0.8365898E-01
       -1   -1    0    0    0  501  0.00000000000E+00  0.00000000000E+00  0.83966236734E+03  0.83966236736E+03  0.50400001928E-02 0.  1.
        1   -1    0    0  501    0  0.00000000000E+00  0.00000000000E+00 -0.20232418675E+04  0.20232418675E+04  0.50400001928E-02 0. -1.
    10030    2    1    2    0    0  0.00000000000E+00  0.00000000000E+00 -0.11835795002E+04  0.28629042349E+04  0.26067911740E+04 0.  0.
        1    1    3    3  502    0  0.47952181618E+03 -0.84138555977E+03  0.36625131621E+03  0.10353795724E+04  0.50400001928E-02 0.  1.
       -1    1    3    3    0  502 -0.47952181618E+03  0.84138555977E+03 -0.15498308164E+04  0.18275246625E+04  0.50400001928E-02 0. -1.
</event>
<event>
 5   0  0.1085255E-05  0.2607192E+04  0.7818609E-02  0.8365762E-01
        2   -1    0    0  501    0  0.00000000000E+00  0.00000000000E+00  0.15657199447E+04  0.15657199447E+04  0.25500000920E-02 0.  1.
       -2   -1    0    0    0  501  0.00000000000E+00  0.00000000000E+00 -0.10853552498E+04  0.10853552498E+04  0.25500000920E-02 0. -1.
    10030    2    1    2    0    0  0.00000000000E+00  0.00000000000E+00  0.48036469488E+03  0.26510751945E+04  0.26071918699E+04 0.  0.
        5    1    3    3  502    0  0.75629804636E+03  0.51745432794E+03 -0.70256621952E+03  0.11547151594E+04  0.46999998093E+01 0. -1.
       -5    1    3    3    0  502 -0.75629804636E+03 -0.51745432794E+03  0.11829309144E+04  0.14963600351E+04  0.46999998093E+01 0.  1.
</event>
<event>
 5   0  0.1136881E-05  0.2595801E+04  0.7818609E-02  0.8369629E-01
        2   -1    0    0  501    0  0.00000000000E+00  0.00000000000E+00  0.19271721944E+04  0.19271721944E+04  0.25500000920E-02 0. -1.
       -2   -1    0    0    0  501  0.00000000000E+00  0.00000000000E+00 -0.87410220976E+03  0.87410220976E+03  0.25500000920E-02 0.  1.
    10030    2    1    2    0    0  0.00000000000E+00  0.00000000000E+00  0.10530699847E+04  0.28012744042E+04  0.25958008196E+04 0.  0.
        3    1    3    3  502    0  0.28490872775E+03  0.40363715805E+03 -0.76865449343E+03  0.91374267656E+03  0.10100000352E+00 0.  1.
       -3    1    3    3    0  502 -0.28490872775E+03 -0.40363715805E+03  0.18217244781E+04  0.18875317276E+04  0.10100000352E+00 0. -1.
</event>
<event>
 5   0  0.1085061E-05  0.2603333E+04  0.7818609E-02  0.8367070E-01
        2   -1    0    0  501    0  0.00000000000E+00  0.00000000000E+00  0.21506044943E+04  0.21506044944E+04  0.25500000920E-02 0.  1.
       -2   -1    0    0    0  501  0.00000000000E+00  0.00000000000E+00 -0.78784153479E+03  0.78784153480E+03  0.25500000920E-02 0. -1.
    10030    2    1    2    0    0  0.00000000000E+00  0.00000000000E+00  0.13627629596E+04  0.29384460291E+04  0.26033328989E+04 0.  0.
        1    1    3    3  502    0 -0.53749002997E+03  0.75358226787E+03  0.17143673068E+04  0.19482907970E+04  0.50400001928E-02 0.  1.
       -1    1    3    3    0  502  0.53749002997E+03 -0.75358226787E+03 -0.35160434728E+03  0.99015523218E+03  0.50400001928E-02 0. -1.
</event>
<event>
 5   0  0.4415080E-06  0.2305517E+04  0.7818609E-02  0.8475749E-01
       -1   -1    0    0    0  501  0.00000000000E+00  0.00000000000E+00  0.70086602467E+03  0.70086602469E+03  0.50400001928E-02 0. -1.
        1   -1    0    0  501    0  0.00000000000E+00  0.00000000000E+00 -0.18960149834E+04  0.18960149835E+04  0.50400001928E-02 0.  1.
    10030    2    1    2    0    0  0.00000000000E+00  0.00000000000E+00 -0.11951489588E+04  0.25968810081E+04  0.23055172818E+04 0.  0.
        2    1    3    3  502    0 -0.51743774605E+03 -0.73480339734E+03 -0.14107331587E+04  0.16726762684E+04  0.25500000920E-02 0.  1.
       -2    1    3    3    0  502  0.51743774605E+03  0.73480339734E+03  0.21558419989E+03  0.92420473978E+03  0.25500000920E-02 0. -1.
</event>
<event>
 5   0  0.4218590E-06  0.2533444E+04  0.7818609E-02  0.8391167E-01
        1   -1    0    0  501    0  0.00000000000E+00  0.00000000000E+00  0.20079876445E+04  0.20079876445E+04  0.50400001928E-02 0.  1.
       -1   -1    0    0    0  501  0.00000000000E+00  0.00000000000E+00 -0.79910108082E+03  0.79910108084E+03  0.50400001928E-02 0. -1.
    10030    2    1    2    0    0  0.00000000000E+00  0.00000000000E+00  0.12088865637E+04  0.28070887253E+04  0.25334443724E+04 0.  0.
        1    1    3    3  502    0 -0.96709238910E+03 -0.71001293921E+03  0.10547915727E+04  0.15974890688E+04  0.50400001928E-02 0.  1.
       -1    1    3    3    0  502  0.96709238910E+03  0.71001293921E+03  0.15409499093E+03  0.12095996566E+04  0.50400001928E-02 0. -1.
</event>
<event>
 5   0  0.1085255E-05  0.2603067E+04  0.7818609E-02  0.8367160E-01
       -2   -1    0    0    0  501  0.00000000000E+00  0.00000000000E+00  0.11509619894E+04  0.11509619894E+04  0.25500000920E-02 0. -1.
        2   -1    0    0  501    0  0.00000000000E+00  0.00000000000E+00 -0.14718036253E+04  0.14718036253E+04  0.25500000920E-02 0.  1.
    10030    2    1    2    0    0  0.00000000000E+00  0.00000000000E+00 -0.32084163591E+03  0.26227656147E+04  0.26030674433E+04 0.  0.
        5    1    3    3  502    0 -0.71386827854E+03 -0.28813375273E+03 -0.12178092678E+04  0.14407326197E+04  0.46999998093E+01 0.  1.
       -5    1    3    3    0  502  0.71386827854E+03  0.28813375273E+03  0.89696763192E+03  0.11820329950E+04  0.46999998093E+01 0. -1.
</event>
<event>
 5   0  0.4597705E-06  0.2604995E+04  0.7818609E-02  0.8366506E-01
       -1   -1    0    0    0  501  0.00000000000E+00  0.00000000000E+00  0.12851596134E+04  0.12851596134E+04  0.50400001928E-02 0. -1.
        1   -1    0    0  501    0  0.00000000000E+00  0.00000000000E+00 -0.13200693767E+04  0.13200693767E+04  0.50400001928E-02 0.  1.
    10030    2    1    2    0    0  0.00000000000E+00  0.00000000000E+00 -0.34909763292E+02  0.26052289900E+04  0.26049950862E+04 0.  0.
        5    1    3    3  502    0 -0.69203773492E+03 -0.68390864796E+03  0.84855040461E+03  0.12910101256E+04  0.46999998093E+01 0. -1.
       -5    1    3    3    0  502  0.69203773492E+03  0.68390864796E+03 -0.88346016791E+03  0.13142188644E+04  0.46999998093E+01 0.  1.
</event>
<event>
 5   0  0.4464297E-06  0.2584990E+04  0.7818609E-02  0.8373318E-01
        1   -1    0    0  501    0  0.00000000000E+00  0.00000000000E+00  0.21953794230E+04  0.21953794230E+04  0.50400001928E-02 0. -1.
       -1   -1    0    0    0  501  0.00000000000E+00  0.00000000000E+00 -0.76093632543E+03  0.76093632545E+03  0.50400001928E-02 0.  1.
    10030    2    1    2    0    0  0.00000000000E+00  0.00000000000E+00  0.14344430976E+04  0.29563157485E+04  0.25849904844E+04 0.  0.
        4    1    3    3  502    0  0.68330534471E+03 -0.18962019478E+03  0.19530376509E+04  0.20777920231E+04  0.12699999809E+01 0. -1.
       -4    1    3    3    0  502 -0.68330534471E+03  0.18962019478E+03 -0.51859455335E+03  0.87852372537E+03  0.12699999809E+01 0.  1.
</event>
<event>
 5   0  0.1085255E-05  0.2593219E+04  0.7818609E-02  0.8370508E-01
        2   -1    0    0  501    0  0.00000000000E+00  0.00000000000E+00  0.18376976492E+04  0.18376976492E+04  0.25500000920E-02 0. -1.
       -2   -1    0    0    0  501  0.00000000000E+00  0.00000000000E+00 -0.91483851006E+03  0.91483851006E+03  0.25500000920E-02 0.  1.
    10030    2    1    2    0    0  0.00000000000E+00  0.00000000000E+00  0.92285913914E+03  0.27525361593E+04  0.25932192960E+04 0.  0.
        5    1    3    3  502    0 -0.71529556356E+03 -0.85051771487E+03  0.11704070925E+04  0.16139711827E+04  0.46999998093E+01 0. -1.
       -5    1    3    3    0  502  0.71529556356E+03  0.85051771487E+03 -0.24754795335E+03  0.11385649765E+04  0.46999998093E+01 0.  1.
</event>
<event>
 5   0  0.3705250E-06  0.2623953E+04  0.7818609E-02  0.8360110E-01
        3   -1    0    0  501    0  0.00000000000E+00  0.00000000000E+00  0.21986005386E+04  0.21986005410E+04  0.10100000352E+00 0. -1.
       -3   -1    0    0    0  501  0.00000000000E+00  0.00000000000E+00 -0.78289936056E+03  0.78289936707E+03  0.10100000352E+00 0.  1.
    10030    2    1    2    0    0  0.00000000000E+00  0.00000000000E+00  0.14157011781E+04  0.29814999080E+04  0.26239534821E+04 0.  0.
        4    1    3    3  502    0  0.58596756555E+03  0.11198352702E+04  0.11077961576E+04  0.16806555150E+04  0.12699999809E+01 0. -1.
       -4    1    3    3    0  502 -0.58596756555E+03 -0.11198352702E+04  0.30790502045E+03  0.13008443930E+04  0.12699999809E+01 0.  1.
</event>
<event>
 5   0  0.1085255E-05  0.2592484E+04  0.7818609E-02  0.8370759E-01
       -2   -1    0    0    0  501  0.00000000000E+00  0.00000000000E+00  0.90905055712E+03  0.90905055713E+03  0.25500000920E-02 0. -1.
        2   -1    0    0  501    0  0.00000000000E+00  0.00000000000E+00 -0.18483490848E+04  0.18483490848E+04  0.25500000920E-02 0.  1.
    10030    2    1    2    0    0  0.00000000000E+00  0.00000000000E+00 -0.93929852764E+03  0.27573996419E+04  0.25924835701E+04 0.  0.
        5    1    3    3  502    0 -0.66543054817E+03 -0.62931332668E+02  0.71161394780E+03  0.97630664639E+03  0.46999998093E+01 0. -1.
       -5    1    3    3    0  502  0.66543054817E+03  0.62931332668E+02 -0.16509124754E+04  0.17810929955E+04  0.46999998093E+01 0.  1.
</event>
<event>
 5   0  0.1116310E-05  0.2635272E+04  0.7818609E-02  0.8356318E-01
        2   -1    0    0  501    0  0.00000000000E+00  0.00000000000E+00  0.12264180928E+04  0.12264180928E+04  0.25500000920E-02 0.  1.
       -2   -1    0    0    0  501  0.00000000000E+00  0.00000000000E+00 -0.14156379646E+04  0.14156379646E+04  0.25500000920E-02 0. -1.
    10030    2    1    2    0    0  0.00000000000E+00  0.00000000000E+00 -0.18921987180E+03  0.26420560575E+04  0.26352715327E+04 0.  0.
        4    1    3    3  502    0  0.99257843725E+03 -0.86408591659E+03 -0.16039879924E+03  0.13257397230E+04  0.12699999809E+01 0. -1.
       -4    1    3    3    0  502 -0.99257843725E+03  0.86408591659E+03 -0.28821072554E+02  0.13163163345E+04  0.12699999809E+01 0.  1.
</event>
<event>
 5   0  0.1085061E-05  0.2587905E+04  0.7818609E-02  0.8372321E-01
       -2   -1    0    0    0  501  0.00000000000E+00  0.00000000000E+00  0.65829881717E+03  0.65829881717E+03  0.25500000920E-02 0. -1.
        2   -1    0    0  501    0  0.00000000000E+00  0.00000000000E+00 -0.25433934251E+04  0.25433934251E+04  0.25500000920E-02 0.  1.
    10030    2    1    2    0    0  0.00000000000E+00  0.00000000000E+00 -0.18850946080E+04  0.32016922423E+04  0.25879048540E+04 0.  0.
        1    1    3    3  502    0 -0.50337538008E+03 -0.11811191306E+04 -0.11415892164E+04  0.17180381582E+04  0.50400001928E-02 0. -1.
       -1    1    3    3    0  502  0.50337538008E+03  0.11811191306E+04 -0.74350539155E+03  0.14836540841E+04  0.50400001928E-02 0.  1.
</event>
<event>
 5   0  0.1085061E-05  0.2597001E+04  0.7818609E-02  0.8369221E-01
        2   -1    0    0  501    0  0.00000000000E+00  0.00000000000E+00  0.27814461448E+04  0.27814461448E+04  0.25500000920E-02 0.  1.
       -2   -1    0    0    0  501  0.00000000000E+00  0.00000000000E+00 -0.60619672845E+03  0.60619672846E+03  0.25500000920E-02 0. -1.
    10030    2    1    2    0    0  0.00000000000E+00  0.00000000000E+00  0.21752494163E+04  0.33876428732E+04  0.25970010037E+04 0.  0.
        1    1    3    3  502    0  0.54629557483E+03 -0.10362779147E+04  0.35691146625E+03  0.12246209889E+04  0.50400001928E-02 0. -1.
       -1    1    3    3    0  502 -0.54629557483E+03  0.10362779147E+04  0.18183379501E+04  0.21630218844E+04  0.50400001928E-02 0.  1.
</event>
<event>
 5   0  0.4415080E-06  0.2786443E+04  0.7818609E-02  0.8307490E-01
       -1   -1    0    0    0  501  0.00000000000E+00  0.00000000000E+00  0.12883605296E+04  0.12883605296E+04  0.50400001928E-02 0. -1.
        1   -1    0    0  501    0  0.00000000000E+00  0.00000000000E+00 -0.15066172587E+04  0.15066172587E+04  0.50400001928E-02 0.  1.
    10030    2    1    2    0    0  0.00000000000E+00  0.00000000000E+00 -0.21825672910E+03  0.27949777882E+04  0.27864430439E+04 0.  0.
        2    1    3    3  502    0 -0.88513594298E+03  0.10431994175E+04  0.15499460010E+03  0.13768638235E+04  0.25500000920E-02 0. -1.
       -2    1    3    3    0  502  0.88513594298E+03 -0.10431994175E+04 -0.37325132920E+03  0.14181139648E+04  0.25500000920E-02 0.  1.
</event>
<event>
 5   0  0.1085061E-05  0.2612047E+04  0.7818609E-02  0.8364121E-01
        2   -1    0    0  501    0  0.00000000000E+00  0.00000000000E+00  0.17731263797E+04  0.17731263797E+04  0.25500000920E-02 0.  1.
       -2   -1    0    0    0  501  0.00000000000E+00  0.00000000000E+00 -0.96197139826E+03  0.96197139826E+03  0.25500000920E-02 0. -1.
    10030    2    1    2    0    0  0.00000000000E+00  0.00000000000E+00  0.81115498147E+03  0.27350977780E+04  0.26120466020E+04 0.  0.
        1    1    3    3  502    0 -0.92439979716E+03 -0.12370370061E+02 -0.56039348531E+03  0.10810683926E+04  0.50400001928E-02 0. -1.
       -1    1    3    3    0  502  0.92439979716E+03  0.12370370061E+02  0.13715484668E+04  0.16540293854E+04  0.50400001928E-02 0.  1.
</event>
<event>
 5   0  0.4597705E-06  0.2587856E+04  0.7818609E-02  0.8372338E-01
        1   -1    0    0  501    0  0.00000000000E+00  0.00000000000E+00  0.16039642024E+04  0.16039642024E+04  0.50400001928E-02 0. -1.
       -1   -1    0    0    0  501  0.00000000000E+00  0.00000000000E+00 -0.10438201762E+04  0.10438201762E+04  0.50400001928E-02 0.  1.
    10030    2    1    2    0    0  0.00000000000E+00  0.00000000000E+00  0.56014402624E+03  0.26477843786E+04  0.25878564074E+04 0.  0.
        5    1    3    3  502    0 -0.61746738938E+03 -0.89901813962E+03 -0.43227519170E+03  0.11731937281E+04  0.46999998093E+01 0.  1.
       -5    1    3    3    0  502  0.61746738938E+03  0.89901813962E+03  0.99241921794E+03  0.14745906505E+04  0.46999998093E+01 0. -1.
</event>
<event>
 5   0  0.4361864E-06  0.2527987E+04  0.7818609E-02  0.8393082E-01
        1   -1    0    0  501    0  0.00000000000E+00  0.00000000000E+00  0.14633959045E+04  0.14633959045E+04  0.50400001928E-02 0.  1.
       -1   -1    0    0    0  501  0.00000000000E+00  0.00000000000E+00 -0.10917613595E+04  0.10917613595E+04  0.50400001928E-02 0. -1.
    10030    2    1    2    0    0  0.00000000000E+00  0.00000000000E+00  0.37163454499E+03  0.25551572640E+04  0.25279866315E+04 0.  0.
        3    1    3    3  502    0  0.32053869011E+03 -0.53531950423E+03  0.12968895271E+04  0.14391784042E+04  0.10100000352E+00 0.  1.
       -3    1    3    3    0  502 -0.32053869011E+03  0.53531950423E+03 -0.92525498210E+03  0.11159788598E+04  0.10100000352E+00 0. -1.
</event>
<event>
 5   0  0.1116310E-05  0.2621157E+04  0.7818609E-02  0.8361050E-01
        2   -1    0    0  501    0  0.00000000000E+00  0.00000000000E+00  0.11844828081E+04  0.11844828081E+04  0.25500000920E-02 0. -1.
       -2   -1    0    0    0  501  0.00000000000E+00  0.00000000000E+00 -0.14500973698E+04  0.14500973698E+04  0.25500000920E-02 0.  1.
    10030    2    1    2    0    0  0.00000000000E+00  0.00000000000E+00 -0.26561456169E+03  0.26345801778E+04  0.26211565421E+04 0.  0.
        4    1    3    3  502    0  0.12720771846E+03 -0.10645427357E+04  0.62483066793E+03  0.12409061271E+04  0.12699999809E+01 0. -1.
       -4    1    3    3    0  502 -0.12720771846E+03  0.10645427357E+04 -0.89044522962E+03  0.13936740507E+04  0.12699999809E+01 0.  1.
</event>
<event>
 5   0  0.4218590E-06  0.2628524E+04  0.7818609E-02  0.8358576E-01
        1   -1    0    0  501    0  0.00000000000E+00  0.00000000000E+00  0.16243664560E+04  0.16243664561E+04  0.50400001928E-02 0. -1.
       -1   -1    0    0    0  501  0.00000000000E+00  0.00000000000E+00 -0.10633585986E+04  0.10633585986E+04  0.50400001928E-02 0.  1.
    10030    2    1    2    0    0  0.00000000000E+00  0.00000000000E+00  0.56100785741E+03  0.26877250547E+04  0.26285235691E+04 0.  0.
        1    1    3    3  502    0 -0.57351471595E+03  0.23082096618E+03 -0.90539611697E+03  0.10963300491E+04  0.50400001928E-02 0.  1.
       -1    1    3    3    0  502  0.57351471595E+03 -0.23082096618E+03  0.14664039744E+04  0.15913950056E+04  0.50400001928E-02 0. -1.
</event>
<event>
 5   0  0.1136881E-05  0.2740365E+04  0.7818609E-02  0.8322026E-01
        2   -1    0    0  501    0  0.00000000000E+00  0.00000000000E+00  0.17579783111E+04  0.17579783111E+04  0.25500000920E-02 0.  1.
       -2   -1    0    0    0  501  0.00000000000E+00  0.00000000000E+00 -0.10679312949E+04  0.10679312949E+04  0.25500000920E-02 0. -1.
    10030    2    1    2    0    0  0.00000000000E+00  0.00000000000E+00  0.69004701616E+03  0.28259096061E+04  0.27403649788E+04 0.  0.
        3    1    3    3  502    0 -0.71871523129E+03 -0.10498390520E+04  0.86951286137E+03  0.15410276587E+04  0.10100000352E+00 0. -1.
       -3    1    3    3    0  502  0.71871523129E+03  0.10498390520E+04 -0.17946584521E+03  0.12848819473E+04  0.10100000352E+00 0.  1.
</event>
<event>
 5   0  0.1136881E-05  0.2606477E+04  0.7818609E-02  0.8366004E-01
        2   -1    0    0  501    0  0.00000000000E+00  0.00000000000E+00  0.17335391139E+04  0.17335391139E+04  0.25500000920E-02 0. -1.
       -2   -1    0    0    0  501  0.00000000000E+00  0.00000000000E+00 -0.97974777490E+03  0.97974777490E+03  0.25500000920E-02 0.  1.
    10030    2    1    2    0    0  0.00000000000E+00  0.00000000000E+00  0.75379133901E+03  0.27132868888E+04  0.26064773850E+04 0.  0.
        3    1    3    3  502    0 -0.21993578292E+03  0.40260407515E+03  0.16467056581E+04  0.17094154920E+04  0.10100000352E+00 0. -1.
       -3    1    3    3    0  502  0.21993578292E+03 -0.40260407515E+03 -0.89291431904E+03  0.10038713968E+04  0.10100000352E+00 0.  1.
</event>
<event>
 5   0  0.1136881E-05  0.2600596E+04  0.7818609E-02  0.8367999E-01
        2   -1    0    0  501    0  0.00000000000E+00  0.00000000000E+00  0.24738042816E+04  0.24738042816E+04  0.25500000920E-02 0.  1.
       -2   -1    0    0    0  501  0.00000000000E+00  0.00000000000E+00 -0.68347142049E+03  0.68347142050E+03  0.25500000920E-02 0. -1.
    10030    2    1    2    0    0  0.00000000000E+00  0.00000000000E+00  0.17903328611E+04  0.31572757021E+04  0.26005957213E+04 0.  0.
        3    1    3    3  502    0 -0.88433528065E+03 -0.31348979773E+02 -0.26153450443E+03  0.92273070522E+03  0.10100000352E+00 0. -1.
       -3    1    3    3    0  502  0.88433528065E+03  0.31348979773E+02  0.20518673655E+04  0.22345449969E+04  0.10100000352E+00 0.  1.
</event>
<event>
 5   0  0.4415080E-06  0.2591303E+04  0.7818609E-02  0.8371161E-01
        1   -1    0    0  501    0  0.00000000000E+00  0.00000000000E+00  0.18977107822E+04  0.18977107822E+04  0.50400001928E-02 0.  1.
       -1   -1    0    0    0  501  0.00000000000E+00  0.00000000000E+00 -0.88459873086E+03  0.88459873088E+03  0.50400001928E-02 0. -1.
    10030    2    1    2    0    0  0.00000000000E+00  0.00000000000E+00  0.10131120514E+04  0.27823095131E+04  0.25913027994E+04 0.  0.
        2    1    3    3  502    0 -0.10753327303E+04 -0.42815161653E+03  0.11317639043E+04  0.16188093843E+04  0.25500000920E-02 0. -1.
       -2    1    3    3    0  502  0.10753327303E+04  0.42815161653E+03 -0.11865185295E+03  0.11635001288E+04  0.25500000920E-02 0.  1.
</event>
<event>
 5   0  0.1085255E-05  0.2583057E+04  0.7818609E-02  0.8373979E-01
        2   -1    0    0  501    0  0.00000000000E+00  0.00000000000E+00  0.21309500607E+04  0.21309500607E+04  0.25500000920E-02 0.  1.
       -2   -1    0    0    0  501  0.00000000000E+00  0.00000000000E+00 -0.78277077597E+03  0.78277077597E+03  0.25500000920E-02 0. -1.
    10030    2    1    2    0    0  0.00000000000E+00  0.00000000000E+00  0.13481792847E+04  0.29137208367E+04  0.25830566642E+04 0.  0.
        5    1    3    3  502    0  0.10845042767E+04  0.66013630900E+03  0.94124981039E+03  0.15804754880E+04  0.46999998093E+01 0. -1.
       -5    1    3    3    0  502 -0.10845042767E+04 -0.66013630900E+03  0.40692947432E+03  0.13332453487E+04  0.46999998093E+01 0.  1.
</event>
<event>
 5   0  0.1085255E-05  0.2595961E+04  0.7818609E-02  0.8369575E-01
       -2   -1    0    0    0  501  0.00000000000E+00  0.00000000000E+00  0.16551180854E+04  0.16551180854E+04  0.25500000920E-02 0. -1.
        2   -1    0    0  501    0  0.00000000000E+00  0.00000000000E+00 -0.10179048678E+04  0.10179048679E+04  0.25500000920E-02 0.  1.
    10030    2    1    2    0    0  0.00000000000E+00  0.00000000000E+00  0.63721321755E+03  0.26730229533E+04  0.25959605205E+04 0.  0.
        5    1    3    3  502    0  0.61659908032E+03 -0.58191841982E+03  0.13305874831E+04  0.15777542943E+04  0.46999998093E+01 0. -1.
       -5    1    3    3    0  502 -0.61659908032E+03  0.58191841982E+03 -0.69337426551E+03  0.10952686589E+04  0.46999998093E+01 0.  1.
</event>
<event>
 5   0  0.1116310E-05  0.2627041E+04  0.7818609E-02  0.8359074E-01
        2   -1    0    0  501    0  0.00000000000E+00  0.00000000000E+00  0.12677040632E+04  0.12677040632E+04  0.25500000920E-02 0.  1.
       -2   -1    0    0    0  501  0.00000000000E+00  0.00000000000E+00 -0.13609927390E+04  0.13609927390E+04  0.25500000920E-02 0. -1.
    10030    2    1    2    0    0  0.00000000000E+00  0.00000000000E+00 -0.93288675711E+02  0.26286968022E+04  0.26270409401E+04 0.  0.
        4    1    3    3  502    0 -0.88400140085E+03 -0.77406681791E+03  0.54083431573E+03  0.12934996271E+04  0.12699999809E+01 0.  1.
       -4    1    3    3    0  502  0.88400140085E+03  0.77406681791E+03 -0.63412299144E+03  0.13351971751E+04  0.12699999809E+01 0. -1.
</event>
<event>
 5   0  0.1116310E-05  0.2581143E+04  0.7818609E-02  0.8374635E-01
        2   -1    0    0  501    0  0.00000000000E+00  0.00000000000E+00  0.15186304981E+04  0.15186304981E+04  0.25500000920E-02 0.  1.
       -2   -1    0    0    0  501  0.00000000000E+00  0.00000000000E+00 -0.10967606875E+04  0.10967606875E+04  0.25500000920E-02 0. -1.
    10030    2    1    2    0    0  0.00000000000E+00  0.00000000000E+00  0.42186981060E+03  0.26153911856E+04  0.25811425603E+04 0.  0.
        4    1    3    3  502    0  0.25514709673E+03 -0.91083240462E+03 -0.67869945352E+03  0.11641951174E+04  0.12699999809E+01 0. -1.
       -4    1    3    3    0  502 -0.25514709673E+03  0.91083240462E+03  0.11005692641E+04  0.14511960682E+04  0.12699999809E+01 0.  1.
</event>
<event>
 5   0  0.4464297E-06  0.2600555E+04  0.7818609E-02  0.8368013E-01
        1   -1    0    0  501    0  0.00000000000E+00  0.00000000000E+00  0.21205379334E+04  0.21205379334E+04  0.50400001928E-02 0. -1.
       -1   -1    0    0    0  501  0.00000000000E+00  0.00000000000E+00 -0.79730773311E+03  0.79730773313E+03  0.50400001928E-02 0.  1.
    10030    2    1    2    0    0  0.00000000000E+00  0.00000000000E+00  0.13232302003E+04  0.29178456665E+04  0.26005547813E+04 0.  0.
        4    1    3    3  502    0 -0.10194776568E+04 -0.75071703849E+03  0.32913503112E+03  0.13081445816E+04  0.12699999809E+01 0.  1.
       -4    1    3    3    0  502  0.10194776568E+04  0.75071703849E+03  0.99409516915E+03  0.16097010850E+04  0.12699999809E+01 0. -1.
</event>
<event>
 5   0  0.1136881E-05  0.2550288E+04  0.7818609E-02  0.8385286E-01
        2   -1    0    0  501    0  0.00000000000E+00  0.00000000000E+00  0.16389912158E+04  0.16389912158E+04  0.25500000920E-02 0.  1.
       -2   -1    0    0    0  501  0.00000000000E+00  0.00000000000E+00 -0.99206903052E+03  0.99206903053E+03  0.25500000920E-02 0. -1.
    10030    2    1    2    0    0  0.00000000000E+00  0.00000000000E+00  0.64692218528E+03  0.26310602463E+04  0.25502881614E+04 0.  0.
        3    1    3    3  502    0  0.13542683593E+03 -0.53691452794E+03  0.15084809467E+04  0.16069014951E+04  0.10100000352E+00 0.  1.
       -3    1    3    3    0  502 -0.13542683593E+03  0.53691452794E+03 -0.86155876140E+03  0.10241587512E+04  0.10100000352E+00 0. -1.
</event>
<event>
 5   0  0.4464297E-06  0.2586563E+04  0.7818609E-02  0.8372780E-01
       -1   -1    0    0    0  501  0.00000000000E+00  0.00000000000E+00  0.13919061618E+04  0.13919061619E+04  0.50400001928E-02 0.  1.
        1   -1    0    0  501    0  0.00000000000E+00  0.00000000000E+00 -0.12016450808E+04  0.12016450809E+04  0.50400001928E-02 0. -1.
    10030    2    1    2    0    0  0.00000000000E+00  0.00000000000E+00  0.19026108101E+03  0.25935512427E+04  0.25865631192E+04 0.  0.
        4    1    3    3  502    0  0.76590996663E+03  0.29095864092E+03 -0.90822299270E+03  0.12231703173E+04  0.12699999809E+01 0. -1.
       -4    1    3    3    0  502 -0.76590996663E+03 -0.29095864092E+03  0.10984840737E+04  0.13703809254E+04  0.12699999809E+01 0.  1.
</event>
<event>
 5   0  0.1085061E-05  0.2675440E+04  0.7818609E-02  0.8343018E-01
        2   -1    0    0  501    0  0.00000000000E+00  0.00000000000E+00  0.17976337670E+04  0.17976337670E+04  0.25500000920E-02 0. -1.
       -2   -1    0    0    0  501  0.00000000000E+00  0.00000000000E+00 -0.99547256379E+03  0.99547256379E+03  0.25500000920E-02 0.  1.
    10030    2    1    2    0    0  0.00000000000E+00  0.00000000000E+00  0.80216120319E+03  0.27931063308E+04  0.26754402215E+04 0.  0.
        1    1    3    3  502    0  0.75815679647E+03 -0.10518397600E+04  0.74468565717E+03  0.14952342080E+04  0.50400001928E-02 0.  1.
       -1    1    3    3    0  502 -0.75815679647E+03  0.10518397600E+04  0.57475546019E+02  0.12978721228E+04  0.50400001928E-02 0. -1.
</event>
<event>
 5   0  0.1086507E-05  0.2611466E+04  0.7818609E-02  0.8364317E-01
       -2   -1    0    0    0  501  0.00000000000E+00  0.00000000000E+00  0.11940709363E+04  0.11940709363E+04  0.25500000920E-02 0. -1.
        2   -1    0    0  501    0  0.00000000000E+00  0.00000000000E+00 -0.14278365435E+04  0.14278365435E+04  0.25500000920E-02 0.  1.
    10030    2    1    2    0    0  0.00000000000E+00  0.00000000000E+00 -0.23376560723E+03  0.26219074799E+04  0.26114655797E+04 0.  0.
        2    1    3    3  502    0 -0.34304427584E+02 -0.13028004676E+04 -0.19765487959E+03  0.13181552654E+04  0.25500000920E-02 0. -1.
       -2    1    3    3    0  502  0.34304427584E+02  0.13028004676E+04 -0.36110727647E+02  0.13037522145E+04  0.25500000920E-02 0.  1.
</event>
<event>
 5   0  0.4218590E-06  0.2605165E+04  0.7818609E-02  0.8366449E-01
       -1   -1    0    0    0  501  0.00000000000E+00  0.00000000000E+00  0.95662103977E+03  0.95662103978E+03  0.50400001928E-02 0.  1.
        1   -1    0    0  501    0  0.00000000000E+00  0.00000000000E+00 -0.17736601971E+04  0.17736601971E+04  0.50400001928E-02 0. -1.
    10030    2    1    2    0    0  0.00000000000E+00  0.00000000000E+00 -0.81703915729E+03  0.27302812368E+04  0.26051646105E+04 0.  0.
        1    1    3    3  502    0  0.43345319901E+03  0.11919523182E+03  0.87274635007E+03  0.98172061739E+03  0.50400001928E-02 0.  1.
       -1    1    3    3    0  502 -0.43345319901E+03 -0.11919523182E+03 -0.16897855074E+04  0.17485606195E+04  0.50400001928E-02 0. -1.
</event>
<event>
 5   0  0.4415080E-06  0.2593834E+04  0.7818609E-02  0.8370299E-01
        1   -1    0    0  501    0  0.00000000000E+00  0.00000000000E+00  0.12265352464E+04  0.12265352465E+04  0.50400001928E-02 0.  1.
       -1   -1    0    0    0  501  0.00000000000E+00  0.00000000000E+00 -0.13713375921E+04  0.13713375922E+04  0.50400001928E-02 0. -1.
    10030    2    1    2    0    0  0.00000000000E+00  0.00000000000E+00 -0.14480234569E+03  0.25978728386E+04  0.25938341439E+04 0.  0.
        2    1    3    3  502    0  0.29452616543E+03 -0.67517629459E+03  0.99668071917E+03  0.12393470647E+04  0.25500000920E-02 0.  1.
       -2    1    3    3    0  502 -0.29452616543E+03  0.67517629459E+03 -0.11414830649E+04  0.13585257739E+04  0.25500000920E-02 0. -1.
</event>
<event>
 5   0  0.1116310E-05  0.2597788E+04  0.7818609E-02  0.8368953E-01
       -2   -1    0    0    0  501  0.00000000000E+00  0.00000000000E+00  0.11668896915E+04  0.11668896915E+04  0.25500000920E-02 0. -1.
        2   -1    0    0  501    0  0.00000000000E+00  0.00000000000E+00 -0.14458308185E+04  0.14458308185E+04  0.25500000920E-02 0.  1.
    10030    2    1    2    0    0  0.00000000000E+00  0.00000000000E+00 -0.27894112700E+03  0.26127205100E+04  0.25977875801E+04 0.  0.
        4    1    3    3  502    0  0.50674103834E+03  0.10104478649E+04  0.50399782868E+03  0.12376618245E+04  0.12699999809E+01 0. -1.
       -4    1    3    3    0  502 -0.50674103834E+03 -0.10104478649E+04 -0.78293895567E+03  0.13750586856E+04  0.12699999809E+01 0.  1.
</event>
<event>
 5   0  0.1116310E-05  0.2596410E+04  0.7818609E-02  0.8369421E-01
       -2   -1    0    0    0  501  0.00000000000E+00  0.00000000000E+00  0.97335045163E+03  0.97335045163E+03  0.25500000920E-02 0.  1.
        2   -1    0    0  501    0  0.00000000000E+00  0.00000000000E+00 -0.17314800250E+04  0.17314800250E+04  0.25500000920E-02 0. -1.
    10030    2    1    2    0    0  0.00000000000E+00  0.00000000000E+00 -0.75812957339E+03  0.27048304767E+04  0.25964104948E+04 0.  0.
        4    1    3    3  502    0 -0.84736265048E+03 -0.37129185641E+03 -0.13278390312E+04  0.16183445893E+04  0.12699999809E+01 0. -1.
       -4    1    3    3    0  502  0.84736265048E+03  0.37129185641E+03  0.56970945785E+03  0.10864858873E+04  0.12699999809E+01 0.  1.
</event>
<event>
 5   0  0.4464297E-06  0.2646402E+04  0.7818609E-02  0.8352608E-01
        1   -1    0    0  501    0  0.00000000000E+00  0.00000000000E+00  0.17401445648E+04  0.17401445648E+04  0.50400001928E-02 0.  1.
       -1   -1    0    0    0  501  0.00000000000E+00  0.00000000000E+00 -0.10061585214E+04  0.10061585214E+04  0.50400001928E-02 0. -1.
    10030    2    1    2    0    0  0.00000000000E+00  0.00000000000E+00  0.73398604338E+03  0.27463030862E+04  0.26464022992E+04 0.  0.
        4    1    3    3  502    0  0.63410000430E+03 -0.93257082050E+02 -0.83432490475E+03  0.10520833419E+04  0.12699999809E+01 0. -1.
       -4    1    3    3    0  502 -0.63410000430E+03  0.93257082050E+02  0.15683109481E+04  0.16942197442E+04  0.12699999809E+01 0.  1.
</event>
<event>
 5   0  0.4415080E-06  0.2558105E+04  0.7818609E-02  0.8382573E-01
        1   -1    0    0  501    0  0.00000000000E+00  0.00000000000E+00  0.13646135808E+04  0.13646135808E+04  0.50400001928E-02 0. -1.
       -1   -1    0    0    0  501  0.00000000000E+00  0.00000000000E+00 -0.11988565210E+04  0.11988565211E+04  0.50400001928E-02 0.  1.
    10030    2    1    2    0    0  0.00000000000E+00  0.00000000000E+00  0.16575705977E+03  0.25634701019E+04  0.25581054631E+04 0.  0.
        2    1    3    3  502    0  0.69810998265E+03  0.65376100769E+03  0.93390320551E+03  0.13367633300E+04  0.25500000920E-02 0. -1.
       -2    1    3    3    0  502 -0.69810998265E+03 -0.65376100769E+03 -0.76814614574E+03  0.12267067719E+04  0.25500000920E-02 0.  1.
</event>
<event>
 5   0  0.1085255E-05  0.2592582E+04  0.7818609E-02  0.8370725E-01
        2   -1    0    0  501    0  0.00000000000E+00  0.00000000000E+00  0.20166384509E+04  0.20166384509E+04  0.25500000920E-02 0. -1.
       -2   -1    0    0    0  501  0.00000000000E+00  0.00000000000E+00 -0.83325292120E+03  0.83325292120E+03  0.25500000920E-02 0.  1.
    10030    2    1    2    0    0  0.00000000000E+00  0.00000000000E+00  0.11833855297E+04  0.28498913721E+04  0.25925816325E+04 0.  0.
        5    1    3    3  502    0 -0.31169882953E+00  0.12749005766E+04  0.33395190326E+03  0.13179216749E+04  0.46999998093E+01 0.  1.
       -5    1    3    3    0  502  0.31169882953E+00 -0.12749005766E+04  0.84943362647E+03  0.15319696972E+04  0.46999998093E+01 0. -1.
</event>
<event>
 5   0  0.1085255E-05  0.2598239E+04  0.7818609E-02  0.8368800E-01
       -2   -1    0    0    0  501  0.00000000000E+00  0.00000000000E+00  0.90712718822E+03  0.90712718823E+03  0.25500000920E-02 0.  1.
        2   -1    0    0  501    0  0.00000000000E+00  0.00000000000E+00 -0.18605019072E+04  0.18605019073E+04  0.25500000920E-02 0. -1.
    10030    2    1    2    0    0  0.00000000000E+00  0.00000000000E+00 -0.95337471903E+03  0.27676290955E+04  0.25982392991E+04 0.  0.
        5    1    3    3  502    0 -0.11508297947E+03 -0.12772337669E+04 -0.25549708197E+03  0.13076203716E+04  0.46999998093E+01 0. -1.
       -5    1    3    3    0  502  0.11508297947E+03  0.12772337669E+04 -0.69787763706E+03  0.14600087238E+04  0.46999998093E+01 0.  1.
</event>
<event>
 5   0  0.4597705E-06  0.2603531E+04  0.7818609E-02  0.8367003E-01
       -1   -1    0    0    0  501  0.00000000000E+00  0.00000000000E+00  0.15035705463E+04  0.15035705463E+04  0.50400001928E-02 0. -1.
        1   -1    0    0  501    0  0.00000000000E+00  0.00000000000E+00 -0.11270464340E+04  0.11270464340E+04  0.50400001928E-02 0.  1.
    10030    2    1    2    0    0  0.00000000000E+00  0.00000000000E+00  0.37652411227E+03  0.26306169803E+04  0.26035313115E+04 0.  0.
        5    1    3    3  502    0 -0.70853818749E+03  0.61074404808E+02 -0.91340916470E+03  0.11576246534E+04  0.46999998093E+01 0.  1.
       -5    1    3    3    0  502  0.70853818749E+03 -0.61074404808E+02  0.12899332770E+04  0.14729923269E+04  0.46999998093E+01 0. -1.
</event>
<event>
 5   0  0.1086507E-05  0.2550396E+04  0.7818609E-02  0.8385248E-01
        2   -1    0    0  501    0  0.00000000000E+00  0.00000000000E+00  0.22630540292E+04  0.22630540292E+04  0.25500000920E-02 0. -1.
       -2   -1    0    0    0  501  0.00000000000E+00  0.00000000000E+00 -0.71855557400E+03  0.71855557401E+03  0.25500000920E-02 0.  1.
    10030    2    1    2    0    0  0.00000000000E+00  0.00000000000E+00  0.15444984552E+04  0.29816096032E+04  0.25503961159E+04 0.  0.
        2    1    3    3  502    0  0.18265517748E+03  0.13436168118E+03  0.22392961340E+04  0.22507472428E+04  0.25500000920E-02 0. -1.
       -2    1    3    3    0  502 -0.18265517748E+03 -0.13436168118E+03 -0.69479767886E+03  0.73086236035E+03  0.25500000920E-02 0.  1.
</event>
<event>
 5   0  0.4464297E-06  0.2597136E+04  0.7818609E-02  0.8369175E-01
        1   -1    0    0  501    0  0.00000000000E+00  0.00000000000E+00  0.23732632109E+04  0.23732632109E+04  0.50400001928E-02 0.  1.
       -1   -1    0    0    0  501  0.00000000000E+00  0.00000000000E+00 -0.71053153746E+03  0.71053153748E+03  0.50400001928E-02 0. -1.
    10030    2    1    2    0    0  0.00000000000E+00  0.00000000000E+00  0.16627316734E+04  0.30837947484E+04  0.25971356207E+04 0.  0.
        4    1    3    3  502    0  0.17517391271E+03  0.61398060562E+02 -0.69469674404E+03  0.71906939902E+03  0.12699999809E+01 0. -1.
       -4    1    3    3    0  502 -0.17517391271E+03 -0.61398060562E+02  0.23574284175E+04  0.23647253494E+04  0.12699999809E+01 0.  1.
</event>
<event>
 5   0  0.1136881E-05  0.2564565E+04  0.7818609E-02  0.8380338E-01
       -2   -1    0    0    0  501  0.00000000000E+00  0.00000000000E+00  0.16486748845E+04  0.16486748845E+04  0.25500000920E-02 0.  1.
        2   -1    0    0  501    0  0.00000000000E+00  0.00000000000E+00 -0.99731523630E+03  0.99731523631E+03  0.25500000920E-02 0. -1.
    10030    2    1    2    0    0  0.00000000000E+00  0.00000000000E+00  0.65135964817E+03  0.26459901208E+04  0.25645651343E+04 0.  0.
        3    1    3    3  502    0 -0.93176504285E+03 -0.33280269891E+03 -0.51587967458E+03  0.11158295481E+04  0.10100000352E+00 0. -1.
       -3    1    3    3    0  502  0.93176504285E+03  0.33280269891E+03  0.11672393228E+04  0.15301605727E+04  0.10100000352E+00 0.  1.
</event>
<event>
 5   0  0.3705250E-06  0.2592495E+04  0.7818609E-02  0.8370755E-01
        4   -1    0    0  501    0  0.00000000000E+00  0.00000000000E+00  0.13362441608E+04  0.13362447644E+04  0.12699999809E+01 0. -1.
       -4   -1    0    0    0  501  0.00000000000E+00  0.00000000000E+00 -0.12574472666E+04  0.12574479079E+04  0.12699999809E+01 0.  1.
    10030    2    1    2    0    0  0.00000000000E+00  0.00000000000E+00  0.78796894253E+02  0.25936926723E+04  0.25924954634E+04 0.  0.
        5    1    3    3  502    0  0.50373234939E+03 -0.80415497896E+03 -0.84408612596E+03  0.12700059008E+04  0.46999998093E+01 0.  1.
       -5    1    3    3    0  502 -0.50373234939E+03  0.80415497896E+03  0.92288302021E+03  0.13236867715E+04  0.46999998093E+01 0. -1.
</event>
<event>
 5   0  0.1086507E-05  0.2560625E+04  0.7818609E-02  0.8381700E-01
        2   -1    0    0  501    0  0.00000000000E+00  0.00000000000E+00  0.13181158660E+04  0.13181158660E+04  0.25500000920E-02 0. -1.
       -2   -1    0    0    0  501  0.00000000000E+00  0.00000000000E+00 -0.12435928601E+04  0.12435928601E+04  0.25500000920E-02 0.  1.
    10030    2    1    2    0    0  0.00000000000E+00  0.00000000000E+00  0.74523005891E+02  0.25617087261E+04  0.25606245174E+04 0.  0.
        2    1    3    3  502    0 -0.17470305681E+03  0.25372098129E+03  0.12804879616E+04  0.13170212277E+04  0.25500000920E-02 0. -1.
       -2    1    3    3    0  502  0.17470305681E+03 -0.25372098129E+03 -0.12059649557E+04  0.12446874984E+04  0.25500000920E-02 0.  1.
</event>
<event>
 5   0  0.4361864E-06  0.2596195E+04  0.7818609E-02  0.8369495E-01
       -1   -1    0    0    0  501  0.00000000000E+00  0.00000000000E+00  0.15956077434E+04  0.15956077434E+04  0.50400001928E-02 0.  1.
        1   -1    0    0  501    0  0.00000000000E+00  0.00000000000E+00 -0.10560597444E+04  0.10560597444E+04  0.50400001928E-02 0. -1.
    10030    2    1    2    0    0  0.00000000000E+00  0.00000000000E+00  0.53954799908E+03  0.26516674878E+04  0.25961949893E+04 0.  0.
        3    1    3    3  502    0 -0.87851355086E+03  0.82490630781E+03 -0.22302954449E+03  0.12255605508E+04  0.10100000352E+00 0. -1.
       -3    1    3    3    0  502  0.87851355086E+03 -0.82490630781E+03  0.76257754357E+03  0.14261069370E+04  0.10100000352E+00 0.  1.
</event>
<event>
 5   0  0.1086507E-05  0.2602929E+04  0.7818609E-02  0.8367207E-01
        2   -1    0    0  501    0  0.00000000000E+00  0.00000000000E+00  0.29956725058E+04  0.29956725058E+04  0.25500000920E-02 0.  1.
       -2   -1    0    0    0  501  0.00000000000E+00  0.00000000000E+00 -0.56541880451E+03  0.56541880452E+03  0.25500000920E-02 0. -1.
    10030    2    1    2    0    0  0.00000000000E+00  0.00000000000E+00  0.24302537013E+04  0.35610913103E+04  0.26029287866E+04 0.  0.
        2    1    3    3  502    0  0.49688500043E+03 -0.10826126870E+03  0.28541163942E+04  0.28990680567E+04  0.25500000920E-02 0.  1.
       -2    1    3    3    0  502 -0.49688500043E+03  0.10826126870E+03 -0.42386269286E+03  0.66202325363E+03  0.25500000920E-02 0. -1.
</event>
<event>
 5   0  0.4597705E-06  0.2484735E+04  0.7818609E-02  0.8408444E-01
       -1   -1    0    0    0  501  0.00000000000E+00  0.00000000000E+00  0.75755787634E+03  0.75755787636E+03  0.50400001928E-02 0.  1.
        1   -1    0    0  501    0  0.00000000000E+00  0.00000000000E+00 -0.20374372802E+04  0.20374372802E+04  0.50400001928E-02 0. -1.
    10030    2    1    2    0    0  0.00000000000E+00  0.00000000000E+00 -0.12798794038E+04  0.27949951565E+04  0.24847347216E+04 0.  0.
        5    1    3    3  502    0  0.27667325054E+03  0.10248342279E+03  0.71756676478E+03  0.77587053780E+03  0.46999998093E+01 0.  1.
       -5    1    3    3    0  502 -0.27667325054E+03 -0.10248342279E+03 -0.19974461686E+04  0.20191246187E+04  0.46999998093E+01 0. -1.
</event>
<event>
 5   0  0.4464297E-06  0.2543104E+04  0.7818609E-02  0.8387788E-01
       -1   -1    0    0    0  501  0.00000000000E+00  0.00000000000E+00  0.83332438926E+03  0.83332438927E+03  0.50400001928E-02 0.  1.
        1   -1    0    0  501    0  0.00000000000E+00  0.00000000000E+00 -0.19402348941E+04  0.19402348941E+04  0.50400001928E-02 0. -1.
    10030    2    1    2    0    0  0.00000000000E+00  0.00000000000E+00 -0.11069105049E+04  0.27735592834E+04  0.25431044479E+04 0.  0.
        4    1    3    3  502    0  0.60956736957E+02 -0.10404655603E+04 -0.13478569357E+04  0.17038204829E+04  0.12699999809E+01 0. -1.
       -4    1    3    3    0  502 -0.60956736957E+02  0.10404655603E+04  0.24094643082E+03  0.10697388005E+04  0.12699999809E+01 0.  1.
</event>
<event>
 5   0  0.1136881E-05  0.2595821E+04  0.7818609E-02  0.8369622E-01
        2   -1    0    0  501    0  0.00000000000E+00  0.00000000000E+00  0.25671006123E+04  0.25671006123E+04  0.25500000920E-02 0. -1.
       -2   -1    0    0    0  501  0.00000000000E+00  0.00000000000E+00 -0.65621564795E+03  0.65621564795E+03  0.25500000920E-02 0.  1.
    10030    2    1    2    0    0  0.00000000000E+00  0.00000000000E+00  0.19108849644E+04  0.32233162603E+04  0.25958209427E+04 0.  0.
        3    1    3    3  502    0 -0.29423305385E+03 -0.96438923225E+03 -0.59405007817E+02  0.10100240821E+04  0.10100000352E+00 0.  1.
       -3    1    3    3    0  502  0.29423305385E+03  0.96438923225E+03  0.19702899722E+04  0.22132921782E+04  0.10100000352E+00 0. -1.
</event>
<event>
 5   0  0.4361864E-06  0.2602016E+04  0.7818609E-02  0.8367517E-01
        1   -1    0    0  501    0  0.00000000000E+00  0.00000000000E+00  0.18550092386E+04  0.18550092386E+04  0.50400001928E-02 0. -1.
       -1   -1    0    0    0  501  0.00000000000E+00  0.00000000000E+00 -0.91245978681E+03  0.91245978683E+03  0.50400001928E-02 0.  1.
    10030    2    1    2    0    0  0.00000000000E+00  0.00000000000E+00  0.94254945179E+03  0.27674690254E+04  0.26020156298E+04 0.  0.
        3    1    3    3  502    0 -0.42836654723E+03 -0.70639754521E+03  0.15402326928E+04  0.17478020909E+04  0.10100000352E+00 0. -1.
       -3    1    3    3    0  502  0.42836654723E+03  0.70639754521E+03 -0.59768324101E+03  0.10196669346E+04  0.10100000352E+00 0.  1.
</event>
<event>
 5   0  0.4415080E-06  0.2604494E+04  0.7818609E-02  0.8366676E-01
       -1   -1    0    0    0  501  0.00000000000E+00  0.00000000000E+00  0.11693135144E+04  0.11693135144E+04  0.50400001928E-02 0.  1.
        1   -1    0    0  501    0  0.00000000000E+00  0.00000000000E+00 -0.14502926669E+04  0.14502926669E+04  0.50400001928E-02 0. -1.
    10030    2    1    2    0    0  0.00000000000E+00  0.00000000000E+00 -0.28097915250E+03  0.26196061814E+04  0.26044936670E+04 0.  0.
        2    1    3    3  502    0  0.27995040506E+03  0.23699385466E+03  0.11162840626E+04  0.11750014574E+04  0.25500000920E-02 0.  1.
       -2    1    3    3    0  502 -0.27995040506E+03 -0.23699385466E+03 -0.13972632151E+04  0.14446047240E+04  0.25500000920E-02 0. -1.
</event>
<event>
 5   0  0.4415080E-06  0.2603354E+04  0.7818609E-02  0.8367063E-01
       -1   -1    0    0    0  501  0.00000000000E+00  0.00000000000E+00  0.11473043329E+04  0.11473043329E+04  0.50400001928E-02 0.  1.
        1   -1    0    0  501    0  0.00000000000E+00  0.00000000000E+00 -0.14768207342E+04  0.14768207342E+04  0.50400001928E-02 0. -1.
    10030    2    1    2    0    0  0.00000000000E+00  0.00000000000E+00 -0.32951640130E+03  0.26241250671E+04  0.26033538578E+04 0.  0.
        2    1    3    3  502    0 -0.42123678981E+03 -0.71970077173E+03  0.84269271644E+03  0.11855549959E+04  0.25500000920E-02 0.  1.
       -2    1    3    3    0  502  0.42123678981E+03  0.71970077173E+03 -0.11722091177E+04  0.14385700712E+04  0.25500000920E-02 0. -1.
</event>
<event>
 5   0  0.1116310E-05  0.2603326E+04  0.7818609E-02  0.8367072E-01
        2   -1    0    0  501    0  0.00000000000E+00  0.00000000000E+00  0.20430555333E+04  0.20430555333E+04  0.25500000920E-02 0.  1.
       -2   -1    0    0    0  501  0.00000000000E+00  0.00000000000E+00 -0.82931000913E+03  0.82931000913E+03  0.25500000920E-02 0. -1.
    10030    2    1    2    0    0  0.00000000000E+00  0.00000000000E+00  0.12137455242E+04  0.28723655424E+04  0.26033258751E+04 0.  0.
        4    1    3    3  502    0  0.67250501046E+03  0.10934299538E+04  0.84472667426E+03  0.15366902161E+04  0.12699999809E+01 0.  1.
       -4    1    3    3    0  502 -0.67250501046E+03 -0.10934299538E+04  0.36901884993E+03  0.13356753264E+04  0.12699999809E+01 0. -1.
</event>
<event>
 5   0  0.4218590E-06  0.2823884E+04  0.7818609E-02  0.8295891E-01
        1   -1    0    0  501    0  0.00000000000E+00  0.00000000000E+00  0.25681367041E+04  0.25681367041E+04  0.50400001928E-02 0.  1.
       -1   -1    0    0    0  501  0.00000000000E+00  0.00000000000E+00 -0.77627507247E+03  0.77627507249E+03  0.50400001928E-02 0. -1.
    10030    2    1    2    0    0  0.00000000000E+00  0.00000000000E+00  0.17918616316E+04  0.33444117766E+04  0.28238842088E+04 0.  0.
        1    1    3    3  502    0  0.13478034680E+04 -0.41513432803E+03  0.81499842950E+03  0.16288441113E+04  0.50400001928E-02 0. -1.
       -1    1    3    3    0  502 -0.13478034680E+04  0.41513432803E+03  0.97686320213E+03  0.17155676653E+04  0.50400001928E-02 0.  1.
</event>
<event>
 5   0  0.4218590E-06  0.2600861E+04  0.7818609E-02  0.8367909E-01
        1   -1    0    0  501    0  0.00000000000E+00  0.00000000000E+00  0.12697618212E+04  0.12697618212E+04  0.50400001928E-02 0.  1.
       -1   -1    0    0    0  501  0.00000000000E+00  0.00000000000E+00 -0.13318399163E+04  0.13318399163E+04  0.50400001928E-02 0. -1.
    10030    2    1    2    0    0  0.00000000000E+00  0.00000000000E+00 -0.62078095115E+02  0.26016017375E+04  0.26008609941E+04 0.  0.
        1    1    3    3  502    0  0.74061821412E+03  0.44031511733E+03 -0.10053425018E+04  0.13240492013E+04  0.50400001928E-02 0. -1.
       -1    1    3    3    0  502 -0.74061821412E+03 -0.44031511733E+03  0.94326440668E+03  0.12775525361E+04  0.50400001928E-02 0.  1.
</event>
<event>
 5   0  0.1085255E-05  0.2330607E+04  0.7818609E-02  0.8465950E-01
        2   -1    0    0  501    0  0.00000000000E+00  0.00000000000E+00  0.20666158303E+04  0.20666158303E+04  0.25500000920E-02 0.  1.
       -2   -1    0    0    0  501  0.00000000000E+00  0.00000000000E+00 -0.65708029525E+03  0.65708029525E+03  0.25500000920E-02 0. -1.
    10030    2    1    2    0    0  0.00000000000E+00  0.00000000000E+00  0.14095355351E+04  0.27236961256E+04  0.23306072513E+04 0.  0.
        5    1    3    3  502    0  0.31295419211E+03  0.69979564407E+03 -0.32090105756E+03  0.83105586368E+03  0.46999998093E+01 0. -1.
       -5    1    3    3    0  502 -0.31295419211E+03 -0.69979564407E+03  0.17304365926E+04  0.18926402619E+04  0.46999998093E+01 0.  1.
</event>
<event>
 5   0  0.1085061E-05  0.2580402E+04  0.7818609E-02  0.8374889E-01
        2   -1    0    0  501    0  0.00000000000E+00  0.00000000000E+00  0.19586126279E+04  0.19586126279E+04  0.25500000920E-02 0.  1.
       -2   -1    0    0    0  501  0.00000000000E+00  0.00000000000E+00 -0.84989654340E+03  0.84989654340E+03  0.25500000920E-02 0. -1.
    10030    2    1    2    0    0  0.00000000000E+00  0.00000000000E+00  0.11087160845E+04  0.28085091713E+04  0.25804015984E+04 0.  0.
        1    1    3    3  502    0  0.74481284973E+03 -0.40546758940E+03 -0.50394964586E+03  0.98646611334E+03  0.50400001928E-02 0. -1.
       -1    1    3    3    0  502 -0.74481284973E+03  0.40546758940E+03  0.16126657304E+04  0.18220430580E+04  0.50400001928E-02 0.  1.
</event>
<event>
 5   0  0.1085061E-05  0.2607858E+04  0.7818609E-02  0.8365537E-01
        2   -1    0    0  501    0  0.00000000000E+00  0.00000000000E+00  0.17274183453E+04  0.17274183453E+04  0.25500000920E-02 0.  1.
       -2   -1    0    0    0  501  0.00000000000E+00  0.00000000000E+00 -0.98426095114E+03  0.98426095115E+03  0.25500000920E-02 0. -1.
    10030    2    1    2    0    0  0.00000000000E+00  0.00000000000E+00  0.74315739417E+03  0.27116792965E+04  0.26078576829E+04 0.  0.
        1    1    3    3  502    0 -0.74425044644E+03  0.39321581799E+03 -0.66390974401E+03  0.10720557610E+04  0.50400001928E-02 0.  1.
       -1    1    3    3    0  502  0.74425044644E+03 -0.39321581799E+03  0.14070671382E+04  0.16396235354E+04  0.50400001928E-02 0. -1.
</event>
<event>
 5   0  0.4361864E-06  0.2599456E+04  0.7818609E-02  0.8368386E-01
       -1   -1    0    0    0  501  0.00000000000E+00  0.00000000000E+00  0.12375958210E+04  0.12375958210E+04  0.50400001928E-02 0. -1.
        1   -1    0    0  501    0  0.00000000000E+00  0.00000000000E+00 -0.13649796469E+04  0.13649796469E+04  0.50400001928E-02 0.  1.
    10030    2    1    2    0    0  0.00000000000E+00  0.00000000000E+00 -0.12738382596E+03  0.26025754679E+04  0.25994561791E+04 0.  0.
        3    1    3    3  502    0 -0.68716016548E+03  0.44748951969E+03 -0.10732953048E+04  0.13507030705E+04  0.10100000352E+00 0.  1.
       -3    1    3    3    0  502  0.68716016548E+03 -0.44748951969E+03  0.94591147884E+03  0.12518723974E+04  0.10100000352E+00 0. -1.
</event>
<event>
 5   0  0.1085255E-05  0.2600007E+04  0.7818609E-02  0.8368199E-01
       -2   -1    0    0    0  501  0.00000000000E+00  0.00000000000E+00  0.81402831238E+03  0.81402831239E+03  0.25500000920E-02 0.  1.
        2   -1    0    0  501    0  0.00000000000E+00  0.00000000000E+00 -0.20761056039E+04  0.20761056039E+04  0.25500000920E-02 0. -1.
    10030    2    1    2    0    0  0.00000000000E+00  0.00000000000E+00 -0.12620772916E+04  0.28901339163E+04  0.26000067239E+04 0.  0.
        5    1    3    3  502    0  0.56535919034E+03  0.10117432385E+04 -0.12855843729E+04  0.17308970693E+04  0.46999998093E+01 0. -1.
       -5    1    3    3    0  502 -0.56535919034E+03 -0.10117432385E+04  0.23507081315E+02  0.11592368470E+04  0.46999998093E+01 0.  1.
</event>
<event>
 5   0  0.1086507E-05  0.2594695E+04  0.7818609E-02  0.8370005E-01
       -2   -1    0    0    0  501  0.00000000000E+00  0.00000000000E+00  0.91637349720E+03  0.91637349720E+03  0.25500000920E-02 0. -1.
        2   -1    0    0  501    0  0.00000000000E+00  0.00000000000E+00 -0.18367079366E+04  0.18367079366E+04  0.25500000920E-02 0.  1.
    10030    2    1    2    0    0  0.00000000000E+00  0.00000000000E+00 -0.92033443943E+03  0.27530814338E+04  0.25946949533E+04 0.  0.
        2    1    3    3  502    0  0.12518933528E+03  0.18780346066E+03  0.89538163813E+03  0.92339091798E+03  0.25500000920E-02 0. -1.
       -2    1    3    3    0  502 -0.12518933528E+03 -0.18780346066E+03 -0.18157160776E+04  0.18296905159E+04  0.25500000920E-02 0.  1.
</event>
<event>
 5   0  0.4597705E-06  0.2607868E+04  0.7818609E-02  0.8365533E-01
        1   -1    0    0  501    0  0.00000000000E+00  0.00000000000E+00  0.25043735815E+04  0.25043735815E+04  0.50400001928E-02 0.  1.
       -1   -1    0    0    0  501  0.00000000000E+00  0.00000000000E+00 -0.67891004728E+03  0.67891004730E+03  0.50400001928E-02 0. -1.
    10030    2    1    2    0    0  0.00000000000E+00  0.00000000000E+00  0.18254635342E+04  0.31832836288E+04  0.26078683914E+04 0.  0.
        5    1    3    3  502    0  0.37356363789E+03 -0.65926394608E+03 -0.38255896979E+03  0.84885346057E+03  0.46999998093E+01 0. -1.
       -5    1    3    3    0  502 -0.37356363789E+03  0.65926394608E+03  0.22080225040E+04  0.23344301682E+04  0.46999998093E+01 0.  1.
</event>
<event>
 5   0  0.1085061E-05  0.2636178E+04  0.7818609E-02  0.8356015E-01
        2   -1    0    0  501    0  0.00000000000E+00  0.00000000000E+00  0.20792992493E+04  0.20792992493E+04  0.25500000920E-02 0.  1.
       -2   -1    0    0    0  501  0.00000000000E+00  0.00000000000E+00 -0.83555035518E+03  0.83555035518E+03  0.25500000920E-02 0. -1.
    10030    2    1    2    0    0  0.00000000000E+00  0.00000000000E+00  0.12437488941E+04  0.29148496045E+04  0.26361784661E+04 0.  0.
        1    1    3    3  502    0  0.12993308951E+04 -0.17538673468E+03  0.77160715200E+03  0.15213148520E+04  0.50400001928E-02 0.  1.
       -1    1    3    3    0  502 -0.12993308951E+04  0.17538673468E+03  0.47214174211E+03  0.13935347525E+04  0.50400001928E-02 0. -1.
</event>
<event>
 5   0  0.1116310E-05  0.2606007E+04  0.7818609E-02  0.8366164E-01
       -2   -1    0    0    0  501  0.00000000000E+00  0.00000000000E+00  0.70199218919E+03  0.70199218920E+03  0.25500000920E-02 0.  1.
        2   -1    0    0  501    0  0.00000000000E+00  0.00000000000E+00 -0.24185708047E+04  0.24185708047E+04  0.25500000920E-02 0. -1.
    10030    2    1    2    0    0  0.00000000000E+00  0.00000000000E+00 -0.17165786155E+04  0.31205629939E+04  0.26060067643E+04 0.  0.
        4    1    3    3  502    0  0.51502993879E+03  0.27516876380E+03 -0.22531220610E+04  0.23275597352E+04  0.12699999809E+01 0. -1.
       -4    1    3    3    0  502 -0.51502993879E+03 -0.27516876380E+03  0.53654344550E+03  0.79300325865E+03  0.12699999809E+01 0.  1.
</event>
<event>
 5   0  0.1085061E-05  0.2602280E+04  0.7818609E-02  0.8367427E-01
        2   -1    0    0  501    0  0.00000000000E+00  0.00000000000E+00  0.21221456693E+04  0.21221456693E+04  0.25500000920E-02 0. -1.
       -2   -1    0    0    0  501  0.00000000000E+00  0.00000000000E+00 -0.79776113434E+03  0.79776113434E+03  0.25500000920E-02 0.  1.
    10030    2    1    2    0    0  0.00000000000E+00  0.00000000000E+00  0.13243845350E+04  0.29199068037E+04  0.26022800283E+04 0.  0.
        1    1    3    3  502    0  0.13127522624E+03 -0.30988234601E+03  0.20724645461E+04  0.20996117613E+04  0.50400001928E-02 0. -1.
       -1    1    3    3    0  502 -0.13127522624E+03  0.30988234601E+03 -0.74808001113E+03  0.82029504233E+03  0.50400001928E-02 0.  1.
</event>
<event>
 5   0  0.1086507E-05  0.2710316E+04  0.7818609E-02  0.8331666E-01
        2   -1    0    0  501    0  0.00000000000E+00  0.00000000000E+00  0.15411232178E+04  0.15411232178E+04  0.25500000920E-02 0.  1.
       -2   -1    0    0    0  501  0.00000000000E+00  0.00000000000E+00 -0.11916328145E+04  0.11916328145E+04  0.25500000920E-02 0. -1.
    10030    2    1    2    0    0  0.00000000000E+00  0.00000000000E+00  0.34949040330E+03  0.27327560322E+04  0.27103158468E+04 0.  0.
        2    1    3    3  502    0  0.10471650803E+04  0.71265402753E+03  0.66042052214E+03  0.14284907190E+04  0.25500000920E-02 0.  1.
       -2    1    3    3    0  502 -0.10471650803E+04 -0.71265402753E+03 -0.31093011884E+03  0.13042653132E+04  0.25500000920E-02 0. -1.
</event>
<event>
 5   0  0.4415080E-06  0.2560926E+04  0.7818609E-02  0.8381596E-01
        1   -1    0    0  501    0  0.00000000000E+00  0.00000000000E+00  0.21115528166E+04  0.21115528166E+04  0.50400001928E-02 0.  1.
       -1   -1    0    0    0  501  0.00000000000E+00  0.00000000000E+00 -0.77648317572E+03  0.77648317573E+03  0.50400001928E-02 0. -1.
    10030    2    1    2    0    0  0.00000000000E+00  0.00000000000E+00  0.13350696409E+04  0.28880359924E+04  0.25609257988E+04 0.  0.
        2    1    3    3  502    0  0.93112889086E+02 -0.61135199500E+03 -0.59691490976E+03  0.85949327013E+03  0.25500000920E-02 0. -1.
       -2    1    3    3    0  502 -0.93112889086E+02  0.61135199500E+03  0.19319845507E+04  0.20285427222E+04  0.25500000920E-02 0.  1.
</event>
<event>
 5   0  0.4415080E-06  0.2602489E+04  0.7818609E-02  0.8367356E-01
        1   -1    0    0  501    0  0.00000000000E+00  0.00000000000E+00  0.10584202016E+04  0.10584202016E+04  0.50400001928E-02 0.  1.
       -1   -1    0    0    0  501  0.00000000000E+00  0.00000000000E+00 -0.15997782578E+04  0.15997782578E+04  0.50400001928E-02 0. -1.
    10030    2    1    2    0    0  0.00000000000E+00  0.00000000000E+00 -0.54135805617E+03  0.26581984595E+04  0.26024892901E+04 0.  0.
        2    1    3    3  502    0 -0.29747076972E+03 -0.78971070227E+03  0.74103172708E+03  0.11230582677E+04  0.25500000920E-02 0. -1.
       -2    1    3    3    0  502  0.29747076972E+03  0.78971070227E+03 -0.12823897832E+04  0.15351401917E+04  0.25500000920E-02 0.  1.
</event>
<event>
 5   0  0.1085061E-05  0.2532663E+04  0.7818609E-02  0.8391441E-01
        2   -1    0    0  501    0  0.00000000000E+00  0.00000000000E+00  0.16086561369E+04  0.16086561369E+04  0.25500000920E-02 0.  1.
       -2   -1    0    0    0  501  0.00000000000E+00  0.00000000000E+00 -0.99685409680E+03  0.99685409680E+03  0.25500000920E-02 0. -1.
    10030    2    1    2    0    0  0.00000000000E+00  0.00000000000E+00  0.61180204009E+03  0.26055102337E+04  0.25326629941E+04 0.  0.
        1    1    3    3  502    0  0.11728789460E+04  0.45782954113E+03  0.16657082977E+03  0.12700388782E+04  0.50400001928E-02 0. -1.
       -1    1    3    3    0  502 -0.11728789460E+04 -0.45782954113E+03  0.44523121032E+03  0.13354713555E+04  0.50400001928E-02 0.  1.
</event>
<event>
 5   0  0.4218590E-06  0.2598957E+04  0.7818609E-02  0.8368555E-01
        1   -1    0    0  501    0  0.00000000000E+00  0.00000000000E+00  0.18971432545E+04  0.18971432545E+04  0.50400001928E-02 0.  1.
       -1   -1    0    0    0  501  0.00000000000E+00  0.00000000000E+00 -0.89009865009E+03  0.89009865011E+03  0.50400001928E-02 0. -1.
    10030    2    1    2    0    0  0.00000000000E+00  0.00000000000E+00  0.10070446044E+04  0.27872419046E+04  0.25989572138E+04 0.  0.
        1    1    3    3  502    0  0.76682760601E+03 -0.98632836664E+03  0.12016750655E+03  0.12551129247E+04  0.50400001928E-02 0. -1.
       -1    1    3    3    0  502 -0.76682760601E+03  0.98632836664E+03  0.88687709781E+03  0.15321289798E+04  0.50400001928E-02 0.  1.
</event>
<event>
 5   0  0.4597705E-06  0.2608602E+04  0.7818609E-02  0.8365285E-01
        1   -1    0    0  501    0  0.00000000000E+00  0.00000000000E+00  0.20141668842E+04  0.20141668842E+04  0.50400001928E-02 0. -1.
       -1   -1    0    0    0  501  0.00000000000E+00  0.00000000000E+00 -0.84461786761E+03  0.84461786763E+03  0.50400001928E-02 0.  1.
    10030    2    1    2    0    0  0.00000000000E+00  0.00000000000E+00  0.11695490165E+04  0.28587847518E+04  0.26086021841E+04 0.  0.
        5    1    3    3  502    0 -0.18172615127E+03  0.12700805261E+04  0.84190494949E+03  0.15345862540E+04  0.46999998093E+01 0.  1.
       -5    1    3    3    0  502  0.18172615127E+03 -0.12700805261E+04  0.32764406706E+03  0.13241984978E+04  0.46999998093E+01 0. -1.
</event>
<event>
 5   0  0.1085061E-05  0.2564268E+04  0.7818609E-02  0.8380441E-01
        2   -1    0    0  501    0  0.00000000000E+00  0.00000000000E+00  0.23598851762E+04  0.23598851762E+04  0.25500000920E-02 0.  1.
       -2   -1    0    0    0  501  0.00000000000E+00  0.00000000000E+00 -0.69658800500E+03  0.69658800500E+03  0.25500000920E-02 0. -1.
    10030    2    1    2    0    0  0.00000000000E+00  0.00000000000E+00  0.16632971712E+04  0.30564731812E+04  0.25642680881E+04 0.  0.
        1    1    3    3  502    0 -0.49378913101E+03 -0.83900983326E+03  0.18261233310E+04  0.20694181855E+04  0.50400001928E-02 0.  1.
       -1    1    3    3    0  502  0.49378913101E+03  0.83900983326E+03 -0.16282615985E+03  0.98705499571E+03  0.50400001928E-02 0. -1.
</event>
<event>
 5   0  0.4464297E-06  0.2589367E+04  0.7818609E-02  0.8371822E-01
        1   -1    0    0  501    0  0.00000000000E+00  0.00000000000E+00  0.20319750572E+04  0.20319750572E+04  0.50400001928E-02 0. -1.
       -1   -1    0    0    0  501  0.00000000000E+00  0.00000000000E+00 -0.82491403300E+03  0.82491403302E+03  0.50400001928E-02 0.  1.
    10030    2    1    2    0    0  0.00000000000E+00  0.00000000000E+00  0.12070610242E+04  0.28568890902E+04  0.25893665167E+04 0.  0.
        4    1    3    3  502    0  0.88357546547E+03 -0.85731182111E+03  0.10455651110E+04  0.16152080906E+04  0.12699999809E+01 0. -1.
       -4    1    3    3    0  502 -0.88357546547E+03  0.85731182111E+03  0.16149591315E+03  0.12416809996E+04  0.12699999809E+01 0.  1.
</event>
<event>
 5   0  0.1086507E-05  0.2713639E+04  0.7818609E-02  0.8330593E-01
       -2   -1    0    0    0  501  0.00000000000E+00  0.00000000000E+00  0.94822143078E+03  0.94822143078E+03  0.25500000920E-02 0.  1.
        2   -1    0    0  501    0  0.00000000000E+00  0.00000000000E+00 -0.19414865384E+04  0.19414865384E+04  0.25500000920E-02 0. -1.
    10030    2    1    2    0    0  0.00000000000E+00  0.00000000000E+00 -0.99326510764E+03  0.28897079692E+04  0.27136389910E+04 0.  0.
        2    1    3    3  502    0  0.59330868677E+03  0.10059288012E+03  0.79833915173E+03  0.99973972939E+03  0.25500000920E-02 0.  1.
       -2    1    3    3    0  502 -0.59330868677E+03 -0.10059288012E+03 -0.17916042594E+04  0.18899682398E+04  0.25500000920E-02 0. -1.
</event>
<event>
 5   0  0.4218590E-06  0.2587513E+04  0.7818609E-02  0.8372455E-01
       -1   -1    0    0    0  501  0.00000000000E+00  0.00000000000E+00  0.17784511352E+04  0.17784511352E+04  0.50400001928E-02 0.  1.
        1   -1    0    0  501    0  0.00000000000E+00  0.00000000000E+00 -0.94115932700E+03  0.94115932701E+03  0.50400001928E-02 0. -1.
    10030    2    1    2    0    0  0.00000000000E+00  0.00000000000E+00  0.83729180820E+03  0.27196104622E+04  0.25875129940E+04 0.  0.
        1    1    3    3  502    0  0.32046275246E+03 -0.12386080567E+03  0.17296274574E+04  0.17634196937E+04  0.50400001928E-02 0.  1.
       -1    1    3    3    0  502 -0.32046275246E+03  0.12386080567E+03 -0.89233564918E+03  0.95619076848E+03  0.50400001928E-02 0. -1.
</event>
<event>
 5   0  0.4218590E-06  0.2546440E+04  0.7818609E-02  0.8386625E-01
       -1   -1    0    0    0  501  0.00000000000E+00  0.00000000000E+00  0.12374054437E+04  0.12374054437E+04  0.50400001928E-02 0.  1.
        1   -1    0    0  501    0  0.00000000000E+00  0.00000000000E+00 -0.13100707508E+04  0.13100707508E+04  0.50400001928E-02 0. -1.
    10030    2    1    2    0    0  0.00000000000E+00  0.00000000000E+00 -0.72665307037E+02  0.25474761945E+04  0.25464396154E+04 0.  0.
        1    1    3    3  502    0 -0.34052873387E+03  0.61671090503E+03 -0.10973286233E+04  0.13040024028E+04  0.50400001928E-02 0. -1.
       -1    1    3    3    0  502  0.34052873387E+03 -0.61671090503E+03  0.10246633162E+04  0.12434737917E+04  0.50400001928E-02 0.  1.
</event>
<event>
 5   0  0.1085255E-05  0.2598333E+04  0.7818609E-02  0.8368768E-01
        2   -1    0    0  501    0  0.00000000000E+00  0.00000000000E+00  0.15537613989E+04  0.15537613989E+04  0.25500000920E-02 0.  1.
       -2   -1    0    0    0  501  0.00000000000E+00  0.00000000000E+00 -0.10862884723E+04  0.10862884723E+04  0.25500000920E-02 0. -1.
    10030    2    1    2    0    0  0.00000000000E+00  0.00000000000E+00  0.46747292655E+03  0.26400498712E+04  0.25983326164E+04 0.  0.
        5    1    3    3  502    0 -0.11127087111E+04  0.17523381734E+03  0.89141824971E+03  0.14364804741E+04  0.46999998093E+01 0.  1.
       -5    1    3    3    0  502  0.11127087111E+04 -0.17523381734E+03 -0.42394532316E+03  0.12035693971E+04  0.46999998093E+01 0. -1.
</event>
<event>
 5   0  0.4361864E-06  0.2557246E+04  0.7818609E-02  0.8382871E-01
        1   -1    0    0  501    0  0.00000000000E+00  0.00000000000E+00  0.20397001598E+04  0.20397001598E+04  0.50400001928E-02 0. -1.
       -1   -1    0    0    0  501  0.00000000000E+00  0.00000000000E+00 -0.80152772279E+03  0.80152772281E+03  0.50400001928E-02 0.  1.
    10030    2    1    2    0    0  0.00000000000E+00  0.00000000000E+00  0.12381724370E+04  0.28412278826E+04  0.25572455684E+04 0.  0.
        3    1    3    3  502    0 -0.48391333719E+03  0.99621681537E+03 -0.90818401840E+02  0.11112461714E+04  0.10100000352E+00 0.  1.
       -3    1    3    3    0  502  0.48391333719E+03 -0.99621681537E+03  0.13289908388E+04  0.17299817112E+04  0.10100000352E+00 0. -1.
</event>
<event>
 5   0  0.4361864E-06  0.2542019E+04  0.7818609E-02  0.8388167E-01
        1   -1    0    0  501    0  0.00000000000E+00  0.00000000000E+00  0.18421586017E+04  0.18421586017E+04  0.50400001928E-02 0. -1.
       -1   -1    0    0    0  501  0.00000000000E+00  0.00000000000E+00 -0.87694159149E+03  0.87694159151E+03  0.50400001928E-02 0.  1.
    10030    2    1    2    0    0  0.00000000000E+00  0.00000000000E+00  0.96521701024E+03  0.27191001932E+04  0.25420192729E+04 0.  0.
        3    1    3    3  502    0  0.11982062870E+04 -0.21016093812E+03  0.88718000491E+02  0.12197281746E+04  0.10100000352E+00 0.  1.
       -3    1    3    3    0  502 -0.11982062870E+04  0.21016093812E+03  0.87649900974E+03  0.14993720187E+04  0.10100000352E+00 0. -1.
</event>
<event>
 5   0  0.1086507E-05  0.2585146E+04  0.7818609E-02  0.8373264E-01
       -2   -1    0    0    0  501  0.00000000000E+00  0.00000000000E+00  0.77794546660E+03  0.77794546660E+03  0.25500000920E-02 0. -1.
        2   -1    0    0  501    0  0.00000000000E+00  0.00000000000E+00 -0.21476372748E+04  0.21476372748E+04  0.25500000920E-02 0.  1.
    10030    2    1    2    0    0  0.00000000000E+00  0.00000000000E+00 -0.13696918082E+04  0.29255827414E+04  0.25851457845E+04 0.  0.
        2    1    3    3  502    0 -0.11685110866E+04 -0.26751650442E+02 -0.13094431223E+04  0.17552136909E+04  0.25500000920E-02 0.  1.
       -2    1    3    3    0  502  0.11685110866E+04  0.26751650442E+02 -0.60248685918E+02  0.11703690505E+04  0.25500000920E-02 0. -1.
</event>
<event>
 5   0  0.1116310E-05  0.2605453E+04  0.7818609E-02  0.8366351E-01
        2   -1    0    0  501    0  0.00000000000E+00  0.00000000000E+00  0.15386762775E+04  0.15386762775E+04  0.25500000920E-02 0. -1.
       -2   -1    0    0    0  501  0.00000000000E+00  0.00000000000E+00 -0.11029585155E+04  0.11029585155E+04  0.25500000920E-02 0.  1.
    10030    2    1    2    0    0  0.00000000000E+00  0.00000000000E+00  0.43571776193E+03  0.26416347930E+04  0.26054528228E+04 0.  0.
        4    1    3    3  502    0 -0.62676453108E+03 -0.94851781733E+03 -0.42703596006E+03  0.12144468499E+04  0.12699999809E+01 0.  1.
       -4    1    3    3    0  502  0.62676453108E+03  0.94851781733E+03  0.86275372199E+03  0.14271879431E+04  0.12699999809E+01 0. -1.
</event>
<event>
 5   0  0.4361864E-06  0.2596802E+04  0.7818609E-02  0.8369288E-01
       -1   -1    0    0    0  501  0.00000000000E+00  0.00000000000E+00  0.96981132903E+03  0.96981132904E+03  0.50400001928E-02 0.  1.
        1   -1    0    0  501    0  0.00000000000E+00  0.00000000000E+00 -0.17383227253E+04  0.17383227253E+04  0.50400001928E-02 0. -1.
    10030    2    1    2    0    0  0.00000000000E+00  0.00000000000E+00 -0.76851139624E+03  0.27081340543E+04  0.25968019351E+04 0.  0.
        3    1    3    3  502    0  0.56227851483E+03  0.11690311628E+04 -0.44188868651E+03  0.13704220552E+04  0.10100000352E+00 0.  1.
       -3    1    3    3    0  502 -0.56227851483E+03 -0.11690311628E+04 -0.32662270973E+03  0.13377119991E+04  0.10100000352E+00 0. -1.
</event>
<event>
 5   0  0.1086507E-05  0.2603344E+04  0.7818609E-02  0.8367066E-01
        2   -1    0    0  501    0  0.00000000000E+00  0.00000000000E+00  0.11039592598E+04  0.11039592598E+04  0.25500000920E-02 0. -1.
       -2   -1    0    0    0  501  0.00000000000E+00  0.00000000000E+00 -0.15347939787E+04  0.15347939787E+04  0.25500000920E-02 0.  1.
    10030    2    1    2    0    0  0.00000000000E+00  0.00000000000E+00 -0.43083471894E+03  0.26387532385E+04  0.26033440223E+04 0.  0.
        2    1    3    3  502    0  0.20636242481E+03  0.89505353408E+03 -0.11502655107E+04  0.14720112175E+04  0.25500000920E-02 0.  1.
       -2    1    3    3    0  502 -0.20636242481E+03 -0.89505353408E+03  0.71943079181E+03  0.11667420209E+04  0.25500000920E-02 0. -1.
</event>
<event>
 5   0  0.1116310E-05  0.2518867E+04  0.7818609E-02  0.8396295E-01
       -2   -1    0    0    0  501  0.00000000000E+00  0.00000000000E+00  0.14727842959E+04  0.14727842959E+04  0.25500000920E-02 0.  1.
        2   -1    0    0  501    0  0.00000000000E+00  0.00000000000E+00 -0.10769892094E+04  0.10769892094E+04  0.25500000920E-02 0. -1.
    10030    2    1    2    0    0  0.00000000000E+00  0.00000000000E+00  0.39579508652E+03  0.25497735052E+04  0.25188670424E+04 0.  0.
        4    1    3    3  502    0  0.33381015888E+03 -0.68525337236E+03 -0.81698567344E+03  0.11173489204E+04  0.12699999809E+01 0. -1.
       -4    1    3    3    0  502 -0.33381015888E+03  0.68525337236E+03  0.12127807600E+04  0.14324245848E+04  0.12699999809E+01 0.  1.
</event>
<event>
 5   0  0.1136881E-05  0.2597237E+04  0.7818609E-02  0.8369140E-01
        2   -1    0    0  501    0  0.00000000000E+00  0.00000000000E+00  0.14720800061E+04  0.14720800061E+04  0.25500000920E-02 0.  1.
       -2   -1    0    0    0  501  0.00000000000E+00  0.00000000000E+00 -0.11455963838E+04  0.11455963838E+04  0.25500000920E-02 0. -1.
    10030    2    1    2    0    0  0.00000000000E+00  0.00000000000E+00  0.32648362230E+03  0.26176763899E+04  0.25972366328E+04 0.  0.
        3    1    3    3  502    0  0.12866450584E+04 -0.77275289223E+02  0.32254437812E+03  0.13287068385E+04  0.10100000352E+00 0.  1.
       -3    1    3    3    0  502 -0.12866450584E+04  0.77275289223E+02  0.39392441814E+01  0.12889695514E+04  0.10100000352E+00 0. -1.
</event>
<event>
 5   0  0.4361864E-06  0.2600445E+04  0.7818609E-02  0.8368050E-01
       -1   -1    0    0    0  501  0.00000000000E+00  0.00000000000E+00  0.68374700732E+03  0.68374700734E+03  0.50400001928E-02 0.  1.
        1   -1    0    0  501    0  0.00000000000E+00  0.00000000000E+00 -0.24725201604E+04  0.24725201604E+04  0.50400001928E-02 0. -1.
    10030    2    1    2    0    0  0.00000000000E+00  0.00000000000E+00 -0.17887731530E+04  0.31562671677E+04  0.26004447775E+04 0.  0.
        3    1    3    3  502    0  0.16388855327E+03  0.33497255917E+03  0.61744605962E+03  0.72132220264E+03  0.10100000352E+00 0.  1.
       -3    1    3    3    0  502 -0.16388855327E+03 -0.33497255917E+03 -0.24062192127E+04  0.24349449651E+04  0.10100000352E+00 0. -1.
</event>
<event>
 5   0  0.1086507E-05  0.2621656E+04  0.7818609E-02  0.8360882E-01
       -2   -1    0    0    0  501  0.00000000000E+00  0.00000000000E+00  0.14397844441E+04  0.14397844441E+04  0.25500000920E-02 0. -1.
        2   -1    0    0  501    0  0.00000000000E+00  0.00000000000E+00 -0.11934219418E+04  0.11934219418E+04  0.25500000920E-02 0.  1.
    10030    2    1    2    0    0  0.00000000000E+00  0.00000000000E+00  0.24636250227E+03  0.26332063860E+04  0.26216562300E+04 0.  0.
        2    1    3    3  502    0  0.57517378810E+03  0.11148219274E+04 -0.25878028154E+03  0.12808669136E+04  0.25500000920E-02 0.  1.
       -2    1    3    3    0  502 -0.57517378810E+03 -0.11148219274E+04  0.50514278380E+03  0.13523394723E+04  0.25500000920E-02 0. -1.
</event>
<event>
 5   0  0.3705250E-06  0.2594158E+04  0.7818609E-02  0.8370188E-01
       -3   -1    0    0    0  501  0.00000000000E+00  0.00000000000E+00  0.13865947598E+04  0.13865947635E+04  0.10100000352E+00 0.  1.
        3   -1    0    0  501    0  0.00000000000E+00  0.00000000000E+00 -0.12133417878E+04  0.12133417920E+04  0.10100000352E+00 0. -1.
    10030    2    1    2    0    0  0.00000000000E+00  0.00000000000E+00  0.17325297202E+03  0.25999365554E+04  0.25941575704E+04 0.  0.
        4    1    3    3  502    0 -0.12083962294E+04 -0.45062918800E+03 -0.51969863162E+02  0.12907325795E+04  0.12699999809E+01 0.  1.
       -4    1    3    3    0  502  0.12083962294E+04  0.45062918800E+03  0.22522283519E+03  0.13092039759E+04  0.12699999809E+01 0. -1.
</event>
<event>
 5   0  0.4464297E-06  0.2629769E+04  0.7818609E-02  0.8358159E-01
       -1   -1    0    0    0  501  0.00000000000E+00  0.00000000000E+00  0.10374440824E+04  0.10374440824E+04  0.50400001928E-02 0.  1.
        1   -1    0    0  501    0  0.00000000000E+00  0.00000000000E+00 -0.16665203876E+04  0.16665203876E+04  0.50400001928E-02 0. -1.
    10030    2    1    2    0    0  0.00000000000E+00  0.00000000000E+00 -0.62907630525E+03  0.27039644700E+04  0.26297693544E+04 0.  0.
        4    1    3    3  502    0 -0.83133849130E+03 -0.72174162124E+03 -0.10537696663E+04  0.15239641654E+04  0.12699999809E+01 0. -1.
       -4    1    3    3    0  502  0.83133849130E+03  0.72174162124E+03  0.42469336109E+03  0.11800003046E+04  0.12699999809E+01 0.  1.
</event>
<event>
 5   0  0.1086507E-05  0.2590071E+04  0.7818609E-02  0.8371582E-01
       -2   -1    0    0    0  501  0.00000000000E+00  0.00000000000E+00  0.13291721331E+04  0.13291721331E+04  0.25500000920E-02 0.  1.
        2   -1    0    0  501    0  0.00000000000E+00  0.00000000000E+00 -0.12617753285E+04  0.12617753285E+04  0.25500000920E-02 0. -1.
    10030    2    1    2    0    0  0.00000000000E+00  0.00000000000E+00  0.67396804575E+02  0.25909474616E+04  0.25900707364E+04 0.  0.
        2    1    3    3  502    0 -0.10083582214E+04 -0.51249410081E+03 -0.59713388096E+03  0.12790642587E+04  0.25500000920E-02 0. -1.
       -2    1    3    3    0  502  0.10083582214E+04  0.51249410081E+03  0.66453068553E+03  0.13118832029E+04  0.25500000920E-02 0.  1.
</event>
<event>
 5   0  0.4597705E-06  0.2579287E+04  0.7818609E-02  0.8375271E-01
        1   -1    0    0  501    0  0.00000000000E+00  0.00000000000E+00  0.81079300012E+03  0.81079300013E+03  0.50400001928E-02 0. -1.
       -1   -1    0    0    0  501  0.00000000000E+00  0.00000000000E+00 -0.20513006724E+04  0.20513006724E+04  0.50400001928E-02 0.  1.
    10030    2    1    2    0    0  0.00000000000E+00  0.00000000000E+00 -0.12405076722E+04  0.28620936725E+04  0.25792868986E+04 0.  0.
        5    1    3    3  502    0 -0.79144028274E+03 -0.13558233612E+03  0.49955251743E+03  0.94569291987E+03  0.46999998093E+01 0. -1.
       -5    1    3    3    0  502  0.79144028274E+03  0.13558233612E+03 -0.17400601897E+04  0.19164007526E+04  0.46999998093E+01 0.  1.
</event>
<event>
 5   0  0.4597705E-06  0.2614480E+04  0.7818609E-02  0.8363299E-01
       -1   -1    0    0    0  501  0.00000000000E+00  0.00000000000E+00  0.17703971755E+04  0.17703971755E+04  0.50400001928E-02 0.  1.
        1   -1    0    0  501    0  0.00000000000E+00  0.00000000000E+00 -0.96525056527E+03  0.96525056529E+03  0.50400001928E-02 0. -1.
    10030    2    1    2    0    0  0.00000000000E+00  0.00000000000E+00  0.80514661019E+03  0.27356477408E+04  0.26144803494E+04 0.  0.
        5    1    3    3  502    0  0.80642583938E+03  0.43593842569E+03  0.13776912820E+04  0.16548173023E+04  0.46999998093E+01 0.  1.
       -5    1    3    3    0  502 -0.80642583938E+03 -0.43593842569E+03 -0.57254467185E+03  0.10808304384E+04  0.46999998093E+01 0. -1.
</event>
<event>
 5   0  0.4361864E-06  0.2605245E+04  0.7818609E-02  0.8366422E-01
       -1   -1    0    0    0  501  0.00000000000E+00  0.00000000000E+00  0.67286938946E+03  0.67286938948E+03  0.50400001928E-02 0. -1.
        1   -1    0    0  501    0  0.00000000000E+00  0.00000000000E+00 -0.25217744779E+04  0.25217744779E+04  0.50400001928E-02 0.  1.
    10030    2    1    2    0    0  0.00000000000E+00  0.00000000000E+00 -0.18489050884E+04  0.31946438674E+04  0.26052445976E+04 0.  0.
        3    1    3    3  502    0 -0.11326927249E+04  0.64039015185E+03 -0.84953679474E+03  0.15539643276E+04  0.10100000352E+00 0.  1.
       -3    1    3    3    0  502  0.11326927249E+04 -0.64039015185E+03 -0.99936829367E+03  0.16406795398E+04  0.10100000352E+00 0. -1.
</event>
<event>
 5   0  0.4415080E-06  0.2599875E+04  0.7818609E-02  0.8368244E-01
       -1   -1    0    0    0  501  0.00000000000E+00  0.00000000000E+00  0.11120895456E+04  0.11120895456E+04  0.50400001928E-02 0. -1.
        1   -1    0    0  501    0  0.00000000000E+00  0.00000000000E+00 -0.15195154071E+04  0.15195154071E+04  0.50400001928E-02 0.  1.
    10030    2    1    2    0    0  0.00000000000E+00  0.00000000000E+00 -0.40742586145E+03  0.26316049527E+04  0.25998747651E+04 0.  0.
        2    1    3    3  502    0 -0.95943901042E+03  0.62520967026E+03 -0.82638479009E+03  0.14122047188E+04  0.25500000920E-02 0.  1.
       -2    1    3    3    0  502  0.95943901042E+03 -0.62520967026E+03  0.41895892864E+03  0.12194002339E+04  0.25500000920E-02 0. -1.
</event>
<event>
 5   0  0.1085255E-05  0.2878290E+04  0.7818609E-02  0.8279366E-01
       -2   -1    0    0    0  501  0.00000000000E+00  0.00000000000E+00  0.69063918941E+03  0.69063918942E+03  0.25500000920E-02 0. -1.
        2   -1    0    0  501    0  0.00000000000E+00  0.00000000000E+00 -0.29988717781E+04  0.29988717781E+04  0.25500000920E-02 0.  1.
    10030    2    1    2    0    0  0.00000000000E+00  0.00000000000E+00 -0.23082325886E+04  0.36895109675E+04  0.28782900298E+04 0.  0.
        5    1    3    3  502    0 -0.67547174535E+03 -0.11050706209E+04 -0.34984579732E+03  0.13415876147E+04  0.46999998093E+01 0. -1.
       -5    1    3    3    0  502  0.67547174535E+03  0.11050706209E+04 -0.19583867913E+04  0.23479233528E+04  0.46999998093E+01 0.  1.
</event>
<event>
 5   0  0.4464297E-06  0.2609132E+04  0.7818609E-02  0.8365106E-01
       -1   -1    0    0    0  501  0.00000000000E+00  0.00000000000E+00  0.11773063160E+04  0.11773063160E+04  0.50400001928E-02 0.  1.
        1   -1    0    0  501    0  0.00000000000E+00  0.00000000000E+00 -0.14455817365E+04  0.14455817366E+04  0.50400001928E-02 0. -1.
    10030    2    1    2    0    0  0.00000000000E+00  0.00000000000E+00 -0.26827542058E+03  0.26228880525E+04  0.26091320463E+04 0.  0.
        4    1    3    3  502    0  0.10234122619E+03 -0.83718235364E+03  0.86636975925E+03  0.12091096693E+04  0.12699999809E+01 0.  1.
       -4    1    3    3    0  502 -0.10234122619E+03  0.83718235364E+03 -0.11346451798E+04  0.14137783832E+04  0.12699999809E+01 0. -1.
</event>
<event>
 5   0  0.4597705E-06  0.2610693E+04  0.7818609E-02  0.8364578E-01
       -1   -1    0    0    0  501  0.00000000000E+00  0.00000000000E+00  0.12178985275E+04  0.12178985275E+04  0.50400001928E-02 0. -1.
        1   -1    0    0  501    0  0.00000000000E+00  0.00000000000E+00 -0.13990731989E+04  0.13990731989E+04  0.50400001928E-02 0.  1.
    10030    2    1    2    0    0  0.00000000000E+00  0.00000000000E+00 -0.18117467140E+03  0.26169717264E+04  0.26106927731E+04 0.  0.
        5    1    3    3  502    0 -0.12037562844E+04  0.48614977912E+03  0.45888189596E+02  0.12990375730E+04  0.46999998093E+01 0. -1.
       -5    1    3    3    0  502  0.12037562844E+04 -0.48614977912E+03 -0.22706286099E+03  0.13179341535E+04  0.46999998093E+01 0.  1.
</event>
<event>
 5   0  0.1086507E-05  0.2591214E+04  0.7818609E-02  0.8371192E-01
       -2   -1    0    0    0  501  0.00000000000E+00  0.00000000000E+00  0.13347989436E+04  0.13347989436E+04  0.25500000920E-02 0. -1.
        2   -1    0    0  501    0  0.00000000000E+00  0.00000000000E+00 -0.12575659227E+04  0.12575659227E+04  0.25500000920E-02 0.  1.
    10030    2    1    2    0    0  0.00000000000E+00  0.00000000000E+00  0.77233020918E+02  0.25923648662E+04  0.25912141286E+04 0.  0.
        2    1    3    3  502    0 -0.89216117603E+03 -0.85336104456E+01 -0.90125440630E+03  0.12681813322E+04  0.25500000920E-02 0.  1.
       -2    1    3    3    0  502  0.89216117603E+03  0.85336104456E+01  0.97848742721E+03  0.13241835340E+04  0.25500000920E-02 0. -1.
</event>
<event>
 5   0  0.4415080E-06  0.2387911E+04  0.7818609E-02  0.8444043E-01
        1   -1    0    0  501    0  0.00000000000E+00  0.00000000000E+00  0.10277648662E+04  0.10277648662E+04  0.50400001928E-02 0.  1.
       -1   -1    0    0    0  501  0.00000000000E+00  0.00000000000E+00 -0.13870197645E+04  0.13870197645E+04  0.50400001928E-02 0. -1.
    10030    2    1    2    0    0  0.00000000000E+00  0.00000000000E+00 -0.35925489827E+03  0.24147846307E+04  0.23879113741E+04 0.  0.
        2    1    3    3  502    0 -0.11809946518E+04 -0.81435432129E+02 -0.33677931225E+03  0.12307722789E+04  0.25500000920E-02 0. -1.
       -2    1    3    3    0  502  0.11809946518E+04  0.81435432129E+02 -0.22475586023E+02  0.11840123518E+04  0.25500000920E-02 0.  1.
</event>
<event>
 5   0  0.1085255E-05  0.2465885E+04  0.7818609E-02  0.8415241E-01
        2   -1    0    0  501    0  0.00000000000E+00  0.00000000000E+00  0.18288612492E+04  0.18288612492E+04  0.25500000920E-02 0.  1.
       -2   -1    0    0    0  501  0.00000000000E+00  0.00000000000E+00 -0.83119857195E+03  0.83119857195E+03  0.25500000920E-02 0. -1.
    10030    2    1    2    0    0  0.00000000000E+00  0.00000000000E+00  0.99766267724E+03  0.26600598211E+04  0.24658847164E+04 0.  0.
        5    1    3    3  502    0  0.61573834049E+03 -0.10571342796E+04  0.33361013282E+03  0.12680632476E+04  0.46999998093E+01 0. -1.
       -5    1    3    3    0  502 -0.61573834049E+03  0.10571342796E+04  0.66405254443E+03  0.13919965736E+04  0.46999998093E+01 0.  1.
</event>
<event>
 5   0  0.4218590E-06  0.2643078E+04  0.7818609E-02  0.8353714E-01
        1   -1    0    0  501    0  0.00000000000E+00  0.00000000000E+00  0.12862488548E+04  0.12862488548E+04  0.50400001928E-02 0. -1.
       -1   -1    0    0    0  501  0.00000000000E+00  0.00000000000E+00 -0.13577978055E+04  0.13577978055E+04  0.50400001928E-02 0.  1.
    10030    2    1    2    0    0  0.00000000000E+00  0.00000000000E+00 -0.71548950667E+02  0.26440466603E+04  0.26430784116E+04 0.  0.
        1    1    3    3  502    0  0.28311479770E+03  0.64327766697E+03  0.10837895314E+04  0.12917274844E+04  0.50400001928E-02 0. -1.
       -1    1    3    3    0  502 -0.28311479770E+03 -0.64327766697E+03 -0.11553384821E+04  0.13523191760E+04  0.50400001928E-02 0.  1.
</event>
<event>
 5   0  0.1136881E-05  0.2636351E+04  0.7818609E-02  0.8355957E-01
       -2   -1    0    0    0  501  0.00000000000E+00  0.00000000000E+00  0.62552760619E+03  0.62552760620E+03  0.25500000920E-02 0. -1.
        2   -1    0    0  501    0  0.00000000000E+00  0.00000000000E+00 -0.27777936477E+04  0.27777936477E+04  0.25500000920E-02 0.  1.
    10030    2    1    2    0    0  0.00000000000E+00  0.00000000000E+00 -0.21522660415E+04  0.34033212539E+04  0.26363509713E+04 0.  0.
        3    1    3    3  502    0  0.27601850038E+03 -0.28788662905E+03  0.54577041818E+03  0.67596618502E+03  0.10100000352E+00 0. -1.
       -3    1    3    3    0  502 -0.27601850038E+03  0.28788662905E+03 -0.26980364596E+04  0.27273550688E+04  0.10100000352E+00 0.  1.
</event>
<event>
 5   0  0.1085255E-05  0.2598479E+04  0.7818609E-02  0.8368718E-01
       -2   -1    0    0    0  501  0.00000000000E+00  0.00000000000E+00  0.12011548248E+04  0.12011548248E+04  0.25500000920E-02 0. -1.
        2   -1    0    0  501    0  0.00000000000E+00  0.00000000000E+00 -0.14053336464E+04  0.14053336464E+04  0.25500000920E-02 0.  1.
    10030    2    1    2    0    0  0.00000000000E+00  0.00000000000E+00 -0.20417882162E+03  0.26064884712E+04  0.25984790088E+04 0.  0.
        5    1    3    3  502    0 -0.28954593608E+02 -0.55287138168E+03 -0.12810829410E+04  0.13956004890E+04  0.46999998093E+01 0.  1.
       -5    1    3    3    0  502  0.28954593608E+02  0.55287138168E+03  0.10769041194E+04  0.12108879822E+04  0.46999998093E+01 0. -1.
</event>
<event>
 5   0  0.4218590E-06  0.2599803E+04  0.7818609E-02  0.8368268E-01
        1   -1    0    0  501    0  0.00000000000E+00  0.00000000000E+00  0.18259480356E+04  0.18259480356E+04  0.50400001928E-02 0.  1.
       -1   -1    0    0    0  501  0.00000000000E+00  0.00000000000E+00 -0.92540632168E+03  0.92540632170E+03  0.50400001928E-02 0. -1.
    10030    2    1    2    0    0  0.00000000000E+00  0.00000000000E+00  0.90054171390E+03  0.27513543573E+04  0.25998029581E+04 0.  0.
        1    1    3    3  502    0  0.79854317285E+03  0.87741096463E+03  0.10124853434E+04  0.15596947683E+04  0.50400001928E-02 0. -1.
       -1    1    3    3    0  502 -0.79854317285E+03 -0.87741096463E+03 -0.11194362948E+03  0.11916595890E+04  0.50400001928E-02 0.  1.
</event>
<event>
 5   0  0.1086507E-05  0.2593703E+04  0.7818609E-02  0.8370343E-01
        2   -1    0    0  501    0  0.00000000000E+00  0.00000000000E+00  0.32443114203E+04  0.32443114203E+04  0.25500000920E-02 0.  1.
       -2   -1    0    0    0  501  0.00000000000E+00  0.00000000000E+00 -0.51839174037E+03  0.51839174038E+03  0.25500000920E-02 0. -1.
    10030    2    1    2    0    0  0.00000000000E+00  0.00000000000E+00  0.27259196800E+04  0.37627031607E+04  0.25937033319E+04 0.  0.
        2    1    3    3  502    0  0.85941530779E+03  0.84948836857E+03  0.68004957836E+03  0.13866119099E+04  0.25500000920E-02 0. -1.
       -2    1    3    3    0  502 -0.85941530779E+03 -0.84948836857E+03  0.20458701016E+04  0.23760912508E+04  0.25500000920E-02 0.  1.
</event>
<event>
 5   0  0.1085255E-05  0.2597312E+04  0.7818609E-02  0.8369115E-01
        2   -1    0    0  501    0  0.00000000000E+00  0.00000000000E+00  0.11377471430E+04  0.11377471430E+04  0.25500000920E-02 0. -1.
       -2   -1    0    0    0  501  0.00000000000E+00  0.00000000000E+00 -0.14823217760E+04  0.14823217760E+04  0.25500000920E-02 0.  1.
    10030    2    1    2    0    0  0.00000000000E+00  0.00000000000E+00 -0.34457463298E+03  0.26200689190E+04  0.25973119687E+04 0.  0.
        5    1    3    3  502    0  0.12256903531E+04 -0.13714552465E+03 -0.58249446546E+03  0.13639822686E+04  0.46999998093E+01 0. -1.
       -5    1    3    3    0  502 -0.12256903531E+04  0.13714552465E+03  0.23791983247E+03  0.12560866504E+04  0.46999998093E+01 0.  1.
</event>
<event>
 5   0  0.4415080E-06  0.2595838E+04  0.7818609E-02  0.8369616E-01
        1   -1    0    0  501    0  0.00000000000E+00  0.00000000000E+00  0.14643250370E+04  0.14643250370E+04  0.50400001928E-02 0.  1.
       -1   -1    0    0    0  501  0.00000000000E+00  0.00000000000E+00 -0.11504236501E+04  0.11504236501E+04  0.50400001928E-02 0. -1.
    10030    2    1    2    0    0  0.00000000000E+00  0.00000000000E+00  0.31390138693E+03  0.26147486871E+04  0.25958383263E+04 0.  0.
        2    1    3    3  502    0  0.25437111218E+03  0.60453352438E+03  0.12851226647E+04  0.14428117369E+04  0.25500000920E-02 0.  1.
       -2    1    3    3    0  502 -0.25437111218E+03 -0.60453352438E+03 -0.97122127779E+03  0.11719369502E+04  0.25500000920E-02 0. -1.
</event>
<event>
 5   0  0.1085255E-05  0.2591916E+04  0.7818609E-02  0.8370952E-01
        2   -1    0    0  501    0  0.00000000000E+00  0.00000000000E+00  0.16012856895E+04  0.16012856895E+04  0.25500000920E-02 0. -1.
       -2   -1    0    0    0  501  0.00000000000E+00  0.00000000000E+00 -0.10488490138E+04  0.10488490138E+04  0.25500000920E-02 0.  1.
    10030    2    1    2    0    0  0.00000000000E+00  0.00000000000E+00  0.55243667573E+03  0.26501347032E+04  0.25919158290E+04 0.  0.
        5    1    3    3  502    0 -0.82440875367E+03 -0.55932411776E+03 -0.57124858685E+03  0.11484077237E+04  0.46999998093E+01 0.  1.
       -5    1    3    3    0  502  0.82440875367E+03  0.55932411776E+03  0.11236852626E+04  0.15017269796E+04  0.46999998093E+01 0. -1.
</event>
<event>
 5   0  0.4464297E-06  0.2588969E+04  0.7818609E-02  0.8371958E-01
        1   -1    0    0  501    0  0.00000000000E+00  0.00000000000E+00  0.14317684964E+04  0.14317684965E+04  0.50400001928E-02 0.  1.
       -1   -1    0    0    0  501  0.00000000000E+00  0.00000000000E+00 -0.11703635582E+04  0.11703635582E+04  0.50400001928E-02 0. -1.
    10030    2    1    2    0    0  0.00000000000E+00  0.00000000000E+00  0.26140493829E+03  0.26021320546E+04  0.25889686533E+04 0.  0.
        4    1    3    3  502    0  0.64000071512E+02  0.68945258339E+03 -0.96858937267E+03  0.11906333859E+04  0.12699999809E+01 0. -1.
       -4    1    3    3    0  502 -0.64000071512E+02 -0.68945258339E+03  0.12299943110E+04  0.14114986687E+04  0.12699999809E+01 0.  1.
</event>
<event>
 5   0  0.4597705E-06  0.2593968E+04  0.7818609E-02  0.8370253E-01
        1   -1    0    0  501    0  0.00000000000E+00  0.00000000000E+00  0.18758351057E+04  0.18758351057E+04  0.50400001928E-02 0. -1.
       -1   -1    0    0    0  501  0.00000000000E+00  0.00000000000E+00 -0.89675693149E+03  0.89675693150E+03  0.50400001928E-02 0.  1.
    10030    2    1    2    0    0  0.00000000000E+00  0.00000000000E+00  0.97907817421E+03  0.27725920372E+04  0.25939684912E+04 0.  0.
        5    1    3    3  502    0 -0.51848152951E+03  0.22894636280E+03  0.17364499859E+04  0.18266144029E+04  0.46999998093E+01 0. -1.
       -5    1    3    3    0  502  0.51848152951E+03 -0.22894636280E+03 -0.75737181166E+03  0.94597763429E+03  0.46999998093E+01 0.  1.
</event>
<event>
 5   0  0.4597705E-06  0.2627683E+04  0.7818609E-02  0.8358858E-01
        1   -1    0    0  501    0  0.00000000000E+00  0.00000000000E+00  0.17399771325E+04  0.17399771325E+04  0.50400001928E-02 0.  1.
       -1   -1    0    0    0  501  0.00000000000E+00  0.00000000000E+00 -0.99207001502E+03  0.99207001504E+03  0.50400001928E-02 0. -1.
    10030    2    1    2    0    0  0.00000000000E+00  0.00000000000E+00  0.74790711745E+03  0.27320471475E+04  0.26276827358E+04 0.  0.
        5    1    3    3  502    0 -0.25125717549E+03  0.63774476713E+03  0.15393224215E+04  0.16850472289E+04  0.46999998093E+01 0.  1.
       -5    1    3    3    0  502  0.25125717549E+03 -0.63774476713E+03 -0.79141530402E+03  0.10469999187E+04  0.46999998093E+01 0. -1.
</event>
<event>
 5   0  0.3705250E-06  0.2614779E+04  0.7818609E-02  0.8363198E-01
       -3   -1    0    0    0  501  0.00000000000E+00  0.00000000000E+00  0.16678244274E+04  0.16678244305E+04  0.10100000352E+00 0.  1.
        3   -1    0    0  501    0  0.00000000000E+00  0.00000000000E+00 -0.10248484880E+04  0.10248484930E+04  0.10100000352E+00 0. -1.
    10030    2    1    2    0    0  0.00000000000E+00  0.00000000000E+00  0.64297593939E+03  0.26926729235E+04  0.26147790373E+04 0.  0.
        3    1    3    3  502    0 -0.29073641453E+03  0.44405263885E+03  0.15518851514E+04  0.16401396106E+04  0.10100000352E+00 0.  1.
       -3    1    3    3    0  502  0.29073641453E+03 -0.44405263885E+03 -0.90890921203E+03  0.10525333129E+04  0.10100000352E+00 0. -1.
</event>
<event>
 5   0  0.1136881E-05  0.2602648E+04  0.7818609E-02  0.8367302E-01
       -2   -1    0    0    0  501  0.00000000000E+00  0.00000000000E+00  0.98560996716E+03  0.98560996716E+03  0.25500000920E-02 0.  1.
        2   -1    0    0  501    0  0.00000000000E+00  0.00000000000E+00 -0.17181684676E+04  0.17181684676E+04  0.25500000920E-02 0. -1.
    10030    2    1    2    0    0  0.00000000000E+00  0.00000000000E+00 -0.73255850048E+03  0.27037784348E+04  0.26026478571E+04 0.  0.
        3    1    3    3  502    0  0.12255394541E+04  0.35302376644E+03 -0.63492212303E+03  0.14246749966E+04  0.10100000352E+00 0. -1.
       -3    1    3    3    0  502 -0.12255394541E+04 -0.35302376644E+03 -0.97636377450E+02  0.12791034382E+04  0.10100000352E+00 0.  1.
</event>
<event>
 5   0  0.4597705E-06  0.2649685E+04  0.7818609E-02  0.8351517E-01
        1   -1    0    0  501    0  0.00000000000E+00  0.00000000000E+00  0.10811703120E+04  0.10811703120E+04  0.50400001928E-02 0. -1.
       -1   -1    0    0    0  501  0.00000000000E+00  0.00000000000E+00 -0.16234332376E+04  0.16234332376E+04  0.50400001928E-02 0.  1.
    10030    2    1    2    0    0  0.00000000000E+00  0.00000000000E+00 -0.54226292566E+03  0.27046035496E+04  0.26496851285E+04 0.  0.
        5    1    3    3  502    0 -0.92511490781E+03 -0.78492428990E+03  0.27210406961E+03  0.12433850764E+04  0.46999998093E+01 0. -1.
       -5    1    3    3    0  502  0.92511490781E+03  0.78492428990E+03 -0.81436699527E+03  0.14612184732E+04  0.46999998093E+01 0.  1.
</event>
<event>
 5   0  0.4597705E-06  0.2351284E+04  0.7818609E-02  0.8457970E-01
        1   -1    0    0  501    0  0.00000000000E+00  0.00000000000E+00  0.16654288842E+04  0.16654288842E+04  0.50400001928E-02 0.  1.
       -1   -1    0    0    0  501  0.00000000000E+00  0.00000000000E+00 -0.82989703652E+03  0.82989703653E+03  0.50400001928E-02 0. -1.
    10030    2    1    2    0    0  0.00000000000E+00  0.00000000000E+00  0.83553184769E+03  0.24953259207E+04  0.23512843261E+04 0.  0.
        5    1    3    3  502    0  0.37397714511E+03  0.43514790964E+03  0.15067352584E+04  0.16122921066E+04  0.46999998093E+01 0.  1.
       -5    1    3    3    0  502 -0.37397714511E+03 -0.43514790964E+03 -0.67120341069E+03  0.88303381410E+03  0.46999998093E+01 0. -1.
</event>
<event>
 5   0  0.1136881E-05  0.2620331E+04  0.7818609E-02  0.8361328E-01
        2   -1    0    0  501    0  0.00000000000E+00  0.00000000000E+00  0.17221455612E+04  0.17221455612E+04  0.25500000920E-02 0. -1.
       -2   -1    0    0    0  501  0.00000000000E+00  0.00000000000E+00 -0.99674130640E+03  0.99674130640E+03  0.25500000920E-02 0.  1.
    10030    2    1    2    0    0  0.00000000000E+00  0.00000000000E+00  0.72540425478E+03  0.27188868676E+04  0.26203309840E+04 0.  0.
        3    1    3    3  502    0 -0.20868083100E+02 -0.13078392506E+04  0.44072767977E+03  0.13802608015E+04  0.10100000352E+00 0.  1.
       -3    1    3    3    0  502  0.20868083100E+02  0.13078392506E+04  0.28467657501E+03  0.13386260661E+04  0.10100000352E+00 0. -1.
</event>
<event>
 5   0  0.1085061E-05  0.2592321E+04  0.7818609E-02  0.8370814E-01
        2   -1    0    0  501    0  0.00000000000E+00  0.00000000000E+00  0.23153489559E+04  0.23153489559E+04  0.25500000920E-02 0.  1.
       -2   -1    0    0    0  501  0.00000000000E+00  0.00000000000E+00 -0.72560629718E+03  0.72560629718E+03  0.25500000920E-02 0. -1.
    10030    2    1    2    0    0  0.00000000000E+00  0.00000000000E+00  0.15897426587E+04  0.30409552531E+04  0.25923208000E+04 0.  0.
        1    1    3    3  502    0  0.10888304232E+04  0.13453576263E+03 -0.14780209665E+02  0.10972101059E+04  0.50400001928E-02 0.  1.
       -1    1    3    3    0  502 -0.10888304232E+04 -0.13453576263E+03  0.16045228684E+04  0.19437451471E+04  0.50400001928E-02 0. -1.
</event>
<event>
 5   0  0.1116310E-05  0.2595688E+04  0.7818609E-02  0.8369667E-01
        2   -1    0    0  501    0  0.00000000000E+00  0.00000000000E+00  0.21836146093E+04  0.21836146093E+04  0.25500000920E-02 0.  1.
       -2   -1    0    0    0  501  0.00000000000E+00  0.00000000000E+00 -0.77138104262E+03  0.77138104263E+03  0.25500000920E-02 0. -1.
    10030    2    1    2    0    0  0.00000000000E+00  0.00000000000E+00  0.14122335667E+04  0.29549956519E+04  0.25956878965E+04 0.  0.
        4    1    3    3  502    0 -0.10270281874E+04 -0.40882862524E+03  0.14803039176E+04  0.18474926370E+04  0.12699999809E+01 0.  1.
       -4    1    3    3    0  502  0.10270281874E+04  0.40882862524E+03 -0.68070350914E+02  0.11075030149E+04  0.12699999809E+01 0. -1.
</event>
<event>
 5   0  0.4415080E-06  0.2647233E+04  0.7818609E-02  0.8352332E-01
        1   -1    0    0  501    0  0.00000000000E+00  0.00000000000E+00  0.25060718965E+04  0.25060718965E+04  0.50400001928E-02 0. -1.
       -1   -1    0    0    0  501  0.00000000000E+00  0.00000000000E+00 -0.69908631646E+03  0.69908631648E+03  0.50400001928E-02 0.  1.
    10030    2    1    2    0    0  0.00000000000E+00  0.00000000000E+00  0.18069855800E+04  0.32051582130E+04  0.26472329485E+04 0.  0.
        2    1    3    3  502    0  0.10340369735E+04  0.66197917297E+03  0.15021898423E+04  0.19401090717E+04  0.25500000920E-02 0. -1.
       -2    1    3    3    0  502 -0.10340369735E+04 -0.66197917297E+03  0.30479573775E+03  0.12650491412E+04  0.25500000920E-02 0.  1.
</event>
<event>
 5   0  0.1085255E-05  0.2592154E+04  0.7818609E-02  0.8370871E-01
       -2   -1    0    0    0  501  0.00000000000E+00  0.00000000000E+00  0.82058093229E+03  0.82058093229E+03  0.25500000920E-02 0.  1.
        2   -1    0    0  501    0  0.00000000000E+00  0.00000000000E+00 -0.20471048141E+04  0.20471048141E+04  0.25500000920E-02 0. -1.
    10030    2    1    2    0    0  0.00000000000E+00  0.00000000000E+00 -0.12265238818E+04  0.28676857464E+04  0.25921536813E+04 0.  0.
        5    1    3    3  502    0  0.59863201142E+02  0.29141682017E+03  0.78228643144E+03  0.83695968644E+03  0.46999998093E+01 0.  1.
       -5    1    3    3    0  502 -0.59863201142E+02 -0.29141682017E+03 -0.20088103132E+04  0.20307260599E+04  0.46999998093E+01 0. -1.
</event>
<event>
 5   0  0.4464297E-06  0.2600164E+04  0.7818609E-02  0.8368146E-01
        1   -1    0    0  501    0  0.00000000000E+00  0.00000000000E+00  0.16547243340E+04  0.16547243340E+04  0.50400001928E-02 0.  1.
       -1   -1    0    0    0  501  0.00000000000E+00  0.00000000000E+00 -0.10214468295E+04  0.10214468295E+04  0.50400001928E-02 0. -1.
    10030    2    1    2    0    0  0.00000000000E+00  0.00000000000E+00  0.63327750451E+03  0.26761711635E+04  0.26001637831E+04 0.  0.
        4    1    3    3  502    0 -0.32743642290E+03  0.11956651101E+04 -0.86449255628E+02  0.12427005888E+04  0.12699999809E+01 0. -1.
       -4    1    3    3    0  502  0.32743642290E+03 -0.11956651101E+04  0.71972676014E+03  0.14334705748E+04  0.12699999809E+01 0.  1.
</event>
<event>
 5   0  0.1085061E-05  0.2603691E+04  0.7818609E-02  0.8366948E-01
        2   -1    0    0  501    0  0.00000000000E+00  0.00000000000E+00  0.12393195115E+04  0.12393195115E+04  0.25500000920E-02 0. -1.
       -2   -1    0    0    0  501  0.00000000000E+00  0.00000000000E+00 -0.13675263166E+04  0.13675263166E+04  0.25500000920E-02 0.  1.
    10030    2    1    2    0    0  0.00000000000E+00  0.00000000000E+00 -0.12820680505E+03  0.26068458281E+04  0.26036912617E+04 0.  0.
        1    1    3    3  502    0 -0.45291319964E+03  0.41796754943E+03  0.10840094484E+04  0.12469577871E+04  0.50400001928E-02 0. -1.
       -1    1    3    3    0  502  0.45291319964E+03 -0.41796754943E+03 -0.12122162534E+04  0.13598880409E+04  0.50400001928E-02 0.  1.
</event>
<event>
 5   0  0.1085255E-05  0.2612591E+04  0.7818609E-02  0.8363937E-01
       -2   -1    0    0    0  501  0.00000000000E+00  0.00000000000E+00  0.10334038110E+04  0.10334038110E+04  0.25500000920E-02 0. -1.
        2   -1    0    0  501    0  0.00000000000E+00  0.00000000000E+00 -0.16512501759E+04  0.16512501759E+04  0.25500000920E-02 0.  1.
    10030    2    1    2    0    0  0.00000000000E+00  0.00000000000E+00 -0.61784636492E+03  0.26846539869E+04  0.26125912230E+04 0.  0.
        5    1    3    3  502    0  0.81750185624E+03 -0.10037263656E+04 -0.48870682346E+03  0.13837024070E+04  0.46999998093E+01 0. -1.
       -5    1    3    3    0  502 -0.81750185624E+03  0.10037263656E+04 -0.12913954146E+03  0.13009515798E+04  0.46999998093E+01 0.  1.
</event>
<event>
 5   0  0.1086507E-05  0.2602872E+04  0.7818609E-02  0.8367226E-01
       -2   -1    0    0    0  501  0.00000000000E+00  0.00000000000E+00  0.14707746829E+04  0.14707746829E+04  0.25500000920E-02 0.  1.
        2   -1    0    0  501    0  0.00000000000E+00  0.00000000000E+00 -0.11515941107E+04  0.11515941107E+04  0.25500000920E-02 0. -1.
    10030    2    1    2    0    0  0.00000000000E+00  0.00000000000E+00  0.31918057220E+03  0.26223687935E+04  0.26028718469E+04 0.  0.
        2    1    3    3  502    0 -0.91436360862E+03  0.35168448285E+03 -0.70356084912E+03  0.12061263005E+04  0.25500000920E-02 0. -1.
       -2    1    3    3    0  502  0.91436360862E+03 -0.35168448285E+03  0.10227414213E+04  0.14162424931E+04  0.25500000920E-02 0.  1.
</event>
<event>
 5   0  0.4218590E-06  0.2593117E+04  0.7818609E-02  0.8370543E-01
       -1   -1    0    0    0  501  0.00000000000E+00  0.00000000000E+00  0.20009933984E+04  0.20009933984E+04  0.50400001928E-02 0.  1.
        1   -1    0    0  501    0  0.00000000000E+00  0.00000000000E+00 -0.84011483303E+03  0.84011483304E+03  0.50400001928E-02 0. -1.
    10030    2    1    2    0    0  0.00000000000E+00  0.00000000000E+00  0.11608785653E+04  0.28411082314E+04  0.25931172243E+04 0.  0.
        1    1    3    3  502    0  0.63458048852E+03 -0.11190257303E+04  0.75762490909E+03  0.14929522713E+04  0.50400001928E-02 0. -1.
       -1    1    3    3    0  502 -0.63458048852E+03  0.11190257303E+04  0.40325365624E+03  0.13481559601E+04  0.50400001928E-02 0.  1.
</event>
<event>
 5   0  0.4464297E-06  0.2535796E+04  0.7818609E-02  0.8390343E-01
        1   -1    0    0  501    0  0.00000000000E+00  0.00000000000E+00  0.16006036349E+04  0.16006036350E+04  0.50400001928E-02 0.  1.
       -1   -1    0    0    0  501  0.00000000000E+00  0.00000000000E+00 -0.10043492115E+04  0.10043492115E+04  0.50400001928E-02 0. -1.
    10030    2    1    2    0    0  0.00000000000E+00  0.00000000000E+00  0.59625442345E+03  0.26049528465E+04  0.25357957321E+04 0.  0.
        4    1    3    3  502    0 -0.15025992490E+03  0.62104743371E+03 -0.82685816637E+03  0.10449755979E+04  0.12699999809E+01 0. -1.
       -4    1    3    3    0  502  0.15025992490E+03 -0.62104743371E+03  0.14231125898E+04  0.15599772486E+04  0.12699999809E+01 0.  1.
</event>
<event>
 5   0  0.1086507E-05  0.2526846E+04  0.7818609E-02  0.8393484E-01
       -2   -1    0    0    0  501  0.00000000000E+00  0.00000000000E+00  0.83270042929E+03  0.83270042929E+03  0.25500000920E-02 0.  1.
        2   -1    0    0  501    0  0.00000000000E+00  0.00000000000E+00 -0.19169408850E+04  0.19169408850E+04  0.25500000920E-02 0. -1.
    10030    2    1    2    0    0  0.00000000000E+00  0.00000000000E+00 -0.10842404557E+04  0.27496413143E+04  0.25268458583E+04 0.  0.
        2    1    3    3  502    0 -0.94228855303E+03 -0.51954902317E+03  0.17837626389E+03  0.10907139846E+04  0.25500000920E-02 0.  1.
       -2    1    3    3    0  502  0.94228855303E+03  0.51954902317E+03 -0.12626167196E+04  0.16589273297E+04  0.25500000920E-02 0. -1.
</event>
<event>
 5   0  0.1085255E-05  0.2608409E+04  0.7818609E-02  0.8365350E-01
       -2   -1    0    0    0  501  0.00000000000E+00  0.00000000000E+00  0.98025412651E+03  0.98025412651E+03  0.25500000920E-02 0. -1.
        2   -1    0    0  501    0  0.00000000000E+00  0.00000000000E+00 -0.17352127820E+04  0.17352127820E+04  0.25500000920E-02 0.  1.
    10030    2    1    2    0    0  0.00000000000E+00  0.00000000000E+00 -0.75495865547E+03  0.27154669085E+04  0.26084090860E+04 0.  0.
        5    1    3    3  502    0 -0.19890330480E+03  0.51933405843E+02  0.96327286776E+03  0.98497528450E+03  0.46999998093E+01 0. -1.
       -5    1    3    3    0  502  0.19890330480E+03 -0.51933405843E+02 -0.17182315232E+04  0.17304916240E+04  0.46999998093E+01 0.  1.
</event>
<event>
 5   0  0.4218590E-06  0.2550537E+04  0.7818609E-02  0.8385199E-01
       -1   -1    0    0    0  501  0.00000000000E+00  0.00000000000E+00  0.15792608937E+04  0.15792608937E+04  0.50400001928E-02 0. -1.
        1   -1    0    0  501    0  0.00000000000E+00  0.00000000000E+00 -0.10297920830E+04  0.10297920831E+04  0.50400001928E-02 0.  1.
    10030    2    1    2    0    0  0.00000000000E+00  0.00000000000E+00  0.54946881062E+03  0.26090529767E+04  0.25505374848E+04 0.  0.
        1    1    3    3  502    0  0.11701618716E+04  0.50488270115E+03  0.22757889424E+03  0.12945954970E+04  0.50400001928E-02 0. -1.
       -1    1    3    3    0  502 -0.11701618716E+04 -0.50488270115E+03  0.32188991638E+03  0.13144574797E+04  0.50400001928E-02 0.  1.
</event>
<event>
 5   0  0.4415080E-06  0.2806872E+04  0.7818609E-02  0.8301138E-01
       -1   -1    0    0    0  501  0.00000000000E+00  0.00000000000E+00  0.14388659752E+04  0.14388659752E+04  0.50400001928E-02 0.  1.
        1   -1    0    0  501    0  0.00000000000E+00  0.00000000000E+00 -0.13688780569E+04  0.13688780569E+04  0.50400001928E-02 0. -1.
    10030    2    1    2    0    0  0.00000000000E+00  0.00000000000E+00  0.69987918313E+02  0.28077440321E+04  0.28068716110E+04 0.  0.
        2    1    3    3  502    0  0.14020234796E+04 -0.36865459224E+02 -0.16043079695E+02  0.14025998288E+04  0.25500000920E-02 0.  1.
       -2    1    3    3    0  502 -0.14020234796E+04  0.36865459224E+02  0.86030998008E+02  0.14051442033E+04  0.25500000920E-02 0. -1.
</event>
<event>
 5   0  0.1116310E-05  0.2333604E+04  0.7818609E-02  0.8464788E-01
       -2   -1    0    0    0  501  0.00000000000E+00  0.00000000000E+00  0.10302805354E+04  0.10302805354E+04  0.25500000920E-02 0.  1.
        2   -1    0    0  501    0  0.00000000000E+00  0.00000000000E+00 -0.13214141764E+04  0.13214141764E+04  0.25500000920E-02 0. -1.
    10030    2    1    2    0    0  0.00000000000E+00  0.00000000000E+00 -0.29113364097E+03  0.23516947118E+04  0.23336043411E+04 0.  0.
        4    1    3    3  502    0  0.75637533703E+03 -0.20831379308E+03  0.72479934565E+03  0.10680983060E+04  0.12699999809E+01 0.  1.
       -4    1    3    3    0  502 -0.75637533703E+03  0.20831379308E+03 -0.10159329866E+04  0.12835964058E+04  0.12699999809E+01 0. -1.
</event>
<event>
 5   0  0.3705250E-06  0.2576090E+04  0.7818609E-02  0.8376369E-01
       -3   -1    0    0    0  501  0.00000000000E+00  0.00000000000E+00  0.79284278817E+03  0.79284279461E+03  0.10100000352E+00 0.  1.
        3   -1    0    0  501    0  0.00000000000E+00  0.00000000000E+00 -0.20925455747E+04  0.20925455771E+04  0.10100000352E+00 0. -1.
    10030    2    1    2    0    0  0.00000000000E+00  0.00000000000E+00 -0.12997027865E+04  0.28853883717E+04  0.25760898126E+04 0.  0.
        2    1    3    3  502    0  0.93455855458E+03  0.16484698267E+03 -0.16253281087E+04  0.18820907737E+04  0.25500000920E-02 0. -1.
       -2    1    3    3    0  502 -0.93455855458E+03 -0.16484698267E+03  0.32562532221E+03  0.10032975980E+04  0.25500000920E-02 0.  1.
</event>
<event>
 5   0  0.1116310E-05  0.2587823E+04  0.7818609E-02  0.8372349E-01
        2   -1    0    0  501    0  0.00000000000E+00  0.00000000000E+00  0.23274046946E+04  0.23274046946E+04  0.25500000920E-02 0. -1.
       -2   -1    0    0    0  501  0.00000000000E+00  0.00000000000E+00 -0.71934514272E+03  0.71934514273E+03  0.25500000920E-02 0.  1.
    10030    2    1    2    0    0  0.00000000000E+00  0.00000000000E+00  0.16080595519E+04  0.30467498373E+04  0.25878232260E+04 0.  0.
        4    1    3    3  502    0 -0.85997134331E+03 -0.30642873743E+03 -0.27550657959E+03  0.95360094942E+03  0.12699999809E+01 0.  1.
       -4    1    3    3    0  502  0.85997134331E+03  0.30642873743E+03  0.18835661315E+04  0.20931488879E+04  0.12699999809E+01 0. -1.
</event>
<event>
 5   0  0.1116310E-05  0.2633522E+04  0.7818609E-02  0.8356903E-01
       -2   -1    0    0    0  501  0.00000000000E+00  0.00000000000E+00  0.12719049214E+04  0.12719049214E+04  0.25500000920E-02 0.  1.
        2   -1    0    0  501    0  0.00000000000E+00  0.00000000000E+00 -0.13631986211E+04  0.13631986211E+04  0.25500000920E-02 0. -1.
    10030    2    1    2    0    0  0.00000000000E+00  0.00000000000E+00 -0.91293699717E+02  0.26351035425E+04  0.26335216233E+04 0.  0.
        4    1    3    3  502    0 -0.31309715438E+03 -0.33744448487E+03 -0.12800648509E+04  0.13603184347E+04  0.12699999809E+01 0. -1.
       -4    1    3    3    0  502  0.31309715438E+03  0.33744448487E+03  0.11887711512E+04  0.12747851078E+04  0.12699999809E+01 0.  1.
</event>
<event>
 5   0  0.1085255E-05  0.2606020E+04  0.7818609E-02  0.8366159E-01
        2   -1    0    0  501    0  0.00000000000E+00  0.00000000000E+00  0.27367849663E+04  0.27367849663E+04  0.25500000920E-02 0.  1.
       -2   -1    0    0    0  501  0.00000000000E+00  0.00000000000E+00 -0.62037592510E+03  0.62037592510E+03  0.25500000920E-02 0. -1.
    10030    2    1    2    0    0  0.00000000000E+00  0.00000000000E+00  0.21164090412E+04  0.33571608914E+04  0.26060203417E+04 0.  0.
        5    1    3    3  502    0 -0.32445426403E+02 -0.69595029930E+03  0.24766733791E+04  0.25728063747E+04  0.46999998093E+01 0.  1.
       -5    1    3    3    0  502  0.32445426403E+02  0.69595029930E+03 -0.36026433788E+03  0.78435451675E+03  0.46999998093E+01 0. -1.
</event>
<event>
 5   0  0.4415080E-06  0.2602410E+04  0.7818609E-02  0.8367383E-01
        1   -1    0    0  501    0  0.00000000000E+00  0.00000000000E+00  0.17754918723E+04  0.17754918723E+04  0.50400001928E-02 0. -1.
       -1   -1    0    0    0  501  0.00000000000E+00  0.00000000000E+00 -0.95361431063E+03  0.95361431065E+03  0.50400001928E-02 0.  1.
    10030    2    1    2    0    0  0.00000000000E+00  0.00000000000E+00  0.82187756166E+03  0.27291061829E+04  0.26024100045E+04 0.  0.
        2    1    3    3  502    0  0.10017127485E+04  0.15191651036E+03 -0.44528304475E+03  0.11066996189E+04  0.25500000920E-02 0.  1.
       -2    1    3    3    0  502 -0.10017127485E+04 -0.15191651036E+03  0.12671606064E+04  0.16224065640E+04  0.25500000920E-02 0. -1.
</event>
<event>
 5   0  0.4218590E-06  0.2602724E+04  0.7818609E-02  0.8367276E-01
       -1   -1    0    0    0  501  0.00000000000E+00  0.00000000000E+00  0.13680383090E+04  0.13680383090E+04  0.50400001928E-02 0. -1.
        1   -1    0    0  501    0  0.00000000000E+00  0.00000000000E+00 -0.12379357145E+04  0.12379357145E+04  0.50400001928E-02 0.  1.
    10030    2    1    2    0    0  0.00000000000E+00  0.00000000000E+00  0.13010259452E+03  0.26059740234E+04  0.26027243277E+04 0.  0.
        1    1    3    3  502    0 -0.63786983803E+03 -0.11302494675E+04  0.16109651893E+03  0.13077820451E+04  0.50400001928E-02 0. -1.
       -1    1    3    3    0  502  0.63786983803E+03  0.11302494675E+04 -0.30993924417E+02  0.12981919783E+04  0.50400001928E-02 0.  1.
</event>
<event>
 5   0  0.4597705E-06  0.2575426E+04  0.7818609E-02  0.8376597E-01
        1   -1    0    0  501    0  0.00000000000E+00  0.00000000000E+00  0.17857295113E+04  0.17857295113E+04  0.50400001928E-02 0. -1.
       -1   -1    0    0    0  501  0.00000000000E+00  0.00000000000E+00 -0.92858699246E+03  0.92858699248E+03  0.50400001928E-02 0.  1.
    10030    2    1    2    0    0  0.00000000000E+00  0.00000000000E+00  0.85714251881E+03  0.27143165038E+04  0.25754263307E+04 0.  0.
        5    1    3    3  502    0  0.69954691651E+03  0.56876041520E+03  0.13975721820E+04  0.16631549514E+04  0.46999998093E+01 0. -1.
       -5    1    3    3    0  502 -0.69954691651E+03 -0.56876041520E+03 -0.54042966323E+03  0.10511615524E+04  0.46999998093E+01 0.  1.
</event>
<event>
 5   0  0.1085061E-05  0.2610604E+04  0.7818609E-02  0.8364608E-01
        2   -1    0    0  501    0  0.00000000000E+00  0.00000000000E+00  0.14853150509E+04  0.14853150509E+04  0.25500000920E-02 0.  1.
       -2   -1    0    0    0  501  0.00000000000E+00  0.00000000000E+00 -0.11471060773E+04  0.11471060773E+04  0.25500000920E-02 0. -1.
    10030    2    1    2    0    0  0.00000000000E+00  0.00000000000E+00  0.33820897363E+03  0.26324211283E+04  0.26106044677E+04 0.  0.
        1    1    3    3  502    0  0.10571309850E+04 -0.75785615386E+03  0.58911545955E+02  0.13020531632E+04  0.50400001928E-02 0. -1.
       -1    1    3    3    0  502 -0.10571309850E+04  0.75785615386E+03  0.27929742767E+03  0.13303679651E+04  0.50400001928E-02 0.  1.
</event>
<event>
 5   0  0.1085255E-05  0.2637348E+04  0.7818609E-02  0.8355624E-01
        2   -1    0    0  501    0  0.00000000000E+00  0.00000000000E+00  0.17074393996E+04  0.17074393996E+04  0.25500000920E-02 0.  1.
       -2   -1    0    0    0  501  0.00000000000E+00  0.00000000000E+00 -0.10184266126E+04  0.10184266126E+04  0.25500000920E-02 0. -1.
    10030    2    1    2    0    0  0.00000000000E+00  0.00000000000E+00  0.68901278697E+03  0.27258660122E+04  0.26373484593E+04 0.  0.
        5    1    3    3  502    0  0.11981264673E+03 -0.33064518843E+03  0.16580664009E+04  0.16949594658E+04  0.46999998093E+01 0.  1.
       -5    1    3    3    0  502 -0.11981264673E+03  0.33064518843E+03 -0.96905361389E+03  0.10309065465E+04  0.46999998093E+01 0. -1.
</event>
<event>
 5   0  0.1116310E-05  0.2596004E+04  0.7818609E-02  0.8369560E-01
        2   -1    0    0  501    0  0.00000000000E+00  0.00000000000E+00  0.11823077449E+04  0.11823077449E+04  0.25500000920E-02 0. -1.
       -2   -1    0    0    0  501  0.00000000000E+00  0.00000000000E+00 -0.14250170146E+04  0.14250170146E+04  0.25500000920E-02 0.  1.
    10030    2    1    2    0    0  0.00000000000E+00  0.00000000000E+00 -0.24270926962E+03  0.26073247595E+04  0.25960035847E+04 0.  0.
        4    1    3    3  502    0  0.82391335809E+03  0.67706539799E+03 -0.86455209577E+03  0.13728447523E+04  0.12699999809E+01 0.  1.
       -4    1    3    3    0  502 -0.82391335809E+03 -0.67706539799E+03  0.62184282615E+03  0.12344800072E+04  0.12699999809E+01 0. -1.
</event>
<event>
 5   0  0.4597705E-06  0.2601683E+04  0.7818609E-02  0.8367630E-01
       -1   -1    0    0    0  501  0.00000000000E+00  0.00000000000E+00  0.15135241675E+04  0.15135241675E+04  0.50400001928E-02 0.  1.
        1   -1    0    0  501    0  0.00000000000E+00  0.00000000000E+00 -0.11180453442E+04  0.11180453443E+04  0.50400001928E-02 0. -1.
    10030    2    1    2    0    0  0.00000000000E+00  0.00000000000E+00  0.39547882325E+03  0.26315695118E+04  0.26016830313E+04 0.  0.
        5    1    3    3  502    0 -0.11695187282E+03 -0.87867155594E+03 -0.76526089852E+03  0.11710626698E+04  0.46999998093E+01 0. -1.
       -5    1    3    3    0  502  0.11695187282E+03  0.87867155594E+03  0.11607397218E+04  0.14605068420E+04  0.46999998093E+01 0.  1.
</event>
<event>
 5   0  0.4218590E-06  0.2545482E+04  0.7818609E-02  0.8386959E-01
       -1   -1    0    0    0  501  0.00000000000E+00  0.00000000000E+00  0.96969510953E+03  0.96969510954E+03  0.50400001928E-02 0. -1.
        1   -1    0    0  501    0  0.00000000000E+00  0.00000000000E+00 -0.16704939191E+04  0.16704939191E+04  0.50400001928E-02 0.  1.
    10030    2    1    2    0    0  0.00000000000E+00  0.00000000000E+00 -0.70079880952E+03  0.26401890286E+04  0.25454821027E+04 0.  0.
        1    1    3    3  502    0  0.94771301313E+03 -0.50048900458E+03 -0.10623946627E+04  0.15090830389E+04  0.50400001928E-02 0. -1.
       -1    1    3    3    0  502 -0.94771301313E+03  0.50048900458E+03  0.36159585314E+03  0.11311059897E+04  0.50400001928E-02 0.  1.
</event>
<event>
 5   0  0.4415080E-06  0.2630505E+04  0.7818609E-02  0.8357913E-01
       -1   -1    0    0    0  501  0.00000000000E+00  0.00000000000E+00  0.11727279849E+04  0.11727279849E+04  0.50400001928E-02 0. -1.
        1   -1    0    0  501    0  0.00000000000E+00  0.00000000000E+00 -0.14750984991E+04  0.14750984992E+04  0.50400001928E-02 0.  1.
    10030    2    1    2    0    0  0.00000000000E+00  0.00000000000E+00 -0.30237051426E+03  0.26478264840E+04  0.26305051153E+04 0.  0.
        2    1    3    3  502    0 -0.15244493622E+03 -0.43477295705E+02  0.11630767031E+04  0.11738301202E+04  0.25500000920E-02 0. -1.
       -2    1    3    3    0  502  0.15244493622E+03  0.43477295705E+02 -0.14654472173E+04  0.14739963638E+04  0.25500000920E-02 0.  1.
</event>
<event>
 5   0  0.4415080E-06  0.2603672E+04  0.7818609E-02  0.8366955E-01
        1   -1    0    0  501    0  0.00000000000E+00  0.00000000000E+00  0.97087614879E+03  0.97087614880E+03  0.50400001928E-02 0.  1.
       -1   -1    0    0    0  501  0.00000000000E+00  0.00000000000E+00 -0.17456160086E+04  0.17456160086E+04  0.50400001928E-02 0. -1.
    10030    2    1    2    0    0  0.00000000000E+00  0.00000000000E+00 -0.77473985980E+03  0.27164921574E+04  0.26036719822E+04 0.  0.
        2    1    3    3  502    0 -0.10406469310E+04 -0.60818103131E+02  0.42624917814E+03  0.11262030183E+04  0.25500000920E-02 0.  1.
       -2    1    3    3    0  502  0.10406469310E+04  0.60818103131E+02 -0.12009890379E+04  0.15902891391E+04  0.25500000920E-02 0. -1.
</event>
<event>
 5   0  0.4597705E-06  0.2542388E+04  0.7818609E-02  0.8388038E-01
        1   -1    0    0  501    0  0.00000000000E+00  0.00000000000E+00  0.12569056322E+04  0.12569056322E+04  0.50400001928E-02 0. -1.
       -1   -1    0    0    0  501  0.00000000000E+00  0.00000000000E+00 -0.12856443743E+04  0.12856443743E+04  0.50400001928E-02 0.  1.
    10030    2    1    2    0    0  0.00000000000E+00  0.00000000000E+00 -0.28738742060E+02  0.25425500065E+04  0.25423875826E+04 0.  0.
        5    1    3    3  502    0  0.64891236143E+03  0.42672600884E+03  0.99203940722E+03  0.12598994463E+04  0.46999998093E+01 0. -1.
       -5    1    3    3    0  502 -0.64891236143E+03 -0.42672600884E+03 -0.10207781493E+04  0.12826505602E+04  0.46999998093E+01 0.  1.
</event>
<event>
 5   0  0.1085061E-05  0.2572586E+04  0.7818609E-02  0.8377573E-01
        2   -1    0    0  501    0  0.00000000000E+00  0.00000000000E+00  0.15814533006E+04  0.15814533006E+04  0.25500000920E-02 0.  1.
       -2   -1    0    0    0  501  0.00000000000E+00  0.00000000000E+00 -0.10462209200E+04  0.10462209200E+04  0.25500000920E-02 0. -1.
    10030    2    1    2    0    0  0.00000000000E+00  0.00000000000E+00  0.53523238065E+03  0.26276742206E+04  0.25725858797E+04 0.  0.
        1    1    3    3  502    0 -0.12367434919E+04 -0.28165652243E+03  0.49299537510E+02  0.12693680734E+04  0.50400001928E-02 0. -1.
       -1    1    3    3    0  502  0.12367434919E+04  0.28165652243E+03  0.48593284314E+03  0.13583061472E+04  0.50400001928E-02 0.  1.
</event>
<event>
 5   0  0.4464297E-06  0.2594213E+04  0.7818609E-02  0.8370170E-01
       -1   -1    0    0    0  501  0.00000000000E+00  0.00000000000E+00  0.10430460141E+04  0.10430460141E+04  0.50400001928E-02 0. -1.
        1   -1    0    0  501    0  0.00000000000E+00  0.00000000000E+00 -0.16130495499E+04  0.16130495499E+04  0.50400001928E-02 0.  1.
    10030    2    1    2    0    0  0.00000000000E+00  0.00000000000E+00 -0.57000353574E+03  0.26560955640E+04  0.25942127157E+04 0.  0.
        4    1    3    3  502    0  0.12665608540E+04  0.25369327431E+03 -0.16408889503E+03  0.13020996324E+04  0.12699999809E+01 0.  1.
       -4    1    3    3    0  502 -0.12665608540E+04 -0.25369327431E+03 -0.40591464071E+03  0.13539959316E+04  0.12699999809E+01 0. -1.
</event>
<event>
 5   0  0.4218590E-06  0.2611904E+04  0.7818609E-02  0.8364169E-01
       -1   -1    0    0    0  501  0.00000000000E+00  0.00000000000E+00  0.93161740710E+03  0.93161740711E+03  0.50400001928E-02 0. -1.
        1   -1    0    0  501    0  0.00000000000E+00  0.00000000000E+00 -0.18306984933E+04  0.18306984933E+04  0.50400001928E-02 0.  1.
    10030    2    1    2    0    0  0.00000000000E+00  0.00000000000E+00 -0.89908108616E+03  0.27623159004E+04  0.26119039672E+04 0.  0.
        1    1    3    3  502    0  0.46465211220E+03  0.11406679371E+04  0.96101985535E+01  0.12317131501E+04  0.50400001928E-02 0. -1.
       -1    1    3    3    0  502 -0.46465211220E+03 -0.11406679371E+04 -0.90869128471E+03  0.15306027503E+04  0.50400001928E-02 0.  1.
</event>
<event>
 5   0  0.1116310E-05  0.2549185E+04  0.7818609E-02  0.8385670E-01
        2   -1    0    0  501    0  0.00000000000E+00  0.00000000000E+00  0.16705670542E+04  0.16705670542E+04  0.25500000920E-02 0.  1.
       -2   -1    0    0    0  501  0.00000000000E+00  0.00000000000E+00 -0.97247598883E+03  0.97247598883E+03  0.25500000920E-02 0. -1.
    10030    2    1    2    0    0  0.00000000000E+00  0.00000000000E+00  0.69809106536E+03  0.26430430430E+04  0.25491852408E+04 0.  0.
        4    1    3    3  502    0 -0.80892843043E+03  0.43422634672E+03 -0.56762597330E+03  0.10794065889E+04  0.12699999809E+01 0. -1.
       -4    1    3    3    0  502  0.80892843043E+03 -0.43422634672E+03  0.12657170387E+04  0.15636364541E+04  0.12699999809E+01 0.  1.
</event>
<event>
 5   0  0.4597705E-06  0.2597202E+04  0.7818609E-02  0.8369152E-01
       -1   -1    0    0    0  501  0.00000000000E+00  0.00000000000E+00  0.89595096279E+03  0.89595096280E+03  0.50400001928E-02 0. -1.
        1   -1    0    0  501    0  0.00000000000E+00  0.00000000000E+00 -0.18822058744E+04  0.18822058744E+04  0.50400001928E-02 0.  1.
    10030    2    1    2    0    0  0.00000000000E+00  0.00000000000E+00 -0.98625491159E+03  0.27781568372E+04  0.25972016982E+04 0.  0.
        5    1    3    3  502    0 -0.12372590023E+04  0.26565882837E+03 -0.80491033219E+03  0.14997623761E+04  0.46999998093E+01 0.  1.
       -5    1    3    3    0  502  0.12372590023E+04 -0.26565882837E+03 -0.18134457940E+03  0.12783944611E+04  0.46999998093E+01 0. -1.
</event>
<event>
 5   0  0.4597705E-06  0.2574806E+04  0.7818609E-02  0.8376810E-01
       -1   -1    0    0    0  501  0.00000000000E+00  0.00000000000E+00  0.91530909712E+03  0.91530909713E+03  0.50400001928E-02 0.  1.
        1   -1    0    0  501    0  0.00000000000E+00  0.00000000000E+00 -0.18107619189E+04  0.18107619189E+04  0.50400001928E-02 0. -1.
    10030    2    1    2    0    0  0.00000000000E+00  0.00000000000E+00 -0.89545282180E+03  0.27260710161E+04  0.25748062895E+04 0.  0.
        5    1    3    3  502    0 -0.24485942378E+03  0.54139198910E+03 -0.16568904914E+04  0.17602186267E+04  0.46999998093E+01 0. -1.
       -5    1    3    3    0  502  0.24485942378E+03 -0.54139198910E+03  0.76143766962E+03  0.96585238934E+03  0.46999998093E+01 0.  1.
</event>
<event>
 5   0  0.4464297E-06  0.2595304E+04  0.7818609E-02  0.8369798E-01
       -1   -1    0    0    0  501  0.00000000000E+00  0.00000000000E+00  0.11363206912E+04  0.11363206912E+04  0.50400001928E-02 0.  1.
        1   -1    0    0  501    0  0.00000000000E+00  0.00000000000E+00 -0.14818881053E+04  0.14818881053E+04  0.50400001928E-02 0. -1.
    10030    2    1    2    0    0  0.00000000000E+00  0.00000000000E+00 -0.34556741411E+03  0.26182087966E+04  0.25953035400E+04 0.  0.
        4    1    3    3  502    0 -0.84614650991E+03 -0.55497797972E+03  0.64674916867E+03  0.12009373732E+04  0.12699999809E+01 0.  1.
       -4    1    3    3    0  502  0.84614650991E+03  0.55497797972E+03 -0.99231658279E+03  0.14172714234E+04  0.12699999809E+01 0. -1.
</event>
<event>
 5   0  0.1085061E-05  0.2627109E+04  0.7818609E-02  0.8359051E-01
       -2   -1    0    0    0  501  0.00000000000E+00  0.00000000000E+00  0.71795930466E+03  0.71795930467E+03  0.25500000920E-02 0.  1.
        2   -1    0    0  501    0  0.00000000000E+00  0.00000000000E+00 -0.24032353762E+04  0.24032353762E+04  0.25500000920E-02 0. -1.
    10030    2    1    2    0    0  0.00000000000E+00  0.00000000000E+00 -0.16852760715E+04  0.31211946808E+04  0.26271088288E+04 0.  0.
        1    1    3    3  502    0  0.27953395845E+02 -0.97105759436E+03 -0.18930516398E+04  0.21277637921E+04  0.50400001928E-02 0. -1.
       -1    1    3    3    0  502 -0.27953395845E+02  0.97105759436E+03  0.20777556831E+03  0.99343088875E+03  0.50400001928E-02 0.  1.
</event>
<event>
 5   0  0.4464297E-06  0.2589038E+04  0.7818609E-02  0.8371934E-01
       -1   -1    0    0    0  501  0.00000000000E+00  0.00000000000E+00  0.16805875177E+04  0.16805875177E+04  0.50400001928E-02 0.  1.
        1   -1    0    0  501    0  0.00000000000E+00  0.00000000000E+00 -0.99713880322E+03  0.99713880324E+03  0.50400001928E-02 0. -1.
    10030    2    1    2    0    0  0.00000000000E+00  0.00000000000E+00  0.68344871448E+03  0.26777263209E+04  0.25890376792E+04 0.  0.
        4    1    3    3  502    0 -0.53013789793E+02 -0.28368149660E+03  0.16468923460E+04  0.16719873402E+04  0.12699999809E+01 0.  1.
       -4    1    3    3    0  502  0.53013789793E+02  0.28368149660E+03 -0.96344363153E+03  0.10057389808E+04  0.12699999809E+01 0. -1.
</event>
<event>
 5   0  0.1085061E-05  0.2569178E+04  0.7818609E-02  0.8378747E-01
       -2   -1    0    0    0  501  0.00000000000E+00  0.00000000000E+00  0.10954273536E+04  0.10954273536E+04  0.25500000920E-02 0.  1.
        2   -1    0    0  501    0  0.00000000000E+00  0.00000000000E+00 -0.15064161675E+04  0.15064161675E+04  0.25500000920E-02 0. -1.
    10030    2    1    2    0    0  0.00000000000E+00  0.00000000000E+00 -0.41098881397E+03  0.26018435211E+04  0.25691784490E+04 0.  0.
        1    1    3    3  502    0  0.11845707295E+04  0.33705858950E+03 -0.57531285781E+03  0.13593385121E+04  0.50400001928E-02 0. -1.
       -1    1    3    3    0  502 -0.11845707295E+04 -0.33705858950E+03  0.16432404384E+03  0.12425050090E+04  0.50400001928E-02 0.  1.
</event>
<event>
 5   0  0.1136881E-05  0.2622120E+04  0.7818609E-02  0.8360726E-01
       -2   -1    0    0    0  501  0.00000000000E+00  0.00000000000E+00  0.11994450946E+04  0.11994450946E+04  0.25500000920E-02 0.  1.
        2   -1    0    0  501    0  0.00000000000E+00  0.00000000000E+00 -0.14330610620E+04  0.14330610620E+04  0.25500000920E-02 0. -1.
    10030    2    1    2    0    0  0.00000000000E+00  0.00000000000E+00 -0.23361596739E+03  0.26325061566E+04  0.26221197998E+04 0.  0.
        3    1    3    3  502    0 -0.95280067929E+03  0.87638605453E+03 -0.32498506352E+03  0.13347272953E+04  0.10100000352E+00 0. -1.
       -3    1    3    3    0  502  0.95280067929E+03 -0.87638605453E+03  0.91369096137E+02  0.12977788614E+04  0.10100000352E+00 0.  1.
</event>
<event>
 5   0  0.1136881E-05  0.2595964E+04  0.7818609E-02  0.8369573E-01
       -2   -1    0    0    0  501  0.00000000000E+00  0.00000000000E+00  0.13768550287E+04  0.13768550287E+04  0.25500000920E-02 0. -1.
        2   -1    0    0  501    0  0.00000000000E+00  0.00000000000E+00 -0.12236273253E+04  0.12236273253E+04  0.25500000920E-02 0.  1.
    10030    2    1    2    0    0  0.00000000000E+00  0.00000000000E+00  0.15322770341E+03  0.26004823540E+04  0.25959641262E+04 0.  0.
        3    1    3    3  502    0  0.66826765433E+03  0.28800627219E+03 -0.10000722500E+04  0.12367998165E+04  0.10100000352E+00 0.  1.
       -3    1    3    3    0  502 -0.66826765433E+03 -0.28800627219E+03  0.11532999534E+04  0.13636825376E+04  0.10100000352E+00 0. -1.
</event>
<event>
 5   0  0.4218590E-06  0.2593655E+04  0.7818609E-02  0.8370360E-01
       -1   -1    0    0    0  501  0.00000000000E+00  0.00000000000E+00  0.11120512807E+04  0.11120512807E+04  0.50400001928E-02 0. -1.
        1   -1    0    0  501    0  0.00000000000E+00  0.00000000000E+00 -0.15123059731E+04  0.15123059731E+04  0.50400001928E-02 0.  1.
    10030    2    1    2    0    0  0.00000000000E+00  0.00000000000E+00 -0.40025469236E+03  0.26243572538E+04  0.25936551769E+04 0.  0.
        1    1    3    3  502    0  0.86650688637E+03 -0.82637450686E+03  0.30379690935E+03  0.12353224566E+04  0.50400001928E-02 0. -1.
       -1    1    3    3    0  502 -0.86650688637E+03  0.82637450686E+03 -0.70405160172E+03  0.13890347971E+04  0.50400001928E-02 0.  1.
</event>
<event>
 5   0  0.4597705E-06  0.2589981E+04  0.7818609E-02  0.8371613E-01
        1   -1    0    0  501    0  0.00000000000E+00  0.00000000000E+00  0.14157200476E+04  0.14157200476E+04  0.50400001928E-02 0. -1.
       -1   -1    0    0    0  501  0.00000000000E+00  0.00000000000E+00 -0.11845560926E+04  0.11845560926E+04  0.50400001928E-02 0.  1.
    10030    2    1    2    0    0  0.00000000000E+00  0.00000000000E+00  0.23116395499E+03  0.26002761402E+04  0.25899805465E+04 0.  0.
        5    1    3    3  502    0  0.10244285620E+04  0.52162770131E+03 -0.48296607243E+03  0.12469272852E+04  0.46999998093E+01 0.  1.
       -5    1    3    3    0  502 -0.10244285620E+04 -0.52162770131E+03  0.71413002742E+03  0.13533488550E+04  0.46999998093E+01 0. -1.
</event>
<event>
 5   0  0.1136881E-05  0.2595555E+04  0.7818609E-02  0.8369713E-01
        2   -1    0    0  501    0  0.00000000000E+00  0.00000000000E+00  0.12656574105E+04  0.12656574105E+04  0.25500000920E-02 0. -1.
       -2   -1    0    0    0  501  0.00000000000E+00  0.00000000000E+00 -0.13307126588E+04  0.13307126588E+04  0.25500000920E-02 0.  1.
    10030    2    1    2    0    0  0.00000000000E+00  0.00000000000E+00 -0.65055248320E+02  0.25963700692E+04  0.25955549216E+04 0.  0.
        3    1    3    3  502    0 -0.11033945541E+04 -0.65276691718E+03 -0.23418988922E+03  0.13032379309E+04  0.10100000352E+00 0.  1.
       -3    1    3    3    0  502  0.11033945541E+04  0.65276691718E+03  0.16913464090E+03  0.12931321383E+04  0.10100000352E+00 0. -1.
</event>
<event>
 5   0  0.4597705E-06  0.2598981E+04  0.7818609E-02  0.8368547E-01
       -1   -1    0    0    0  501  0.00000000000E+00  0.00000000000E+00  0.10016677894E+04  0.10016677895E+04  0.50400001928E-02 0.  1.
        1   -1    0    0  501    0  0.00000000000E+00  0.00000000000E+00 -0.16858642244E+04  0.16858642244E+04  0.50400001928E-02 0. -1.
    10030    2    1    2    0    0  0.00000000000E+00  0.00000000000E+00 -0.68419643497E+03  0.26875320139E+04  0.25989812550E+04 0.  0.
        5    1    3    3  502    0 -0.42046701341E+03 -0.10703508680E+04 -0.96786972227E+03  0.15030759725E+04  0.46999998093E+01 0. -1.
       -5    1    3    3    0  502  0.42046701341E+03  0.10703508680E+04  0.28367328730E+03  0.11844560413E+04  0.46999998093E+01 0.  1.
</event>
<event>
 5   0  0.1086507E-05  0.2616767E+04  0.7818609E-02  0.8362528E-01
       -2   -1    0    0    0  501  0.00000000000E+00  0.00000000000E+00  0.14104425725E+04  0.14104425725E+04  0.25500000920E-02 0. -1.
        2   -1    0    0  501    0  0.00000000000E+00  0.00000000000E+00 -0.12137092259E+04  0.12137092259E+04  0.25500000920E-02 0.  1.
    10030    2    1    2    0    0  0.00000000000E+00  0.00000000000E+00  0.19673334662E+03  0.26241517984E+04  0.26167668317E+04 0.  0.
        2    1    3    3  502    0  0.89915315209E+03 -0.37607982627E+03  0.97373033486E+03  0.13777021419E+04  0.25500000920E-02 0. -1.
       -2    1    3    3    0  502 -0.89915315209E+03  0.37607982627E+03 -0.77699698824E+03  0.12464496566E+04  0.25500000920E-02 0.  1.
</event>
<event>
 5   0  0.4361864E-06  0.2599288E+04  0.7818609E-02  0.8368443E-01
       -1   -1    0    0    0  501  0.00000000000E+00  0.00000000000E+00  0.77365231881E+03  0.77365231882E+03  0.50400001928E-02 0.  1.
        1   -1    0    0  501    0  0.00000000000E+00  0.00000000000E+00 -0.21832483054E+04  0.21832483054E+04  0.50400001928E-02 0. -1.
    10030    2    1    2    0    0  0.00000000000E+00  0.00000000000E+00 -0.14095959866E+04  0.29569006242E+04  0.25992884519E+04 0.  0.
        3    1    3    3  502    0  0.29703354963E+03 -0.21147911538E+03  0.71427318258E+03  0.80195918562E+03  0.10100000352E+00 0.  1.
       -3    1    3    3    0  502 -0.29703354963E+03  0.21147911538E+03 -0.21238691692E+04  0.21549414386E+04  0.10100000352E+00 0. -1.
</event>
<event>
 5   0  0.4218590E-06  0.2618341E+04  0.7818609E-02  0.8361998E-01
       -1   -1    0    0    0  501  0.00000000000E+00  0.00000000000E+00  0.11465308839E+04  0.11465308839E+04  0.50400001928E-02 0. -1.
        1   -1    0    0  501    0  0.00000000000E+00  0.00000000000E+00 -0.14948807705E+04  0.14948807705E+04  0.50400001928E-02 0.  1.
    10030    2    1    2    0    0  0.00000000000E+00  0.00000000000E+00 -0.34834988657E+03  0.26414116544E+04  0.26183406739E+04 0.  0.
        1    1    3    3  502    0 -0.73896263511E+03  0.10802280347E+04 -0.20557131703E+03  0.13248463871E+04  0.50400001928E-02 0.  1.
       -1    1    3    3    0  502  0.73896263511E+03 -0.10802280347E+04 -0.14277856954E+03  0.13165652673E+04  0.50400001928E-02 0. -1.
</event>
<event>
 5   0  0.4464297E-06  0.2457785E+04  0.7818609E-02  0.8418181E-01
        1   -1    0    0  501    0  0.00000000000E+00  0.00000000000E+00  0.60892012617E+03  0.60892012620E+03  0.50400001928E-02 0. -1.
       -1   -1    0    0    0  501  0.00000000000E+00  0.00000000000E+00 -0.24800893705E+04  0.24800893705E+04  0.50400001928E-02 0.  1.
    10030    2    1    2    0    0  0.00000000000E+00  0.00000000000E+00 -0.18711692443E+04  0.30890094967E+04  0.24577846386E+04 0.  0.
        4    1    3    3  502    0  0.51120562092E+03  0.10557779499E+04 -0.47520767167E+03  0.12656311510E+04  0.12699999809E+01 0. -1.
       -4    1    3    3    0  502 -0.51120562092E+03 -0.10557779499E+04 -0.13959615726E+04  0.18233783457E+04  0.12699999809E+01 0.  1.
</event>
<event>
 5   0  0.1116310E-05  0.2616807E+04  0.7818609E-02  0.8362515E-01
       -2   -1    0    0    0  501  0.00000000000E+00  0.00000000000E+00  0.88928094086E+03  0.88928094086E+03  0.25500000920E-02 0. -1.
        2   -1    0    0  501    0  0.00000000000E+00  0.00000000000E+00 -0.19250609501E+04  0.19250609501E+04  0.25500000920E-02 0.  1.
    10030    2    1    2    0    0  0.00000000000E+00  0.00000000000E+00 -0.10357800092E+04  0.28143418910E+04  0.26168072248E+04 0.  0.
        4    1    3    3  502    0 -0.11347289747E+04 -0.15043860492E+03 -0.11995118307E+04  0.16580325283E+04  0.12699999809E+01 0.  1.
       -4    1    3    3    0  502  0.11347289747E+04  0.15043860492E+03  0.16373182146E+03  0.11563093627E+04  0.12699999809E+01 0. -1.
</event>
<event>
 5   0  0.4361864E-06  0.2609509E+04  0.7818609E-02  0.8364978E-01
       -1   -1    0    0    0  501  0.00000000000E+00  0.00000000000E+00  0.89059946938E+03  0.89059946939E+03  0.50400001928E-02 0.  1.
        1   -1    0    0  501    0  0.00000000000E+00  0.00000000000E+00 -0.19115045550E+04  0.19115045550E+04  0.50400001928E-02 0. -1.
    10030    2    1    2    0    0  0.00000000000E+00  0.00000000000E+00 -0.10209050856E+04  0.28021040244E+04  0.26095094883E+04 0.  0.
        3    1    3    3  502    0 -0.73581679126E+03  0.10768170026E+04 -0.55096964624E+03  0.14158138185E+04  0.10100000352E+00 0. -1.
       -3    1    3    3    0  502  0.73581679126E+03 -0.10768170026E+04 -0.46993543939E+03  0.13862902059E+04  0.10100000352E+00 0.  1.
</event>
<event>
 5   0  0.4597705E-06  0.2596155E+04  0.7818609E-02  0.8369508E-01
        1   -1    0    0  501    0  0.00000000000E+00  0.00000000000E+00  0.14413088088E+04  0.14413088088E+04  0.50400001928E-02 0.  1.
       -1   -1    0    0    0  501  0.00000000000E+00  0.00000000000E+00 -0.11690802308E+04  0.11690802308E+04  0.50400001928E-02 0. -1.
    10030    2    1    2    0    0  0.00000000000E+00  0.00000000000E+00  0.27222857796E+03  0.26103890396E+04  0.25961553381E+04 0.  0.
        5    1    3    3  502    0 -0.44450600373E+03 -0.95070836520E+02 -0.10864299688E+04  0.11776995450E+04  0.46999998093E+01 0. -1.
       -5    1    3    3    0  502  0.44450600373E+03  0.95070836520E+02  0.13586585467E+04  0.14326894946E+04  0.46999998093E+01 0.  1.
</event>
<event>
 5   0  0.4464297E-06  0.2647101E+04  0.7818609E-02  0.8352376E-01
       -1   -1    0    0    0  501  0.00000000000E+00  0.00000000000E+00  0.62125099287E+03  0.62125099289E+03  0.50400001928E-02 0.  1.
        1   -1    0    0  501    0  0.00000000000E+00  0.00000000000E+00 -0.28197716213E+04  0.28197716213E+04  0.50400001928E-02 0. -1.
    10030    2    1    2    0    0  0.00000000000E+00  0.00000000000E+00 -0.21985206284E+04  0.34410226142E+04  0.26471009950E+04 0.  0.
        4    1    3    3  502    0  0.27405301186E+03 -0.45679200716E+03  0.47574871675E+03  0.71421456546E+03  0.12699999809E+01 0.  1.
       -4    1    3    3    0  502 -0.27405301186E+03  0.45679200716E+03 -0.26742693452E+04  0.27268080487E+04  0.12699999809E+01 0. -1.
</event>
<event>
 5   0  0.1086507E-05  0.2598869E+04  0.7818609E-02  0.8368585E-01
        2   -1    0    0  501    0  0.00000000000E+00  0.00000000000E+00  0.25220758927E+04  0.25220758927E+04  0.25500000920E-02 0. -1.
       -2   -1    0    0    0  501  0.00000000000E+00  0.00000000000E+00 -0.66950023921E+03  0.66950023921E+03  0.25500000920E-02 0.  1.
    10030    2    1    2    0    0  0.00000000000E+00  0.00000000000E+00  0.18525756535E+04  0.31915761319E+04  0.25988693030E+04 0.  0.
        2    1    3    3  502    0  0.85234147619E+03  0.14085818587E+03  0.21183340637E+04  0.22877207491E+04  0.25500000920E-02 0. -1.
       -2    1    3    3    0  502 -0.85234147619E+03 -0.14085818587E+03 -0.26575841013E+03  0.90385538285E+03  0.25500000920E-02 0.  1.
</event>
<event>
 5   0  0.1116310E-05  0.2590879E+04  0.7818609E-02  0.8371306E-01
       -2   -1    0    0    0  501  0.00000000000E+00  0.00000000000E+00  0.12038796796E+04  0.12038796796E+04  0.25500000920E-02 0. -1.
        2   -1    0    0  501    0  0.00000000000E+00  0.00000000000E+00 -0.13939624929E+04  0.13939624929E+04  0.25500000920E-02 0.  1.
    10030    2    1    2    0    0  0.00000000000E+00  0.00000000000E+00 -0.19008281332E+03  0.25978421726E+04  0.25908787076E+04 0.  0.
        4    1    3    3  502    0  0.21843302452E+03  0.12622813222E+04  0.98075262812E+02  0.12847908361E+04  0.12699999809E+01 0. -1.
       -4    1    3    3    0  502 -0.21843302452E+03 -0.12622813222E+04 -0.28815807614E+03  0.13130513365E+04  0.12699999809E+01 0.  1.
</event>
<event>
 5   0  0.1116310E-05  0.2571159E+04  0.7818609E-02  0.8378064E-01
        2   -1    0    0  501    0  0.00000000000E+00  0.00000000000E+00  0.51017450945E+03  0.51017450945E+03  0.25500000920E-02 0.  1.
       -2   -1    0    0    0  501  0.00000000000E+00  0.00000000000E+00 -0.32395074877E+04  0.32395074877E+04  0.25500000920E-02 0. -1.
    10030    2    1    2    0    0  0.00000000000E+00  0.00000000000E+00 -0.27293329782E+04  0.37496819971E+04  0.25711586053E+04 0.  0.
        4    1    3    3  502    0  0.50995102266E+03  0.92083857929E+03 -0.24410121162E+04  0.26582956004E+04  0.12699999809E+01 0. -1.
       -4    1    3    3    0  502 -0.50995102266E+03 -0.92083857929E+03 -0.28832086200E+03  0.10913863967E+04  0.12699999809E+01 0.  1.
</event>
<event>
 5   0  0.4464297E-06  0.2562733E+04  0.7818609E-02  0.8380971E-01
        1   -1    0    0  501    0  0.00000000000E+00  0.00000000000E+00  0.22046280640E+04  0.22046280640E+04  0.50400001928E-02 0. -1.
       -1   -1    0    0    0  501  0.00000000000E+00  0.00000000000E+00 -0.74475128028E+03  0.74475128030E+03  0.50400001928E-02 0.  1.
    10030    2    1    2    0    0  0.00000000000E+00  0.00000000000E+00  0.14598767838E+04  0.29493793443E+04  0.25627325832E+04 0.  0.
        4    1    3    3  502    0 -0.10795055782E+04  0.66518037126E+03  0.51741377137E+03  0.13694947402E+04  0.12699999809E+01 0.  1.
       -4    1    3    3    0  502  0.10795055782E+04 -0.66518037126E+03  0.94246301238E+03  0.15798846041E+04  0.12699999809E+01 0. -1.
</event>
<event>
 5   0  0.1086507E-05  0.2572065E+04  0.7818609E-02  0.8377752E-01
        2   -1    0    0  501    0  0.00000000000E+00  0.00000000000E+00  0.12254635071E+04  0.12254635071E+04  0.25500000920E-02 0.  1.
       -2   -1    0    0    0  501  0.00000000000E+00  0.00000000000E+00 -0.13495953113E+04  0.13495953113E+04  0.25500000920E-02 0. -1.
    10030    2    1    2    0    0  0.00000000000E+00  0.00000000000E+00 -0.12413180420E+03  0.25750588183E+04  0.25720651650E+04 0.  0.
        2    1    3    3  502    0  0.94417025308E+03  0.85704074239E+03  0.10517193604E+03  0.12794676381E+04  0.25500000920E-02 0. -1.
       -2    1    3    3    0  502 -0.94417025308E+03 -0.85704074239E+03 -0.22930374024E+03  0.12955911802E+04  0.25500000920E-02 0.  1.
</event>
<event>
 5   0  0.1116310E-05  0.2521199E+04  0.7818609E-02  0.8395472E-01
        2   -1    0    0  501    0  0.00000000000E+00  0.00000000000E+00  0.14281002454E+04  0.14281002454E+04  0.25500000920E-02 0.  1.
       -2   -1    0    0    0  501  0.00000000000E+00  0.00000000000E+00 -0.11127451683E+04  0.11127451683E+04  0.25500000920E-02 0. -1.
    10030    2    1    2    0    0  0.00000000000E+00  0.00000000000E+00  0.31535507707E+03  0.25408454137E+04  0.25211994351E+04 0.  0.
        4    1    3    3  502    0 -0.31921739478E+03  0.10660471485E+04 -0.43918210327E+03  0.11963439308E+04  0.12699999809E+01 0. -1.
       -4    1    3    3    0  502  0.31921739478E+03 -0.10660471485E+04  0.75453718034E+03  0.13445014829E+04  0.12699999809E+01 0.  1.
</event>
<event>
 5   0  0.1085255E-05  0.2598319E+04  0.7818609E-02  0.8368772E-01
       -2   -1    0    0    0  501  0.00000000000E+00  0.00000000000E+00  0.14929210231E+04  0.14929210231E+04  0.25500000920E-02 0. -1.
        2   -1    0    0  501    0  0.00000000000E+00  0.00000000000E+00 -0.11305457746E+04  0.11305457746E+04  0.25500000920E-02 0.  1.
    10030    2    1    2    0    0  0.00000000000E+00  0.00000000000E+00  0.36237524847E+03  0.26234667977E+04  0.25983191140E+04 0.  0.
        5    1    3    3  502    0 -0.80257599106E+03  0.38726605093E+03  0.11356890770E+04  0.14435771491E+04  0.46999998093E+01 0. -1.
       -5    1    3    3    0  502  0.80257599106E+03 -0.38726605093E+03 -0.77331382855E+03  0.11798896487E+04  0.46999998093E+01 0.  1.
</event>
<event>
 5   0  0.4415080E-06  0.2589767E+04  0.7818609E-02  0.8371685E-01
        1   -1    0    0  501    0  0.00000000000E+00  0.00000000000E+00  0.13747219921E+04  0.13747219921E+04  0.50400001928E-02 0.  1.
       -1   -1    0    0    0  501  0.00000000000E+00  0.00000000000E+00 -0.12196819586E+04  0.12196819586E+04  0.50400001928E-02 0. -1.
    10030    2    1    2    0    0  0.00000000000E+00  0.00000000000E+00  0.15504003352E+03  0.25944039507E+04  0.25897672573E+04 0.  0.
        2    1    3    3  502    0  0.46085835072E+03  0.37994380240E+03  0.12284790403E+04  0.13659826005E+04  0.25500000920E-02 0.  1.
       -2    1    3    3    0  502 -0.46085835072E+03 -0.37994380240E+03 -0.10734390067E+04  0.12284213502E+04  0.25500000920E-02 0. -1.
</event>
<event>
 5   0  0.1085255E-05  0.2915963E+04  0.7818609E-02  0.8268144E-01
        2   -1    0    0  501    0  0.00000000000E+00  0.00000000000E+00  0.19113809936E+04  0.19113809936E+04  0.25500000920E-02 0. -1.
       -2   -1    0    0    0  501  0.00000000000E+00  0.00000000000E+00 -0.11121328015E+04  0.11121328015E+04  0.25500000920E-02 0.  1.
    10030    2    1    2    0    0  0.00000000000E+00  0.00000000000E+00  0.79924819213E+03  0.30235137952E+04  0.29159626192E+04 0.  0.
        5    1    3    3  502    0  0.41257063474E+02 -0.85583723904E+03 -0.82351531205E+03  0.11884271472E+04  0.46999998093E+01 0.  1.
       -5    1    3    3    0  502 -0.41257063474E+02  0.85583723904E+03  0.16227635042E+04  0.18350866480E+04  0.46999998093E+01 0. -1.
</event>
<event>
 5   0  0.4597705E-06  0.2608546E+04  0.7818609E-02  0.8365304E-01
        1   -1    0    0  501    0  0.00000000000E+00  0.00000000000E+00  0.14698505581E+04  0.14698505581E+04  0.50400001928E-02 0.  1.
       -1   -1    0    0    0  501  0.00000000000E+00  0.00000000000E+00 -0.11573479379E+04  0.11573479380E+04  0.50400001928E-02 0. -1.
    10030    2    1    2    0    0  0.00000000000E+00  0.00000000000E+00  0.31250262013E+03  0.26271984960E+04  0.26085463481E+04 0.  0.
        5    1    3    3  502    0  0.55634660281E+03  0.36253435836E+02  0.13437796802E+04  0.14548545539E+04  0.46999998093E+01 0.  1.
       -5    1    3    3    0  502 -0.55634660281E+03 -0.36253435836E+02 -0.10312770601E+04  0.11723439421E+04  0.46999998093E+01 0. -1.
</event>
<event>
 5   0  0.4415080E-06  0.2684162E+04  0.7818609E-02  0.8340162E-01
       -1   -1    0    0    0  501  0.00000000000E+00  0.00000000000E+00  0.11336425510E+04  0.11336425510E+04  0.50400001928E-02 0. -1.
        1   -1    0    0  501    0  0.00000000000E+00  0.00000000000E+00 -0.15888447242E+04  0.15888447242E+04  0.50400001928E-02 0.  1.
    10030    2    1    2    0    0  0.00000000000E+00  0.00000000000E+00 -0.45520217324E+03  0.27224872752E+04  0.26841624290E+04 0.  0.
        2    1    3    3  502    0 -0.10066635337E+04  0.27889723491E+03 -0.10822631974E+04  0.15041438648E+04  0.25500000920E-02 0.  1.
       -2    1    3    3    0  502  0.10066635337E+04 -0.27889723491E+03  0.62706102417E+03  0.12183434104E+04  0.25500000920E-02 0. -1.
</event>
<event>
 5   0  0.1085061E-05  0.2595760E+04  0.7818609E-02  0.8369643E-01
        2   -1    0    0  501    0  0.00000000000E+00  0.00000000000E+00  0.10675394650E+04  0.10675394650E+04  0.25500000920E-02 0. -1.
       -2   -1    0    0    0  501  0.00000000000E+00  0.00000000000E+00 -0.15779201142E+04  0.15779201142E+04  0.25500000920E-02 0.  1.
    10030    2    1    2    0    0  0.00000000000E+00  0.00000000000E+00 -0.51038064919E+03  0.26454595792E+04  0.25957596149E+04 0.  0.
        1    1    3    3  502    0 -0.59994606081E+03  0.11427368864E+04 -0.39459053277E+03  0.13496238572E+04  0.50400001928E-02 0.  1.
       -1    1    3    3    0  502  0.59994606081E+03 -0.11427368864E+04 -0.11579011642E+03  0.12958357220E+04  0.50400001928E-02 0. -1.
</event>
<event>
 5   0  0.4464297E-06  0.2559606E+04  0.7818609E-02  0.8382053E-01
        1   -1    0    0  501    0  0.00000000000E+00  0.00000000000E+00  0.17272133144E+04  0.17272133144E+04  0.50400001928E-02 0. -1.
       -1   -1    0    0    0  501  0.00000000000E+00  0.00000000000E+00 -0.94828793169E+03  0.94828793170E+03  0.50400001928E-02 0.  1.
    10030    2    1    2    0    0  0.00000000000E+00  0.00000000000E+00  0.77892538269E+03  0.26755012461E+04  0.25596058615E+04 0.  0.
        4    1    3    3  502    0  0.68802409661E+03 -0.10642892976E+04  0.57587740412E+03  0.13920220055E+04  0.12699999809E+01 0. -1.
       -4    1    3    3    0  502 -0.68802409661E+03  0.10642892976E+04  0.20304797857E+03  0.12834792406E+04  0.12699999809E+01 0.  1.
</event>
<event>
 5   0  0.1136881E-05  0.2594576E+04  0.7818609E-02  0.8370046E-01
       -2   -1    0    0    0  501  0.00000000000E+00  0.00000000000E+00  0.63017468082E+03  0.63017468083E+03  0.25500000920E-02 0. -1.
        2   -1    0    0  501    0  0.00000000000E+00  0.00000000000E+00 -0.26706181620E+04  0.26706181620E+04  0.25500000920E-02 0.  1.
    10030    2    1    2    0    0  0.00000000000E+00  0.00000000000E+00 -0.20404434812E+04  0.33007928429E+04  0.25945758404E+04 0.  0.
        3    1    3    3  502    0 -0.90041273839E+03 -0.45336163648E+03  0.18524178895E+02  0.10082772576E+04  0.10100000352E+00 0. -1.
       -3    1    3    3    0  502  0.90041273839E+03  0.45336163648E+03 -0.20589676601E+04  0.22925155852E+04  0.10100000352E+00 0.  1.
</event>
<event>
 5   0  0.4597705E-06  0.2595364E+04  0.7818609E-02  0.8369778E-01
        1   -1    0    0  501    0  0.00000000000E+00  0.00000000000E+00  0.10966518684E+04  0.10966518684E+04  0.50400001928E-02 0. -1.
       -1   -1    0    0    0  501  0.00000000000E+00  0.00000000000E+00 -0.15355638666E+04  0.15355638666E+04  0.50400001928E-02 0.  1.
    10030    2    1    2    0    0  0.00000000000E+00  0.00000000000E+00 -0.43891199820E+03  0.26322157350E+04  0.25953643161E+04 0.  0.
        5    1    3    3  502    0 -0.54612969149E+03 -0.53318354078E+03 -0.12838405429E+04  0.14935899564E+04  0.46999998093E+01 0.  1.
       -5    1    3    3    0  502  0.54612969149E+03  0.53318354078E+03  0.84492854474E+03  0.11386257786E+04  0.46999998093E+01 0. -1.
</event>
<event>
 5   0  0.4361864E-06  0.2608726E+04  0.7818609E-02  0.8365243E-01
        1   -1    0    0  501    0  0.00000000000E+00  0.00000000000E+00  0.21680629129E+04  0.21680629129E+04  0.50400001928E-02 0. -1.
       -1   -1    0    0    0  501  0.00000000000E+00  0.00000000000E+00 -0.78473898041E+03  0.78473898043E+03  0.50400001928E-02 0.  1.
    10030    2    1    2    0    0  0.00000000000E+00  0.00000000000E+00  0.13833239325E+04  0.29528018933E+04  0.26087264937E+04 0.  0.
        3    1    3    3  502    0  0.15234650928E+03 -0.10376358644E+03  0.21532466529E+04  0.21611218150E+04  0.10100000352E+00 0. -1.
       -3    1    3    3    0  502 -0.15234650928E+03  0.10376358644E+03 -0.76992272044E+03  0.79168007832E+03  0.10100000352E+00 0.  1.
</event>
<event>
 5   0  0.3705250E-06  0.2593398E+04  0.7818609E-02  0.8370447E-01
       -3   -1    0    0    0  501  0.00000000000E+00  0.00000000000E+00  0.11854363953E+04  0.11854363996E+04  0.10100000352E+00 0.  1.
        3   -1    0    0  501    0  0.00000000000E+00  0.00000000000E+00 -0.14184050139E+04  0.14184050175E+04  0.10100000352E+00 0. -1.
    10030    2    1    2    0    0  0.00000000000E+00  0.00000000000E+00 -0.23296861856E+03  0.26038414171E+04  0.25933984939E+04 0.  0.
        3    1    3    3  502    0 -0.86051683394E+03  0.83115526179E+03  0.38565016451E+03  0.12569941727E+04  0.10100000352E+00 0.  1.
       -3    1    3    3    0  502  0.86051683394E+03 -0.83115526179E+03 -0.61861878307E+03  0.13468472444E+04  0.10100000352E+00 0. -1.
</event>
<event>
 5   0  0.1086507E-05  0.2601247E+04  0.7818609E-02  0.8367778E-01
        2   -1    0    0  501    0  0.00000000000E+00  0.00000000000E+00  0.10112535698E+04  0.10112535698E+04  0.25500000920E-02 0. -1.
       -2   -1    0    0    0  501  0.00000000000E+00  0.00000000000E+00 -0.16727963401E+04  0.16727963401E+04  0.25500000920E-02 0.  1.
    10030    2    1    2    0    0  0.00000000000E+00  0.00000000000E+00 -0.66154277024E+03  0.26840499099E+04  0.26012468322E+04 0.  0.
        2    1    3    3  502    0 -0.66369432103E+03  0.27818153154E+03  0.78711100318E+03  0.10664984049E+04  0.25500000920E-02 0. -1.
       -2    1    3    3    0  502  0.66369432103E+03 -0.27818153154E+03 -0.14486537734E+04  0.16175515051E+04  0.25500000920E-02 0.  1.
</event>
<event>
 5   0  0.1085255E-05  0.2589452E+04  0.7818609E-02  0.8371793E-01
        2   -1    0    0  501    0  0.00000000000E+00  0.00000000000E+00  0.12526183063E+04  0.12526183063E+04  0.25500000920E-02 0. -1.
       -2   -1    0    0    0  501  0.00000000000E+00  0.00000000000E+00 -0.13382490836E+04  0.13382490836E+04  0.25500000920E-02 0.  1.
    10030    2    1    2    0    0  0.00000000000E+00  0.00000000000E+00 -0.85630777261E+02  0.25908673899E+04  0.25894519115E+04 0.  0.
        5    1    3    3  502    0  0.37171584394E+02 -0.15621820038E+03  0.12426076128E+04  0.12529491698E+04  0.46999998093E+01 0. -1.
       -5    1    3    3    0  502 -0.37171584394E+02  0.15621820038E+03 -0.13282383901E+04  0.13379182201E+04  0.46999998093E+01 0.  1.
</event>
<event>
 5   0  0.4464297E-06  0.2587497E+04  0.7818609E-02  0.8372461E-01
       -1   -1    0    0    0  501  0.00000000000E+00  0.00000000000E+00  0.96008104326E+03  0.96008104327E+03  0.50400001928E-02 0. -1.
        1   -1    0    0  501    0  0.00000000000E+00  0.00000000000E+00 -0.17433788636E+04  0.17433788636E+04  0.50400001928E-02 0.  1.
    10030    2    1    2    0    0  0.00000000000E+00  0.00000000000E+00 -0.78329782033E+03  0.27034599069E+04  0.25874968585E+04 0.  0.
        4    1    3    3  502    0 -0.54972429979E+02 -0.47723806132E+03  0.86343874413E+03  0.98808208818E+03  0.12699999809E+01 0. -1.
       -4    1    3    3    0  502  0.54972429979E+02  0.47723806132E+03 -0.16467365645E+04  0.17153778187E+04  0.12699999809E+01 0.  1.
</event>
<event>
 5   0  0.1116310E-05  0.2598322E+04  0.7818609E-02  0.8368771E-01
        2   -1    0    0  501    0  0.00000000000E+00  0.00000000000E+00  0.10638094865E+04  0.10638094865E+04  0.25500000920E-02 0. -1.
       -2   -1    0    0    0  501  0.00000000000E+00  0.00000000000E+00 -0.15865800627E+04  0.15865800627E+04  0.25500000920E-02 0.  1.
    10030    2    1    2    0    0  0.00000000000E+00  0.00000000000E+00 -0.52277057627E+03  0.26503895492E+04  0.25983217059E+04 0.  0.
        4    1    3    3  502    0  0.16879210272E+03  0.88315501782E+03  0.69515015815E+03  0.11365249292E+04  0.12699999809E+01 0. -1.
       -4    1    3    3    0  502 -0.16879210272E+03 -0.88315501782E+03 -0.12179207344E+04  0.15138646200E+04  0.12699999809E+01 0.  1.
</event>
<event>
 5   0  0.4597705E-06  0.2615887E+04  0.7818609E-02  0.8362825E-01
       -1   -1    0    0    0  501  0.00000000000E+00  0.00000000000E+00  0.12327602796E+04  0.12327602796E+04  0.50400001928E-02 0. -1.
        1   -1    0    0  501    0  0.00000000000E+00  0.00000000000E+00 -0.13877118156E+04  0.13877118156E+04  0.50400001928E-02 0.  1.
    10030    2    1    2    0    0  0.00000000000E+00  0.00000000000E+00 -0.15495153608E+03  0.26204720952E+04  0.26158868521E+04 0.  0.
        5    1    3    3  502    0 -0.12107243659E+04  0.49477181750E+03 -0.71040009952E+02  0.13098554938E+04  0.46999998093E+01 0.  1.
       -5    1    3    3    0  502  0.12107243659E+04 -0.49477181750E+03 -0.83911526129E+02  0.13106166014E+04  0.46999998093E+01 0. -1.
</event>
<event>
 5   0  0.1086507E-05  0.2602571E+04  0.7818609E-02  0.8367328E-01
        2   -1    0    0  501    0  0.00000000000E+00  0.00000000000E+00  0.20403122995E+04  0.20403122995E+04  0.25500000920E-02 0.  1.
       -2   -1    0    0    0  501  0.00000000000E+00  0.00000000000E+00 -0.82994347619E+03  0.82994347620E+03  0.25500000920E-02 0. -1.
    10030    2    1    2    0    0  0.00000000000E+00  0.00000000000E+00  0.12103688233E+04  0.28702557757E+04  0.26025709461E+04 0.  0.
        2    1    3    3  502    0  0.50539699238E+03  0.89672224474E+03  0.14831884846E+04  0.18053766879E+04  0.25500000920E-02 0.  1.
       -2    1    3    3    0  502 -0.50539699238E+03 -0.89672224474E+03 -0.27281966132E+03  0.10648790878E+04  0.25500000920E-02 0. -1.
</event>
<event>
 5   0  0.1136881E-05  0.2594758E+04  0.7818609E-02  0.8369984E-01
        2   -1    0    0  501    0  0.00000000000E+00  0.00000000000E+00  0.16068675490E+04  0.16068675490E+04  0.25500000920E-02 0.  1.
       -2   -1    0    0    0  501  0.00000000000E+00  0.00000000000E+00 -0.10474993168E+04  0.10474993168E+04  0.25500000920E-02 0. -1.
    10030    2    1    2    0    0  0.00000000000E+00  0.00000000000E+00  0.55936823229E+03  0.26543668658E+04  0.25947583007E+04 0.  0.
        3    1    3    3  502    0 -0.42226638833E+03  0.51985599890E+03  0.14163506241E+04  0.15667189483E+04  0.10100000352E+00 0.  1.
       -3    1    3    3    0  502  0.42226638833E+03 -0.51985599890E+03 -0.85698239184E+03  0.10876479175E+04  0.10100000352E+00 0. -1.
</event>
<event>
 5   0  0.4415080E-06  0.2622762E+04  0.7818609E-02  0.8360510E-01
        1   -1    0    0  501    0  0.00000000000E+00  0.00000000000E+00  0.89835822763E+03  0.89835822764E+03  0.50400001928E-02 0. -1.
       -1   -1    0    0    0  501  0.00000000000E+00  0.00000000000E+00 -0.19142918423E+04  0.19142918423E+04  0.50400001928E-02 0.  1.
    10030    2    1    2    0    0  0.00000000000E+00  0.00000000000E+00 -0.10159336147E+04  0.28126500700E+04  0.26227617708E+04 0.  0.
        2    1    3    3  502    0  0.28498868539E+03 -0.11668521439E+03  0.85903247147E+03  0.91256275242E+03  0.25500000920E-02 0. -1.
       -2    1    3    3    0  502 -0.28498868539E+03  0.11668521439E+03 -0.18749660862E+04  0.19000873175E+04  0.25500000920E-02 0.  1.
</event>
<event>
 5   0  0.4597705E-06  0.2604463E+04  0.7818609E-02  0.8366687E-01
        1   -1    0    0  501    0  0.00000000000E+00  0.00000000000E+00  0.27847732319E+04  0.27847732319E+04  0.50400001928E-02 0. -1.
       -1   -1    0    0    0  501  0.00000000000E+00  0.00000000000E+00 -0.60895678452E+03  0.60895678454E+03  0.50400001928E-02 0.  1.
    10030    2    1    2    0    0  0.00000000000E+00  0.00000000000E+00  0.21758164473E+04  0.33937300164E+04  0.26044627492E+04 0.  0.
        5    1    3    3  502    0  0.41403291984E+03  0.57344419425E+03  0.25126563682E+04  0.26103114023E+04  0.46999998093E+01 0. -1.
       -5    1    3    3    0  502 -0.41403291984E+03 -0.57344419425E+03 -0.33683992082E+03  0.78341861408E+03  0.46999998093E+01 0.  1.
</event>
<event>
 5   0  0.1136881E-05  0.2586805E+04  0.7818609E-02  0.8372697E-01
       -2   -1    0    0    0  501  0.00000000000E+00  0.00000000000E+00  0.96114529083E+03  0.96114529083E+03  0.25500000920E-02 0.  1.
        2   -1    0    0  501    0  0.00000000000E+00  0.00000000000E+00 -0.17405176793E+04  0.17405176793E+04  0.25500000920E-02 0. -1.
    10030    2    1    2    0    0  0.00000000000E+00  0.00000000000E+00 -0.77937238850E+03  0.27016629702E+04  0.25868052660E+04 0.  0.
        3    1    3    3  502    0 -0.15902978571E+03 -0.42887437390E+03  0.87385243552E+03  0.98632742565E+03  0.10100000352E+00 0.  1.
       -3    1    3    3    0  502  0.15902978571E+03  0.42887437390E+03 -0.16532248240E+04  0.17153355445E+04  0.10100000352E+00 0. -1.
</event>
<event>
 5   0  0.1136881E-05  0.2599579E+04  0.7818609E-02  0.8368344E-01
       -2   -1    0    0    0  501  0.00000000000E+00  0.00000000000E+00  0.10674855091E+04  0.10674855091E+04  0.25500000920E-02 0. -1.
        2   -1    0    0  501    0  0.00000000000E+00  0.00000000000E+00 -0.15826472078E+04  0.15826472078E+04  0.25500000920E-02 0.  1.
    10030    2    1    2    0    0  0.00000000000E+00  0.00000000000E+00 -0.51516169869E+03  0.26501327169E+04  0.25995791662E+04 0.  0.
        3    1    3    3  502    0 -0.10450686097E+04 -0.50939140628E+03  0.33493173430E+03  0.12098873008E+04  0.10100000352E+00 0. -1.
       -3    1    3    3    0  502  0.10450686097E+04  0.50939140628E+03 -0.85009343299E+03  0.14402454161E+04  0.10100000352E+00 0.  1.
</event>
<event>
 5   0  0.1086507E-05  0.2610809E+04  0.7818609E-02  0.8364539E-01
       -2   -1    0    0    0  501  0.00000000000E+00  0.00000000000E+00  0.88735772270E+03  0.88735772271E+03  0.25500000920E-02 0.  1.
        2   -1    0    0  501    0  0.00000000000E+00  0.00000000000E+00 -0.19203995363E+04  0.19203995363E+04  0.25500000920E-02 0. -1.
    10030    2    1    2    0    0  0.00000000000E+00  0.00000000000E+00 -0.10330418136E+04  0.28077572590E+04  0.26108093452E+04 0.  0.
        2    1    3    3  502    0 -0.63259761006E+03  0.11004943440E+03  0.70578661559E+03  0.95416212512E+03  0.25500000920E-02 0.  1.
       -2    1    3    3    0  502  0.63259761006E+03 -0.11004943440E+03 -0.17388284292E+04  0.18535951339E+04  0.25500000920E-02 0. -1.
</event>
<event>
 5   0  0.4218590E-06  0.2591992E+04  0.7818609E-02  0.8370926E-01
        1   -1    0    0  501    0  0.00000000000E+00  0.00000000000E+00  0.13934788511E+04  0.13934788511E+04  0.50400001928E-02 0. -1.
       -1   -1    0    0    0  501  0.00000000000E+00  0.00000000000E+00 -0.12053331453E+04  0.12053331453E+04  0.50400001928E-02 0.  1.
    10030    2    1    2    0    0  0.00000000000E+00  0.00000000000E+00  0.18814570587E+03  0.25988119964E+04  0.25919924742E+04 0.  0.
        1    1    3    3  502    0  0.10214117962E+04  0.42516723453E+03 -0.58265257342E+03  0.12504132341E+04  0.50400001928E-02 0.  1.
       -1    1    3    3    0  502 -0.10214117962E+04 -0.42516723453E+03  0.77079827929E+03  0.13483987623E+04  0.50400001928E-02 0. -1.
</event>
<event>
 5   0  0.1116310E-05  0.2588251E+04  0.7818609E-02  0.8372203E-01
       -2   -1    0    0    0  501  0.00000000000E+00  0.00000000000E+00  0.89563841355E+03  0.89563841355E+03  0.25500000920E-02 0.  1.
        2   -1    0    0  501    0  0.00000000000E+00  0.00000000000E+00 -0.18699077508E+04  0.18699077508E+04  0.25500000920E-02 0. -1.
    10030    2    1    2    0    0  0.00000000000E+00  0.00000000000E+00 -0.97426933728E+03  0.27655461644E+04  0.25882513104E+04 0.  0.
        4    1    3    3  502    0 -0.10564806704E+04 -0.63742041270E+03 -0.90412816540E+03  0.15296749792E+04  0.12699999809E+01 0. -1.
       -4    1    3    3    0  502  0.10564806704E+04  0.63742041270E+03 -0.70141171877E+02  0.12358711852E+04  0.12699999809E+01 0.  1.
</event>
<event>
 5   0  0.1136881E-05  0.2644945E+04  0.7818609E-02  0.8353093E-01
       -2   -1    0    0    0  501  0.00000000000E+00  0.00000000000E+00  0.12392242264E+04  0.12392242264E+04  0.25500000920E-02 0. -1.
        2   -1    0    0  501    0  0.00000000000E+00  0.00000000000E+00 -0.14113137121E+04  0.14113137121E+04  0.25500000920E-02 0.  1.
    10030    2    1    2    0    0  0.00000000000E+00  0.00000000000E+00 -0.17208948574E+03  0.26505379385E+04  0.26449454762E+04 0.  0.
        3    1    3    3  502    0 -0.18317938639E+03 -0.87414467227E+03  0.89133820697E+03  0.12618111606E+04  0.10100000352E+00 0. -1.
       -3    1    3    3    0  502  0.18317938639E+03  0.87414467227E+03 -0.10634276927E+04  0.13887267778E+04  0.10100000352E+00 0.  1.
</event>
<event>
 5   0  0.4415080E-06  0.2591869E+04  0.7818609E-02  0.8370968E-01
        1   -1    0    0  501    0  0.00000000000E+00  0.00000000000E+00  0.66899679719E+03  0.66899679721E+03  0.50400001928E-02 0.  1.
       -1   -1    0    0    0  501  0.00000000000E+00  0.00000000000E+00 -0.25103957011E+04  0.25103957011E+04  0.50400001928E-02 0. -1.
    10030    2    1    2    0    0  0.00000000000E+00  0.00000000000E+00 -0.18413989039E+04  0.31793924983E+04  0.25918693515E+04 0.  0.
        2    1    3    3  502    0 -0.62607085917E+03  0.87941723633E+03 -0.41154745833E+02  0.10802930664E+04  0.25500000920E-02 0.  1.
       -2    1    3    3    0  502  0.62607085917E+03 -0.87941723633E+03 -0.18002441581E+04  0.20990994319E+04  0.25500000920E-02 0. -1.
</event>
<event>
 5   0  0.4218590E-06  0.2603561E+04  0.7818609E-02  0.8366993E-01
       -1   -1    0    0    0  501  0.00000000000E+00  0.00000000000E+00  0.12964894228E+04  0.12964894229E+04  0.50400001928E-02 0. -1.
        1   -1    0    0  501    0  0.00000000000E+00  0.00000000000E+00 -0.13070929424E+04  0.13070929425E+04  0.50400001928E-02 0.  1.
    10030    2    1    2    0    0  0.00000000000E+00  0.00000000000E+00 -0.10603519607E+02  0.26035823653E+04  0.26035607729E+04 0.  0.
        1    1    3    3  502    0 -0.46150552898E+03  0.66473384564E+03 -0.10250031780E+04  0.13059440853E+04  0.50400001928E-02 0.  1.
       -1    1    3    3    0  502  0.46150552898E+03 -0.66473384564E+03  0.10143996584E+04  0.12976382801E+04  0.50400001928E-02 0. -1.
</event>
<event>
 5   0  0.1085061E-05  0.2634071E+04  0.7818609E-02  0.8356719E-01
        2   -1    0    0  501    0  0.00000000000E+00  0.00000000000E+00  0.18384971661E+04  0.18384971661E+04  0.25500000920E-02 0.  1.
       -2   -1    0    0    0  501  0.00000000000E+00  0.00000000000E+00 -0.94347863034E+03  0.94347863034E+03  0.25500000920E-02 0. -1.
    10030    2    1    2    0    0  0.00000000000E+00  0.00000000000E+00  0.89501853575E+03  0.27819757964E+04  0.26340712125E+04 0.  0.
        1    1    3    3  502    0 -0.12902500664E+04  0.20476133133E+03  0.62395391490E+03  0.14477537514E+04  0.50400001928E-02 0.  1.
       -1    1    3    3    0  502  0.12902500664E+04 -0.20476133133E+03  0.27106462086E+03  0.13342220450E+04  0.50400001928E-02 0. -1.
</event>
<event>
 5   0  0.4597705E-06  0.2610717E+04  0.7818609E-02  0.8364570E-01
       -1   -1    0    0    0  501  0.00000000000E+00  0.00000000000E+00  0.15143343107E+04  0.15143343107E+04  0.50400001928E-02 0. -1.
        1   -1    0    0  501    0  0.00000000000E+00  0.00000000000E+00 -0.11252207352E+04  0.11252207352E+04  0.50400001928E-02 0.  1.
    10030    2    1    2    0    0  0.00000000000E+00  0.00000000000E+00  0.38911357551E+03  0.26395550459E+04  0.26107166575E+04 0.  0.
        5    1    3    3  502    0 -0.75267314175E+03  0.77320013661E+03  0.93723400082E+03  0.14292602884E+04  0.46999998093E+01 0. -1.
       -5    1    3    3    0  502  0.75267314175E+03 -0.77320013661E+03 -0.54812042531E+03  0.12102947576E+04  0.46999998093E+01 0.  1.
</event>
<event>
 5   0  0.4218590E-06  0.2589509E+04  0.7818609E-02  0.8371774E-01
       -1   -1    0    0    0  501  0.00000000000E+00  0.00000000000E+00  0.59421257255E+03  0.59421257257E+03  0.50400001928E-02 0. -1.
        1   -1    0    0  501    0  0.00000000000E+00  0.00000000000E+00 -0.28211939513E+04  0.28211939513E+04  0.50400001928E-02 0.  1.
    10030    2    1    2    0    0  0.00000000000E+00  0.00000000000E+00 -0.22269813787E+04  0.34154065239E+04  0.25895087685E+04 0.  0.
        1    1    3    3  502    0 -0.10178121075E+04  0.42198116249E+03 -0.21663158267E+03  0.11229153264E+04  0.50400001928E-02 0. -1.
       -1    1    3    3    0  502  0.10178121075E+04 -0.42198116249E+03 -0.20103497961E+04  0.22924911974E+04  0.50400001928E-02 0.  1.
</event>
<event>
 5   0  0.1136881E-05  0.2444776E+04  0.7818609E-02  0.8422928E-01
        2   -1    0    0  501    0  0.00000000000E+00  0.00000000000E+00  0.23076895811E+04  0.23076895811E+04  0.25500000920E-02 0.  1.
       -2   -1    0    0    0  501  0.00000000000E+00  0.00000000000E+00 -0.64750136269E+03  0.64750136270E+03  0.25500000920E-02 0. -1.
    10030    2    1    2    0    0  0.00000000000E+00  0.00000000000E+00  0.16601882184E+04  0.29551909438E+04  0.24447757758E+04 0.  0.
        3    1    3    3  502    0 -0.60998448570E+03 -0.92798770362E+03  0.21256369292E+03  0.11306748359E+04  0.10100000352E+00 0. -1.
       -3    1    3    3    0  502  0.60998448570E+03  0.92798770362E+03  0.14476245255E+04  0.18245161079E+04  0.10100000352E+00 0.  1.
</event>
<event>
 5   0  0.4218590E-06  0.2607259E+04  0.7818609E-02  0.8365740E-01
        1   -1    0    0  501    0  0.00000000000E+00  0.00000000000E+00  0.15449910014E+04  0.15449910014E+04  0.50400001928E-02 0.  1.
       -1   -1    0    0    0  501  0.00000000000E+00  0.00000000000E+00 -0.10999739066E+04  0.10999739066E+04  0.50400001928E-02 0. -1.
    10030    2    1    2    0    0  0.00000000000E+00  0.00000000000E+00  0.44501709480E+03  0.26449649080E+04  0.26072589342E+04 0.  0.
        1    1    3    3  502    0  0.10443523677E+04  0.13778334038E+02 -0.56889404755E+03  0.11893284441E+04  0.50400001928E-02 0. -1.
       -1    1    3    3    0  502 -0.10443523677E+04 -0.13778334038E+02  0.10139111423E+04  0.14556364639E+04  0.50400001928E-02 0.  1.
</event>
<event>
 5   0  0.4218590E-06  0.2595803E+04  0.7818609E-02  0.8369628E-01
       -1   -1    0    0    0  501  0.00000000000E+00  0.00000000000E+00  0.66767387641E+03  0.66767387643E+03  0.50400001928E-02 0. -1.
        1   -1    0    0  501    0  0.00000000000E+00  0.00000000000E+00 -0.25230108695E+04  0.25230108695E+04  0.50400001928E-02 0.  1.
    10030    2    1    2    0    0  0.00000000000E+00  0.00000000000E+00 -0.18553369931E+04  0.31906847459E+04  0.25958031108E+04 0.  0.
        1    1    3    3  502    0  0.10262856036E+03 -0.10402328397E+04 -0.18733564583E+04  0.21452462334E+04  0.50400001928E-02 0.  1.
       -1    1    3    3    0  502 -0.10262856036E+03  0.10402328397E+04  0.18019465244E+02  0.10454385125E+04  0.50400001928E-02 0. -1.
</event>
<event>
 5   0  0.4415080E-06  0.2584223E+04  0.7818609E-02  0.8373580E-01
       -1   -1    0    0    0  501  0.00000000000E+00  0.00000000000E+00  0.11232639572E+04  0.11232639572E+04  0.50400001928E-02 0. -1.
        1   -1    0    0  501    0  0.00000000000E+00  0.00000000000E+00 -0.14863399014E+04  0.14863399014E+04  0.50400001928E-02 0.  1.
    10030    2    1    2    0    0  0.00000000000E+00  0.00000000000E+00 -0.36307594420E+03  0.26096038585E+04  0.25842229310E+04 0.  0.
        2    1    3    3  502    0  0.33968339061E+03  0.57532929294E+03 -0.12983674170E+04  0.14601871629E+04  0.25500000920E-02 0.  1.
       -2    1    3    3    0  502 -0.33968339061E+03 -0.57532929294E+03  0.93529147279E+03  0.11494166957E+04  0.25500000920E-02 0. -1.
</event>
<event>
 5   0  0.1085061E-05  0.2605565E+04  0.7818609E-02  0.8366313E-01
       -2   -1    0    0    0  501  0.00000000000E+00  0.00000000000E+00  0.87230512492E+03  0.87230512493E+03  0.25500000920E-02 0. -1.
        2   -1    0    0  501    0  0.00000000000E+00  0.00000000000E+00 -0.19456976439E+04  0.19456976439E+04  0.25500000920E-02 0.  1.
    10030    2    1    2    0    0  0.00000000000E+00  0.00000000000E+00 -0.10733925190E+04  0.28180027688E+04  0.26055648342E+04 0.  0.
        1    1    3    3  502    0 -0.92139662827E+03 -0.78024502958E+03 -0.10659712657E+04  0.16106051012E+04  0.50400001928E-02 0.  1.
       -1    1    3    3    0  502  0.92139662827E+03  0.78024502958E+03 -0.74212533178E+01  0.12073976676E+04  0.50400001928E-02 0. -1.
</event>
<event>
 5   0  0.3705250E-06  0.2541273E+04  0.7818609E-02  0.8388428E-01
       -3   -1    0    0    0  501  0.00000000000E+00  0.00000000000E+00  0.15484939437E+04  0.15484939470E+04  0.10100000352E+00 0. -1.
        3   -1    0    0  501    0  0.00000000000E+00  0.00000000000E+00 -0.10426367402E+04  0.10426367451E+04  0.10100000352E+00 0.  1.
    10030    2    1    2    0    0  0.00000000000E+00  0.00000000000E+00  0.50585720356E+03  0.25911306921E+04  0.25412726641E+04 0.  0.
        3    1    3    3  502    0 -0.75181660947E+03 -0.99702433354E+03  0.13305172231E+02  0.12487845185E+04  0.10100000352E+00 0.  1.
       -3    1    3    3    0  502  0.75181660947E+03  0.99702433354E+03  0.49255203132E+03  0.13423461736E+04  0.10100000352E+00 0. -1.
</event>
<event>
 5   0  0.1136881E-05  0.2603538E+04  0.7818609E-02  0.8367001E-01
        2   -1    0    0  501    0  0.00000000000E+00  0.00000000000E+00  0.20549794836E+04  0.20549794836E+04  0.25500000920E-02 0.  1.
       -2   -1    0    0    0  501  0.00000000000E+00  0.00000000000E+00 -0.82463214972E+03  0.82463214972E+03  0.25500000920E-02 0. -1.
    10030    2    1    2    0    0  0.00000000000E+00  0.00000000000E+00  0.12303473339E+04  0.28796116333E+04  0.26035377080E+04 0.  0.
        3    1    3    3  502    0  0.34686172351E+03  0.67788862815E+03  0.17829508204E+04  0.19387520950E+04  0.10100000352E+00 0.  1.
       -3    1    3    3    0  502 -0.34686172351E+03 -0.67788862815E+03 -0.55260348654E+03  0.94085953837E+03  0.10100000352E+00 0. -1.
</event>
<event>
 5   0  0.1086507E-05  0.2592140E+04  0.7818609E-02  0.8370876E-01
       -2   -1    0    0    0  501  0.00000000000E+00  0.00000000000E+00  0.19676821794E+04  0.19676821794E+04  0.25500000920E-02 0. -1.
        2   -1    0    0  501    0  0.00000000000E+00  0.00000000000E+00 -0.85369372271E+03  0.85369372271E+03  0.25500000920E-02 0.  1.
    10030    2    1    2    0    0  0.00000000000E+00  0.00000000000E+00  0.11139884567E+04  0.28213759021E+04  0.25921403703E+04 0.  0.
        2    1    3    3  502    0 -0.10635345917E+04 -0.57812398790E+03  0.10610520971E+04  0.16097095160E+04  0.25500000920E-02 0. -1.
       -2    1    3    3    0  502  0.10635345917E+04  0.57812398790E+03  0.52936359586E+02  0.12116663861E+04  0.25500000920E-02 0.  1.
</event>
<event>
 5   0  0.1085061E-05  0.2592605E+04  0.7818609E-02  0.8370718E-01
        2   -1    0    0  501    0  0.00000000000E+00  0.00000000000E+00  0.14918295999E+04  0.14918295999E+04  0.25500000920E-02 0.  1.
       -2   -1    0    0    0  501  0.00000000000E+00  0.00000000000E+00 -0.11264019208E+04  0.11264019208E+04  0.25500000920E-02 0. -1.
    10030    2    1    2    0    0  0.00000000000E+00  0.00000000000E+00  0.36542767911E+03  0.26182315206E+04  0.25926046569E+04 0.  0.
        1    1    3    3  502    0  0.10426811531E+04 -0.71029866377E+03  0.48346884762E+03  0.13510922638E+04  0.50400001928E-02 0. -1.
       -1    1    3    3    0  502 -0.10426811531E+04  0.71029866377E+03 -0.11804116851E+03  0.12671392568E+04  0.50400001928E-02 0.  1.
</event>
<event>
 5   0  0.1136881E-05  0.2587323E+04  0.7818609E-02  0.8372520E-01
       -2   -1    0    0    0  501  0.00000000000E+00  0.00000000000E+00  0.56329307438E+03  0.56329307438E+03  0.25500000920E-02 0.  1.
        2   -1    0    0  501    0  0.00000000000E+00  0.00000000000E+00 -0.29710292208E+04  0.29710292208E+04  0.25500000920E-02 0. -1.
    10030    2    1    2    0    0  0.00000000000E+00  0.00000000000E+00 -0.24077361464E+04  0.35343222952E+04  0.25873230829E+04 0.  0.
        3    1    3    3  502    0 -0.10250057656E+04  0.73337846927E+03 -0.16023123863E+04  0.20385989778E+04  0.10100000352E+00 0. -1.
       -3    1    3    3    0  502  0.10250057656E+04 -0.73337846927E+03 -0.80542376015E+03  0.14957233174E+04  0.10100000352E+00 0.  1.
</event>
<event>
 5   0  0.4218590E-06  0.2597099E+04  0.7818609E-02  0.8369187E-01
       -1   -1    0    0    0  501  0.00000000000E+00  0.00000000000E+00  0.13857400749E+04  0.13857400749E+04  0.50400001928E-02 0. -1.
        1   -1    0    0  501    0  0.00000000000E+00  0.00000000000E+00 -0.12168445059E+04  0.12168445059E+04  0.50400001928E-02 0.  1.
    10030    2    1    2    0    0  0.00000000000E+00  0.00000000000E+00  0.16889556892E+03  0.26025845808E+04  0.25970985324E+04 0.  0.
        1    1    3    3  502    0  0.47144269244E+03  0.10232787740E+04  0.73146832380E+03  0.13432808978E+04  0.50400001928E-02 0. -1.
       -1    1    3    3    0  502 -0.47144269244E+03 -0.10232787740E+04 -0.56257275487E+03  0.12593036830E+04  0.50400001928E-02 0.  1.
</event>
<event>
 5   0  0.3705250E-06  0.2602586E+04  0.7818609E-02  0.8367323E-01
       -3   -1    0    0    0  501  0.00000000000E+00  0.00000000000E+00  0.12596873428E+04  0.12596873468E+04  0.10100000352E+00 0. -1.
        3   -1    0    0  501    0  0.00000000000E+00  0.00000000000E+00 -0.13442727074E+04  0.13442727112E+04  0.10100000352E+00 0.  1.
    10030    2    1    2    0    0  0.00000000000E+00  0.00000000000E+00 -0.84585364650E+02  0.26039600580E+04  0.26025858871E+04 0.  0.
        1    1    3    3  502    0 -0.24974071716E+03 -0.12288830788E+04 -0.39009567000E+03  0.13132778377E+04  0.50400001928E-02 0. -1.
       -1    1    3    3    0  502  0.24974071716E+03  0.12288830788E+04  0.30551030535E+03  0.12906822203E+04  0.50400001928E-02 0.  1.
</event>
<event>
 5   0  0.1116310E-05  0.2602188E+04  0.7818609E-02  0.8367459E-01
        2   -1    0    0  501    0  0.00000000000E+00  0.00000000000E+00  0.10755168739E+04  0.10755168739E+04  0.25500000920E-02 0. -1.
       -2   -1    0    0    0  501  0.00000000000E+00  0.00000000000E+00 -0.15739827405E+04  0.15739827405E+04  0.25500000920E-02 0.  1.
    10030    2    1    2    0    0  0.00000000000E+00  0.00000000000E+00 -0.49846586659E+03  0.26494996144E+04  0.26021875387E+04 0.  0.
        4    1    3    3  502    0  0.41918881522E+03  0.89633567337E+03  0.61093864446E+03  0.11629206948E+04  0.12699999809E+01 0. -1.
       -4    1    3    3    0  502 -0.41918881522E+03 -0.89633567337E+03 -0.11094045110E+04  0.14865789196E+04  0.12699999809E+01 0.  1.
</event>
<event>
 5   0  0.1086507E-05  0.2593620E+04  0.7818609E-02  0.8370371E-01
        2   -1    0    0  501    0  0.00000000000E+00  0.00000000000E+00  0.12580917196E+04  0.12580917196E+04  0.25500000920E-02 0. -1.
       -2   -1    0    0    0  501  0.00000000000E+00  0.00000000000E+00 -0.13367203241E+04  0.13367203241E+04  0.25500000920E-02 0.  1.
    10030    2    1    2    0    0  0.00000000000E+00  0.00000000000E+00 -0.78628604435E+02  0.25948120437E+04  0.25936204589E+04 0.  0.
        2    1    3    3  502    0 -0.76002758407E+03  0.23290426275E+03 -0.10643973789E+04  0.13284683302E+04  0.25500000920E-02 0.  1.
       -2    1    3    3    0  502  0.76002758407E+03 -0.23290426275E+03  0.98576877444E+03  0.12663437135E+04  0.25500000920E-02 0. -1.
</event>
<event>
 5   0  0.4415080E-06  0.2618584E+04  0.7818609E-02  0.8361916E-01
       -1   -1    0    0    0  501  0.00000000000E+00  0.00000000000E+00  0.76321004933E+03  0.76321004935E+03  0.50400001928E-02 0. -1.
        1   -1    0    0  501    0  0.00000000000E+00  0.00000000000E+00 -0.22460992570E+04  0.22460992570E+04  0.50400001928E-02 0.  1.
    10030    2    1    2    0    0  0.00000000000E+00  0.00000000000E+00 -0.14828892076E+04  0.30093093063E+04  0.26185839874E+04 0.  0.
        2    1    3    3  502    0 -0.79134990752E+03  0.58844791987E+03 -0.17311960371E+04  0.19923717900E+04  0.25500000920E-02 0.  1.
       -2    1    3    3    0  502  0.79134990752E+03 -0.58844791987E+03  0.24830682950E+03  0.10169375163E+04  0.25500000920E-02 0. -1.
</event>
<event>
 5   0  0.4415080E-06  0.2591224E+04  0.7818609E-02  0.8371188E-01
        1   -1    0    0  501    0  0.00000000000E+00  0.00000000000E+00  0.14550066897E+04  0.14550066897E+04  0.50400001928E-02 0.  1.
       -1   -1    0    0    0  501  0.00000000000E+00  0.00000000000E+00 -0.11536787188E+04  0.11536787188E+04  0.50400001928E-02 0. -1.
    10030    2    1    2    0    0  0.00000000000E+00  0.00000000000E+00  0.30132797096E+03  0.26086854085E+04  0.25912238449E+04 0.  0.
        2    1    3    3  502    0  0.96328779212E+02  0.12399945327E+04 -0.21474830804E+03  0.12621341096E+04  0.25500000920E-02 0. -1.
       -2    1    3    3    0  502 -0.96328779212E+02 -0.12399945327E+04  0.51607627900E+03  0.13465512989E+04  0.25500000920E-02 0.  1.
</event>
<event>
 5   0  0.1085061E-05  0.2625789E+04  0.7818609E-02  0.8359494E-01
        2   -1    0    0  501    0  0.00000000000E+00  0.00000000000E+00  0.22325862244E+04  0.22325862244E+04  0.25500000920E-02 0. -1.
       -2   -1    0    0    0  501  0.00000000000E+00  0.00000000000E+00 -0.77206089130E+03  0.77206089131E+03  0.25500000920E-02 0.  1.
    10030    2    1    2    0    0  0.00000000000E+00  0.00000000000E+00  0.14605253331E+04  0.30046471157E+04  0.26257894130E+04 0.  0.
        1    1    3    3  502    0 -0.11112440191E+04 -0.18501088789E+03  0.15017848131E+04  0.18773518379E+04  0.50400001928E-02 0. -1.
       -1    1    3    3    0  502  0.11112440191E+04  0.18501088789E+03 -0.41259480016E+02  0.11272952778E+04  0.50400001928E-02 0.  1.
</event>
<event>
 5   0  0.4218590E-06  0.2601364E+04  0.7818609E-02  0.8367738E-01
       -1   -1    0    0    0  501  0.00000000000E+00  0.00000000000E+00  0.13210177403E+04  0.13210177403E+04  0.50400001928E-02 0.  1.
        1   -1    0    0  501    0  0.00000000000E+00  0.00000000000E+00 -0.12806590586E+04  0.12806590586E+04  0.50400001928E-02 0. -1.
    10030    2    1    2    0    0  0.00000000000E+00  0.00000000000E+00  0.40358681744E+02  0.26016767989E+04  0.26013637468E+04 0.  0.
        1    1    3    3  502    0  0.35043747795E+03 -0.73741582411E+03  0.10328152930E+04  0.13165469810E+04  0.50400001928E-02 0.  1.
       -1    1    3    3    0  502 -0.35043747795E+03  0.73741582411E+03 -0.99245661131E+03  0.12851298179E+04  0.50400001928E-02 0. -1.
</event>
<event>
 5   0  0.4597705E-06  0.2592621E+04  0.7818609E-02  0.8370712E-01
        1   -1    0    0  501    0  0.00000000000E+00  0.00000000000E+00  0.24624367333E+04  0.24624367333E+04  0.50400001928E-02 0.  1.
       -1   -1    0    0    0  501  0.00000000000E+00  0.00000000000E+00 -0.68242192519E+03  0.68242192521E+03  0.50400001928E-02 0. -1.
    10030    2    1    2    0    0  0.00000000000E+00  0.00000000000E+00  0.17800148081E+04  0.31448586585E+04  0.25926209258E+04 0.  0.
        5    1    3    3  502    0 -0.35052912713E+03  0.99573581632E+03  0.18026169262E+04  0.20889735177E+04  0.46999998093E+01 0.  1.
       -5    1    3    3    0  502  0.35052912713E+03 -0.99573581632E+03 -0.22602118121E+02  0.10558851408E+04  0.46999998093E+01 0. -1.
</event>
<event>
 5   0  0.4218590E-06  0.2587621E+04  0.7818609E-02  0.8372418E-01
        1   -1    0    0  501    0  0.00000000000E+00  0.00000000000E+00  0.70307677517E+03  0.70307677518E+03  0.50400001928E-02 0. -1.
       -1   -1    0    0    0  501  0.00000000000E+00  0.00000000000E+00 -0.23808857278E+04  0.23808857278E+04  0.50400001928E-02 0.  1.
    10030    2    1    2    0    0  0.00000000000E+00  0.00000000000E+00 -0.16778089526E+04  0.30839625030E+04  0.25876208838E+04 0.  0.
        1    1    3    3  502    0 -0.52398884493E+03 -0.21247031249E+03  0.54802973776E+03  0.78742906779E+03  0.50400001928E-02 0. -1.
       -1    1    3    3    0  502  0.52398884493E+03  0.21247031249E+03 -0.22258386904E+04  0.22965334352E+04  0.50400001928E-02 0.  1.
</event>
<event>
 5   0  0.4361864E-06  0.2603673E+04  0.7818609E-02  0.8366955E-01
       -1   -1    0    0    0  501  0.00000000000E+00  0.00000000000E+00  0.11422273415E+04  0.11422273415E+04  0.50400001928E-02 0.  1.
        1   -1    0    0  501    0  0.00000000000E+00  0.00000000000E+00 -0.14837480837E+04  0.14837480837E+04  0.50400001928E-02 0. -1.
    10030    2    1    2    0    0  0.00000000000E+00  0.00000000000E+00 -0.34152074220E+03  0.26259754252E+04  0.26036725056E+04 0.  0.
        3    1    3    3  502    0  0.67498981102E+03 -0.83549249955E+02 -0.12903075948E+04  0.14585902172E+04  0.10100000352E+00 0. -1.
       -3    1    3    3    0  502 -0.67498981102E+03  0.83549249955E+02  0.94878685261E+03  0.11673852081E+04  0.10100000352E+00 0.  1.
</event>
<event>
 5   0  0.1136881E-05  0.2591764E+04  0.7818609E-02  0.8371004E-01
        2   -1    0    0  501    0  0.00000000000E+00  0.00000000000E+00  0.26883407319E+04  0.26883407319E+04  0.25500000920E-02 0.  1.
       -2   -1    0    0    0  501  0.00000000000E+00  0.00000000000E+00 -0.62466405418E+03  0.62466405419E+03  0.25500000920E-02 0. -1.
    10030    2    1    2    0    0  0.00000000000E+00  0.00000000000E+00  0.20636766777E+04  0.33130047861E+04  0.25917637397E+04 0.  0.
        3    1    3    3  502    0 -0.96505104587E+03 -0.63016003098E+03  0.17890352312E+04  0.21281617078E+04  0.10100000352E+00 0. -1.
       -3    1    3    3    0  502  0.96505104587E+03  0.63016003098E+03  0.27464144645E+03  0.11848430783E+04  0.10100000352E+00 0.  1.
</event>
<event>
 5   0  0.1085061E-05  0.2844122E+04  0.7818609E-02  0.8289700E-01
        2   -1    0    0  501    0  0.00000000000E+00  0.00000000000E+00  0.17730850076E+04  0.17730850076E+04  0.25500000920E-02 0. -1.
       -2   -1    0    0    0  501  0.00000000000E+00  0.00000000000E+00 -0.11405306480E+04  0.11405306480E+04  0.25500000920E-02 0.  1.
    10030    2    1    2    0    0  0.00000000000E+00  0.00000000000E+00  0.63255435959E+03  0.29136156555E+04  0.28441222144E+04 0.  0.
        1    1    3    3  502    0 -0.32621483517E+03 -0.17055389355E+03 -0.10908765208E+04  0.11513107022E+04  0.50400001928E-02 0.  1.
       -1    1    3    3    0  502  0.32621483517E+03  0.17055389355E+03  0.17234308804E+04  0.17623049534E+04  0.50400001928E-02 0. -1.
</event>
<event>
 5   0  0.3705250E-06  0.2594959E+04  0.7818609E-02  0.8369915E-01
       -3   -1    0    0    0  501  0.00000000000E+00  0.00000000000E+00  0.14173168265E+04  0.14173168301E+04  0.10100000352E+00 0. -1.
        3   -1    0    0  501    0  0.00000000000E+00  0.00000000000E+00 -0.11877751093E+04  0.11877751136E+04  0.10100000352E+00 0.  1.
    10030    2    1    2    0    0  0.00000000000E+00  0.00000000000E+00  0.22954171715E+03  0.26050919437E+04  0.25949594670E+04 0.  0.
        5    1    3    3  502    0 -0.63997445876E+03  0.34834229162E+03  0.11925184778E+04  0.13975092378E+04  0.46999998093E+01 0. -1.
       -5    1    3    3    0  502  0.63997445876E+03 -0.34834229162E+03 -0.96297676063E+03  0.12075827059E+04  0.46999998093E+01 0.  1.
</event>
<event>
 5   0  0.1116310E-05  0.2608122E+04  0.7818609E-02  0.8365448E-01
       -2   -1    0    0    0  501  0.00000000000E+00  0.00000000000E+00  0.12001271938E+04  0.12001271938E+04  0.25500000920E-02 0.  1.
        2   -1    0    0  501    0  0.00000000000E+00  0.00000000000E+00 -0.14169954275E+04  0.14169954275E+04  0.25500000920E-02 0. -1.
    10030    2    1    2    0    0  0.00000000000E+00  0.00000000000E+00 -0.21686823370E+03  0.26171226213E+04  0.26081217349E+04 0.  0.
        4    1    3    3  502    0 -0.49411151101E+03 -0.12042791837E+04 -0.29814535956E+02  0.13020464880E+04  0.12699999809E+01 0. -1.
       -4    1    3    3    0  502  0.49411151101E+03  0.12042791837E+04 -0.18705369775E+03  0.13150761333E+04  0.12699999809E+01 0.  1.
</event>
<event>
 5   0  0.4415080E-06  0.2603284E+04  0.7818609E-02  0.8367087E-01
        1   -1    0    0  501    0  0.00000000000E+00  0.00000000000E+00  0.13009525357E+04  0.13009525357E+04  0.50400001928E-02 0.  1.
       -1   -1    0    0    0  501  0.00000000000E+00  0.00000000000E+00 -0.13023314435E+04  0.13023314435E+04  0.50400001928E-02 0. -1.
    10030    2    1    2    0    0  0.00000000000E+00  0.00000000000E+00 -0.13789077265E+01  0.26032839792E+04  0.26032836140E+04 0.  0.
        2    1    3    3  502    0  0.28823610520E+03  0.85852117397E+03 -0.93564024428E+03  0.13021372144E+04  0.25500000920E-02 0. -1.
       -2    1    3    3    0  502 -0.28823610520E+03 -0.85852117397E+03  0.93426133655E+03  0.13011467648E+04  0.25500000920E-02 0.  1.
</event>
<event>
 5   0  0.1085255E-05  0.2603554E+04  0.7818609E-02  0.8366995E-01
       -2   -1    0    0    0  501  0.00000000000E+00  0.00000000000E+00  0.10037121003E+04  0.10037121003E+04  0.25500000920E-02 0.  1.
        2   -1    0    0  501    0  0.00000000000E+00  0.00000000000E+00 -0.16883556173E+04  0.16883556173E+04  0.25500000920E-02 0. -1.
    10030    2    1    2    0    0  0.00000000000E+00  0.00000000000E+00 -0.68464351698E+03  0.26920677175E+04  0.26035536965E+04 0.  0.
        5    1    3    3  502    0  0.39444498884E+03 -0.88884474094E+03 -0.12371740957E+04  0.15736116598E+04  0.46999998093E+01 0. -1.
       -5    1    3    3    0  502 -0.39444498884E+03  0.88884474094E+03  0.55253057873E+03  0.11184560578E+04  0.46999998093E+01 0.  1.
</event>
<event>
 5   0  0.1085255E-05  0.2605910E+04  0.7818609E-02  0.8366196E-01
        2   -1    0    0  501    0  0.00000000000E+00  0.00000000000E+00  0.13549046114E+04  0.13549046114E+04  0.25500000920E-02 0. -1.
       -2   -1    0    0    0  501  0.00000000000E+00  0.00000000000E+00 -0.12529973227E+04  0.12529973227E+04  0.25500000920E-02 0.  1.
    10030    2    1    2    0    0  0.00000000000E+00  0.00000000000E+00  0.10190728871E+03  0.26079019340E+04  0.26059100909E+04 0.  0.
        5    1    3    3  502    0  0.10978333740E+04 -0.55932370403E+03 -0.37314926973E+03  0.12873785731E+04  0.46999998093E+01 0. -1.
       -5    1    3    3    0  502 -0.10978333740E+04  0.55932370403E+03  0.47505655844E+03  0.13205233609E+04  0.46999998093E+01 0.  1.
</event>
<event>
 5   0  0.1136881E-05  0.2660575E+04  0.7818609E-02  0.8347912E-01
       -2   -1    0    0    0  501  0.00000000000E+00  0.00000000000E+00  0.10216911670E+04  0.10216911670E+04  0.25500000920E-02 0. -1.
        2   -1    0    0  501    0  0.00000000000E+00  0.00000000000E+00 -0.17320934063E+04  0.17320934063E+04  0.25500000920E-02 0.  1.
    10030    2    1    2    0    0  0.00000000000E+00  0.00000000000E+00 -0.71040223931E+03  0.27537845733E+04  0.26605747752E+04 0.  0.
        3    1    3    3  502    0  0.89616607793E+03 -0.69120941746E+03 -0.10788225096E+04  0.15635671125E+04  0.10100000352E+00 0.  1.
       -3    1    3    3    0  502 -0.89616607793E+03  0.69120941746E+03  0.36842027028E+03  0.11902174607E+04  0.10100000352E+00 0. -1.
</event>
<event>
 5   0  0.1085255E-05  0.2610275E+04  0.7818609E-02  0.8364719E-01
       -2   -1    0    0    0  501  0.00000000000E+00  0.00000000000E+00  0.13438607107E+04  0.13438607107E+04  0.25500000920E-02 0.  1.
        2   -1    0    0  501    0  0.00000000000E+00  0.00000000000E+00 -0.12675304135E+04  0.12675304135E+04  0.25500000920E-02 0. -1.
    10030    2    1    2    0    0  0.00000000000E+00  0.00000000000E+00  0.76330297120E+02  0.26113911242E+04  0.26102753283E+04 0.  0.
        5    1    3    3  502    0  0.34593097544E+03  0.55503894345E+03 -0.10917536814E+04  0.12726683226E+04  0.46999998093E+01 0. -1.
       -5    1    3    3    0  502 -0.34593097544E+03 -0.55503894345E+03  0.11680839785E+04  0.13387228016E+04  0.46999998093E+01 0.  1.
</event>
<event>
 5   0  0.1086507E-05  0.2609760E+04  0.7818609E-02  0.8364893E-01
        2   -1    0    0  501    0  0.00000000000E+00  0.00000000000E+00  0.24710398327E+04  0.24710398327E+04  0.25500000920E-02 0. -1.
       -2   -1    0    0    0  501  0.00000000000E+00  0.00000000000E+00 -0.68906693070E+03  0.68906693070E+03  0.25500000920E-02 0.  1.
    10030    2    1    2    0    0  0.00000000000E+00  0.00000000000E+00  0.17819729020E+04  0.31601067634E+04  0.26097600144E+04 0.  0.
        2    1    3    3  502    0  0.10330221775E+04  0.36227793541E+03  0.31063934248E+02  0.10951461499E+04  0.25500000920E-02 0.  1.
       -2    1    3    3    0  502 -0.10330221775E+04 -0.36227793541E+03  0.17509089677E+04  0.20649606134E+04  0.25500000920E-02 0. -1.
</event>
<event>
 5   0  0.1085255E-05  0.2595738E+04  0.7818609E-02  0.8369650E-01
       -2   -1    0    0    0  501  0.00000000000E+00  0.00000000000E+00  0.78539819748E+03  0.78539819748E+03  0.25500000920E-02 0.  1.
        2   -1    0    0  501    0  0.00000000000E+00  0.00000000000E+00 -0.21447259081E+04  0.21447259081E+04  0.25500000920E-02 0. -1.
    10030    2    1    2    0    0  0.00000000000E+00  0.00000000000E+00 -0.13593277107E+04  0.29301241056E+04  0.25957379393E+04 0.  0.
        5    1    3    3  502    0 -0.26516128515E+03  0.12010038455E+04 -0.11474387513E+04  0.16820697138E+04  0.46999998093E+01 0. -1.
       -5    1    3    3    0  502  0.26516128515E+03 -0.12010038455E+04 -0.21188895934E+03  0.12480543919E+04  0.46999998093E+01 0.  1.
</event>
<event>
 5   0  0.1086507E-05  0.2530340E+04  0.7818609E-02  0.8392256E-01
       -2   -1    0    0    0  501  0.00000000000E+00  0.00000000000E+00  0.10131893279E+04  0.10131893279E+04  0.25500000920E-02 0. -1.
        2   -1    0    0  501    0  0.00000000000E+00  0.00000000000E+00 -0.15798185002E+04  0.15798185002E+04  0.25500000920E-02 0.  1.
    10030    2    1    2    0    0  0.00000000000E+00  0.00000000000E+00 -0.56662917236E+03  0.25930078281E+04  0.25303400913E+04 0.  0.
        2    1    3    3  502    0 -0.11046806347E+04 -0.26586497419E+03  0.28693070051E+03  0.11718927920E+04  0.25500000920E-02 0. -1.
       -2    1    3    3    0  502  0.11046806347E+04  0.26586497419E+03 -0.85355987287E+03  0.14211150361E+04  0.25500000920E-02 0.  1.
</event>
<event>
 5   0  0.1116310E-05  0.2587417E+04  0.7818609E-02  0.8372488E-01
        2   -1    0    0  501    0  0.00000000000E+00  0.00000000000E+00  0.18078187276E+04  0.18078187276E+04  0.25500000920E-02 0.  1.
       -2   -1    0    0    0  501  0.00000000000E+00  0.00000000000E+00 -0.92580190761E+03  0.92580190761E+03  0.25500000920E-02 0. -1.
    10030    2    1    2    0    0  0.00000000000E+00  0.00000000000E+00  0.88201681995E+03  0.27336206352E+04  0.25874172656E+04 0.  0.
        4    1    3    3  502    0  0.16722080325E+03  0.12820714625E+04  0.39363757681E+03  0.13515258735E+04  0.12699999809E+01 0. -1.
       -4    1    3    3    0  502 -0.16722080325E+03 -0.12820714625E+04  0.48837924313E+03  0.13820947616E+04  0.12699999809E+01 0.  1.
</event>
<event>
 5   0  0.1085061E-05  0.2327682E+04  0.7818609E-02  0.8467086E-01
       -2   -1    0    0    0  501  0.00000000000E+00  0.00000000000E+00  0.74555215012E+03  0.74555215012E+03  0.25500000920E-02 0. -1.
        2   -1    0    0  501    0  0.00000000000E+00  0.00000000000E+00 -0.18168095269E+04  0.18168095269E+04  0.25500000920E-02 0.  1.
    10030    2    1    2    0    0  0.00000000000E+00  0.00000000000E+00 -0.10712573768E+04  0.25623616770E+04  0.23276823230E+04 0.  0.
        1    1    3    3  502    0 -0.98278259365E+03 -0.55301646903E+03 -0.21879600773E+03  0.11487212605E+04  0.50400001928E-02 0.  1.
       -1    1    3    3    0  502  0.98278259365E+03  0.55301646903E+03 -0.85246136908E+03  0.14136404165E+04  0.50400001928E-02 0. -1.
</event>
<event>
 5   0  0.4218590E-06  0.2602834E+04  0.7818609E-02  0.8367239E-01
        1   -1    0    0  501    0  0.00000000000E+00  0.00000000000E+00  0.10693696794E+04  0.10693696794E+04  0.50400001928E-02 0.  1.
       -1   -1    0    0    0  501  0.00000000000E+00  0.00000000000E+00 -0.15838177659E+04  0.15838177660E+04  0.50400001928E-02 0. -1.
    10030    2    1    2    0    0  0.00000000000E+00  0.00000000000E+00 -0.51444808653E+03  0.26531874454E+04  0.26028343756E+04 0.  0.
        1    1    3    3  502    0  0.57643386718E+03  0.42642910801E+03  0.84986628901E+03  0.11119309766E+04  0.50400001928E-02 0.  1.
       -1    1    3    3    0  502 -0.57643386718E+03 -0.42642910801E+03 -0.13643143755E+04  0.15412564688E+04  0.50400001928E-02 0. -1.
</event>
<event>
 5   0  0.4597705E-06  0.2593167E+04  0.7818609E-02  0.8370526E-01
        1   -1    0    0  501    0  0.00000000000E+00  0.00000000000E+00  0.13509350307E+04  0.13509350307E+04  0.50400001928E-02 0.  1.
       -1   -1    0    0    0  501  0.00000000000E+00  0.00000000000E+00 -0.12444191216E+04  0.12444191216E+04  0.50400001928E-02 0. -1.
    10030    2    1    2    0    0  0.00000000000E+00  0.00000000000E+00  0.10651590905E+03  0.25953541523E+04  0.25931674718E+04 0.  0.
        5    1    3    3  502    0 -0.88419026218E+02 -0.50147463041E+03  0.12466612620E+04  0.13466555318E+04  0.46999998093E+01 0.  1.
       -5    1    3    3    0  502  0.88419026218E+02  0.50147463041E+03 -0.11401453529E+04  0.12486986205E+04  0.46999998093E+01 0. -1.
</event>
<event>
 5   0  0.4415080E-06  0.2611862E+04  0.7818609E-02  0.8364183E-01
        1   -1    0    0  501    0  0.00000000000E+00  0.00000000000E+00  0.16421339116E+04  0.16421339116E+04  0.50400001928E-02 0.  1.
       -1   -1    0    0    0  501  0.00000000000E+00  0.00000000000E+00 -0.10385607833E+04  0.10385607834E+04  0.50400001928E-02 0. -1.
    10030    2    1    2    0    0  0.00000000000E+00  0.00000000000E+00  0.60357312827E+03  0.26806946950E+04  0.26118620803E+04 0.  0.
        2    1    3    3  502    0 -0.18474752412E+03 -0.98689431859E+01 -0.10250420085E+04  0.10416046097E+04  0.25500000920E-02 0. -1.
       -2    1    3    3    0  502  0.18474752412E+03  0.98689431859E+01  0.16286151368E+04  0.16390900852E+04  0.25500000920E-02 0.  1.
</event>
<event>
 5   0  0.4597705E-06  0.2581429E+04  0.7818609E-02  0.8374537E-01
        1   -1    0    0  501    0  0.00000000000E+00  0.00000000000E+00  0.20389081323E+04  0.20389081323E+04  0.50400001928E-02 0. -1.
       -1   -1    0    0    0  501  0.00000000000E+00  0.00000000000E+00 -0.81707639360E+03  0.81707639362E+03  0.50400001928E-02 0.  1.
    10030    2    1    2    0    0  0.00000000000E+00  0.00000000000E+00  0.12218317387E+04  0.28559845259E+04  0.25814288320E+04 0.  0.
        5    1    3    3  502    0 -0.75656023515E+03  0.98826946105E+03  0.23270693208E+03  0.12661889761E+04  0.46999998093E+01 0. -1.
       -5    1    3    3    0  502  0.75656023515E+03 -0.98826946105E+03  0.98912480663E+03  0.15897955498E+04  0.46999998093E+01 0.  1.
</event>
<event>
 5   0  0.1085061E-05  0.2620665E+04  0.7818609E-02  0.8361215E-01
        2   -1    0    0  501    0  0.00000000000E+00  0.00000000000E+00  0.16217146945E+04  0.16217146945E+04  0.25500000920E-02 0. -1.
       -2   -1    0    0    0  501  0.00000000000E+00  0.00000000000E+00 -0.10587383123E+04  0.10587383123E+04  0.25500000920E-02 0.  1.
    10030    2    1    2    0    0  0.00000000000E+00  0.00000000000E+00  0.56297638221E+03  0.26804530069E+04  0.26206651665E+04 0.  0.
        1    1    3    3  502    0 -0.58453136037E+03 -0.90054348185E+03 -0.48685959691E+03  0.11788501775E+04  0.50400001928E-02 0.  1.
       -1    1    3    3    0  502  0.58453136037E+03  0.90054348185E+03  0.10498359791E+04  0.15016028293E+04  0.50400001928E-02 0. -1.
</event>
<event>
 5   0  0.1116310E-05  0.2457625E+04  0.7818609E-02  0.8418239E-01
       -2   -1    0    0    0  501  0.00000000000E+00  0.00000000000E+00  0.12047246275E+04  0.12047246275E+04  0.25500000920E-02 0.  1.
        2   -1    0    0  501    0  0.00000000000E+00  0.00000000000E+00 -0.12533817962E+04  0.12533817962E+04  0.25500000920E-02 0. -1.
    10030    2    1    2    0    0  0.00000000000E+00  0.00000000000E+00 -0.48657168741E+02  0.24581064237E+04  0.24576248026E+04 0.  0.
        4    1    3    3  502    0 -0.20107906267E+03  0.76093432605E+03  0.91953238702E+03  0.12103698863E+04  0.12699999809E+01 0.  1.
       -4    1    3    3    0  502  0.20107906267E+03 -0.76093432605E+03 -0.96818955576E+03  0.12477365374E+04  0.12699999809E+01 0. -1.
</event>
<event>
 5   0  0.4464297E-06  0.2578816E+04  0.7818609E-02  0.8375433E-01
        1   -1    0    0  501    0  0.00000000000E+00  0.00000000000E+00  0.22979962934E+04  0.22979962934E+04  0.50400001928E-02 0. -1.
       -1   -1    0    0    0  501  0.00000000000E+00  0.00000000000E+00 -0.72348807411E+03  0.72348807412E+03  0.50400001928E-02 0.  1.
    10030    2    1    2    0    0  0.00000000000E+00  0.00000000000E+00  0.15745082193E+04  0.30214843676E+04  0.25788159397E+04 0.  0.
        4    1    3    3  502    0  0.10355209989E+04 -0.63468396018E+03  0.27998831087E+03  0.12464038413E+04  0.12699999809E+01 0.  1.
       -4    1    3    3    0  502 -0.10355209989E+04  0.63468396018E+03  0.12945199085E+04  0.17750805263E+04  0.12699999809E+01 0. -1.
</event>
<event>
 5   0  0.4415080E-06  0.2627399E+04  0.7818609E-02  0.8358954E-01
        1   -1    0    0  501    0  0.00000000000E+00  0.00000000000E+00  0.21835786920E+04  0.21835786920E+04  0.50400001928E-02 0. -1.
       -1   -1    0    0    0  501  0.00000000000E+00  0.00000000000E+00 -0.79035679705E+03  0.79035679706E+03  0.50400001928E-02 0.  1.
    10030    2    1    2    0    0  0.00000000000E+00  0.00000000000E+00  0.13932218949E+04  0.29739354891E+04  0.26273989123E+04 0.  0.
        2    1    3    3  502    0  0.10906741665E+04 -0.67986951451E+03  0.38867442944E+03  0.13427064111E+04  0.25500000920E-02 0.  1.
       -2    1    3    3    0  502 -0.10906741665E+04  0.67986951451E+03  0.10045474655E+04  0.16312290780E+04  0.25500000920E-02 0. -1.
</event>
<event>
 5   0  0.4415080E-06  0.2610327E+04  0.7818609E-02  0.8364702E-01
       -1   -1    0    0    0  501  0.00000000000E+00  0.00000000000E+00  0.11439563194E+04  0.11439563194E+04  0.50400001928E-02 0. -1.
        1   -1    0    0  501    0  0.00000000000E+00  0.00000000000E+00 -0.14890885244E+04  0.14890885244E+04  0.50400001928E-02 0.  1.
    10030    2    1    2    0    0  0.00000000000E+00  0.00000000000E+00 -0.34513220501E+03  0.26330448438E+04  0.26103273570E+04 0.  0.
        2    1    3    3  502    0  0.62058383604E+03  0.10915450039E+04 -0.53183634142E+03  0.13636145670E+04  0.25500000920E-02 0.  1.
       -2    1    3    3    0  502 -0.62058383604E+03 -0.10915450039E+04  0.18670413641E+03  0.12694302768E+04  0.25500000920E-02 0. -1.
</event>
<event>
 5   0  0.1086507E-05  0.2587156E+04  0.7818609E-02  0.8372577E-01
        2   -1    0    0  501    0  0.00000000000E+00  0.00000000000E+00  0.22433296484E+04  0.22433296484E+04  0.25500000920E-02 0.  1.
       -2   -1    0    0    0  501  0.00000000000E+00  0.00000000000E+00 -0.74591993775E+03  0.74591993775E+03  0.25500000920E-02 0. -1.
    10030    2    1    2    0    0  0.00000000000E+00  0.00000000000E+00  0.14974097106E+04  0.29892495861E+04  0.25871562084E+04 0.  0.
        2    1    3    3  502    0  0.78361459349E+03  0.35816016801E+03 -0.36614807455E+03  0.93615968167E+03  0.25500000920E-02 0. -1.
       -2    1    3    3    0  502 -0.78361459349E+03 -0.35816016801E+03  0.18635577852E+04  0.20530899045E+04  0.25500000920E-02 0.  1.
</event>
<event>
 5   0  0.4218590E-06  0.2601007E+04  0.7818609E-02  0.8367859E-01
        1   -1    0    0  501    0  0.00000000000E+00  0.00000000000E+00  0.15354370296E+04  0.15354370296E+04  0.50400001928E-02 0.  1.
       -1   -1    0    0    0  501  0.00000000000E+00  0.00000000000E+00 -0.11015163068E+04  0.11015163068E+04  0.50400001928E-02 0. -1.
    10030    2    1    2    0    0  0.00000000000E+00  0.00000000000E+00  0.43392072279E+03  0.26369533364E+04  0.26010066715E+04 0.  0.
        1    1    3    3  502    0  0.25426731034E+02  0.11438320948E+04  0.84381828218E+03  0.14216285285E+04  0.50400001928E-02 0.  1.
       -1    1    3    3    0  502 -0.25426731034E+02 -0.11438320948E+04 -0.40989755939E+03  0.12153248080E+04  0.50400001928E-02 0. -1.
</event>
<event>
 5   0  0.4464297E-06  0.2594250E+04  0.7818609E-02  0.8370157E-01
       -1   -1    0    0    0  501  0.00000000000E+00  0.00000000000E+00  0.65673088346E+03  0.65673088348E+03  0.50400001928E-02 0.  1.
        1   -1    0    0  501    0  0.00000000000E+00  0.00000000000E+00 -0.25619819271E+04  0.25619819271E+04  0.50400001928E-02 0. -1.
    10030    2    1    2    0    0  0.00000000000E+00  0.00000000000E+00 -0.19052510436E+04  0.32187128106E+04  0.25942495288E+04 0.  0.
        4    1    3    3  502    0 -0.71748857032E+03  0.10601168526E+04 -0.12125638672E+04  0.17632215784E+04  0.12699999809E+01 0. -1.
       -4    1    3    3    0  502  0.71748857032E+03 -0.10601168526E+04 -0.69268717644E+03  0.14554912322E+04  0.12699999809E+01 0.  1.
</event>
<event>
 5   0  0.4361864E-06  0.2637016E+04  0.7818609E-02  0.8355735E-01
       -1   -1    0    0    0  501  0.00000000000E+00  0.00000000000E+00  0.16546238684E+04  0.16546238684E+04  0.50400001928E-02 0.  1.
        1   -1    0    0  501    0  0.00000000000E+00  0.00000000000E+00 -0.10506696892E+04  0.10506696892E+04  0.50400001928E-02 0. -1.
    10030    2    1    2    0    0  0.00000000000E+00  0.00000000000E+00  0.60395417918E+03  0.27052935576E+04  0.26370158479E+04 0.  0.
        3    1    3    3  502    0 -0.10970687940E+04 -0.45798628970E+03  0.88696206188E+03  0.14832441100E+04  0.10100000352E+00 0. -1.
       -3    1    3    3    0  502  0.10970687940E+04  0.45798628970E+03 -0.28300788270E+03  0.12220494476E+04  0.10100000352E+00 0.  1.
</event>
<event>
 5   0  0.4464297E-06  0.2608523E+04  0.7818609E-02  0.8365312E-01
        1   -1    0    0  501    0  0.00000000000E+00  0.00000000000E+00  0.15526669040E+04  0.15526669040E+04  0.50400001928E-02 0. -1.
       -1   -1    0    0    0  501  0.00000000000E+00  0.00000000000E+00 -0.10955971796E+04  0.10955971796E+04  0.50400001928E-02 0.  1.
    10030    2    1    2    0    0  0.00000000000E+00  0.00000000000E+00  0.45706972447E+03  0.26482640836E+04  0.26085225557E+04 0.  0.
        4    1    3    3  502    0 -0.76356652480E+03  0.69355976343E+03  0.10388407296E+04  0.14639845142E+04  0.12699999809E+01 0. -1.
       -4    1    3    3    0  502  0.76356652480E+03 -0.69355976343E+03 -0.58177100518E+03  0.11842795695E+04  0.12699999809E+01 0.  1.
</event>
<event>
 5   0  0.1116310E-05  0.2593180E+04  0.7818609E-02  0.8370522E-01
       -2   -1    0    0    0  501  0.00000000000E+00  0.00000000000E+00  0.58230100781E+03  0.58230100781E+03  0.25500000920E-02 0.  1.
        2   -1    0    0  501    0  0.00000000000E+00  0.00000000000E+00 -0.28870722819E+04  0.28870722819E+04  0.25500000920E-02 0. -1.
    10030    2    1    2    0    0  0.00000000000E+00  0.00000000000E+00 -0.23047712741E+04  0.34693732898E+04  0.25931795922E+04 0.  0.
        4    1    3    3  502    0 -0.99629535648E+03 -0.82948938578E+03 -0.11818922123E+04  0.17542884292E+04  0.12699999809E+01 0. -1.
       -4    1    3    3    0  502  0.99629535648E+03  0.82948938578E+03 -0.11228790619E+04  0.17150848606E+04  0.12699999809E+01 0.  1.
</event>
<event>
 5   0  0.1086507E-05  0.2613595E+04  0.7818609E-02  0.8363598E-01
        2   -1    0    0  501    0  0.00000000000E+00  0.00000000000E+00  0.11508413335E+04  0.11508413335E+04  0.25500000920E-02 0. -1.
       -2   -1    0    0    0  501  0.00000000000E+00  0.00000000000E+00 -0.14838885270E+04  0.14838885270E+04  0.25500000920E-02 0.  1.
    10030    2    1    2    0    0  0.00000000000E+00  0.00000000000E+00 -0.33304719355E+03  0.26347298605E+04  0.26135954171E+04 0.  0.
        2    1    3    3  502    0  0.12214113973E+04  0.37463453031E+03  0.11051389928E+03  0.12823455675E+04  0.25500000920E-02 0.  1.
       -2    1    3    3    0  502 -0.12214113973E+04 -0.37463453031E+03 -0.44356109283E+03  0.13523842929E+04  0.25500000920E-02 0. -1.
</event>
<event>
 5   0  0.1085255E-05  0.2589110E+04  0.7818609E-02  0.8371910E-01
        2   -1    0    0  501    0  0.00000000000E+00  0.00000000000E+00  0.14849336025E+04  0.14849336025E+04  0.25500000920E-02 0. -1.
       -2   -1    0    0    0  501  0.00000000000E+00  0.00000000000E+00 -0.11285841772E+04  0.11285841772E+04  0.25500000920E-02 0.  1.
    10030    2    1    2    0    0  0.00000000000E+00  0.00000000000E+00  0.35634942528E+03  0.26135177797E+04  0.25891099382E+04 0.  0.
        5    1    3    3  502    0  0.82355385176E+00 -0.11497747381E+04 -0.42230110435E+03  0.12248848678E+04  0.46999998093E+01 0.  1.
       -5    1    3    3    0  502 -0.82355385176E+00  0.11497747381E+04  0.77865052963E+03  0.13886329119E+04  0.46999998093E+01 0. -1.
</event>
<event>
 5   0  0.1136881E-05  0.2634971E+04  0.7818609E-02  0.8356418E-01
        2   -1    0    0  501    0  0.00000000000E+00  0.00000000000E+00  0.16824125974E+04  0.16824125974E+04  0.25500000920E-02 0. -1.
       -2   -1    0    0    0  501  0.00000000000E+00  0.00000000000E+00 -0.10317137714E+04  0.10317137714E+04  0.25500000920E-02 0.  1.
    10030    2    1    2    0    0  0.00000000000E+00  0.00000000000E+00  0.65069882603E+03  0.27141263688E+04  0.26349711543E+04 0.  0.
        3    1    3    3  502    0 -0.42221495808E+03 -0.12479810177E+04  0.31835239304E+03  0.13553856823E+04  0.10100000352E+00 0.  1.
       -3    1    3    3    0  502  0.42221495808E+03  0.12479810177E+04  0.33234643299E+03  0.13587406865E+04  0.10100000352E+00 0. -1.
</event>
<event>
 5   0  0.1085061E-05  0.2602068E+04  0.7818609E-02  0.8367499E-01
        2   -1    0    0  501    0  0.00000000000E+00  0.00000000000E+00  0.14645829925E+04  0.14645829925E+04  0.25500000920E-02 0.  1.
       -2   -1    0    0    0  501  0.00000000000E+00  0.00000000000E+00 -0.11557487961E+04  0.11557487961E+04  0.25500000920E-02 0. -1.
    10030    2    1    2    0    0  0.00000000000E+00  0.00000000000E+00  0.30883419647E+03  0.26203317886E+04  0.26020684313E+04 0.  0.
        1    1    3    3  502    0 -0.53992612918E+03 -0.67607708235E+03 -0.82404537704E+03  0.11948436005E+04  0.50400001928E-02 0. -1.
       -1    1    3    3    0  502  0.53992612918E+03  0.67607708235E+03  0.11328795735E+04  0.14254881881E+04  0.50400001928E-02 0.  1.
</event>
<event>
 5   0  0.4361864E-06  0.2596493E+04  0.7818609E-02  0.8369393E-01
        1   -1    0    0  501    0  0.00000000000E+00  0.00000000000E+00  0.25195859755E+04  0.25195859755E+04  0.50400001928E-02 0. -1.
       -1   -1    0    0    0  501  0.00000000000E+00  0.00000000000E+00 -0.66893681545E+03  0.66893681546E+03  0.50400001928E-02 0.  1.
    10030    2    1    2    0    0  0.00000000000E+00  0.00000000000E+00  0.18506491600E+04  0.31885227909E+04  0.25964928798E+04 0.  0.
        3    1    3    3  502    0 -0.59929294453E+03 -0.99518700919E+03  0.21361322420E+03  0.11811773095E+04  0.10100000352E+00 0.  1.
       -3    1    3    3    0  502  0.59929294453E+03  0.99518700919E+03  0.16370359358E+04  0.20073454815E+04  0.10100000352E+00 0. -1.
</event>
<event>
 5   0  0.4361864E-06  0.2656191E+04  0.7818609E-02  0.8349361E-01
       -1   -1    0    0    0  501  0.00000000000E+00  0.00000000000E+00  0.85140344992E+03  0.85140344994E+03  0.50400001928E-02 0. -1.
        1   -1    0    0  501    0  0.00000000000E+00  0.00000000000E+00 -0.20716823301E+04  0.20716823301E+04  0.50400001928E-02 0.  1.
    10030    2    1    2    0    0  0.00000000000E+00  0.00000000000E+00 -0.12202788802E+04  0.29230857800E+04  0.26561908689E+04 0.  0.
        3    1    3    3  502    0 -0.18363674745E+03 -0.52854330385E+02 -0.20564743284E+04  0.20653335587E+04  0.10100000352E+00 0.  1.
       -3    1    3    3    0  502  0.18363674745E+03  0.52854330385E+02  0.83619544824E+03  0.85775222129E+03  0.10100000352E+00 0. -1.
</event>
<event>
 5   0  0.1085255E-05  0.2675017E+04  0.7818609E-02  0.8343157E-01
       -2   -1    0    0    0  501  0.00000000000E+00  0.00000000000E+00  0.97919088283E+03  0.97919088283E+03  0.25500000920E-02 0.  1.
        2   -1    0    0  501    0  0.00000000000E+00  0.00000000000E+00 -0.18269463687E+04  0.18269463687E+04  0.25500000920E-02 0. -1.
    10030    2    1    2    0    0  0.00000000000E+00  0.00000000000E+00 -0.84775548588E+03  0.28061372515E+04  0.26750171795E+04 0.  0.
        5    1    3    3  502    0 -0.50074115162E+03 -0.70175303340E+03 -0.14966006955E+04  0.17271464189E+04  0.46999998093E+01 0. -1.
       -5    1    3    3    0  502  0.50074115162E+03  0.70175303340E+03  0.64884520958E+03  0.10789908326E+04  0.46999998093E+01 0.  1.
</event>
<event>
 5   0  0.4464297E-06  0.2606632E+04  0.7818609E-02  0.8365952E-01
       -1   -1    0    0    0  501  0.00000000000E+00  0.00000000000E+00  0.10251680186E+04  0.10251680186E+04  0.50400001928E-02 0.  1.
        1   -1    0    0  501    0  0.00000000000E+00  0.00000000000E+00 -0.16569307085E+04  0.16569307086E+04  0.50400001928E-02 0. -1.
    10030    2    1    2    0    0  0.00000000000E+00  0.00000000000E+00 -0.63176268996E+03  0.26820987272E+04  0.26066318278E+04 0.  0.
        4    1    3    3  502    0 -0.25671165696E+03  0.13364746158E+03  0.99168463543E+03  0.10330549588E+04  0.12699999809E+01 0.  1.
       -4    1    3    3    0  502  0.25671165696E+03 -0.13364746158E+03 -0.16234473254E+04  0.16490437684E+04  0.12699999809E+01 0. -1.
</event>
<event>
 5   0  0.1085061E-05  0.2589891E+04  0.7818609E-02  0.8371643E-01
        2   -1    0    0  501    0  0.00000000000E+00  0.00000000000E+00  0.11998173814E+04  0.11998173814E+04  0.25500000920E-02 0.  1.
       -2   -1    0    0    0  501  0.00000000000E+00  0.00000000000E+00 -0.13976154859E+04  0.13976154859E+04  0.25500000920E-02 0. -1.
    10030    2    1    2    0    0  0.00000000000E+00  0.00000000000E+00 -0.19779810450E+03  0.25974328672E+04  0.25898906173E+04 0.  0.
        1    1    3    3  502    0 -0.37342689265E+02  0.81069442243E+03  0.91313000632E+03  0.12216490214E+04  0.50400001928E-02 0.  1.
       -1    1    3    3    0  502  0.37342689265E+02 -0.81069442243E+03 -0.11109281108E+04  0.13757838458E+04  0.50400001928E-02 0. -1.
</event>
<event>
 5   0  0.1136881E-05  0.2600765E+04  0.7818609E-02  0.8367941E-01
        2   -1    0    0  501    0  0.00000000000E+00  0.00000000000E+00  0.13419908905E+04  0.13419908905E+04  0.25500000920E-02 0.  1.
       -2   -1    0    0    0  501  0.00000000000E+00  0.00000000000E+00 -0.12600642993E+04  0.12600642993E+04  0.25500000920E-02 0. -1.
    10030    2    1    2    0    0  0.00000000000E+00  0.00000000000E+00  0.81926591142E+02  0.26020551898E+04  0.26007651267E+04 0.  0.
        3    1    3    3  502    0  0.10665686840E+04  0.55024574923E+03 -0.45994027483E+03  0.12852564759E+04  0.10100000352E+00 0.  1.
       -3    1    3    3    0  502 -0.10665686840E+04 -0.55024574923E+03  0.54186686598E+03  0.13167987139E+04  0.10100000352E+00 0. -1.
</event>
<event>
 5   0  0.4361864E-06  0.2571799E+04  0.7818609E-02  0.8377844E-01
       -1   -1    0    0    0  501  0.00000000000E+00  0.00000000000E+00  0.82660928129E+03  0.82660928131E+03  0.50400001928E-02 0.  1.
        1   -1    0    0  501    0  0.00000000000E+00  0.00000000000E+00 -0.20003863998E+04  0.20003863998E+04  0.50400001928E-02 0. -1.
    10030    2    1    2    0    0  0.00000000000E+00  0.00000000000E+00 -0.11737771185E+04  0.28269956811E+04  0.25717993423E+04 0.  0.
        3    1    3    3  502    0  0.46645406734E+03  0.57849169534E+03 -0.17404535043E+04  0.18924614790E+04  0.10100000352E+00 0. -1.
       -3    1    3    3    0  502 -0.46645406734E+03 -0.57849169534E+03  0.56667638581E+03  0.93453420214E+03  0.10100000352E+00 0.  1.
</event>
<event>
 5   0  0.1136881E-05  0.2640286E+04  0.7818609E-02  0.8354644E-01
        2   -1    0    0  501    0  0.00000000000E+00  0.00000000000E+00  0.15647074704E+04  0.15647074704E+04  0.25500000920E-02 0. -1.
       -2   -1    0    0    0  501  0.00000000000E+00  0.00000000000E+00 -0.11138040384E+04  0.11138040384E+04  0.25500000920E-02 0.  1.
    10030    2    1    2    0    0  0.00000000000E+00  0.00000000000E+00  0.45090343204E+03  0.26785115088E+04  0.26402859689E+04 0.  0.
        3    1    3    3  502    0  0.62249831771E+03  0.11095442249E+04 -0.13204909100E+03  0.12790736942E+04  0.10100000352E+00 0. -1.
       -3    1    3    3    0  502 -0.62249831771E+03 -0.11095442249E+04  0.58295252304E+03  0.13994378146E+04  0.10100000352E+00 0.  1.
</event>
<event>
 5   0  0.1085061E-05  0.2593987E+04  0.7818609E-02  0.8370247E-01
       -2   -1    0    0    0  501  0.00000000000E+00  0.00000000000E+00  0.10344995572E+04  0.10344995572E+04  0.25500000920E-02 0.  1.
        2   -1    0    0  501    0  0.00000000000E+00  0.00000000000E+00 -0.16260922294E+04  0.16260922294E+04  0.25500000920E-02 0. -1.
    10030    2    1    2    0    0  0.00000000000E+00  0.00000000000E+00 -0.59159267221E+03  0.26605917867E+04  0.25939866548E+04 0.  0.
        1    1    3    3  502    0  0.86219842962E+03  0.92027514249E+03 -0.60672905509E+03  0.13994329624E+04  0.50400001928E-02 0.  1.
       -1    1    3    3    0  502 -0.86219842962E+03 -0.92027514249E+03  0.15136382876E+02  0.12611588243E+04  0.50400001928E-02 0. -1.
</event>
<event>
 5   0  0.4415080E-06  0.2690130E+04  0.7818609E-02  0.8338215E-01
       -1   -1    0    0    0  501  0.00000000000E+00  0.00000000000E+00  0.11558739745E+04  0.11558739745E+04  0.50400001928E-02 0.  1.
        1   -1    0    0  501    0  0.00000000000E+00  0.00000000000E+00 -0.15652222324E+04  0.15652222324E+04  0.50400001928E-02 0. -1.
    10030    2    1    2    0    0  0.00000000000E+00  0.00000000000E+00 -0.40934825791E+03  0.27210962070E+04  0.26901298428E+04 0.  0.
        2    1    3    3  502    0 -0.96921573253E+03 -0.80004837707E+03 -0.68950681826E+03  0.14334839358E+04  0.25500000920E-02 0. -1.
       -2    1    3    3    0  502  0.96921573253E+03  0.80004837707E+03  0.28015856035E+03  0.12876122711E+04  0.25500000920E-02 0.  1.
</event>
<event>
 5   0  0.1116310E-05  0.2607402E+04  0.7818609E-02  0.8365691E-01
       -2   -1    0    0    0  501  0.00000000000E+00  0.00000000000E+00  0.10340516966E+04  0.10340516966E+04  0.25500000920E-02 0.  1.
        2   -1    0    0  501    0  0.00000000000E+00  0.00000000000E+00 -0.16436667034E+04  0.16436667034E+04  0.25500000920E-02 0. -1.
    10030    2    1    2    0    0  0.00000000000E+00  0.00000000000E+00 -0.60961500683E+03  0.26777184000E+04  0.26074020352E+04 0.  0.
        4    1    3    3  502    0 -0.11885965325E+04 -0.32719379101E+03  0.13067685623E+03  0.12397159141E+04  0.12699999809E+01 0. -1.
       -4    1    3    3    0  502  0.11885965325E+04  0.32719379101E+03 -0.74029186306E+03  0.14380024859E+04  0.12699999809E+01 0.  1.
</event>
<event>
 5   0  0.1086507E-05  0.2617419E+04  0.7818609E-02  0.8362308E-01
       -2   -1    0    0    0  501  0.00000000000E+00  0.00000000000E+00  0.12348774560E+04  0.12348774560E+04  0.25500000920E-02 0. -1.
        2   -1    0    0  501    0  0.00000000000E+00  0.00000000000E+00 -0.13869555521E+04  0.13869555521E+04  0.25500000920E-02 0.  1.
    10030    2    1    2    0    0  0.00000000000E+00  0.00000000000E+00 -0.15207809607E+03  0.26218330081E+04  0.26174186855E+04 0.  0.
        2    1    3    3  502    0  0.71601039837E+03  0.61221614317E+03 -0.98599869563E+03  0.13636982527E+04  0.25500000920E-02 0.  1.
       -2    1    3    3    0  502 -0.71601039837E+03 -0.61221614317E+03  0.83392059956E+03  0.12581347555E+04  0.25500000920E-02 0. -1.
</event>
<event>
 5   0  0.4361864E-06  0.2606822E+04  0.7818609E-02  0.8365888E-01
        1   -1    0    0  501    0  0.00000000000E+00  0.00000000000E+00  0.13568134541E+04  0.13568134541E+04  0.50400001928E-02 0. -1.
       -1   -1    0    0    0  501  0.00000000000E+00  0.00000000000E+00 -0.12521104276E+04  0.12521104276E+04  0.50400001928E-02 0.  1.
    10030    2    1    2    0    0  0.00000000000E+00  0.00000000000E+00  0.10470302650E+03  0.26089238816E+04  0.26068220301E+04 0.  0.
        3    1    3    3  502    0 -0.10037035960E+04  0.26205995293E+03 -0.73745139177E+03  0.12727650580E+04  0.10100000352E+00 0.  1.
       -3    1    3    3    0  502  0.10037035960E+04 -0.26205995293E+03  0.84215441827E+03  0.13361588236E+04  0.10100000352E+00 0. -1.
</event>
<event>
 5   0  0.4464297E-06  0.2603879E+04  0.7818609E-02  0.8366885E-01
       -1   -1    0    0    0  501  0.00000000000E+00  0.00000000000E+00  0.12187608795E+04  0.12187608795E+04  0.50400001928E-02 0. -1.
        1   -1    0    0  501    0  0.00000000000E+00  0.00000000000E+00 -0.13907953982E+04  0.13907953982E+04  0.50400001928E-02 0.  1.
    10030    2    1    2    0    0  0.00000000000E+00  0.00000000000E+00 -0.17203451871E+03  0.26095562776E+04  0.26038794309E+04 0.  0.
        4    1    3    3  502    0 -0.21474206079E+03 -0.52008746595E+02 -0.13718680328E+04  0.13895476151E+04  0.12699999809E+01 0.  1.
       -4    1    3    3    0  502  0.21474206079E+03  0.52008746595E+02  0.11998335140E+04  0.12200086626E+04  0.12699999809E+01 0. -1.
</event>
<event>
 5   0  0.4597705E-06  0.2596356E+04  0.7818609E-02  0.8369440E-01
       -1   -1    0    0    0  501  0.00000000000E+00  0.00000000000E+00  0.17312309694E+04  0.17312309694E+04  0.50400001928E-02 0. -1.
        1   -1    0    0  501    0  0.00000000000E+00  0.00000000000E+00 -0.97344924927E+03  0.97344924928E+03  0.50400001928E-02 0.  1.
    10030    2    1    2    0    0  0.00000000000E+00  0.00000000000E+00  0.75778172013E+03  0.27046802187E+04  0.25963555130E+04 0.  0.
        5    1    3    3  502    0  0.52276337217E+01 -0.11715817728E+03 -0.96791085550E+03  0.97500096454E+03  0.46999998093E+01 0.  1.
       -5    1    3    3    0  502 -0.52276337217E+01  0.11715817728E+03  0.17256925756E+04  0.17296792541E+04  0.46999998093E+01 0. -1.
</event>
<event>
 5   0  0.4464297E-06  0.2590155E+04  0.7818609E-02  0.8371553E-01
        1   -1    0    0  501    0  0.00000000000E+00  0.00000000000E+00  0.73752628116E+03  0.73752628118E+03  0.50400001928E-02 0. -1.
       -1   -1    0    0    0  501  0.00000000000E+00  0.00000000000E+00 -0.22741225086E+04  0.22741225086E+04  0.50400001928E-02 0.  1.
    10030    2    1    2    0    0  0.00000000000E+00  0.00000000000E+00 -0.15365962274E+04  0.30116487898E+04  0.25901545257E+04 0.  0.
        4    1    3    3  502    0  0.39248389422E+03 -0.11313073520E+04 -0.19474883040E+03  0.12131894542E+04  0.12699999809E+01 0.  1.
       -4    1    3    3    0  502 -0.39248389422E+03  0.11313073520E+04 -0.13418473970E+04  0.17984593356E+04  0.12699999809E+01 0. -1.
</event>
<event>
 5   0  0.4218590E-06  0.2479413E+04  0.7818609E-02  0.8410357E-01
        1   -1    0    0  501    0  0.00000000000E+00  0.00000000000E+00  0.12026728912E+04  0.12026728912E+04  0.50400001928E-02 0.  1.
       -1   -1    0    0    0  501  0.00000000000E+00  0.00000000000E+00 -0.12778802330E+04  0.12778802330E+04  0.50400001928E-02 0. -1.
    10030    2    1    2    0    0  0.00000000000E+00  0.00000000000E+00 -0.75207341823E+02  0.24805531243E+04  0.24794127648E+04 0.  0.
        1    1    3    3  502    0 -0.38683942099E+03  0.22290853133E+03  0.11194484448E+04  0.12051961548E+04  0.50400001928E-02 0.  1.
       -1    1    3    3    0  502  0.38683942099E+03 -0.22290853133E+03 -0.11946557866E+04  0.12753569695E+04  0.50400001928E-02 0. -1.
</event>
<event>
 5   0  0.1085255E-05  0.2607876E+04  0.7818609E-02  0.8365531E-01
       -2   -1    0    0    0  501  0.00000000000E+00  0.00000000000E+00  0.11428070249E+04  0.11428070249E+04  0.25500000920E-02 0. -1.
        2   -1    0    0  501    0  0.00000000000E+00  0.00000000000E+00 -0.14877881959E+04  0.14877881959E+04  0.25500000920E-02 0.  1.
    10030    2    1    2    0    0  0.00000000000E+00  0.00000000000E+00 -0.34498117097E+03  0.26305952209E+04  0.26078763789E+04 0.  0.
        5    1    3    3  502    0  0.67055026836E+03 -0.46367741921E+03  0.85401824706E+03  0.11806793247E+04  0.46999998093E+01 0. -1.
       -5    1    3    3    0  502 -0.67055026836E+03  0.46367741921E+03 -0.11989994180E+04  0.14499158961E+04  0.46999998093E+01 0.  1.
</event>
<event>
 5   0  0.4464297E-06  0.2626404E+04  0.7818609E-02  0.8359287E-01
        1   -1    0    0  501    0  0.00000000000E+00  0.00000000000E+00  0.13761307254E+04  0.13761307254E+04  0.50400001928E-02 0. -1.
       -1   -1    0    0    0  501  0.00000000000E+00  0.00000000000E+00 -0.12531507214E+04  0.12531507214E+04  0.50400001928E-02 0.  1.
    10030    2    1    2    0    0  0.00000000000E+00  0.00000000000E+00  0.12298000401E+03  0.26292814468E+04  0.26264037856E+04 0.  0.
        4    1    3    3  502    0  0.12598991951E+04 -0.23234009991E+03  0.35019754725E+03  0.13281445098E+04  0.12699999809E+01 0. -1.
       -4    1    3    3    0  502 -0.12598991951E+04  0.23234009991E+03 -0.22721754324E+03  0.13011369370E+04  0.12699999809E+01 0.  1.
</event>
<event>
 5   0  0.3705250E-06  0.2663466E+04  0.7818609E-02  0.8346957E-01
        4   -1    0    0  501    0  0.00000000000E+00  0.00000000000E+00  0.11270746434E+04  0.11270753589E+04  0.12699999809E+01 0. -1.
       -4   -1    0    0    0  501  0.00000000000E+00  0.00000000000E+00 -0.15735527700E+04  0.15735532825E+04  0.12699999809E+01 0.  1.
    10030    2    1    2    0    0  0.00000000000E+00  0.00000000000E+00 -0.44647812667E+03  0.27006286414E+04  0.26634662268E+04 0.  0.
        5    1    3    3  502    0 -0.30890946011E+03 -0.48927627756E+03 -0.14394221877E+04  0.15513783081E+04  0.46999998093E+01 0.  1.
       -5    1    3    3    0  502  0.30890946011E+03  0.48927627756E+03  0.99294406105E+03  0.11492503333E+04  0.46999998093E+01 0. -1.
</event>
<event>
 5   0  0.1136881E-05  0.2579473E+04  0.7818609E-02  0.8375207E-01
       -2   -1    0    0    0  501  0.00000000000E+00  0.00000000000E+00  0.10573843290E+04  0.10573843290E+04  0.25500000920E-02 0.  1.
        2   -1    0    0  501    0  0.00000000000E+00  0.00000000000E+00 -0.15731468122E+04  0.15731468122E+04  0.25500000920E-02 0. -1.
    10030    2    1    2    0    0  0.00000000000E+00  0.00000000000E+00 -0.51576248315E+03  0.26305311413E+04  0.25794734242E+04 0.  0.
        3    1    3    3  502    0  0.42967337534E+03 -0.11672732407E+04 -0.60562159714E+03  0.13834462610E+04  0.10100000352E+00 0. -1.
       -3    1    3    3    0  502 -0.42967337534E+03  0.11672732407E+04  0.89859113990E+02  0.12470848802E+04  0.10100000352E+00 0.  1.
</event>
<event>
 5   0  0.1136881E-05  0.2594124E+04  0.7818609E-02  0.8370200E-01
       -2   -1    0    0    0  501  0.00000000000E+00  0.00000000000E+00  0.55962028365E+03  0.55962028365E+03  0.25500000920E-02 0. -1.
        2   -1    0    0  501    0  0.00000000000E+00  0.00000000000E+00 -0.30062692905E+04  0.30062692905E+04  0.25500000920E-02 0.  1.
    10030    2    1    2    0    0  0.00000000000E+00  0.00000000000E+00 -0.24466490068E+04  0.35658895741E+04  0.25941235692E+04 0.  0.
        3    1    3    3  502    0  0.95538102524E+03 -0.21118148191E+03 -0.52877249515E+02  0.97987067280E+03  0.10100000352E+00 0. -1.
       -3    1    3    3    0  502 -0.95538102524E+03  0.21118148191E+03 -0.23937717573E+04  0.25860189013E+04  0.10100000352E+00 0.  1.
</event>
<event>
 5   0  0.4597705E-06  0.2586251E+04  0.7818609E-02  0.8372887E-01
       -1   -1    0    0    0  501  0.00000000000E+00  0.00000000000E+00  0.70850981609E+03  0.70850981611E+03  0.50400001928E-02 0. -1.
        1   -1    0    0  501    0  0.00000000000E+00  0.00000000000E+00 -0.23601273023E+04  0.23601273023E+04  0.50400001928E-02 0.  1.
    10030    2    1    2    0    0  0.00000000000E+00  0.00000000000E+00 -0.16516174862E+04  0.30686371184E+04  0.25862508470E+04 0.  0.
        5    1    3    3  502    0  0.78004462240E+03 -0.86568678365E+03 -0.16065045960E+03  0.11763136829E+04  0.46999998093E+01 0. -1.
       -5    1    3    3    0  502 -0.78004462240E+03  0.86568678365E+03 -0.14909670266E+04  0.18923234355E+04  0.46999998093E+01 0.  1.
</event>
<event>
 5   0  0.1085255E-05  0.2600697E+04  0.7818609E-02  0.8367965E-01
       -2   -1    0    0    0  501  0.00000000000E+00  0.00000000000E+00  0.75169594359E+03  0.75169594360E+03  0.25500000920E-02 0.  1.
        2   -1    0    0  501    0  0.00000000000E+00  0.00000000000E+00 -0.22494549451E+04  0.22494549451E+04  0.25500000920E-02 0. -1.
    10030    2    1    2    0    0  0.00000000000E+00  0.00000000000E+00 -0.14977590016E+04  0.30011508887E+04  0.26006969509E+04 0.  0.
        5    1    3    3  502    0 -0.36320870799E+03 -0.12301840802E+04 -0.99533080587E+03  0.16235698136E+04  0.46999998093E+01 0.  1.
       -5    1    3    3    0  502  0.36320870799E+03  0.12301840802E+04 -0.50242819568E+03  0.13775810751E+04  0.46999998093E+01 0. -1.
</event>
<event>
 5   0  0.1136881E-05  0.2601942E+04  0.7818609E-02  0.8367542E-01
        2   -1    0    0  501    0  0.00000000000E+00  0.00000000000E+00  0.10677797605E+04  0.10677797606E+04  0.25500000920E-02 0. -1.
       -2   -1    0    0    0  501  0.00000000000E+00  0.00000000000E+00 -0.15850881487E+04  0.15850881487E+04  0.25500000920E-02 0.  1.
    10030    2    1    2    0    0  0.00000000000E+00  0.00000000000E+00 -0.51730838816E+03  0.26528679093E+04  0.26019416165E+04 0.  0.
        3    1    3    3  502    0 -0.75876960434E+02 -0.46946039927E+03 -0.14932947863E+04  0.15671884726E+04  0.10100000352E+00 0.  1.
       -3    1    3    3    0  502  0.75876960434E+02  0.46946039927E+03  0.97598639816E+03  0.10856794367E+04  0.10100000352E+00 0. -1.
</event>
<event>
 5   0  0.4361864E-06  0.2601176E+04  0.7818609E-02  0.8367802E-01
       -1   -1    0    0    0  501  0.00000000000E+00  0.00000000000E+00  0.10197843710E+04  0.10197843711E+04  0.50400001928E-02 0. -1.
        1   -1    0    0  501    0  0.00000000000E+00  0.00000000000E+00 -0.16587125819E+04  0.16587125819E+04  0.50400001928E-02 0.  1.
    10030    2    1    2    0    0  0.00000000000E+00  0.00000000000E+00 -0.63892821089E+03  0.26784969530E+04  0.26011760164E+04 0.  0.
        3    1    3    3  502    0 -0.10879450179E+04  0.70679574976E+03 -0.22540015447E+03  0.13168104775E+04  0.10100000352E+00 0. -1.
       -3    1    3    3    0  502  0.10879450179E+04 -0.70679574976E+03 -0.41352805642E+03  0.13616864755E+04  0.10100000352E+00 0.  1.
</event>
<event>
 5   0  0.4361864E-06  0.2605059E+04  0.7818609E-02  0.8366485E-01
        1   -1    0    0  501    0  0.00000000000E+00  0.00000000000E+00  0.10401180557E+04  0.10401180557E+04  0.50400001928E-02 0.  1.
       -1   -1    0    0    0  501  0.00000000000E+00  0.00000000000E+00 -0.16311450139E+04  0.16311450139E+04  0.50400001928E-02 0. -1.
    10030    2    1    2    0    0  0.00000000000E+00  0.00000000000E+00 -0.59102695823E+03  0.26712630696E+04  0.26050592166E+04 0.  0.
        3    1    3    3  502    0 -0.31453365198E+03 -0.19449455209E+03 -0.15761822944E+04  0.16189843064E+04  0.10100000352E+00 0. -1.
       -3    1    3    3    0  502  0.31453365198E+03  0.19449455209E+03  0.98515533614E+03  0.10522787632E+04  0.10100000352E+00 0.  1.
</event>
<event>
 5   0  0.4464297E-06  0.2608803E+04  0.7818609E-02  0.8365217E-01
       -1   -1    0    0    0  501  0.00000000000E+00  0.00000000000E+00  0.10097491054E+04  0.10097491054E+04  0.50400001928E-02 0.  1.
        1   -1    0    0  501    0  0.00000000000E+00  0.00000000000E+00 -0.16850352881E+04  0.16850352881E+04  0.50400001928E-02 0. -1.
    10030    2    1    2    0    0  0.00000000000E+00  0.00000000000E+00 -0.67528618270E+03  0.26947843935E+04  0.26088026945E+04 0.  0.
        4    1    3    3  502    0 -0.74139456306E+03  0.12749095177E+03  0.76309571931E+03  0.10715579922E+04  0.12699999809E+01 0.  1.
       -4    1    3    3    0  502  0.74139456306E+03 -0.12749095177E+03 -0.14383819020E+04  0.16232264013E+04  0.12699999809E+01 0. -1.
</event>
<event>
 5   0  0.1085061E-05  0.2598974E+04  0.7818609E-02  0.8368550E-01
       -2   -1    0    0    0  501  0.00000000000E+00  0.00000000000E+00  0.11053044442E+04  0.11053044442E+04  0.25500000920E-02 0. -1.
        2   -1    0    0  501    0  0.00000000000E+00  0.00000000000E+00 -0.15277841429E+04  0.15277841429E+04  0.25500000920E-02 0.  1.
    10030    2    1    2    0    0  0.00000000000E+00  0.00000000000E+00 -0.42247969877E+03  0.26330885871E+04  0.25989741075E+04 0.  0.
        1    1    3    3  502    0 -0.72750710393E+03 -0.72757113988E+03  0.59292977839E+03  0.11875150828E+04  0.50400001928E-02 0. -1.
       -1    1    3    3    0  502  0.72750710393E+03  0.72757113988E+03 -0.10154094772E+04  0.14455735042E+04  0.50400001928E-02 0.  1.
</event>
<event>
 5   0  0.3705250E-06  0.2503503E+04  0.7818609E-02  0.8401739E-01
        4   -1    0    0  501    0  0.00000000000E+00  0.00000000000E+00  0.85441527305E+03  0.85441621691E+03  0.12699999809E+01 0. -1.
       -4   -1    0    0    0  501  0.00000000000E+00  0.00000000000E+00 -0.18338619294E+04  0.18338623692E+04  0.12699999809E+01 0.  1.
    10030    2    1    2    0    0  0.00000000000E+00  0.00000000000E+00 -0.97944665639E+03  0.26882785861E+04  0.25035027469E+04 0.  0.
        1    1    3    3  502    0 -0.38700576303E+03 -0.77732024826E+03  0.47842022824E+03  0.99140614472E+03  0.50400001928E-02 0. -1.
       -1    1    3    3    0  502  0.38700576303E+03  0.77732024826E+03 -0.14578668846E+04  0.16968724414E+04  0.50400001928E-02 0.  1.
</event>
<event>
 5   0  0.1086507E-05  0.2574020E+04  0.7818609E-02  0.8377080E-01
        2   -1    0    0  501    0  0.00000000000E+00  0.00000000000E+00  0.13692487599E+04  0.13692487599E+04  0.25500000920E-02 0. -1.
       -2   -1    0    0    0  501  0.00000000000E+00  0.00000000000E+00 -0.12097109069E+04  0.12097109069E+04  0.25500000920E-02 0.  1.
    10030    2    1    2    0    0  0.00000000000E+00  0.00000000000E+00  0.15953785301E+03  0.25789596669E+04  0.25740203256E+04 0.  0.
        2    1    3    3  502    0 -0.62756017767E+03 -0.11222839633E+04  0.24507959426E+02  0.12860613170E+04  0.25500000920E-02 0.  1.
       -2    1    3    3    0  502  0.62756017767E+03  0.11222839633E+04  0.13502989358E+03  0.12928983499E+04  0.25500000920E-02 0. -1.
</event>
<event>
 5   0  0.1136881E-05  0.2621007E+04  0.7818609E-02  0.8361100E-01
        2   -1    0    0  501    0  0.00000000000E+00  0.00000000000E+00  0.92086583862E+03  0.92086583863E+03  0.25500000920E-02 0. -1.
       -2   -1    0    0    0  501  0.00000000000E+00  0.00000000000E+00 -0.18650048943E+04  0.18650048943E+04  0.25500000920E-02 0.  1.
    10030    2    1    2    0    0  0.00000000000E+00  0.00000000000E+00 -0.94413905567E+03  0.27858707329E+04  0.26210069027E+04 0.  0.
        3    1    3    3  502    0 -0.16109034123E+03 -0.73802893277E+03  0.66616910343E+03  0.10071832446E+04  0.10100000352E+00 0. -1.
       -3    1    3    3    0  502  0.16109034123E+03  0.73802893277E+03 -0.16103081591E+04  0.17786874883E+04  0.10100000352E+00 0.  1.
</event>
<event>
 5   0  0.4464297E-06  0.2476528E+04  0.7818609E-02  0.8411395E-01
       -1   -1    0    0    0  501  0.00000000000E+00  0.00000000000E+00  0.81676942010E+03  0.81676942011E+03  0.50400001928E-02 0.  1.
        1   -1    0    0  501    0  0.00000000000E+00  0.00000000000E+00 -0.18772719460E+04  0.18772719460E+04  0.50400001928E-02 0. -1.
    10030    2    1    2    0    0  0.00000000000E+00  0.00000000000E+00 -0.10605025259E+04  0.26940413661E+04  0.24765284724E+04 0.  0.
        4    1    3    3  502    0 -0.11735306574E+04  0.26792156460E+03 -0.21432981181E+03  0.12226590080E+04  0.12699999809E+01 0.  1.
       -4    1    3    3    0  502  0.11735306574E+04 -0.26792156460E+03 -0.84617271406E+03  0.14713823581E+04  0.12699999809E+01 0. -1.
</event>
<event>
 5   0  0.4218590E-06  0.2607352E+04  0.7818609E-02  0.8365708E-01
       -1   -1    0    0    0  501  0.00000000000E+00  0.00000000000E+00  0.10807870256E+04  0.10807870256E+04  0.50400001928E-02 0. -1.
        1   -1    0    0  501    0  0.00000000000E+00  0.00000000000E+00 -0.15725306637E+04  0.15725306637E+04  0.50400001928E-02 0.  1.
    10030    2    1    2    0    0  0.00000000000E+00  0.00000000000E+00 -0.49174363810E+03  0.26533176893E+04  0.26073517129E+04 0.  0.
        1    1    3    3  502    0  0.18435289511E+03 -0.17853515382E+03  0.10548280928E+04  0.10855980364E+04  0.50400001928E-02 0. -1.
       -1    1    3    3    0  502 -0.18435289511E+03  0.17853515382E+03 -0.15465717309E+04  0.15677196529E+04  0.50400001928E-02 0.  1.
</event>
<event>
 5   0  0.1136881E-05  0.2632523E+04  0.7818609E-02  0.8357237E-01
        2   -1    0    0  501    0  0.00000000000E+00  0.00000000000E+00  0.20108807400E+04  0.20108807400E+04  0.25500000920E-02 0. -1.
       -2   -1    0    0    0  501  0.00000000000E+00  0.00000000000E+00 -0.86158463298E+03  0.86158463299E+03  0.25500000920E-02 0.  1.
    10030    2    1    2    0    0  0.00000000000E+00  0.00000000000E+00  0.11492961070E+04  0.28724653730E+04  0.26325227022E+04 0.  0.
        3    1    3    3  502    0  0.15565230656E+03 -0.11175995386E+03  0.19955801439E+04  0.20047588505E+04  0.10100000352E+00 0. -1.
       -3    1    3    3    0  502 -0.15565230656E+03  0.11175995386E+03 -0.84628403689E+03  0.86770652246E+03  0.10100000352E+00 0.  1.
</event>
<event>
 5   0  0.1085255E-05  0.2577561E+04  0.7818609E-02  0.8375863E-01
        2   -1    0    0  501    0  0.00000000000E+00  0.00000000000E+00  0.29322222675E+04  0.29322222675E+04  0.25500000920E-02 0. -1.
       -2   -1    0    0    0  501  0.00000000000E+00  0.00000000000E+00 -0.56644944548E+03  0.56644944548E+03  0.25500000920E-02 0.  1.
    10030    2    1    2    0    0  0.00000000000E+00  0.00000000000E+00  0.23657728220E+04  0.34986717130E+04  0.25775613882E+04 0.  0.
        5    1    3    3  502    0  0.80398911328E+03 -0.32025685012E+03  0.24791239830E+04  0.26258409619E+04  0.46999998093E+01 0. -1.
       -5    1    3    3    0  502 -0.80398911328E+03  0.32025685012E+03 -0.11335116095E+03  0.87283075107E+03  0.46999998093E+01 0.  1.
</event>
<event>
 5   0  0.4361864E-06  0.2618513E+04  0.7818609E-02  0.8361940E-01
        1   -1    0    0  501    0  0.00000000000E+00  0.00000000000E+00  0.10934482531E+04  0.10934482531E+04  0.50400001928E-02 0.  1.
       -1   -1    0    0    0  501  0.00000000000E+00  0.00000000000E+00 -0.15676581815E+04  0.15676581815E+04  0.50400001928E-02 0. -1.
    10030    2    1    2    0    0  0.00000000000E+00  0.00000000000E+00 -0.47420992844E+03  0.26611064346E+04  0.26185133951E+04 0.  0.
        3    1    3    3  502    0 -0.17655083026E+03 -0.11231086324E+04  0.42277180931E+03  0.12129629874E+04  0.10100000352E+00 0.  1.
       -3    1    3    3    0  502  0.17655083026E+03  0.11231086324E+04 -0.89698173775E+03  0.14481434473E+04  0.10100000352E+00 0. -1.
</event>
<event>
 5   0  0.4464297E-06  0.2592890E+04  0.7818609E-02  0.8370620E-01
       -1   -1    0    0    0  501  0.00000000000E+00  0.00000000000E+00  0.63224037733E+03  0.63224037735E+03  0.50400001928E-02 0. -1.
        1   -1    0    0  501    0  0.00000000000E+00  0.00000000000E+00 -0.26584350017E+04  0.26584350017E+04  0.50400001928E-02 0.  1.
    10030    2    1    2    0    0  0.00000000000E+00  0.00000000000E+00 -0.20261946244E+04  0.32906753790E+04  0.25928902396E+04 0.  0.
        4    1    3    3  502    0 -0.18107686784E+03 -0.11642285386E+04 -0.32665821844E+03  0.12226708988E+04  0.12699999809E+01 0. -1.
       -4    1    3    3    0  502  0.18107686784E+03  0.11642285386E+04 -0.16995364059E+04  0.20680044802E+04  0.12699999809E+01 0.  1.
</event>
<event>
 5   0  0.4415080E-06  0.2596137E+04  0.7818609E-02  0.8369515E-01
        1   -1    0    0  501    0  0.00000000000E+00  0.00000000000E+00  0.14785468413E+04  0.14785468414E+04  0.50400001928E-02 0.  1.
       -1   -1    0    0    0  501  0.00000000000E+00  0.00000000000E+00 -0.11396202511E+04  0.11396202511E+04  0.50400001928E-02 0. -1.
    10030    2    1    2    0    0  0.00000000000E+00  0.00000000000E+00  0.33892659028E+03  0.26181670924E+04  0.25961370708E+04 0.  0.
        2    1    3    3  502    0 -0.99713374534E+03  0.56553407357E+03  0.78362812458E+03  0.13885883235E+04  0.25500000920E-02 0.  1.
       -2    1    3    3    0  502  0.99713374534E+03 -0.56553407357E+03 -0.44470153430E+03  0.12295787690E+04  0.25500000920E-02 0. -1.
</event>
<event>
 5   0  0.1116310E-05  0.2606274E+04  0.7818609E-02  0.8366073E-01
        2   -1    0    0  501    0  0.00000000000E+00  0.00000000000E+00  0.20639765157E+04  0.20639765157E+04  0.25500000920E-02 0. -1.
       -2   -1    0    0    0  501  0.00000000000E+00  0.00000000000E+00 -0.82276444796E+03  0.82276444796E+03  0.25500000920E-02 0.  1.
    10030    2    1    2    0    0  0.00000000000E+00  0.00000000000E+00  0.12412120677E+04  0.28867409636E+04  0.26062743513E+04 0.  0.
        4    1    3    3  502    0  0.82200771610E+03  0.58874129404E+03 -0.28996420337E+03  0.10518525794E+04  0.12699999809E+01 0.  1.
       -4    1    3    3    0  502 -0.82200771610E+03 -0.58874129404E+03  0.15311762711E+04  0.18348883842E+04  0.12699999809E+01 0. -1.
</event>
<event>
 5   0  0.4597705E-06  0.2537621E+04  0.7818609E-02  0.8389704E-01
        1   -1    0    0  501    0  0.00000000000E+00  0.00000000000E+00  0.14485225617E+04  0.14485225617E+04  0.50400001928E-02 0. -1.
       -1   -1    0    0    0  501  0.00000000000E+00  0.00000000000E+00 -0.11113949691E+04  0.11113949691E+04  0.50400001928E-02 0.  1.
    10030    2    1    2    0    0  0.00000000000E+00  0.00000000000E+00  0.33712759266E+03  0.25599175308E+04  0.25376214751E+04 0.  0.
        5    1    3    3  502    0  0.11165133173E+04  0.59957254434E+03  0.10662913765E+03  0.12718022986E+04  0.46999998093E+01 0.  1.
       -5    1    3    3    0  502 -0.11165133173E+04 -0.59957254434E+03  0.23049845501E+03  0.12881152322E+04  0.46999998093E+01 0. -1.
</event>
<event>
 5   0  0.1085255E-05  0.2594332E+04  0.7818609E-02  0.8370129E-01
       -2   -1    0    0    0  501  0.00000000000E+00  0.00000000000E+00  0.13104987381E+04  0.13104987381E+04  0.25500000920E-02 0. -1.
        2   -1    0    0  501    0  0.00000000000E+00  0.00000000000E+00 -0.12839686052E+04  0.12839686052E+04  0.25500000920E-02 0.  1.
    10030    2    1    2    0    0  0.00000000000E+00  0.00000000000E+00  0.26530132928E+02  0.25944673433E+04  0.25943316957E+04 0.  0.
        5    1    3    3  502    0  0.45656272284E+02  0.11954943693E+03 -0.12776318430E+04  0.12840334027E+04  0.46999998093E+01 0.  1.
       -5    1    3    3    0  502 -0.45656272284E+02 -0.11954943693E+03  0.13041619759E+04  0.13104339405E+04  0.46999998093E+01 0. -1.
</event>
<event>
 5   0  0.4415080E-06  0.2611170E+04  0.7818609E-02  0.8364417E-01
        1   -1    0    0  501    0  0.00000000000E+00  0.00000000000E+00  0.17306622277E+04  0.17306622277E+04  0.50400001928E-02 0.  1.
       -1   -1    0    0    0  501  0.00000000000E+00  0.00000000000E+00 -0.98491300560E+03  0.98491300561E+03  0.50400001928E-02 0. -1.
    10030    2    1    2    0    0  0.00000000000E+00  0.00000000000E+00  0.74574922211E+03  0.27155752333E+04  0.26111696509E+04 0.  0.
        2    1    3    3  502    0 -0.88036898595E+03 -0.92503158525E+03  0.65543423046E+03  0.14353839262E+04  0.25500000920E-02 0. -1.
       -2    1    3    3    0  502  0.88036898595E+03  0.92503158525E+03  0.90314991648E+02  0.12801913071E+04  0.25500000920E-02 0.  1.
</event>
<event>
 5   0  0.1085061E-05  0.2598178E+04  0.7818609E-02  0.8368820E-01
        2   -1    0    0  501    0  0.00000000000E+00  0.00000000000E+00  0.15702121841E+04  0.15702121841E+04  0.25500000920E-02 0. -1.
       -2   -1    0    0    0  501  0.00000000000E+00  0.00000000000E+00 -0.10747799935E+04  0.10747799935E+04  0.25500000920E-02 0.  1.
    10030    2    1    2    0    0  0.00000000000E+00  0.00000000000E+00  0.49543219067E+03  0.26449921776E+04  0.25981783164E+04 0.  0.
        1    1    3    3  502    0 -0.10768637309E+04 -0.63994965114E+03  0.59810005563E+03  0.13881263370E+04  0.50400001928E-02 0.  1.
       -1    1    3    3    0  502  0.10768637309E+04  0.63994965114E+03 -0.10266786495E+03  0.12568658406E+04  0.50400001928E-02 0. -1.
</event>
<event>
 5   0  0.4597705E-06  0.2591177E+04  0.7818609E-02  0.8371204E-01
       -1   -1    0    0    0  501  0.00000000000E+00  0.00000000000E+00  0.13812647131E+04  0.13812647131E+04  0.50400001928E-02 0.  1.
        1   -1    0    0  501    0  0.00000000000E+00  0.00000000000E+00 -0.12152268936E+04  0.12152268937E+04  0.50400001928E-02 0. -1.
    10030    2    1    2    0    0  0.00000000000E+00  0.00000000000E+00  0.16603781942E+03  0.25964916067E+04  0.25911773591E+04 0.  0.
        5    1    3    3  502    0 -0.84458282110E+03  0.74597893441E+03  0.72364473265E+03  0.13392118956E+04  0.46999998093E+01 0.  1.
       -5    1    3    3    0  502  0.84458282110E+03 -0.74597893441E+03 -0.55760691323E+03  0.12572797111E+04  0.46999998093E+01 0. -1.
</event>
<event>
 5   0  0.4415080E-06  0.2589109E+04  0.7818609E-02  0.8371910E-01
       -1   -1    0    0    0  501  0.00000000000E+00  0.00000000000E+00  0.17083791201E+04  0.17083791201E+04  0.50400001928E-02 0. -1.
        1   -1    0    0  501    0  0.00000000000E+00  0.00000000000E+00 -0.98097139325E+03  0.98097139326E+03  0.50400001928E-02 0.  1.
    10030    2    1    2    0    0  0.00000000000E+00  0.00000000000E+00  0.72740772687E+03  0.26893505134E+04  0.25891087623E+04 0.  0.
        2    1    3    3  502    0  0.12275011069E+04  0.27069185909E+03  0.68526679268E+03  0.14316506652E+04  0.25500000920E-02 0. -1.
       -2    1    3    3    0  502 -0.12275011069E+04 -0.27069185909E+03  0.42140934198E+02  0.12576998482E+04  0.25500000920E-02 0.  1.
</event>
<event>
 5   0  0.1086507E-05  0.2595208E+04  0.7818609E-02  0.8369831E-01
        2   -1    0    0  501    0  0.00000000000E+00  0.00000000000E+00  0.76036917945E+03  0.76036917945E+03  0.25500000920E-02 0.  1.
       -2   -1    0    0    0  501  0.00000000000E+00  0.00000000000E+00 -0.22144186396E+04  0.22144186396E+04  0.25500000920E-02 0. -1.
    10030    2    1    2    0    0  0.00000000000E+00  0.00000000000E+00 -0.14540494602E+04  0.29747878191E+04  0.25952076479E+04 0.  0.
        2    1    3    3  502    0 -0.70611818244E+03  0.10845669513E+04 -0.61896362587E+03  0.14345746163E+04  0.25500000920E-02 0.  1.
       -2    1    3    3    0  502  0.70611818244E+03 -0.10845669513E+04 -0.83508583432E+03  0.15402132028E+04  0.25500000920E-02 0. -1.
</event>
<event>
 5   0  0.1086507E-05  0.2610656E+04  0.7818609E-02  0.8364591E-01
        2   -1    0    0  501    0  0.00000000000E+00  0.00000000000E+00  0.23743035578E+04  0.23743035578E+04  0.25500000920E-02 0.  1.
       -2   -1    0    0    0  501  0.00000000000E+00  0.00000000000E+00 -0.71763425592E+03  0.71763425592E+03  0.25500000920E-02 0. -1.
    10030    2    1    2    0    0  0.00000000000E+00  0.00000000000E+00  0.16566693018E+04  0.30919378137E+04  0.26106562907E+04 0.  0.
        2    1    3    3  502    0  0.11985377552E+04 -0.16018239541E+03  0.14106345340E+04  0.18579668832E+04  0.25500000920E-02 0. -1.
       -2    1    3    3    0  502 -0.11985377552E+04  0.16018239541E+03  0.24603476783E+03  0.12339709305E+04  0.25500000920E-02 0.  1.
</event>
<event>
 5   0  0.1116310E-05  0.2598534E+04  0.7818609E-02  0.8368699E-01
        2   -1    0    0  501    0  0.00000000000E+00  0.00000000000E+00  0.17400520867E+04  0.17400520867E+04  0.25500000920E-02 0.  1.
       -2   -1    0    0    0  501  0.00000000000E+00  0.00000000000E+00 -0.97014003729E+03  0.97014003729E+03  0.25500000920E-02 0. -1.
    10030    2    1    2    0    0  0.00000000000E+00  0.00000000000E+00  0.76991204942E+03  0.27101921240E+04  0.25985335836E+04 0.  0.
        4    1    3    3  502    0 -0.98433153163E+03  0.14771730490E+03 -0.48601034803E+03  0.11076717192E+04  0.12699999809E+01 0. -1.
       -4    1    3    3    0  502  0.98433153163E+03 -0.14771730490E+03  0.12559223974E+04  0.16025204047E+04  0.12699999809E+01 0.  1.
</event>
<event>
 5   0  0.1086507E-05  0.2583190E+04  0.7818609E-02  0.8373934E-01
       -2   -1    0    0    0  501  0.00000000000E+00  0.00000000000E+00  0.95477205428E+03  0.95477205429E+03  0.25500000920E-02 0. -1.
        2   -1    0    0  501    0  0.00000000000E+00  0.00000000000E+00 -0.17472422128E+04  0.17472422128E+04  0.25500000920E-02 0.  1.
    10030    2    1    2    0    0  0.00000000000E+00  0.00000000000E+00 -0.79247015852E+03  0.27020142671E+04  0.25831903041E+04 0.  0.
        2    1    3    3  502    0  0.49119702839E+03 -0.69526939507E+03 -0.14122786006E+04  0.16490011820E+04  0.25500000920E-02 0.  1.
       -2    1    3    3    0  502 -0.49119702839E+03  0.69526939507E+03  0.61980844212E+03  0.10530130851E+04  0.25500000920E-02 0. -1.
</event>
<event>
 5   0  0.1086507E-05  0.2606750E+04  0.7818609E-02  0.8365912E-01
        2   -1    0    0  501    0  0.00000000000E+00  0.00000000000E+00  0.14892702212E+04  0.14892702212E+04  0.25500000920E-02 0.  1.
       -2   -1    0    0    0  501  0.00000000000E+00  0.00000000000E+00 -0.11406834687E+04  0.11406834687E+04  0.25500000920E-02 0. -1.
    10030    2    1    2    0    0  0.00000000000E+00  0.00000000000E+00  0.34858675253E+03  0.26299536899E+04  0.26067496403E+04 0.  0.
        2    1    3    3  502    0  0.11702145112E+04 -0.53003014166E+03 -0.47784088889E+02  0.12855416261E+04  0.25500000920E-02 0. -1.
       -2    1    3    3    0  502 -0.11702145112E+04  0.53003014166E+03  0.39637084142E+03  0.13444120638E+04  0.25500000920E-02 0.  1.
</event>
<event>
 5   0  0.1136881E-05  0.2586556E+04  0.7818609E-02  0.8372782E-01
       -2   -1    0    0    0  501  0.00000000000E+00  0.00000000000E+00  0.62478089953E+03  0.62478089954E+03  0.25500000920E-02 0.  1.
        2   -1    0    0  501    0  0.00000000000E+00  0.00000000000E+00 -0.26770470263E+04  0.26770470263E+04  0.25500000920E-02 0. -1.
    10030    2    1    2    0    0  0.00000000000E+00  0.00000000000E+00 -0.20522661267E+04  0.33018279258E+04  0.25865558948E+04 0.  0.
        3    1    3    3  502    0 -0.12497482504E+04 -0.89373789719E+02 -0.61702520328E+03  0.13966311165E+04  0.10100000352E+00 0.  1.
       -3    1    3    3    0  502  0.12497482504E+04  0.89373789719E+02 -0.14352409234E+04  0.19051968093E+04  0.10100000352E+00 0. -1.
</event>
<event>
 5   0  0.4464297E-06  0.2574577E+04  0.7818609E-02  0.8376889E-01
       -1   -1    0    0    0  501  0.00000000000E+00  0.00000000000E+00  0.19789126324E+04  0.19789126324E+04  0.50400001928E-02 0. -1.
        1   -1    0    0  501    0  0.00000000000E+00  0.00000000000E+00 -0.83738464596E+03  0.83738464597E+03  0.50400001928E-02 0.  1.
    10030    2    1    2    0    0  0.00000000000E+00  0.00000000000E+00  0.11415279864E+04  0.28162972784E+04  0.25745765120E+04 0.  0.
        4    1    3    3  502    0 -0.54765740078E+03 -0.34349370455E+03 -0.64694117326E+03  0.91457697776E+03  0.12699999809E+01 0.  1.
       -4    1    3    3    0  502  0.54765740078E+03  0.34349370455E+03  0.17884691597E+04  0.19017203006E+04  0.12699999809E+01 0. -1.
</event>
<event>
 5   0  0.4218590E-06  0.2533134E+04  0.7818609E-02  0.8391276E-01
       -1   -1    0    0    0  501  0.00000000000E+00  0.00000000000E+00  0.90193337887E+03  0.90193337888E+03  0.50400001928E-02 0. -1.
        1   -1    0    0  501    0  0.00000000000E+00  0.00000000000E+00 -0.17786147223E+04  0.17786147223E+04  0.50400001928E-02 0.  1.
    10030    2    1    2    0    0  0.00000000000E+00  0.00000000000E+00 -0.87668134346E+03  0.26805481012E+04  0.25331340164E+04 0.  0.
        1    1    3    3  502    0 -0.64237014860E+03  0.89646094411E+03 -0.10974100349E+04  0.15558246742E+04  0.50400001928E-02 0.  1.
       -1    1    3    3    0  502  0.64237014860E+03 -0.89646094411E+03  0.22072869140E+03  0.11247234270E+04  0.50400001928E-02 0. -1.
</event>
<event>
 5   0  0.4361864E-06  0.2600674E+04  0.7818609E-02  0.8367972E-01
        1   -1    0    0  501    0  0.00000000000E+00  0.00000000000E+00  0.12462816624E+04  0.12462816625E+04  0.50400001928E-02 0. -1.
       -1   -1    0    0    0  501  0.00000000000E+00  0.00000000000E+00 -0.13567372176E+04  0.13567372176E+04  0.50400001928E-02 0.  1.
    10030    2    1    2    0    0  0.00000000000E+00  0.00000000000E+00 -0.11045555511E+03  0.26030188800E+04  0.26006743087E+04 0.  0.
        3    1    3    3  502    0  0.48334942147E+03  0.74757747576E+02  0.11507075096E+04  0.12503372212E+04  0.10100000352E+00 0. -1.
       -3    1    3    3    0  502 -0.48334942147E+03 -0.74757747576E+02 -0.12611630647E+04  0.13526816588E+04  0.10100000352E+00 0.  1.
</event>
<event>
 5   0  0.4415080E-06  0.2567450E+04  0.7818609E-02  0.8379342E-01
        1   -1    0    0  501    0  0.00000000000E+00  0.00000000000E+00  0.19641921025E+04  0.19641921025E+04  0.50400001928E-02 0. -1.
       -1   -1    0    0    0  501  0.00000000000E+00  0.00000000000E+00 -0.83899653885E+03  0.83899653887E+03  0.50400001928E-02 0.  1.
    10030    2    1    2    0    0  0.00000000000E+00  0.00000000000E+00  0.11251955637E+04  0.28031886414E+04  0.25674503895E+04 0.  0.
        2    1    3    3  502    0  0.72292200216E+03  0.78206246671E+03 -0.21994900194E+03  0.10874812580E+04  0.25500000920E-02 0.  1.
       -2    1    3    3    0  502 -0.72292200216E+03 -0.78206246671E+03  0.13451445656E+04  0.17157073834E+04  0.25500000920E-02 0. -1.
</event>
<event>
 5   0  0.4361864E-06  0.2602026E+04  0.7818609E-02  0.8367513E-01
       -1   -1    0    0    0  501  0.00000000000E+00  0.00000000000E+00  0.15158338230E+04  0.15158338230E+04  0.50400001928E-02 0. -1.
        1   -1    0    0  501    0  0.00000000000E+00  0.00000000000E+00 -0.11166360987E+04  0.11166360987E+04  0.50400001928E-02 0.  1.
    10030    2    1    2    0    0  0.00000000000E+00  0.00000000000E+00  0.39919772432E+03  0.26324699217E+04  0.26020259541E+04 0.  0.
        3    1    3    3  502    0  0.39242759753E+03 -0.25439064666E+03  0.14278547592E+04  0.15024923441E+04  0.10100000352E+00 0.  1.
       -3    1    3    3    0  502 -0.39242759753E+03  0.25439064666E+03 -0.10286570349E+04  0.11299775777E+04  0.10100000352E+00 0. -1.
</event>
<event>
 5   0  0.1116310E-05  0.2594036E+04  0.7818609E-02  0.8370230E-01
       -2   -1    0    0    0  501  0.00000000000E+00  0.00000000000E+00  0.14488060639E+04  0.14488060639E+04  0.25500000920E-02 0. -1.
        2   -1    0    0  501    0  0.00000000000E+00  0.00000000000E+00 -0.11611322935E+04  0.11611322935E+04  0.25500000920E-02 0.  1.
    10030    2    1    2    0    0  0.00000000000E+00  0.00000000000E+00  0.28767377046E+03  0.26099383574E+04  0.25940358577E+04 0.  0.
        4    1    3    3  502    0  0.10431013854E+02 -0.73431662456E+03 -0.93179331211E+03  0.11864105953E+04  0.12699999809E+01 0.  1.
       -4    1    3    3    0  502 -0.10431013854E+02  0.73431662456E+03  0.12194670826E+04  0.14235277621E+04  0.12699999809E+01 0. -1.
</event>
<event>
 5   0  0.1116310E-05  0.2582382E+04  0.7818609E-02  0.8374210E-01
       -2   -1    0    0    0  501  0.00000000000E+00  0.00000000000E+00  0.81663170767E+03  0.81663170767E+03  0.25500000920E-02 0.  1.
        2   -1    0    0  501    0  0.00000000000E+00  0.00000000000E+00 -0.20415259128E+04  0.20415259128E+04  0.25500000920E-02 0. -1.
    10030    2    1    2    0    0  0.00000000000E+00  0.00000000000E+00 -0.12248942051E+04  0.28581576205E+04  0.25823824600E+04 0.  0.
        4    1    3    3  502    0  0.52392277922E+03 -0.11784990814E+04 -0.54405838127E+03  0.13997700878E+04  0.12699999809E+01 0. -1.
       -4    1    3    3    0  502 -0.52392277922E+03  0.11784990814E+04 -0.68083582387E+03  0.14583875327E+04  0.12699999809E+01 0.  1.
</event>
<event>
 5   0  0.1086507E-05  0.2610574E+04  0.7818609E-02  0.8364618E-01
       -2   -1    0    0    0  501  0.00000000000E+00  0.00000000000E+00  0.10952055758E+04  0.10952055758E+04  0.25500000920E-02 0.  1.
        2   -1    0    0  501    0  0.00000000000E+00  0.00000000000E+00 -0.15556665792E+04  0.15556665792E+04  0.25500000920E-02 0. -1.
    10030    2    1    2    0    0  0.00000000000E+00  0.00000000000E+00 -0.46046100337E+03  0.26508721550E+04  0.26105744285E+04 0.  0.
        2    1    3    3  502    0  0.78935303237E+03 -0.55043292520E+03 -0.11257279743E+04  0.14809855121E+04  0.25500000920E-02 0. -1.
       -2    1    3    3    0  502 -0.78935303237E+03  0.55043292520E+03  0.66526697090E+03  0.11698866430E+04  0.25500000920E-02 0.  1.
</event>
<event>
 5   0  0.3705250E-06  0.2601358E+04  0.7818609E-02  0.8367740E-01
        3   -1    0    0  501    0  0.00000000000E+00  0.00000000000E+00  0.11667631764E+04  0.11667631808E+04  0.10100000352E+00 0. -1.
       -3   -1    0    0    0  501  0.00000000000E+00  0.00000000000E+00 -0.14499653086E+04  0.14499653121E+04  0.10100000352E+00 0.  1.
    10030    2    1    2    0    0  0.00000000000E+00  0.00000000000E+00 -0.28320213212E+03  0.26167284929E+04  0.26013582141E+04 0.  0.
        1    1    3    3  502    0 -0.90519811836E+03  0.60626443394E+02  0.79595046878E+03  0.12068953343E+04  0.50400001928E-02 0. -1.
       -1    1    3    3    0  502  0.90519811836E+03 -0.60626443394E+02 -0.10791526009E+04  0.14098331586E+04  0.50400001928E-02 0.  1.
</event>
<event>
 5   0  0.4464297E-06  0.2578429E+04  0.7818609E-02  0.8375565E-01
        1   -1    0    0  501    0  0.00000000000E+00  0.00000000000E+00  0.15567744970E+04  0.15567744970E+04  0.50400001928E-02 0.  1.
       -1   -1    0    0    0  501  0.00000000000E+00  0.00000000000E+00 -0.10676396395E+04  0.10676396395E+04  0.50400001928E-02 0. -1.
    10030    2    1    2    0    0  0.00000000000E+00  0.00000000000E+00  0.48913485748E+03  0.26244141365E+04  0.25784291053E+04 0.  0.
        4    1    3    3  502    0  0.79531210729E+02  0.12867574438E+04  0.24621402692E+03  0.13125139590E+04  0.12699999809E+01 0.  1.
       -4    1    3    3    0  502 -0.79531210729E+02 -0.12867574438E+04  0.24292083056E+03  0.13119001774E+04  0.12699999809E+01 0. -1.
</event>
<event>
 5   0  0.4361864E-06  0.2579793E+04  0.7818609E-02  0.8375098E-01
        1   -1    0    0  501    0  0.00000000000E+00  0.00000000000E+00  0.25678927635E+04  0.25678927635E+04  0.50400001928E-02 0. -1.
       -1   -1    0    0    0  501  0.00000000000E+00  0.00000000000E+00 -0.64793718948E+03  0.64793718950E+03  0.50400001928E-02 0.  1.
    10030    2    1    2    0    0  0.00000000000E+00  0.00000000000E+00  0.19199555740E+04  0.32158299530E+04  0.25797931856E+04 0.  0.
        3    1    3    3  502    0  0.32208856775E+03 -0.75910834933E+03  0.21964145134E+04  0.23461081085E+04  0.10100000352E+00 0. -1.
       -3    1    3    3    0  502 -0.32208856775E+03  0.75910834933E+03 -0.27645893941E+03  0.86972184455E+03  0.10100000352E+00 0.  1.
</event>
<event>
 5   0  0.4464297E-06  0.2605377E+04  0.7818609E-02  0.8366377E-01
       -1   -1    0    0    0  501  0.00000000000E+00  0.00000000000E+00  0.11316164813E+04  0.11316164814E+04  0.50400001928E-02 0. -1.
        1   -1    0    0  501    0  0.00000000000E+00  0.00000000000E+00 -0.14996221949E+04  0.14996221949E+04  0.50400001928E-02 0.  1.
    10030    2    1    2    0    0  0.00000000000E+00  0.00000000000E+00 -0.36800571359E+03  0.26312386763E+04  0.26053768953E+04 0.  0.
        4    1    3    3  502    0  0.10029084652E+04  0.14135141094E+02  0.65549463757E+03  0.11982070041E+04  0.12699999809E+01 0. -1.
       -4    1    3    3    0  502 -0.10029084652E+04 -0.14135141094E+02 -0.10235003512E+04  0.14330316722E+04  0.12699999809E+01 0.  1.
</event>
<event>
 5   0  0.4464297E-06  0.2609682E+04  0.7818609E-02  0.8364920E-01
       -1   -1    0    0    0  501  0.00000000000E+00  0.00000000000E+00  0.11226018538E+04  0.11226018538E+04  0.50400001928E-02 0. -1.
        1   -1    0    0  501    0  0.00000000000E+00  0.00000000000E+00 -0.15166643195E+04  0.15166643195E+04  0.50400001928E-02 0.  1.
    10030    2    1    2    0    0  0.00000000000E+00  0.00000000000E+00 -0.39406246567E+03  0.26392661733E+04  0.26096821083E+04 0.  0.
        4    1    3    3  502    0 -0.78773188846E+03 -0.62483334864E+03 -0.10381264323E+04  0.14452149819E+04  0.12699999809E+01 0.  1.
       -4    1    3    3    0  502  0.78773188846E+03  0.62483334864E+03  0.64406396659E+03  0.11940511914E+04  0.12699999809E+01 0. -1.
</event>
<event>
 5   0  0.1085061E-05  0.2611448E+04  0.7818609E-02  0.8364323E-01
       -2   -1    0    0    0  501  0.00000000000E+00  0.00000000000E+00  0.10119582611E+04  0.10119582611E+04  0.25500000920E-02 0. -1.
        2   -1    0    0  501    0  0.00000000000E+00  0.00000000000E+00 -0.16847679934E+04  0.16847679934E+04  0.25500000920E-02 0.  1.
    10030    2    1    2    0    0  0.00000000000E+00  0.00000000000E+00 -0.67280973229E+03  0.26967262544E+04  0.26114477891E+04 0.  0.
        1    1    3    3  502    0  0.45966082181E+03 -0.17968335467E+03 -0.15847401831E+04  0.16598119252E+04  0.50400001928E-02 0.  1.
       -1    1    3    3    0  502 -0.45966082181E+03  0.17968335467E+03  0.91193045080E+03  0.10369143292E+04  0.50400001928E-02 0. -1.
</event>
<event>
 5   0  0.1086507E-05  0.2567274E+04  0.7818609E-02  0.8379403E-01
        2   -1    0    0  501    0  0.00000000000E+00  0.00000000000E+00  0.24281578304E+04  0.24281578304E+04  0.25500000920E-02 0. -1.
       -2   -1    0    0    0  501  0.00000000000E+00  0.00000000000E+00 -0.67858998294E+03  0.67858998294E+03  0.25500000920E-02 0.  1.
    10030    2    1    2    0    0  0.00000000000E+00  0.00000000000E+00  0.17495678475E+04  0.31067478134E+04  0.25672737141E+04 0.  0.
        2    1    3    3  502    0  0.55406352460E+03 -0.41574567982E+03  0.21825657657E+04  0.22898524365E+04  0.25500000920E-02 0. -1.
       -2    1    3    3    0  502 -0.55406352460E+03  0.41574567982E+03 -0.43299791818E+03  0.81689537685E+03  0.25500000920E-02 0.  1.
</event>
<event>
 5   0  0.1136881E-05  0.2618173E+04  0.7818609E-02  0.8362054E-01
       -2   -1    0    0    0  501  0.00000000000E+00  0.00000000000E+00  0.64804156333E+03  0.64804156334E+03  0.25500000920E-02 0. -1.
        2   -1    0    0  501    0  0.00000000000E+00  0.00000000000E+00 -0.26444412104E+04  0.26444412104E+04  0.25500000920E-02 0.  1.
    10030    2    1    2    0    0  0.00000000000E+00  0.00000000000E+00 -0.19963996471E+04  0.32924827738E+04  0.26181732687E+04 0.  0.
        3    1    3    3  502    0  0.81538265351E+03 -0.90597120681E+03 -0.39762922049E+03  0.12820849061E+04  0.10100000352E+00 0. -1.
       -3    1    3    3    0  502 -0.81538265351E+03  0.90597120681E+03 -0.15987704266E+04  0.20103978677E+04  0.10100000352E+00 0.  1.
</event>
<event>
 5   0  0.1085255E-05  0.2590088E+04  0.7818609E-02  0.8371576E-01
       -2   -1    0    0    0  501  0.00000000000E+00  0.00000000000E+00  0.71654188222E+03  0.71654188223E+03  0.25500000920E-02 0. -1.
        2   -1    0    0  501    0  0.00000000000E+00  0.00000000000E+00 -0.23406016308E+04  0.23406016308E+04  0.25500000920E-02 0.  1.
    10030    2    1    2    0    0  0.00000000000E+00  0.00000000000E+00 -0.16240597485E+04  0.30571435130E+04  0.25900881051E+04 0.  0.
        5    1    3    3  502    0 -0.11978373029E+04 -0.45208190602E+03 -0.58217025855E+03  0.14064624253E+04  0.46999998093E+01 0.  1.
       -5    1    3    3    0  502  0.11978373029E+04  0.45208190602E+03 -0.10418894900E+04  0.16506810877E+04  0.46999998093E+01 0. -1.
</event>
<event>
 5   0  0.4597705E-06  0.2591537E+04  0.7818609E-02  0.8371082E-01
        1   -1    0    0  501    0  0.00000000000E+00  0.00000000000E+00  0.13995087755E+04  0.13995087755E+04  0.50400001928E-02 0.  1.
       -1   -1    0    0    0  501  0.00000000000E+00  0.00000000000E+00 -0.11997181327E+04  0.11997181327E+04  0.50400001928E-02 0. -1.
    10030    2    1    2    0    0  0.00000000000E+00  0.00000000000E+00  0.19979064282E+03  0.25992269081E+04  0.25915370379E+04 0.  0.
        5    1    3    3  502    0  0.81025535445E+03 -0.92006322968E+03 -0.32082989013E+03  0.12672742381E+04  0.46999998093E+01 0.  1.
       -5    1    3    3    0  502 -0.81025535445E+03  0.92006322968E+03  0.52062053295E+03  0.13319526701E+04  0.46999998093E+01 0. -1.
</event>
<event>
 5   0  0.4415080E-06  0.2591007E+04  0.7818609E-02  0.8371262E-01
        1   -1    0    0  501    0  0.00000000000E+00  0.00000000000E+00  0.21862610731E+04  0.21862610731E+04  0.50400001928E-02 0. -1.
       -1   -1    0    0    0  501  0.00000000000E+00  0.00000000000E+00 -0.76767118258E+03  0.76767118259E+03  0.50400001928E-02 0.  1.
    10030    2    1    2    0    0  0.00000000000E+00  0.00000000000E+00  0.14185898906E+04  0.29539322557E+04  0.25910072354E+04 0.  0.
        2    1    3    3  502    0  0.52885794738E+03  0.11826406412E+04  0.70918808764E+03  0.14769148108E+04  0.25500000920E-02 0.  1.
       -2    1    3    3    0  502 -0.52885794738E+03 -0.11826406412E+04  0.70940180292E+03  0.14770174449E+04  0.25500000920E-02 0. -1.
</event>
<event>
 5   0  0.4597705E-06  0.2622171E+04  0.7818609E-02  0.8360709E-01
        1   -1    0    0  501    0  0.00000000000E+00  0.00000000000E+00  0.13459075912E+04  0.13459075912E+04  0.50400001928E-02 0.  1.
       -1   -1    0    0    0  501  0.00000000000E+00  0.00000000000E+00 -0.12771645130E+04  0.12771645130E+04  0.50400001928E-02 0. -1.
    10030    2    1    2    0    0  0.00000000000E+00  0.00000000000E+00  0.68743078150E+02  0.26230721042E+04  0.26221711716E+04 0.  0.
        5    1    3    3  502    0 -0.11929478756E+03 -0.10825417200E+03  0.13359615911E+04  0.13456469355E+04  0.46999998093E+01 0.  1.
       -5    1    3    3    0  502  0.11929478756E+03  0.10825417200E+03 -0.12672185129E+04  0.12774251687E+04  0.46999998093E+01 0. -1.
</event>
<event>
 5   0  0.1086507E-05  0.2593664E+04  0.7818609E-02  0.8370357E-01
        2   -1    0    0  501    0  0.00000000000E+00  0.00000000000E+00  0.24683141591E+04  0.24683141591E+04  0.25500000920E-02 0. -1.
       -2   -1    0    0    0  501  0.00000000000E+00  0.00000000000E+00 -0.68134488961E+03  0.68134488961E+03  0.25500000920E-02 0.  1.
    10030    2    1    2    0    0  0.00000000000E+00  0.00000000000E+00  0.17869692694E+04  0.31496590487E+04  0.25936640015E+04 0.  0.
        2    1    3    3  502    0  0.12868805875E+04  0.18213221320E+02  0.70002314497E+03  0.14650685211E+04  0.25500000920E-02 0. -1.
       -2    1    3    3    0  502 -0.12868805875E+04 -0.18213221320E+02  0.10869461245E+04  0.16845905276E+04  0.25500000920E-02 0.  1.
</event>
<event>
 5   0  0.1085061E-05  0.2606740E+04  0.7818609E-02  0.8365915E-01
        2   -1    0    0  501    0  0.00000000000E+00  0.00000000000E+00  0.17470202161E+04  0.17470202161E+04  0.25500000920E-02 0.  1.
       -2   -1    0    0    0  501  0.00000000000E+00  0.00000000000E+00 -0.97238308898E+03  0.97238308898E+03  0.25500000920E-02 0. -1.
    10030    2    1    2    0    0  0.00000000000E+00  0.00000000000E+00  0.77463712708E+03  0.27194033050E+04  0.26067396603E+04 0.  0.
        1    1    3    3  502    0 -0.17753456603E+03  0.12827053736E+04  0.54177616210E+03  0.14036997569E+04  0.50400001928E-02 0. -1.
       -1    1    3    3    0  502  0.17753456603E+03 -0.12827053736E+04  0.23286096498E+03  0.13157035482E+04  0.50400001928E-02 0.  1.
</event>
<event>
 5   0  0.1085061E-05  0.2593751E+04  0.7818609E-02  0.8370327E-01
        2   -1    0    0  501    0  0.00000000000E+00  0.00000000000E+00  0.13370711582E+04  0.13370711582E+04  0.25500000920E-02 0.  1.
       -2   -1    0    0    0  501  0.00000000000E+00  0.00000000000E+00 -0.12578877832E+04  0.12578877832E+04  0.25500000920E-02 0. -1.
    10030    2    1    2    0    0  0.00000000000E+00  0.00000000000E+00  0.79183375027E+02  0.25949589414E+04  0.25937505471E+04 0.  0.
        1    1    3    3  502    0 -0.63570301950E+03  0.46874445008E+03 -0.98950105640E+03  0.12660774183E+04  0.50400001928E-02 0. -1.
       -1    1    3    3    0  502  0.63570301950E+03 -0.46874445008E+03  0.10686844314E+04  0.13288815231E+04  0.50400001928E-02 0.  1.
</event>
<event>
 5   0  0.1136881E-05  0.2584517E+04  0.7818609E-02  0.8373480E-01
       -2   -1    0    0    0  501  0.00000000000E+00  0.00000000000E+00  0.13373902413E+04  0.13373902413E+04  0.25500000920E-02 0.  1.
        2   -1    0    0  501    0  0.00000000000E+00  0.00000000000E+00 -0.12486493685E+04  0.12486493685E+04  0.25500000920E-02 0. -1.
    10030    2    1    2    0    0  0.00000000000E+00  0.00000000000E+00  0.88740872770E+02  0.25860396098E+04  0.25845165739E+04 0.  0.
        3    1    3    3  502    0  0.49651793122E+03  0.11781097734E+04  0.23278641058E+03  0.12994853663E+04  0.10100000352E+00 0.  1.
       -3    1    3    3    0  502 -0.49651793122E+03 -0.11781097734E+04 -0.14404553781E+03  0.12865542434E+04  0.10100000352E+00 0. -1.
</event>
<event>
 5   0  0.4464297E-06  0.2600392E+04  0.7818609E-02  0.8368068E-01
        1   -1    0    0  501    0  0.00000000000E+00  0.00000000000E+00  0.20154168188E+04  0.20154168189E+04  0.50400001928E-02 0. -1.
       -1   -1    0    0    0  501  0.00000000000E+00  0.00000000000E+00 -0.83878895661E+03  0.83878895662E+03  0.50400001928E-02 0.  1.
    10030    2    1    2    0    0  0.00000000000E+00  0.00000000000E+00  0.11766278622E+04  0.28542057755E+04  0.26003917940E+04 0.  0.
        4    1    3    3  502    0  0.35635422551E+03  0.12302781940E+04  0.34304136614E+03  0.13259908599E+04  0.12699999809E+01 0.  1.
       -4    1    3    3    0  502 -0.35635422551E+03 -0.12302781940E+04  0.83358649611E+03  0.15282149156E+04  0.12699999809E+01 0. -1.
</event>
<event>
 5   0  0.1136881E-05  0.2592150E+04  0.7818609E-02  0.8370872E-01
       -2   -1    0    0    0  501  0.00000000000E+00  0.00000000000E+00  0.60656954755E+03  0.60656954755E+03  0.25500000920E-02 0. -1.
        2   -1    0    0  501    0  0.00000000000E+00  0.00000000000E+00 -0.27693622528E+04  0.27693622528E+04  0.25500000920E-02 0.  1.
    10030    2    1    2    0    0  0.00000000000E+00  0.00000000000E+00 -0.21627927052E+04  0.33759318003E+04  0.25921503110E+04 0.  0.
        3    1    3    3  502    0  0.96329096181E+02  0.58370548043E+03 -0.25832576229E+04  0.26501342115E+04  0.10100000352E+00 0.  1.
       -3    1    3    3    0  502 -0.96329096181E+02 -0.58370548043E+03  0.42046491770E+03  0.72579758877E+03  0.10100000352E+00 0. -1.
</event>
<event>
 5   0  0.4415080E-06  0.2596394E+04  0.7818609E-02  0.8369427E-01
       -1   -1    0    0    0  501  0.00000000000E+00  0.00000000000E+00  0.17047113956E+04  0.17047113956E+04  0.50400001928E-02 0. -1.
        1   -1    0    0  501    0  0.00000000000E+00  0.00000000000E+00 -0.98862219594E+03  0.98862219595E+03  0.50400001928E-02 0.  1.
    10030    2    1    2    0    0  0.00000000000E+00  0.00000000000E+00  0.71608919965E+03  0.26933335915E+04  0.25963940559E+04 0.  0.
        2    1    3    3  502    0  0.46350133647E+03 -0.12005494903E+04  0.53519221565E+03  0.13937658610E+04  0.25500000920E-02 0.  1.
       -2    1    3    3    0  502 -0.46350133647E+03  0.12005494903E+04  0.18089698401E+03  0.12995677306E+04  0.25500000920E-02 0. -1.
</event>
<event>
 5   0  0.3705250E-06  0.2586091E+04  0.7818609E-02  0.8372941E-01
        4   -1    0    0  501    0  0.00000000000E+00  0.00000000000E+00  0.10635461776E+04  0.10635469359E+04  0.12699999809E+01 0. -1.
       -4   -1    0    0    0  501  0.00000000000E+00  0.00000000000E+00 -0.15720659923E+04  0.15720665053E+04  0.12699999809E+01 0.  1.
    10030    2    1    2    0    0  0.00000000000E+00  0.00000000000E+00 -0.50851981465E+03  0.26356134411E+04  0.25860908355E+04 0.  0.
        2    1    3    3  502    0 -0.16575548719E+03  0.81022135415E+03  0.75877322048E+03  0.11223503572E+04  0.25500000920E-02 0. -1.
       -2    1    3    3    0  502  0.16575548719E+03 -0.81022135415E+03 -0.12672930351E+04  0.15132630839E+04  0.25500000920E-02 0.  1.
</event>
<event>
 5   0  0.1136881E-05  0.2480987E+04  0.7818609E-02  0.8409791E-01
       -2   -1    0    0    0  501  0.00000000000E+00  0.00000000000E+00  0.13516038111E+04  0.13516038111E+04  0.25500000920E-02 0. -1.
        2   -1    0    0  501    0  0.00000000000E+00  0.00000000000E+00 -0.11385169109E+04  0.11385169109E+04  0.25500000920E-02 0.  1.
    10030    2    1    2    0    0  0.00000000000E+00  0.00000000000E+00  0.21308690022E+03  0.24901207219E+04  0.24809867357E+04 0.  0.
        3    1    3    3  502    0  0.43472522124E+03  0.60086016010E+02 -0.10579986106E+04  0.11454070969E+04  0.10100000352E+00 0.  1.
       -3    1    3    3    0  502 -0.43472522124E+03 -0.60086016010E+02  0.12710855108E+04  0.13447136250E+04  0.10100000352E+00 0. -1.
</event>
<event>
 5   0  0.4415080E-06  0.2555829E+04  0.7818609E-02  0.8383362E-01
       -1   -1    0    0    0  501  0.00000000000E+00  0.00000000000E+00  0.20952169726E+04  0.20952169726E+04  0.50400001928E-02 0. -1.
        1   -1    0    0  501    0  0.00000000000E+00  0.00000000000E+00 -0.77942526031E+03  0.77942526033E+03  0.50400001928E-02 0.  1.
    10030    2    1    2    0    0  0.00000000000E+00  0.00000000000E+00  0.13157917123E+04  0.28746422329E+04  0.25558286596E+04 0.  0.
        2    1    3    3  502    0 -0.11900609269E+04  0.16632592116E+03  0.11470680889E+04  0.16612268124E+04  0.25500000920E-02 0.  1.
       -2    1    3    3    0  502  0.11900609269E+04 -0.16632592116E+03  0.16872362338E+03  0.12134154205E+04  0.25500000920E-02 0. -1.
</event>
<event>
 5   0  0.4415080E-06  0.2598579E+04  0.7818609E-02  0.8368684E-01
        1   -1    0    0  501    0  0.00000000000E+00  0.00000000000E+00  0.15364154872E+04  0.15364154872E+04  0.50400001928E-02 0.  1.
       -1   -1    0    0    0  501  0.00000000000E+00  0.00000000000E+00 -0.10987612133E+04  0.10987612133E+04  0.50400001928E-02 0. -1.
    10030    2    1    2    0    0  0.00000000000E+00  0.00000000000E+00  0.43765427396E+03  0.26351767005E+04  0.25985794157E+04 0.  0.
        2    1    3    3  502    0 -0.27399096895E+03  0.53409414048E+03  0.13873692150E+04  0.15116616489E+04  0.25500000920E-02 0.  1.
       -2    1    3    3    0  502  0.27399096895E+03 -0.53409414048E+03 -0.94971494106E+03  0.11235150516E+04  0.25500000920E-02 0. -1.
</event>
<event>
 5   0  0.4597705E-06  0.2588461E+04  0.7818609E-02  0.8372131E-01
       -1   -1    0    0    0  501  0.00000000000E+00  0.00000000000E+00  0.20441168068E+04  0.20441168068E+04  0.50400001928E-02 0.  1.
        1   -1    0    0  501    0  0.00000000000E+00  0.00000000000E+00 -0.81944060181E+03  0.81944060183E+03  0.50400001928E-02 0. -1.
    10030    2    1    2    0    0  0.00000000000E+00  0.00000000000E+00  0.12246762050E+04  0.28635574086E+04  0.25884607831E+04 0.  0.
        5    1    3    3  502    0  0.79247987129E+03  0.98301099771E+03  0.92655856268E+03  0.15661634104E+04  0.46999998093E+01 0.  1.
       -5    1    3    3    0  502 -0.79247987129E+03 -0.98301099771E+03  0.29811764231E+03  0.12973939982E+04  0.46999998093E+01 0. -1.
</event>
<event>
 5   0  0.1086507E-05  0.2595351E+04  0.7818609E-02  0.8369782E-01
       -2   -1    0    0    0  501  0.00000000000E+00  0.00000000000E+00  0.10806354595E+04  0.10806354595E+04  0.25500000920E-02 0. -1.
        2   -1    0    0  501    0  0.00000000000E+00  0.00000000000E+00 -0.15583070660E+04  0.15583070660E+04  0.25500000920E-02 0.  1.
    10030    2    1    2    0    0  0.00000000000E+00  0.00000000000E+00 -0.47767160650E+03  0.26389425255E+04  0.25953511303E+04 0.  0.
        2    1    3    3  502    0 -0.20170315317E+03 -0.11722813834E+04 -0.76623255246E+03  0.14149346728E+04  0.25500000920E-02 0.  1.
       -2    1    3    3    0  502  0.20170315317E+03  0.11722813834E+04  0.28856094595E+03  0.12240078527E+04  0.25500000920E-02 0. -1.
</event>
<event>
 5   0  0.1086507E-05  0.2704976E+04  0.7818609E-02  0.8333392E-01
       -2   -1    0    0    0  501  0.00000000000E+00  0.00000000000E+00  0.10746648219E+04  0.10746648219E+04  0.25500000920E-02 0. -1.
        2   -1    0    0  501    0  0.00000000000E+00  0.00000000000E+00 -0.17021348130E+04  0.17021348130E+04  0.25500000920E-02 0.  1.
    10030    2    1    2    0    0  0.00000000000E+00  0.00000000000E+00 -0.62746999110E+03  0.27767996350E+04  0.27049764552E+04 0.  0.
        2    1    3    3  502    0  0.23295946282E+03 -0.12234593044E+04  0.22762083373E+03  0.12660703080E+04  0.25500000920E-02 0. -1.
       -2    1    3    3    0  502 -0.23295946282E+03  0.12234593044E+04 -0.85509082483E+03  0.15107293270E+04  0.25500000920E-02 0.  1.
</event>
<event>
 5   0  0.4361864E-06  0.2598261E+04  0.7818609E-02  0.8368792E-01
       -1   -1    0    0    0  501  0.00000000000E+00  0.00000000000E+00  0.90717091024E+03  0.90717091025E+03  0.50400001928E-02 0.  1.
        1   -1    0    0  501    0  0.00000000000E+00  0.00000000000E+00 -0.18604435500E+04  0.18604435500E+04  0.50400001928E-02 0. -1.
    10030    2    1    2    0    0  0.00000000000E+00  0.00000000000E+00 -0.95327263975E+03  0.27676144602E+04  0.25982611637E+04 0.  0.
        3    1    3    3  502    0  0.89241538578E+03  0.52089210153E+03  0.36209120381E+03  0.10949172810E+04  0.10100000352E+00 0.  1.
       -3    1    3    3    0  502 -0.89241538578E+03 -0.52089210153E+03 -0.13153638436E+04  0.16726971792E+04  0.10100000352E+00 0. -1.
</event>
<event>
 5   0  0.1116310E-05  0.2459688E+04  0.7818609E-02  0.8417489E-01
        2   -1    0    0  501    0  0.00000000000E+00  0.00000000000E+00  0.18298319290E+04  0.18298319290E+04  0.25500000920E-02 0. -1.
       -2   -1    0    0    0  501  0.00000000000E+00  0.00000000000E+00 -0.82658780515E+03  0.82658780515E+03  0.25500000920E-02 0.  1.
    10030    2    1    2    0    0  0.00000000000E+00  0.00000000000E+00  0.10032441239E+04  0.26564197342E+04  0.24596884014E+04 0.  0.
        4    1    3    3  502    0 -0.32871629565E+03  0.88591441909E+03 -0.34849366612E+03  0.10071485537E+04  0.12699999809E+01 0.  1.
       -4    1    3    3    0  502  0.32871629565E+03 -0.88591441909E+03  0.13517377900E+04  0.16492711805E+04  0.12699999809E+01 0. -1.
</event>
<event>
 5   0  0.4218590E-06  0.2570507E+04  0.7818609E-02  0.8378289E-01
       -1   -1    0    0    0  501  0.00000000000E+00  0.00000000000E+00  0.11172547924E+04  0.11172547925E+04  0.50400001928E-02 0. -1.
        1   -1    0    0  501    0  0.00000000000E+00  0.00000000000E+00 -0.14785131692E+04  0.14785131692E+04  0.50400001928E-02 0.  1.
    10030    2    1    2    0    0  0.00000000000E+00  0.00000000000E+00 -0.36125837678E+03  0.25957679617E+04  0.25705065058E+04 0.  0.
        1    1    3    3  502    0  0.45565075459E+03  0.11864981653E+04 -0.37350468690E+03  0.13247268615E+04  0.50400001928E-02 0.  1.
       -1    1    3    3    0  502 -0.45565075459E+03 -0.11864981653E+04  0.12246310123E+02  0.12710411002E+04  0.50400001928E-02 0. -1.
</event>
<event>
 5   0  0.1086507E-05  0.2591345E+04  0.7818609E-02  0.8371147E-01
       -2   -1    0    0    0  501  0.00000000000E+00  0.00000000000E+00  0.14025523932E+04  0.14025523932E+04  0.25500000920E-02 0.  1.
        2   -1    0    0  501    0  0.00000000000E+00  0.00000000000E+00 -0.11969368836E+04  0.11969368836E+04  0.25500000920E-02 0. -1.
    10030    2    1    2    0    0  0.00000000000E+00  0.00000000000E+00  0.20561550964E+03  0.25994892768E+04  0.25913445858E+04 0.  0.
        2    1    3    3  502    0  0.88763521098E+03 -0.19146417119E+03  0.10299485052E+04  0.13730800122E+04  0.25500000920E-02 0.  1.
       -2    1    3    3    0  502 -0.88763521098E+03  0.19146417119E+03 -0.82433299554E+03  0.12264092646E+04  0.25500000920E-02 0. -1.
</event>
<event>
 5   0  0.4361864E-06  0.2591915E+04  0.7818609E-02  0.8370953E-01
       -1   -1    0    0    0  501  0.00000000000E+00  0.00000000000E+00  0.13044518365E+04  0.13044518365E+04  0.50400001928E-02 0.  1.
        1   -1    0    0  501    0  0.00000000000E+00  0.00000000000E+00 -0.12875183841E+04  0.12875183841E+04  0.50400001928E-02 0. -1.
    10030    2    1    2    0    0  0.00000000000E+00  0.00000000000E+00  0.16933452397E+02  0.25919702206E+04  0.25919149065E+04 0.  0.
        3    1    3    3  502    0  0.60020074880E+03  0.31306716742E+03  0.11135937987E+04  0.13032049528E+04  0.10100000352E+00 0.  1.
       -3    1    3    3    0  502 -0.60020074880E+03 -0.31306716742E+03 -0.10966603463E+04  0.12887652678E+04  0.10100000352E+00 0. -1.
</event>
<event>
 5   0  0.1085061E-05  0.2596248E+04  0.7818609E-02  0.8369477E-01
        2   -1    0    0  501    0  0.00000000000E+00  0.00000000000E+00  0.21095758800E+04  0.21095758800E+04  0.25500000920E-02 0.  1.
       -2   -1    0    0    0  501  0.00000000000E+00  0.00000000000E+00 -0.79879824246E+03  0.79879824246E+03  0.25500000920E-02 0. -1.
    10030    2    1    2    0    0  0.00000000000E+00  0.00000000000E+00  0.13107776376E+04  0.29083741225E+04  0.25962476810E+04 0.  0.
        1    1    3    3  502    0  0.59220218478E+03  0.82269599436E+03  0.15638008258E+04  0.18636000509E+04  0.50400001928E-02 0.  1.
       -1    1    3    3    0  502 -0.59220218478E+03 -0.82269599436E+03 -0.25302318828E+03  0.10447740716E+04  0.50400001928E-02 0. -1.
</event>
<event>
 5   0  0.3705250E-06  0.2552416E+04  0.7818609E-02  0.8384546E-01
        4   -1    0    0  501    0  0.00000000000E+00  0.00000000000E+00  0.14678805331E+04  0.14678810825E+04  0.12699999809E+01 0.  1.
       -4   -1    0    0    0  501  0.00000000000E+00  0.00000000000E+00 -0.11095627646E+04  0.11095634914E+04  0.12699999809E+01 0. -1.
    10030    2    1    2    0    0  0.00000000000E+00  0.00000000000E+00  0.35831776852E+03  0.25774445739E+04  0.25524162882E+04 0.  0.
        4    1    3    3  502    0 -0.82803094387E+03  0.80798763683E+03 -0.36485031863E+03  0.12130938270E+04  0.12699999809E+01 0.  1.
       -4    1    3    3    0  502  0.82803094387E+03 -0.80798763683E+03  0.72316808715E+03  0.13643507469E+04  0.12699999809E+01 0. -1.
</event>
<event>
 5   0  0.4218590E-06  0.2611280E+04  0.7818609E-02  0.8364380E-01
       -1   -1    0    0    0  501  0.00000000000E+00  0.00000000000E+00  0.96192478027E+03  0.96192478028E+03  0.50400001928E-02 0.  1.
        1   -1    0    0  501    0  0.00000000000E+00  0.00000000000E+00 -0.17721721554E+04  0.17721721554E+04  0.50400001928E-02 0. -1.
    10030    2    1    2    0    0  0.00000000000E+00  0.00000000000E+00 -0.81024737511E+03  0.27340969357E+04  0.26112803842E+04 0.  0.
        1    1    3    3  502    0  0.10125148724E+02 -0.11226740114E+04  0.29270391227E+03  0.11602478333E+04  0.50400001928E-02 0.  1.
       -1    1    3    3    0  502 -0.10125148724E+02  0.11226740114E+04 -0.11029512874E+04  0.15738491023E+04  0.50400001928E-02 0. -1.
</event>
<event>
 5   0  0.4464297E-06  0.2609763E+04  0.7818609E-02  0.8364892E-01
       -1   -1    0    0    0  501  0.00000000000E+00  0.00000000000E+00  0.99909241995E+03  0.99909241996E+03  0.50400001928E-02 0.  1.
        1   -1    0    0  501    0  0.00000000000E+00  0.00000000000E+00 -0.17042626043E+04  0.17042626043E+04  0.50400001928E-02 0. -1.
    10030    2    1    2    0    0  0.00000000000E+00  0.00000000000E+00 -0.70517018433E+03  0.27033550243E+04  0.26097630924E+04 0.  0.
        4    1    3    3  502    0  0.48357754740E+03 -0.12100422346E+04 -0.28183651465E+03  0.13332227450E+04  0.12699999809E+01 0. -1.
       -4    1    3    3    0  502 -0.48357754740E+03  0.12100422346E+04 -0.42333366968E+03  0.13701322793E+04  0.12699999809E+01 0.  1.
</event>
<event>
 5   0  0.4464297E-06  0.2622271E+04  0.7818609E-02  0.8360676E-01
        1   -1    0    0  501    0  0.00000000000E+00  0.00000000000E+00  0.24573318065E+04  0.24573318065E+04  0.50400001928E-02 0.  1.
       -1   -1    0    0    0  501  0.00000000000E+00  0.00000000000E+00 -0.69957005204E+03  0.69957005206E+03  0.50400001928E-02 0. -1.
    10030    2    1    2    0    0  0.00000000000E+00  0.00000000000E+00  0.17577617544E+04  0.31569018585E+04  0.26222705732E+04 0.  0.
        4    1    3    3  502    0  0.29237104199E+03  0.41795442645E+03  0.23329914852E+04  0.23880991629E+04  0.12699999809E+01 0.  1.
       -4    1    3    3    0  502 -0.29237104199E+03 -0.41795442645E+03 -0.57522973077E+03  0.76880269566E+03  0.12699999809E+01 0. -1.
</event>
<event>
 5   0  0.1086507E-05  0.2619710E+04  0.7818609E-02  0.8361537E-01
       -2   -1    0    0    0  501  0.00000000000E+00  0.00000000000E+00  0.76817322052E+03  0.76817322052E+03  0.25500000920E-02 0. -1.
        2   -1    0    0  501    0  0.00000000000E+00  0.00000000000E+00 -0.22335075783E+04  0.22335075783E+04  0.25500000920E-02 0.  1.
    10030    2    1    2    0    0  0.00000000000E+00  0.00000000000E+00 -0.14653343577E+04  0.30016807988E+04  0.26197104492E+04 0.  0.
        2    1    3    3  502    0 -0.97256689277E+03 -0.14084054645E+03  0.25962907333E+03  0.10164298678E+04  0.25500000920E-02 0. -1.
       -2    1    3    3    0  502  0.97256689277E+03  0.14084054645E+03 -0.17249634311E+04  0.19852509310E+04  0.25500000920E-02 0.  1.
</event>
<event>
 5   0  0.1086507E-05  0.2574443E+04  0.7818609E-02  0.8376935E-01
       -2   -1    0    0    0  501  0.00000000000E+00  0.00000000000E+00  0.12193105685E+04  0.12193105685E+04  0.25500000920E-02 0. -1.
        2   -1    0    0  501    0  0.00000000000E+00  0.00000000000E+00 -0.13589144672E+04  0.13589144672E+04  0.25500000920E-02 0.  1.
    10030    2    1    2    0    0  0.00000000000E+00  0.00000000000E+00 -0.13960389875E+03  0.25782250358E+04  0.25744426749E+04 0.  0.
        2    1    3    3  502    0 -0.12850054372E+04 -0.66098251561E+02 -0.33267960347E+02  0.12871343014E+04  0.25500000920E-02 0. -1.
       -2    1    3    3    0  502  0.12850054372E+04  0.66098251561E+02 -0.10633593840E+03  0.12910907344E+04  0.25500000920E-02 0.  1.
</event>
<event>
 5   0  0.1116310E-05  0.2597430E+04  0.7818609E-02  0.8369075E-01
        2   -1    0    0  501    0  0.00000000000E+00  0.00000000000E+00  0.13868764938E+04  0.13868764938E+04  0.25500000920E-02 0. -1.
       -2   -1    0    0    0  501  0.00000000000E+00  0.00000000000E+00 -0.12161576412E+04  0.12161576412E+04  0.25500000920E-02 0.  1.
    10030    2    1    2    0    0  0.00000000000E+00  0.00000000000E+00  0.17071885267E+03  0.26030341350E+04  0.25974298415E+04 0.  0.
        4    1    3    3  502    0  0.22343333958E+03  0.66486238306E+03  0.11807385234E+04  0.13733570254E+04  0.12699999809E+01 0. -1.
       -4    1    3    3    0  502 -0.22343333958E+03 -0.66486238306E+03 -0.10100196708E+04  0.12296771096E+04  0.12699999809E+01 0.  1.
</event>
<event>
 5   0  0.1085255E-05  0.2577977E+04  0.7818609E-02  0.8375721E-01
        2   -1    0    0  501    0  0.00000000000E+00  0.00000000000E+00  0.94739816709E+03  0.94739816709E+03  0.25500000920E-02 0. -1.
       -2   -1    0    0    0  501  0.00000000000E+00  0.00000000000E+00 -0.17537411787E+04  0.17537411787E+04  0.25500000920E-02 0.  1.
    10030    2    1    2    0    0  0.00000000000E+00  0.00000000000E+00 -0.80634301164E+03  0.27011393458E+04  0.25779768643E+04 0.  0.
        5    1    3    3  502    0 -0.37556244175E+03 -0.34139793405E+03 -0.16446274896E+04  0.17211686049E+04  0.46999998093E+01 0.  1.
       -5    1    3    3    0  502  0.37556244175E+03  0.34139793405E+03  0.83828447796E+03  0.97997074090E+03  0.46999998093E+01 0. -1.
</event>
<event>
 5   0  0.1086507E-05  0.2627363E+04  0.7818609E-02  0.8358966E-01
        2   -1    0    0  501    0  0.00000000000E+00  0.00000000000E+00  0.10949320133E+04  0.10949320133E+04  0.25500000920E-02 0.  1.
       -2   -1    0    0    0  501  0.00000000000E+00  0.00000000000E+00 -0.15761332553E+04  0.15761332553E+04  0.25500000920E-02 0. -1.
    10030    2    1    2    0    0  0.00000000000E+00  0.00000000000E+00 -0.48120124206E+03  0.26710652686E+04  0.26273627526E+04 0.  0.
        2    1    3    3  502    0 -0.67280058152E+03  0.22187756308E+03 -0.13652880400E+04  0.15381487925E+04  0.25500000920E-02 0. -1.
       -2    1    3    3    0  502  0.67280058152E+03 -0.22187756308E+03  0.88408679797E+03  0.11329164761E+04  0.25500000920E-02 0.  1.
</event>
<event>
 5   0  0.1085061E-05  0.2591860E+04  0.7818609E-02  0.8370971E-01
       -2   -1    0    0    0  501  0.00000000000E+00  0.00000000000E+00  0.14354666625E+04  0.14354666625E+04  0.25500000920E-02 0. -1.
        2   -1    0    0  501    0  0.00000000000E+00  0.00000000000E+00 -0.11699574751E+04  0.11699574751E+04  0.25500000920E-02 0.  1.
    10030    2    1    2    0    0  0.00000000000E+00  0.00000000000E+00  0.26550918739E+03  0.26054241375E+04  0.25918602987E+04 0.  0.
        1    1    3    3  502    0  0.11257829154E+03 -0.42979232512E+03  0.13565159992E+04  0.14274210909E+04  0.50400001928E-02 0. -1.
       -1    1    3    3    0  502 -0.11257829154E+03  0.42979232512E+03 -0.10910068118E+04  0.11780030467E+04  0.50400001928E-02 0.  1.
</event>
<event>
 5   0  0.1116310E-05  0.2609014E+04  0.7818609E-02  0.8365146E-01
        2   -1    0    0  501    0  0.00000000000E+00  0.00000000000E+00  0.11789156953E+04  0.11789156953E+04  0.25500000920E-02 0.  1.
       -2   -1    0    0    0  501  0.00000000000E+00  0.00000000000E+00 -0.14434773696E+04  0.14434773696E+04  0.25500000920E-02 0. -1.
    10030    2    1    2    0    0  0.00000000000E+00  0.00000000000E+00 -0.26456167429E+03  0.26223930649E+04  0.26090137039E+04 0.  0.
        4    1    3    3  502    0  0.42547620239E+03  0.99711629094E+03  0.59701953333E+03  0.12376206335E+04  0.12699999809E+01 0.  1.
       -4    1    3    3    0  502 -0.42547620239E+03 -0.99711629094E+03 -0.86158120762E+03  0.13847724314E+04  0.12699999809E+01 0. -1.
</event>
<event>
 5   0  0.1116310E-05  0.2571568E+04  0.7818609E-02  0.8377924E-01
       -2   -1    0    0    0  501  0.00000000000E+00  0.00000000000E+00  0.14050945906E+04  0.14050945906E+04  0.25500000920E-02 0. -1.
        2   -1    0    0  501    0  0.00000000000E+00  0.00000000000E+00 -0.11766042920E+04  0.11766042920E+04  0.25500000920E-02 0.  1.
    10030    2    1    2    0    0  0.00000000000E+00  0.00000000000E+00  0.22849029865E+03  0.25816988826E+04  0.25715678688E+04 0.  0.
        4    1    3    3  502    0  0.91685687235E+02  0.92075302721E+03  0.10105368479E+04  0.13701747101E+04  0.12699999809E+01 0. -1.
       -4    1    3    3    0  502 -0.91685687235E+02 -0.92075302721E+03 -0.78204654929E+03  0.12115241725E+04  0.12699999809E+01 0.  1.
</event>
<event>
 5   0  0.1085255E-05  0.2597977E+04  0.7818609E-02  0.8368889E-01
       -2   -1    0    0    0  501  0.00000000000E+00  0.00000000000E+00  0.11883545611E+04  0.11883545611E+04  0.25500000920E-02 0. -1.
        2   -1    0    0  501    0  0.00000000000E+00  0.00000000000E+00 -0.14199226682E+04  0.14199226682E+04  0.25500000920E-02 0.  1.
    10030    2    1    2    0    0  0.00000000000E+00  0.00000000000E+00 -0.23156810711E+03  0.26082772292E+04  0.25979773510E+04 0.  0.
        5    1    3    3  502    0  0.10704604697E+04 -0.24963194450E+02  0.62255030143E+03  0.12385878031E+04  0.46999998093E+01 0. -1.
       -5    1    3    3    0  502 -0.10704604697E+04  0.24963194450E+02 -0.85411840854E+03  0.13696894261E+04  0.46999998093E+01 0.  1.
</event>
<event>
 5   0  0.4464297E-06  0.2460847E+04  0.7818609E-02  0.8417068E-01
       -1   -1    0    0    0  501  0.00000000000E+00  0.00000000000E+00  0.72268387500E+03  0.72268387501E+03  0.50400001928E-02 0.  1.
        1   -1    0    0  501    0  0.00000000000E+00  0.00000000000E+00 -0.20948883042E+04  0.20948883042E+04  0.50400001928E-02 0. -1.
    10030    2    1    2    0    0  0.00000000000E+00  0.00000000000E+00 -0.13722044292E+04  0.28175721792E+04  0.24608470065E+04 0.  0.
        4    1    3    3  502    0  0.44017704989E+03 -0.67291028730E+03 -0.17524385566E+04  0.19281095917E+04  0.12699999809E+01 0. -1.
       -4    1    3    3    0  502 -0.44017704989E+03  0.67291028730E+03  0.38023412743E+03  0.88946258750E+03  0.12699999809E+01 0.  1.
</event>
<event>
 5   0  0.1085255E-05  0.2592329E+04  0.7818609E-02  0.8370811E-01
        2   -1    0    0  501    0  0.00000000000E+00  0.00000000000E+00  0.19438655383E+04  0.19438655383E+04  0.25500000920E-02 0.  1.
       -2   -1    0    0    0  501  0.00000000000E+00  0.00000000000E+00 -0.86427935880E+03  0.86427935880E+03  0.25500000920E-02 0. -1.
    10030    2    1    2    0    0  0.00000000000E+00  0.00000000000E+00  0.10795861795E+04  0.28081448971E+04  0.25923293471E+04 0.  0.
        5    1    3    3  502    0  0.26948011724E+03 -0.12575047061E+04  0.71474124612E+03  0.14713309479E+04  0.46999998093E+01 0.  1.
       -5    1    3    3    0  502 -0.26948011724E+03  0.12575047061E+04  0.36484493336E+03  0.13368139492E+04  0.46999998093E+01 0. -1.
</event>
<event>
 5   0  0.1136881E-05  0.2600356E+04  0.7818609E-02  0.8368080E-01
       -2   -1    0    0    0  501  0.00000000000E+00  0.00000000000E+00  0.16125160918E+04  0.16125160918E+04  0.25500000920E-02 0.  1.
        2   -1    0    0  501    0  0.00000000000E+00  0.00000000000E+00 -0.10483388216E+04  0.10483388216E+04  0.25500000920E-02 0. -1.
    10030    2    1    2    0    0  0.00000000000E+00  0.00000000000E+00  0.56417727023E+03  0.26608549134E+04  0.26003562982E+04 0.  0.
        3    1    3    3  502    0  0.56329582001E+03  0.11326253465E+04 -0.25437727352E+02  0.12652230809E+04  0.10100000352E+00 0. -1.
       -3    1    3    3    0  502 -0.56329582001E+03 -0.11326253465E+04  0.58961499759E+03  0.13956318325E+04  0.10100000352E+00 0.  1.
</event>
<event>
 5   0  0.3705250E-06  0.2541138E+04  0.7818609E-02  0.8388475E-01
        4   -1    0    0  501    0  0.00000000000E+00  0.00000000000E+00  0.10656277010E+04  0.10656284578E+04  0.12699999809E+01 0. -1.
       -4   -1    0    0    0  501  0.00000000000E+00  0.00000000000E+00 -0.15149227699E+04  0.15149233022E+04  0.12699999809E+01 0.  1.
    10030    2    1    2    0    0  0.00000000000E+00  0.00000000000E+00 -0.44929506888E+03  0.25805517600E+04  0.25411378017E+04 0.  0.
        5    1    3    3  502    0 -0.94735924283E+03 -0.60667078863E+03  0.37509216436E+03  0.11858563161E+04  0.46999998093E+01 0. -1.
       -5    1    3    3    0  502  0.94735924283E+03  0.60667078863E+03 -0.82438723324E+03  0.13946954438E+04  0.46999998093E+01 0.  1.
</event>
<event>
 5   0  0.4218590E-06  0.2591688E+04  0.7818609E-02  0.8371030E-01
       -1   -1    0    0    0  501  0.00000000000E+00  0.00000000000E+00  0.86039470650E+03  0.86039470652E+03  0.50400001928E-02 0. -1.
        1   -1    0    0  501    0  0.00000000000E+00  0.00000000000E+00 -0.19516763093E+04  0.19516763093E+04  0.50400001928E-02 0.  1.
    10030    2    1    2    0    0  0.00000000000E+00  0.00000000000E+00 -0.10912816028E+04  0.28120710159E+04  0.25916882261E+04 0.  0.
        1    1    3    3  502    0 -0.33938537064E+03 -0.12491416536E+04 -0.61141451856E+03  0.14315603425E+04  0.50400001928E-02 0.  1.
       -1    1    3    3    0  502  0.33938537064E+03  0.12491416536E+04 -0.47986708428E+03  0.13805106734E+04  0.50400001928E-02 0. -1.
</event>
<event>
 5   0  0.4597705E-06  0.2605356E+04  0.7818609E-02  0.8366384E-01
       -1   -1    0    0    0  501  0.00000000000E+00  0.00000000000E+00  0.76678988725E+03  0.76678988727E+03  0.50400001928E-02 0. -1.
        1   -1    0    0  501    0  0.00000000000E+00  0.00000000000E+00 -0.22130831332E+04  0.22130831332E+04  0.50400001928E-02 0.  1.
    10030    2    1    2    0    0  0.00000000000E+00  0.00000000000E+00 -0.14462932459E+04  0.29798730204E+04  0.26053558423E+04 0.  0.
        5    1    3    3  502    0 -0.37533267717E+03  0.40534851553E+03 -0.20724629176E+04  0.21448325511E+04  0.46999998093E+01 0.  1.
       -5    1    3    3    0  502  0.37533267717E+03 -0.40534851553E+03  0.62616967170E+03  0.83504046929E+03  0.46999998093E+01 0. -1.
</event>
<event>
 5   0  0.4597705E-06  0.2596761E+04  0.7818609E-02  0.8369302E-01
        1   -1    0    0  501    0  0.00000000000E+00  0.00000000000E+00  0.10349640674E+04  0.10349640674E+04  0.50400001928E-02 0. -1.
       -1   -1    0    0    0  501  0.00000000000E+00  0.00000000000E+00 -0.16288409186E+04  0.16288409186E+04  0.50400001928E-02 0.  1.
    10030    2    1    2    0    0  0.00000000000E+00  0.00000000000E+00 -0.59387685119E+03  0.26638049859E+04  0.25967609225E+04 0.  0.
        5    1    3    3  502    0  0.94884727238E+03  0.74644878923E+03  0.19317605580E+03  0.12226348677E+04  0.46999998093E+01 0. -1.
       -5    1    3    3    0  502 -0.94884727238E+03 -0.74644878923E+03 -0.78705290698E+03  0.14411701182E+04  0.46999998093E+01 0.  1.
</event>
<event>
 5   0  0.1085061E-05  0.2612637E+04  0.7818609E-02  0.8363921E-01
       -2   -1    0    0    0  501  0.00000000000E+00  0.00000000000E+00  0.56898090207E+03  0.56898090207E+03  0.25500000920E-02 0.  1.
        2   -1    0    0  501    0  0.00000000000E+00  0.00000000000E+00 -0.29991649134E+04  0.29991649134E+04  0.25500000920E-02 0. -1.
    10030    2    1    2    0    0  0.00000000000E+00  0.00000000000E+00 -0.24301840114E+04  0.35681458155E+04  0.26126366436E+04 0.  0.
        1    1    3    3  502    0  0.42478863656E+03  0.35276611804E+03 -0.28319513950E+04  0.28852795399E+04  0.50400001928E-02 0. -1.
       -1    1    3    3    0  502 -0.42478863656E+03 -0.35276611804E+03  0.40176738362E+03  0.68286627560E+03  0.50400001928E-02 0.  1.
</event>
<event>
 5   0  0.1085061E-05  0.2632547E+04  0.7818609E-02  0.8357229E-01
       -2   -1    0    0    0  501  0.00000000000E+00  0.00000000000E+00  0.70635359425E+03  0.70635359425E+03  0.25500000920E-02 0.  1.
        2   -1    0    0  501    0  0.00000000000E+00  0.00000000000E+00 -0.24528443057E+04  0.24528443057E+04  0.25500000920E-02 0. -1.
    10030    2    1    2    0    0  0.00000000000E+00  0.00000000000E+00 -0.17464907115E+04  0.31591979000E+04  0.26325465933E+04 0.  0.
        1    1    3    3  502    0 -0.25450778082E+03 -0.38706551772E+03  0.60529778236E+03  0.76222000161E+03  0.50400001928E-02 0.  1.
       -1    1    3    3    0  502  0.25450778082E+03  0.38706551772E+03 -0.23517884938E+04  0.23969778983E+04  0.50400001928E-02 0. -1.
</event>
<event>
 5   0  0.4464297E-06  0.2602387E+04  0.7818609E-02  0.8367391E-01
        1   -1    0    0  501    0  0.00000000000E+00  0.00000000000E+00  0.68571874117E+03  0.68571874119E+03  0.50400001928E-02 0.  1.
       -1   -1    0    0    0  501  0.00000000000E+00  0.00000000000E+00 -0.24690951168E+04  0.24690951168E+04  0.50400001928E-02 0. -1.
    10030    2    1    2    0    0  0.00000000000E+00  0.00000000000E+00 -0.17833763757E+04  0.31548138580E+04  0.26023872082E+04 0.  0.
        4    1    3    3  502    0 -0.12084796316E+02  0.12470761786E+04 -0.13416342623E+04  0.18317557545E+04  0.12699999809E+01 0. -1.
       -4    1    3    3    0  502  0.12084796316E+02 -0.12470761786E+04 -0.44174211336E+03  0.13230581035E+04  0.12699999809E+01 0.  1.
</event>
<event>
 5   0  0.1086507E-05  0.2607516E+04  0.7818609E-02  0.8365653E-01
        2   -1    0    0  501    0  0.00000000000E+00  0.00000000000E+00  0.33232462438E+04  0.33232462438E+04  0.25500000920E-02 0. -1.
       -2   -1    0    0    0  501  0.00000000000E+00  0.00000000000E+00 -0.51148343122E+03  0.51148343123E+03  0.25500000920E-02 0.  1.
    10030    2    1    2    0    0  0.00000000000E+00  0.00000000000E+00  0.28117628126E+04  0.38347296750E+04  0.26075163598E+04 0.  0.
        2    1    3    3  502    0  0.42136509163E+03 -0.65017324258E+03  0.29479639510E+04  0.30480756622E+04  0.25500000920E-02 0. -1.
       -2    1    3    3    0  502 -0.42136509163E+03  0.65017324258E+03 -0.13620113845E+03  0.78665401285E+03  0.25500000920E-02 0.  1.
</event>
<event>
 5   0  0.3705250E-06  0.2556654E+04  0.7818609E-02  0.8383076E-01
        3   -1    0    0  501    0  0.00000000000E+00  0.00000000000E+00  0.15585334124E+04  0.15585334157E+04  0.10100000352E+00 0. -1.
       -3   -1    0    0    0  501  0.00000000000E+00  0.00000000000E+00 -0.10484985328E+04  0.10484985377E+04  0.10100000352E+00 0.  1.
    10030    2    1    2    0    0  0.00000000000E+00  0.00000000000E+00  0.51003487960E+03  0.26070319534E+04  0.25566540688E+04 0.  0.
        5    1    3    3  502    0 -0.77583870747E+03 -0.48400131572E+03 -0.65584476985E+03  0.11253165891E+04  0.46999998093E+01 0.  1.
       -5    1    3    3    0  502  0.77583870747E+03  0.48400131572E+03  0.11658796495E+04  0.14817153642E+04  0.46999998093E+01 0. -1.
</event>
<event>
 5   0  0.1085255E-05  0.2606554E+04  0.7818609E-02  0.8365978E-01
       -2   -1    0    0    0  501  0.00000000000E+00  0.00000000000E+00  0.90444370010E+03  0.90444370010E+03  0.25500000920E-02 0.  1.
        2   -1    0    0  501    0  0.00000000000E+00  0.00000000000E+00 -0.18779848451E+04  0.18779848451E+04  0.25500000920E-02 0. -1.
    10030    2    1    2    0    0  0.00000000000E+00  0.00000000000E+00 -0.97354114499E+03  0.27824285452E+04  0.26065544783E+04 0.  0.
        5    1    3    3  502    0  0.95973653620E+03 -0.15159555453E+03  0.44041753351E+03  0.10668013521E+04  0.46999998093E+01 0.  1.
       -5    1    3    3    0  502 -0.95973653620E+03  0.15159555453E+03 -0.14139586785E+04  0.17156271931E+04  0.46999998093E+01 0. -1.
</event>
<event>
 5   0  0.1085255E-05  0.2592093E+04  0.7818609E-02  0.8370892E-01
        2   -1    0    0  501    0  0.00000000000E+00  0.00000000000E+00  0.93782212514E+03  0.93782212514E+03  0.25500000920E-02 0.  1.
       -2   -1    0    0    0  501  0.00000000000E+00  0.00000000000E+00 -0.17911030593E+04  0.17911030593E+04  0.25500000920E-02 0. -1.
    10030    2    1    2    0    0  0.00000000000E+00  0.00000000000E+00 -0.85328093417E+03  0.27289251844E+04  0.25920926507E+04 0.  0.
        5    1    3    3  502    0  0.34656358740E+03  0.38376052278E+03  0.82451146454E+03  0.97325212772E+03  0.46999998093E+01 0.  1.
       -5    1    3    3    0  502 -0.34656358740E+03 -0.38376052278E+03 -0.16777923987E+04  0.17556730567E+04  0.46999998093E+01 0. -1.
</event>
<event>
 5   0  0.4218590E-06  0.2557019E+04  0.7818609E-02  0.8382949E-01
        1   -1    0    0  501    0  0.00000000000E+00  0.00000000000E+00  0.15587713605E+04  0.15587713605E+04  0.50400001928E-02 0. -1.
       -1   -1    0    0    0  501  0.00000000000E+00  0.00000000000E+00 -0.10486381327E+04  0.10486381327E+04  0.50400001928E-02 0.  1.
    10030    2    1    2    0    0  0.00000000000E+00  0.00000000000E+00  0.51013322780E+03  0.26074094932E+04  0.25570194280E+04 0.  0.
        1    1    3    3  502    0 -0.39015443081E+03 -0.56053209256E+03  0.13571851586E+04  0.15193315180E+04  0.50400001928E-02 0. -1.
       -1    1    3    3    0  502  0.39015443081E+03  0.56053209256E+03 -0.84705193084E+03  0.10880779752E+04  0.50400001928E-02 0.  1.
</event>
<event>
 5   0  0.4464297E-06  0.2621635E+04  0.7818609E-02  0.8360889E-01
        1   -1    0    0  501    0  0.00000000000E+00  0.00000000000E+00  0.12065655639E+04  0.12065655639E+04  0.50400001928E-02 0.  1.
       -1   -1    0    0    0  501  0.00000000000E+00  0.00000000000E+00 -0.14240767167E+04  0.14240767167E+04  0.50400001928E-02 0. -1.
    10030    2    1    2    0    0  0.00000000000E+00  0.00000000000E+00 -0.21751115288E+03  0.26306422806E+04  0.26216345487E+04 0.  0.
        4    1    3    3  502    0  0.78699957603E+03  0.26628827223E+03 -0.11261240796E+04  0.13994408998E+04  0.12699999809E+01 0. -1.
       -4    1    3    3    0  502 -0.78699957603E+03 -0.26628827223E+03  0.90861292670E+03  0.12312013808E+04  0.12699999809E+01 0.  1.
</event>
<event>
 5   0  0.1136881E-05  0.2706629E+04  0.7818609E-02  0.8332857E-01
       -2   -1    0    0    0  501  0.00000000000E+00  0.00000000000E+00  0.15820302757E+04  0.15820302757E+04  0.25500000920E-02 0. -1.
        2   -1    0    0  501    0  0.00000000000E+00  0.00000000000E+00 -0.11576642262E+04  0.11576642262E+04  0.25500000920E-02 0.  1.
    10030    2    1    2    0    0  0.00000000000E+00  0.00000000000E+00  0.42436604946E+03  0.27396945020E+04  0.27066287924E+04 0.  0.
        3    1    3    3  502    0 -0.60619031008E+03  0.45867404950E+03 -0.92114305963E+03  0.11943002647E+04  0.10100000352E+00 0.  1.
       -3    1    3    3    0  502  0.60619031008E+03 -0.45867404950E+03  0.13455091091E+04  0.15453942373E+04  0.10100000352E+00 0. -1.
</event>
<event>
 5   0  0.1085061E-05  0.2603098E+04  0.7818609E-02  0.8367150E-01
       -2   -1    0    0    0  501  0.00000000000E+00  0.00000000000E+00  0.11023414033E+04  0.11023414033E+04  0.25500000920E-02 0. -1.
        2   -1    0    0  501    0  0.00000000000E+00  0.00000000000E+00 -0.15367560795E+04  0.15367560795E+04  0.25500000920E-02 0.  1.
    10030    2    1    2    0    0  0.00000000000E+00  0.00000000000E+00 -0.43441467620E+03  0.26390974828E+04  0.26030980413E+04 0.  0.
        1    1    3    3  502    0 -0.12323090562E+04  0.11558403292E+03  0.19095765091E+03  0.12523618100E+04  0.50400001928E-02 0.  1.
       -1    1    3    3    0  502  0.12323090562E+04 -0.11558403292E+03 -0.62537232711E+03  0.13867356728E+04  0.50400001928E-02 0. -1.
</event>
<event>
 5   0  0.1085255E-05  0.2601124E+04  0.7818609E-02  0.8367820E-01
       -2   -1    0    0    0  501  0.00000000000E+00  0.00000000000E+00  0.10817558373E+04  0.10817558373E+04  0.25500000920E-02 0. -1.
        2   -1    0    0  501    0  0.00000000000E+00  0.00000000000E+00 -0.15636259318E+04  0.15636259318E+04  0.25500000920E-02 0.  1.
    10030    2    1    2    0    0  0.00000000000E+00  0.00000000000E+00 -0.48187009452E+03  0.26453817692E+04  0.26011239718E+04 0.  0.
        5    1    3    3  502    0  0.12177639336E+04  0.65634739308E+02  0.21861893468E+03  0.12389807285E+04  0.46999998093E+01 0. -1.
       -5    1    3    3    0  502 -0.12177639336E+04 -0.65634739308E+02 -0.70048902919E+03  0.14064010406E+04  0.46999998093E+01 0.  1.
</event>
<event>
 5   0  0.4415080E-06  0.2600725E+04  0.7818609E-02  0.8367955E-01
       -1   -1    0    0    0  501  0.00000000000E+00  0.00000000000E+00  0.72859994986E+03  0.72859994987E+03  0.50400001928E-02 0.  1.
        1   -1    0    0  501    0  0.00000000000E+00  0.00000000000E+00 -0.23208107290E+04  0.23208107290E+04  0.50400001928E-02 0. -1.
    10030    2    1    2    0    0  0.00000000000E+00  0.00000000000E+00 -0.15922107792E+04  0.30494106789E+04  0.26007249611E+04 0.  0.
        2    1    3    3  502    0  0.11826716236E+04  0.49015868488E+03 -0.10634172437E+04  0.16642788047E+04  0.25500000920E-02 0. -1.
       -2    1    3    3    0  502 -0.11826716236E+04 -0.49015868488E+03 -0.52879353546E+03  0.13851318742E+04  0.25500000920E-02 0.  1.
</event>
<event>
 5   0  0.1136881E-05  0.2688143E+04  0.7818609E-02  0.8338862E-01
        2   -1    0    0  501    0  0.00000000000E+00  0.00000000000E+00  0.27024138379E+04  0.27024138379E+04  0.25500000920E-02 0.  1.
       -2   -1    0    0    0  501  0.00000000000E+00  0.00000000000E+00 -0.66848677090E+03  0.66848677090E+03  0.25500000920E-02 0. -1.
    10030    2    1    2    0    0  0.00000000000E+00  0.00000000000E+00  0.20339270670E+04  0.33709006088E+04  0.26881427790E+04 0.  0.
        3    1    3    3  502    0  0.29583284476E+03 -0.19363973512E+03  0.26430510652E+04  0.26665956503E+04  0.10100000352E+00 0.  1.
       -3    1    3    3    0  502 -0.29583284476E+03  0.19363973512E+03 -0.60912399822E+03  0.70430495842E+03  0.10100000352E+00 0. -1.
</event>
<event>
 5   0  0.1116310E-05  0.2597891E+04  0.7818609E-02  0.8368918E-01
       -2   -1    0    0    0  501  0.00000000000E+00  0.00000000000E+00  0.10815403105E+04  0.10815403105E+04  0.25500000920E-02 0.  1.
        2   -1    0    0  501    0  0.00000000000E+00  0.00000000000E+00 -0.15600521074E+04  0.15600521074E+04  0.25500000920E-02 0. -1.
    10030    2    1    2    0    0  0.00000000000E+00  0.00000000000E+00 -0.47851179690E+03  0.26415924179E+04  0.25978908681E+04 0.  0.
        4    1    3    3  502    0  0.13519499223E+03  0.59622889908E+03  0.92609969123E+03  0.11096976332E+04  0.12699999809E+01 0.  1.
       -4    1    3    3    0  502 -0.13519499223E+03 -0.59622889908E+03 -0.14046114881E+04  0.15318947847E+04  0.12699999809E+01 0. -1.
</event>
<event>
 5   0  0.3705250E-06  0.2575080E+04  0.7818609E-02  0.8376716E-01
        3   -1    0    0  501    0  0.00000000000E+00  0.00000000000E+00  0.21394377744E+04  0.21394377768E+04  0.10100000352E+00 0.  1.
       -3   -1    0    0    0  501  0.00000000000E+00  0.00000000000E+00 -0.77485740814E+03  0.77485741472E+03  0.10100000352E+00 0. -1.
    10030    2    1    2    0    0  0.00000000000E+00  0.00000000000E+00  0.13645803663E+04  0.29142951915E+04  0.25750799769E+04 0.  0.
        4    1    3    3  502    0 -0.11146168875E+04 -0.18637064543E+03 -0.15953996088E+02  0.11302039489E+04  0.12699999809E+01 0. -1.
       -4    1    3    3    0  502  0.11146168875E+04  0.18637064543E+03  0.13805343624E+04  0.17840912426E+04  0.12699999809E+01 0.  1.
</event>
<event>
 5   0  0.1136881E-05  0.2601750E+04  0.7818609E-02  0.8367607E-01
       -2   -1    0    0    0  501  0.00000000000E+00  0.00000000000E+00  0.63469559904E+03  0.63469559905E+03  0.25500000920E-02 0. -1.
        2   -1    0    0  501    0  0.00000000000E+00  0.00000000000E+00 -0.26662783898E+04  0.26662783898E+04  0.25500000920E-02 0.  1.
    10030    2    1    2    0    0  0.00000000000E+00  0.00000000000E+00 -0.20315827908E+04  0.33009739889E+04  0.26017495343E+04 0.  0.
        3    1    3    3  502    0 -0.68579567842E+03  0.35566196904E+03  0.31214010118E+03  0.83321221891E+03  0.10100000352E+00 0.  1.
       -3    1    3    3    0  502  0.68579567842E+03 -0.35566196904E+03 -0.23437228920E+04  0.24677617699E+04  0.10100000352E+00 0. -1.
</event>
<event>
 5   0  0.1116310E-05  0.2596778E+04  0.7818609E-02  0.8369297E-01
        2   -1    0    0  501    0  0.00000000000E+00  0.00000000000E+00  0.12595833312E+04  0.12595833312E+04  0.25500000920E-02 0. -1.
       -2   -1    0    0    0  501  0.00000000000E+00  0.00000000000E+00 -0.13383897121E+04  0.13383897122E+04  0.25500000920E-02 0.  1.
    10030    2    1    2    0    0  0.00000000000E+00  0.00000000000E+00 -0.78806380991E+02  0.25979730433E+04  0.25967775199E+04 0.  0.
        4    1    3    3  502    0 -0.42915695622E+03 -0.51605229698E+03  0.10725607530E+04  0.12652564357E+04  0.12699999809E+01 0. -1.
       -4    1    3    3    0  502  0.42915695622E+03  0.51605229698E+03 -0.11513671339E+04  0.13327166077E+04  0.12699999809E+01 0.  1.
</event>
<event>
 5   0  0.1085061E-05  0.2625131E+04  0.7818609E-02  0.8359715E-01
       -2   -1    0    0    0  501  0.00000000000E+00  0.00000000000E+00  0.89571593798E+03  0.89571593798E+03  0.25500000920E-02 0.  1.
        2   -1    0    0  501    0  0.00000000000E+00  0.00000000000E+00 -0.19234090862E+04  0.19234090862E+04  0.25500000920E-02 0. -1.
    10030    2    1    2    0    0  0.00000000000E+00  0.00000000000E+00 -0.10276931482E+04  0.28191250241E+04  0.26251309862E+04 0.  0.
        1    1    3    3  502    0 -0.28799567890E+03  0.12701322113E+04 -0.33853171960E+03  0.13456526559E+04  0.50400001928E-02 0.  1.
       -1    1    3    3    0  502  0.28799567890E+03 -0.12701322113E+04 -0.68916142858E+03  0.14734723682E+04  0.50400001928E-02 0. -1.
</event>
<event>
 5   0  0.4464297E-06  0.2376618E+04  0.7818609E-02  0.8448310E-01
       -1   -1    0    0    0  501  0.00000000000E+00  0.00000000000E+00  0.61068792066E+03  0.61068792069E+03  0.50400001928E-02 0.  1.
        1   -1    0    0  501    0  0.00000000000E+00  0.00000000000E+00 -0.23122753140E+04  0.23122753140E+04  0.50400001928E-02 0. -1.
    10030    2    1    2    0    0  0.00000000000E+00  0.00000000000E+00 -0.17015873933E+04  0.29229632347E+04  0.23766182727E+04 0.  0.
        4    1    3    3  502    0 -0.10761799199E+04  0.32574608407E+03 -0.13236246795E+04  0.17367376418E+04  0.12699999809E+01 0. -1.
       -4    1    3    3    0  502  0.10761799199E+04 -0.32574608407E+03 -0.37796271382E+03  0.11862255929E+04  0.12699999809E+01 0.  1.
</event>
<event>
 5   0  0.1136881E-05  0.2609871E+04  0.7818609E-02  0.8364856E-01
       -2   -1    0    0    0  501  0.00000000000E+00  0.00000000000E+00  0.10050044148E+04  0.10050044148E+04  0.25500000920E-02 0.  1.
        2   -1    0    0  501    0  0.00000000000E+00  0.00000000000E+00 -0.16943775119E+04  0.16943775119E+04  0.25500000920E-02 0. -1.
    10030    2    1    2    0    0  0.00000000000E+00  0.00000000000E+00 -0.68937309713E+03  0.26993819267E+04  0.26098711690E+04 0.  0.
        3    1    3    3  502    0  0.36215410626E+03 -0.94124486892E+03  0.51182089393E+03  0.11309545250E+04  0.10100000352E+00 0.  1.
       -3    1    3    3    0  502 -0.36215410626E+03  0.94124486892E+03 -0.12011939911E+04  0.15684274017E+04  0.10100000352E+00 0. -1.
</event>
<event>
 5   0  0.1085255E-05  0.2590753E+04  0.7818609E-02  0.8371349E-01
       -2   -1    0    0    0  501  0.00000000000E+00  0.00000000000E+00  0.11288134836E+04  0.11288134836E+04  0.25500000920E-02 0.  1.
        2   -1    0    0  501    0  0.00000000000E+00  0.00000000000E+00 -0.14865170277E+04  0.14865170277E+04  0.25500000920E-02 0. -1.
    10030    2    1    2    0    0  0.00000000000E+00  0.00000000000E+00 -0.35770354417E+03  0.26153305113E+04  0.25907531449E+04 0.  0.
        5    1    3    3  502    0 -0.80212373825E+03  0.78610699622E+03  0.47272600516E+03  0.12185477697E+04  0.46999998093E+01 0.  1.
       -5    1    3    3    0  502  0.80212373825E+03 -0.78610699622E+03 -0.83042954932E+03  0.13967827416E+04  0.46999998093E+01 0. -1.
</event>
<event>
 5   0  0.4361864E-06  0.2601987E+04  0.7818609E-02  0.8367527E-01
        1   -1    0    0  501    0  0.00000000000E+00  0.00000000000E+00  0.11322337230E+04  0.11322337230E+04  0.50400001928E-02 0. -1.
       -1   -1    0    0    0  501  0.00000000000E+00  0.00000000000E+00 -0.14949066590E+04  0.14949066590E+04  0.50400001928E-02 0.  1.
    10030    2    1    2    0    0  0.00000000000E+00  0.00000000000E+00 -0.36267293605E+03  0.26271403820E+04  0.26019867271E+04 0.  0.
        3    1    3    3  502    0 -0.83618760480E+03  0.51360148661E+03 -0.10437526618E+04  0.14326255012E+04  0.10100000352E+00 0.  1.
       -3    1    3    3    0  502  0.83618760480E+03 -0.51360148661E+03  0.68107972574E+03  0.11945148808E+04  0.10100000352E+00 0. -1.
</event>
<event>
 5   0  0.4464297E-06  0.2592280E+04  0.7818609E-02  0.8370828E-01
        1   -1    0    0  501    0  0.00000000000E+00  0.00000000000E+00  0.13350130320E+04  0.13350130320E+04  0.50400001928E-02 0. -1.
       -1   -1    0    0    0  501  0.00000000000E+00  0.00000000000E+00 -0.12583985654E+04  0.12583985654E+04  0.50400001928E-02 0.  1.
    10030    2    1    2    0    0  0.00000000000E+00  0.00000000000E+00  0.76614466588E+02  0.25934115974E+04  0.25922796795E+04 0.  0.
        4    1    3    3  502    0  0.12398688411E+04  0.12944146920E+03  0.39335236823E+03  0.13071945285E+04  0.12699999809E+01 0. -1.
       -4    1    3    3    0  502 -0.12398688411E+04 -0.12944146920E+03 -0.31673790164E+03  0.12862170688E+04  0.12699999809E+01 0.  1.
</event>
<event>
 5   0  0.1116310E-05  0.2561527E+04  0.7818609E-02  0.8381388E-01
       -2   -1    0    0    0  501  0.00000000000E+00  0.00000000000E+00  0.77804958043E+03  0.77804958043E+03  0.25500000920E-02 0.  1.
        2   -1    0    0  501    0  0.00000000000E+00  0.00000000000E+00 -0.21082913087E+04  0.21082913087E+04  0.25500000920E-02 0. -1.
    10030    2    1    2    0    0  0.00000000000E+00  0.00000000000E+00 -0.13302417283E+04  0.28863408891E+04  0.25615270197E+04 0.  0.
        4    1    3    3  502    0 -0.73097660260E+03  0.67213051174E+03 -0.15765571199E+04  0.18632284303E+04  0.12699999809E+01 0. -1.
       -4    1    3    3    0  502  0.73097660260E+03 -0.67213051174E+03  0.24631539161E+03  0.10231124588E+04  0.12699999809E+01 0.  1.
</event>
<event>
 5   0  0.4361864E-06  0.2609395E+04  0.7818609E-02  0.8365017E-01
        1   -1    0    0  501    0  0.00000000000E+00  0.00000000000E+00  0.10943303243E+04  0.10943303243E+04  0.50400001928E-02 0.  1.
       -1   -1    0    0    0  501  0.00000000000E+00  0.00000000000E+00 -0.15555040207E+04  0.15555040207E+04  0.50400001928E-02 0. -1.
    10030    2    1    2    0    0  0.00000000000E+00  0.00000000000E+00 -0.46117369636E+03  0.26498343450E+04  0.26093947340E+04 0.  0.
        3    1    3    3  502    0  0.76646516541E+03  0.63427273994E+02  0.83966454586E+03  0.11386520226E+04  0.10100000352E+00 0.  1.
       -3    1    3    3    0  502 -0.76646516541E+03 -0.63427273994E+02 -0.13008382422E+04  0.15111823224E+04  0.10100000352E+00 0. -1.
</event>
<event>
 5   0  0.1085255E-05  0.2598125E+04  0.7818609E-02  0.8368838E-01
        2   -1    0    0  501    0  0.00000000000E+00  0.00000000000E+00  0.74593218851E+03  0.74593218852E+03  0.25500000920E-02 0.  1.
       -2   -1    0    0    0  501  0.00000000000E+00  0.00000000000E+00 -0.22623547736E+04  0.22623547736E+04  0.25500000920E-02 0. -1.
    10030    2    1    2    0    0  0.00000000000E+00  0.00000000000E+00 -0.15164225851E+04  0.30082869621E+04  0.25981248988E+04 0.  0.
        5    1    3    3  502    0  0.10369526284E+04  0.33291764494E+03 -0.15781230195E+04  0.19174460271E+04  0.46999998093E+01 0. -1.
       -5    1    3    3    0  502 -0.10369526284E+04 -0.33291764494E+03  0.61700434450E+02  0.10908409350E+04  0.46999998093E+01 0.  1.
</event>
<event>
 5   0  0.1086507E-05  0.2673840E+04  0.7818609E-02  0.8343543E-01
       -2   -1    0    0    0  501  0.00000000000E+00  0.00000000000E+00  0.63118886830E+03  0.63118886831E+03  0.25500000920E-02 0. -1.
        2   -1    0    0  501    0  0.00000000000E+00  0.00000000000E+00 -0.28317277753E+04  0.28317277753E+04  0.25500000920E-02 0.  1.
    10030    2    1    2    0    0  0.00000000000E+00  0.00000000000E+00 -0.22005389070E+04  0.34629166436E+04  0.26738399727E+04 0.  0.
        2    1    3    3  502    0  0.25673914378E+03  0.53107235708E+03  0.45353982074E+03  0.74407741896E+03  0.25500000920E-02 0. -1.
       -2    1    3    3    0  502 -0.25673914378E+03 -0.53107235708E+03 -0.26540787278E+04  0.27188392247E+04  0.25500000920E-02 0.  1.
</event>
<event>
 5   0  0.1085255E-05  0.2590848E+04  0.7818609E-02  0.8371317E-01
       -2   -1    0    0    0  501  0.00000000000E+00  0.00000000000E+00  0.13626223793E+04  0.13626223793E+04  0.25500000920E-02 0.  1.
        2   -1    0    0  501    0  0.00000000000E+00  0.00000000000E+00 -0.12315394005E+04  0.12315394005E+04  0.25500000920E-02 0. -1.
    10030    2    1    2    0    0  0.00000000000E+00  0.00000000000E+00  0.13108297883E+03  0.25941617797E+04  0.25908478520E+04 0.  0.
        5    1    3    3  502    0 -0.53983122089E+03 -0.10466535028E+04 -0.47477802150E+03  0.12697785483E+04  0.46999998093E+01 0. -1.
       -5    1    3    3    0  502  0.53983122089E+03  0.10466535028E+04  0.60586100034E+03  0.13243832314E+04  0.46999998093E+01 0.  1.
</event>
<event>
 5   0  0.4597705E-06  0.2590397E+04  0.7818609E-02  0.8371471E-01
       -1   -1    0    0    0  501  0.00000000000E+00  0.00000000000E+00  0.10925514648E+04  0.10925514648E+04  0.50400001928E-02 0. -1.
        1   -1    0    0  501    0  0.00000000000E+00  0.00000000000E+00 -0.15354321219E+04  0.15354321219E+04  0.50400001928E-02 0.  1.
    10030    2    1    2    0    0  0.00000000000E+00  0.00000000000E+00 -0.44288065711E+03  0.26279835867E+04  0.25903965826E+04 0.  0.
        5    1    3    3  502    0 -0.36696091611E+03 -0.20892241451E+03  0.10207475373E+04  0.11046522141E+04  0.46999998093E+01 0. -1.
       -5    1    3    3    0  502  0.36696091611E+03  0.20892241451E+03 -0.14636281944E+04  0.15233313726E+04  0.46999998093E+01 0.  1.
</event>
<event>
 5   0  0.4464297E-06  0.2586233E+04  0.7818609E-02  0.8372893E-01
       -1   -1    0    0    0  501  0.00000000000E+00  0.00000000000E+00  0.19608454898E+04  0.19608454898E+04  0.50400001928E-02 0.  1.
        1   -1    0    0  501    0  0.00000000000E+00  0.00000000000E+00 -0.85276994294E+03  0.85276994296E+03  0.50400001928E-02 0. -1.
    10030    2    1    2    0    0  0.00000000000E+00  0.00000000000E+00  0.11080755468E+04  0.28136154327E+04  0.25862328561E+04 0.  0.
        4    1    3    3  502    0  0.55765677681E+03  0.60772524161E+03  0.16375089448E+04  0.18335070786E+04  0.12699999809E+01 0.  1.
       -4    1    3    3    0  502 -0.55765677681E+03 -0.60772524161E+03 -0.52943339799E+03  0.98010835413E+03  0.12699999809E+01 0. -1.
</event>
<event>
 5   0  0.1136881E-05  0.2570527E+04  0.7818609E-02  0.8378282E-01
       -2   -1    0    0    0  501  0.00000000000E+00  0.00000000000E+00  0.11066257877E+04  0.11066257877E+04  0.25500000920E-02 0.  1.
        2   -1    0    0  501    0  0.00000000000E+00  0.00000000000E+00 -0.14927373506E+04  0.14927373506E+04  0.25500000920E-02 0. -1.
    10030    2    1    2    0    0  0.00000000000E+00  0.00000000000E+00 -0.38611156295E+03  0.25993631383E+04  0.25705265192E+04 0.  0.
        3    1    3    3  502    0 -0.34598460230E+03  0.51806423817E+03  0.94374674038E+03  0.11308199769E+04  0.10100000352E+00 0.  1.
       -3    1    3    3    0  502  0.34598460230E+03 -0.51806423817E+03 -0.13298583033E+04  0.14685431614E+04  0.10100000352E+00 0. -1.
</event>
<event>
 5   0  0.4415080E-06  0.2579068E+04  0.7818609E-02  0.8375346E-01
       -1   -1    0    0    0  501  0.00000000000E+00  0.00000000000E+00  0.16845662451E+04  0.16845662451E+04  0.50400001928E-02 0.  1.
        1   -1    0    0  501    0  0.00000000000E+00  0.00000000000E+00 -0.98713735502E+03  0.98713735503E+03  0.50400001928E-02 0. -1.
    10030    2    1    2    0    0  0.00000000000E+00  0.00000000000E+00  0.69742889004E+03  0.26717036001E+04  0.25790682562E+04 0.  0.
        2    1    3    3  502    0  0.83138254873E+03  0.79835694948E+03 -0.25026441389E+03  0.11794927037E+04  0.25500000920E-02 0.  1.
       -2    1    3    3    0  502 -0.83138254873E+03 -0.79835694948E+03  0.94769330393E+03  0.14922108964E+04  0.25500000920E-02 0. -1.
</event>
<event>
 5   0  0.1116310E-05  0.2578103E+04  0.7818609E-02  0.8375677E-01
        2   -1    0    0  501    0  0.00000000000E+00  0.00000000000E+00  0.20935797043E+04  0.20935797043E+04  0.25500000920E-02 0.  1.
       -2   -1    0    0    0  501  0.00000000000E+00  0.00000000000E+00 -0.79369025475E+03  0.79369025475E+03  0.25500000920E-02 0. -1.
    10030    2    1    2    0    0  0.00000000000E+00  0.00000000000E+00  0.12998894495E+04  0.28872699590E+04  0.25781030304E+04 0.  0.
        4    1    3    3  502    0 -0.69635405832E+03  0.72710542435E+03 -0.25161611713E+03  0.10377396379E+04  0.12699999809E+01 0. -1.
       -4    1    3    3    0  502  0.69635405832E+03 -0.72710542435E+03  0.15515055666E+04  0.18495303212E+04  0.12699999809E+01 0.  1.
</event>
<event>
 5   0  0.4464297E-06  0.2545670E+04  0.7818609E-02  0.8386893E-01
       -1   -1    0    0    0  501  0.00000000000E+00  0.00000000000E+00  0.66364618649E+03  0.66364618651E+03  0.50400001928E-02 0.  1.
        1   -1    0    0  501    0  0.00000000000E+00  0.00000000000E+00 -0.24412247295E+04  0.24412247295E+04  0.50400001928E-02 0. -1.
    10030    2    1    2    0    0  0.00000000000E+00  0.00000000000E+00 -0.17775785430E+04  0.31048709160E+04  0.25456704281E+04 0.  0.
        4    1    3    3  502    0  0.11420726262E+04 -0.19788622672E+03 -0.24731034132E+03  0.11851805180E+04  0.12699999809E+01 0.  1.
       -4    1    3    3    0  502 -0.11420726262E+04  0.19788622672E+03 -0.15302682017E+04  0.19196903980E+04  0.12699999809E+01 0. -1.
</event>
<event>
 5   0  0.4218590E-06  0.2564926E+04  0.7818609E-02  0.8380214E-01
        1   -1    0    0  501    0  0.00000000000E+00  0.00000000000E+00  0.12002717812E+04  0.12002717812E+04  0.50400001928E-02 0. -1.
       -1   -1    0    0    0  501  0.00000000000E+00  0.00000000000E+00 -0.13702824936E+04  0.13702824936E+04  0.50400001928E-02 0.  1.
    10030    2    1    2    0    0  0.00000000000E+00  0.00000000000E+00 -0.17001071242E+03  0.25705542748E+04  0.25649260491E+04 0.  0.
        1    1    3    3  502    0  0.82955603852E+03 -0.42680574371E+03 -0.96692782751E+03  0.13436055178E+04  0.50400001928E-02 0.  1.
       -1    1    3    3    0  502 -0.82955603852E+03  0.42680574371E+03  0.79691711509E+03  0.12269487570E+04  0.50400001928E-02 0. -1.
</event>
<event>
 5   0  0.4597705E-06  0.2604790E+04  0.7818609E-02  0.8366576E-01
       -1   -1    0    0    0  501  0.00000000000E+00  0.00000000000E+00  0.67579269434E+03  0.67579269436E+03  0.50400001928E-02 0. -1.
        1   -1    0    0  501    0  0.00000000000E+00  0.00000000000E+00 -0.25099894500E+04  0.25099894500E+04  0.50400001928E-02 0.  1.
    10030    2    1    2    0    0  0.00000000000E+00  0.00000000000E+00 -0.18341967557E+04  0.31857821444E+04  0.26047898443E+04 0.  0.
        5    1    3    3  502    0 -0.11397146911E+04 -0.62679493668E+03 -0.99812446455E+03  0.16395414013E+04  0.46999998093E+01 0.  1.
       -5    1    3    3    0  502  0.11397146911E+04  0.62679493668E+03 -0.83607229110E+03  0.15462407431E+04  0.46999998093E+01 0. -1.
</event>
<event>
 5   0  0.4361864E-06  0.2618894E+04  0.7818609E-02  0.8361812E-01
       -1   -1    0    0    0  501  0.00000000000E+00  0.00000000000E+00  0.12747225310E+04  0.12747225310E+04  0.50400001928E-02 0. -1.
        1   -1    0    0  501    0  0.00000000000E+00  0.00000000000E+00 -0.13451173530E+04  0.13451173530E+04  0.50400001928E-02 0.  1.
    10030    2    1    2    0    0  0.00000000000E+00  0.00000000000E+00 -0.70394822001E+02  0.26198398840E+04  0.26188939625E+04 0.  0.
        3    1    3    3  502    0 -0.39214382515E+03 -0.12415566247E+04  0.10417898545E+03  0.13061749129E+04  0.10100000352E+00 0.  1.
       -3    1    3    3    0  502  0.39214382515E+03  0.12415566247E+04 -0.17457380746E+03  0.13136649711E+04  0.10100000352E+00 0. -1.
</event>
<event>
 5   0  0.1086507E-05  0.2598974E+04  0.7818609E-02  0.8368550E-01
        2   -1    0    0  501    0  0.00000000000E+00  0.00000000000E+00  0.13893422094E+04  0.13893422094E+04  0.25500000920E-02 0.  1.
       -2   -1    0    0    0  501  0.00000000000E+00  0.00000000000E+00 -0.12154430936E+04  0.12154430936E+04  0.25500000920E-02 0. -1.
    10030    2    1    2    0    0  0.00000000000E+00  0.00000000000E+00  0.17389911580E+03  0.26047853030E+04  0.25989739460E+04 0.  0.
        2    1    3    3  502    0  0.17694725888E+03  0.91759309546E+03 -0.81805290362E+03  0.12419734194E+04  0.25500000920E-02 0. -1.
       -2    1    3    3    0  502 -0.17694725888E+03 -0.91759309546E+03  0.99195201943E+03  0.13628118836E+04  0.25500000920E-02 0.  1.
</event>
<event>
 5   0  0.4464297E-06  0.2592858E+04  0.7818609E-02  0.8370631E-01
        1   -1    0    0  501    0  0.00000000000E+00  0.00000000000E+00  0.13854662709E+04  0.13854662710E+04  0.50400001928E-02 0. -1.
       -1   -1    0    0    0  501  0.00000000000E+00  0.00000000000E+00 -0.12131133849E+04  0.12131133849E+04  0.50400001928E-02 0.  1.
    10030    2    1    2    0    0  0.00000000000E+00  0.00000000000E+00  0.17235288609E+03  0.25985796558E+04  0.25928576340E+04 0.  0.
        4    1    3    3  502    0  0.45879114684E+03  0.11814099876E+04 -0.18738598717E+03  0.12811455797E+04  0.12699999809E+01 0. -1.
       -4    1    3    3    0  502 -0.45879114684E+03 -0.11814099876E+04  0.35973887325E+03  0.13174340762E+04  0.12699999809E+01 0.  1.
</event>
<event>
 5   0  0.1085255E-05  0.2603485E+04  0.7818609E-02  0.8367018E-01
       -2   -1    0    0    0  501  0.00000000000E+00  0.00000000000E+00  0.10533090151E+04  0.10533090151E+04  0.25500000920E-02 0.  1.
        2   -1    0    0  501    0  0.00000000000E+00  0.00000000000E+00 -0.16087711471E+04  0.16087711471E+04  0.25500000920E-02 0. -1.
    10030    2    1    2    0    0  0.00000000000E+00  0.00000000000E+00 -0.55546213202E+03  0.26620801622E+04  0.26034847051E+04 0.  0.
        5    1    3    3  502    0 -0.42461375972E+02  0.12885141045E+04 -0.46189439227E+03  0.13694670809E+04  0.46999998093E+01 0.  1.
       -5    1    3    3    0  502  0.42461375972E+02 -0.12885141045E+04 -0.93567739755E+02  0.12926130813E+04  0.46999998093E+01 0. -1.
</event>
<event>
 5   0  0.1116310E-05  0.2598717E+04  0.7818609E-02  0.8368637E-01
       -2   -1    0    0    0  501  0.00000000000E+00  0.00000000000E+00  0.18994430086E+04  0.18994430086E+04  0.25500000920E-02 0.  1.
        2   -1    0    0  501    0  0.00000000000E+00  0.00000000000E+00 -0.88885668492E+03  0.88885668492E+03  0.25500000920E-02 0. -1.
    10030    2    1    2    0    0  0.00000000000E+00  0.00000000000E+00  0.10105863237E+04  0.27882996936E+04  0.25987170803E+04 0.  0.
        4    1    3    3  502    0 -0.91975062189E+03  0.47738362837E+03  0.13463774293E+04  0.16989909152E+04  0.12699999809E+01 0.  1.
       -4    1    3    3    0  502  0.91975062189E+03 -0.47738362837E+03 -0.33579110555E+03  0.10893087783E+04  0.12699999809E+01 0. -1.
</event>
<event>
 5   0  0.4218590E-06  0.2578949E+04  0.7818609E-02  0.8375387E-01
        1   -1    0    0  501    0  0.00000000000E+00  0.00000000000E+00  0.24497226685E+04  0.24497226685E+04  0.50400001928E-02 0.  1.
       -1   -1    0    0    0  501  0.00000000000E+00  0.00000000000E+00 -0.67874797456E+03  0.67874797458E+03  0.50400001928E-02 0. -1.
    10030    2    1    2    0    0  0.00000000000E+00  0.00000000000E+00  0.17709746940E+04  0.31284706431E+04  0.25789488553E+04 0.  0.
        1    1    3    3  502    0  0.91441382138E+03 -0.63016344240E+03  0.90493608645E+02  0.11142027168E+04  0.50400001928E-02 0. -1.
       -1    1    3    3    0  502 -0.91441382138E+03  0.63016344240E+03  0.16804810853E+04  0.20142679263E+04  0.50400001928E-02 0.  1.
</event>
<event>
 5   0  0.1085255E-05  0.2609166E+04  0.7818609E-02  0.8365094E-01
       -2   -1    0    0    0  501  0.00000000000E+00  0.00000000000E+00  0.18172048323E+04  0.18172048323E+04  0.25500000920E-02 0.  1.
        2   -1    0    0  501    0  0.00000000000E+00  0.00000000000E+00 -0.93656825968E+03  0.93656825969E+03  0.25500000920E-02 0. -1.
    10030    2    1    2    0    0  0.00000000000E+00  0.00000000000E+00  0.88063657257E+03  0.27537730919E+04  0.26091656653E+04 0.  0.
        5    1    3    3  502    0  0.86189386835E+03 -0.63088300299E+03 -0.35022082480E+03  0.11240778976E+04  0.46999998093E+01 0. -1.
       -5    1    3    3    0  502 -0.86189386835E+03  0.63088300299E+03  0.12308573974E+04  0.16296951943E+04  0.46999998093E+01 0.  1.
</event>
<event>
 5   0  0.1085061E-05  0.2597398E+04  0.7818609E-02  0.8369085E-01
        2   -1    0    0  501    0  0.00000000000E+00  0.00000000000E+00  0.16906228077E+04  0.16906228077E+04  0.25500000920E-02 0.  1.
       -2   -1    0    0    0  501  0.00000000000E+00  0.00000000000E+00 -0.99763210438E+03  0.99763210438E+03  0.25500000920E-02 0. -1.
    10030    2    1    2    0    0  0.00000000000E+00  0.00000000000E+00  0.69299070331E+03  0.26882549121E+04  0.25973983825E+04 0.  0.
        1    1    3    3  502    0  0.51880764424E+03 -0.24821829009E+03 -0.85864339028E+03  0.10334612537E+04  0.50400001928E-02 0. -1.
       -1    1    3    3    0  502 -0.51880764424E+03  0.24821829009E+03  0.15516340936E+04  0.16547936583E+04  0.50400001928E-02 0.  1.
</event>
<event>
 5   0  0.1136881E-05  0.2615625E+04  0.7818609E-02  0.8362913E-01
        2   -1    0    0  501    0  0.00000000000E+00  0.00000000000E+00  0.15743087357E+04  0.15743087357E+04  0.25500000920E-02 0.  1.
       -2   -1    0    0    0  501  0.00000000000E+00  0.00000000000E+00 -0.10864281074E+04  0.10864281074E+04  0.25500000920E-02 0. -1.
    10030    2    1    2    0    0  0.00000000000E+00  0.00000000000E+00  0.48788062828E+03  0.26607368431E+04  0.26156247898E+04 0.  0.
        3    1    3    3  502    0  0.48821608267E+03  0.38747357922E+03 -0.92562077324E+03  0.11159142189E+04  0.10100000352E+00 0. -1.
       -3    1    3    3    0  502 -0.48821608267E+03 -0.38747357922E+03  0.14135014015E+04  0.15448226242E+04  0.10100000352E+00 0.  1.
</event>
<event>
 5   0  0.4218590E-06  0.2598140E+04  0.7818609E-02  0.8368833E-01
        1   -1    0    0  501    0  0.00000000000E+00  0.00000000000E+00  0.18067305404E+04  0.18067305404E+04  0.50400001928E-02 0. -1.
       -1   -1    0    0    0  501  0.00000000000E+00  0.00000000000E+00 -0.93405320048E+03  0.93405320050E+03  0.50400001928E-02 0.  1.
    10030    2    1    2    0    0  0.00000000000E+00  0.00000000000E+00  0.87267733987E+03  0.27407837409E+04  0.25981396757E+04 0.  0.
        1    1    3    3  502    0 -0.68198041693E+03  0.67634808055E+03  0.13590246031E+04  0.16641790429E+04  0.50400001928E-02 0. -1.
       -1    1    3    3    0  502  0.68198041693E+03 -0.67634808055E+03 -0.48634726321E+03  0.10766046979E+04  0.50400001928E-02 0.  1.
</event>
<event>
 5   0  0.4415080E-06  0.2643815E+04  0.7818609E-02  0.8353469E-01
       -1   -1    0    0    0  501  0.00000000000E+00  0.00000000000E+00  0.64745298600E+03  0.64745298602E+03  0.50400001928E-02 0.  1.
        1   -1    0    0  501    0  0.00000000000E+00  0.00000000000E+00 -0.26989439014E+04  0.26989439014E+04  0.50400001928E-02 0. -1.
    10030    2    1    2    0    0  0.00000000000E+00  0.00000000000E+00 -0.20514909154E+04  0.33463968874E+04  0.26438148861E+04 0.  0.
        2    1    3    3  502    0  0.12676469440E+04  0.25763739353E+03 -0.13703758846E+04  0.18844723045E+04  0.25500000920E-02 0.  1.
       -2    1    3    3    0  502 -0.12676469440E+04 -0.25763739353E+03 -0.68111503075E+03  0.14619245829E+04  0.25500000920E-02 0. -1.
</event>
<event>
 5   0  0.1085061E-05  0.2611141E+04  0.7818609E-02  0.8364427E-01
       -2   -1    0    0    0  501  0.00000000000E+00  0.00000000000E+00  0.95711722152E+03  0.95711722152E+03  0.25500000920E-02 0.  1.
        2   -1    0    0  501    0  0.00000000000E+00  0.00000000000E+00 -0.17808841247E+04  0.17808841247E+04  0.25500000920E-02 0. -1.
    10030    2    1    2    0    0  0.00000000000E+00  0.00000000000E+00 -0.82376690320E+03  0.27380013462E+04  0.26111414096E+04 0.  0.
        1    1    3    3  502    0  0.11999423618E+04  0.48169572560E+03 -0.22249156812E+03  0.13120194136E+04  0.50400001928E-02 0. -1.
       -1    1    3    3    0  502 -0.11999423618E+04 -0.48169572560E+03 -0.60127533508E+03  0.14259819327E+04  0.50400001928E-02 0.  1.
</event>
<event>
 5   0  0.1136881E-05  0.2502951E+04  0.7818609E-02  0.8401935E-01
        2   -1    0    0  501    0  0.00000000000E+00  0.00000000000E+00  0.16710221451E+04  0.16710221451E+04  0.25500000920E-02 0.  1.
       -2   -1    0    0    0  501  0.00000000000E+00  0.00000000000E+00 -0.93726501290E+03  0.93726501291E+03  0.25500000920E-02 0. -1.
    10030    2    1    2    0    0  0.00000000000E+00  0.00000000000E+00  0.73375713218E+03  0.26082871580E+04  0.25029507325E+04 0.  0.
        3    1    3    3  502    0  0.98443974437E+03 -0.14814868318E+02  0.11719520375E+04  0.15306249308E+04  0.10100000352E+00 0. -1.
       -3    1    3    3    0  502 -0.98443974437E+03  0.14814868318E+02 -0.43819490528E+03  0.10776622271E+04  0.10100000352E+00 0.  1.
</event>
<event>
 5   0  0.4597705E-06  0.2600181E+04  0.7818609E-02  0.8368140E-01
       -1   -1    0    0    0  501  0.00000000000E+00  0.00000000000E+00  0.19801606075E+04  0.19801606076E+04  0.50400001928E-02 0.  1.
        1   -1    0    0  501    0  0.00000000000E+00  0.00000000000E+00 -0.85358471668E+03  0.85358471670E+03  0.50400001928E-02 0. -1.
    10030    2    1    2    0    0  0.00000000000E+00  0.00000000000E+00  0.11265758909E+04  0.28337453242E+04  0.26001806331E+04 0.  0.
        5    1    3    3  502    0 -0.54436642635E+03 -0.12009177188E+03 -0.71671570453E+03  0.90799797959E+03  0.46999998093E+01 0. -1.
       -5    1    3    3    0  502  0.54436642635E+03  0.12009177188E+03  0.18432915954E+04  0.19257473447E+04  0.46999998093E+01 0.  1.
</event>
<event>
 5   0  0.1136881E-05  0.2598759E+04  0.7818609E-02  0.8368623E-01
       -2   -1    0    0    0  501  0.00000000000E+00  0.00000000000E+00  0.12919095591E+04  0.12919095591E+04  0.25500000920E-02 0.  1.
        2   -1    0    0  501    0  0.00000000000E+00  0.00000000000E+00 -0.13068925375E+04  0.13068925375E+04  0.25500000920E-02 0. -1.
    10030    2    1    2    0    0  0.00000000000E+00  0.00000000000E+00 -0.14982978412E+02  0.25988020967E+04  0.25987589053E+04 0.  0.
        3    1    3    3  502    0 -0.10371461273E+04 -0.65031944434E+03 -0.44315855450E+03  0.13019128172E+04  0.10100000352E+00 0. -1.
       -3    1    3    3    0  502  0.10371461273E+04  0.65031944434E+03  0.42817557609E+03  0.12968892794E+04  0.10100000352E+00 0.  1.
</event>
<event>
 5   0  0.4464297E-06  0.2577723E+04  0.7818609E-02  0.8375808E-01
        1   -1    0    0  501    0  0.00000000000E+00  0.00000000000E+00  0.13951306587E+04  0.13951306587E+04  0.50400001928E-02 0. -1.
       -1   -1    0    0    0  501  0.00000000000E+00  0.00000000000E+00 -0.11906867966E+04  0.11906867966E+04  0.50400001928E-02 0.  1.
    10030    2    1    2    0    0  0.00000000000E+00  0.00000000000E+00  0.20444386212E+03  0.25858174553E+04  0.25777227584E+04 0.  0.
        4    1    3    3  502    0  0.30820218865E+03 -0.47116048143E+01 -0.11531676158E+04  0.11936531956E+04  0.12699999809E+01 0.  1.
       -4    1    3    3    0  502 -0.30820218865E+03  0.47116048143E+01  0.13576114779E+04  0.13921642597E+04  0.12699999809E+01 0. -1.
</event>
<event>
 5   0  0.4464297E-06  0.2595745E+04  0.7818609E-02  0.8369648E-01
        1   -1    0    0  501    0  0.00000000000E+00  0.00000000000E+00  0.15592972796E+04  0.15592972796E+04  0.50400001928E-02 0.  1.
       -1   -1    0    0    0  501  0.00000000000E+00  0.00000000000E+00 -0.10802768209E+04  0.10802768210E+04  0.50400001928E-02 0. -1.
    10030    2    1    2    0    0  0.00000000000E+00  0.00000000000E+00  0.47902045869E+03  0.26395741006E+04  0.25957447549E+04 0.  0.
        4    1    3    3  502    0 -0.57398009584E+03 -0.76720994798E+03  0.11297388640E+04  0.14813425561E+04  0.12699999809E+01 0.  1.
       -4    1    3    3    0  502  0.57398009584E+03  0.76720994798E+03 -0.65071840534E+03  0.11582315445E+04  0.12699999809E+01 0. -1.
</event>
<event>
 5   0  0.1136881E-05  0.2640652E+04  0.7818609E-02  0.8354522E-01
        2   -1    0    0  501    0  0.00000000000E+00  0.00000000000E+00  0.12305408004E+04  0.12305408004E+04  0.25500000920E-02 0. -1.
       -2   -1    0    0    0  501  0.00000000000E+00  0.00000000000E+00 -0.14166617885E+04  0.14166617885E+04  0.25500000920E-02 0.  1.
    10030    2    1    2    0    0  0.00000000000E+00  0.00000000000E+00 -0.18612098809E+03  0.26472025889E+04  0.26406515341E+04 0.  0.
        3    1    3    3  502    0  0.10452338364E+04  0.60719298065E+03  0.43935314147E+03  0.12861680612E+04  0.10100000352E+00 0. -1.
       -3    1    3    3    0  502 -0.10452338364E+04 -0.60719298065E+03 -0.62547412956E+03  0.13610345277E+04  0.10100000352E+00 0.  1.
</event>
<event>
 5   0  0.4361864E-06  0.2603280E+04  0.7818609E-02  0.8367088E-01
       -1   -1    0    0    0  501  0.00000000000E+00  0.00000000000E+00  0.62454406254E+03  0.62454406256E+03  0.50400001928E-02 0.  1.
        1   -1    0    0  501    0  0.00000000000E+00  0.00000000000E+00 -0.27128056300E+04  0.27128056300E+04  0.50400001928E-02 0. -1.
    10030    2    1    2    0    0  0.00000000000E+00  0.00000000000E+00 -0.20882615674E+04  0.33373496926E+04  0.26032799689E+04 0.  0.
        3    1    3    3  502    0  0.88337888959E+03 -0.58202835938E+03 -0.71894296206E+02  0.10603226272E+04  0.10100000352E+00 0.  1.
       -3    1    3    3    0  502 -0.88337888959E+03  0.58202835938E+03 -0.20163672712E+04  0.22770270654E+04  0.10100000352E+00 0. -1.
</event>
<event>
 5   0  0.4218590E-06  0.2598299E+04  0.7818609E-02  0.8368779E-01
       -1   -1    0    0    0  501  0.00000000000E+00  0.00000000000E+00  0.11686226652E+04  0.11686226652E+04  0.50400001928E-02 0.  1.
        1   -1    0    0  501    0  0.00000000000E+00  0.00000000000E+00 -0.14442555407E+04  0.14442555407E+04  0.50400001928E-02 0. -1.
    10030    2    1    2    0    0  0.00000000000E+00  0.00000000000E+00 -0.27563287548E+03  0.26128782059E+04  0.25982992585E+04 0.  0.
        1    1    3    3  502    0  0.23394630574E+03  0.21015711400E+03  0.11297691874E+04  0.11727213238E+04  0.50400001928E-02 0.  1.
       -1    1    3    3    0  502 -0.23394630574E+03 -0.21015711400E+03 -0.14054020629E+04  0.14401568821E+04  0.50400001928E-02 0. -1.
</event>
<event>
 5   0  0.4464297E-06  0.2619780E+04  0.7818609E-02  0.8361513E-01
       -1   -1    0    0    0  501  0.00000000000E+00  0.00000000000E+00  0.31127025857E+04  0.31127025857E+04  0.50400001928E-02 0.  1.
        1   -1    0    0  501    0  0.00000000000E+00  0.00000000000E+00 -0.55122911042E+03  0.55122911044E+03  0.50400001928E-02 0. -1.
    10030    2    1    2    0    0  0.00000000000E+00  0.00000000000E+00  0.25614734753E+04  0.36639316961E+04  0.26197803552E+04 0.  0.
        4    1    3    3  502    0 -0.11920796855E+04  0.19006563499E+03  0.19919885733E+04  0.23292056610E+04  0.12699999809E+01 0.  1.
       -4    1    3    3    0  502  0.11920796855E+04 -0.19006563499E+03  0.56948490195E+03  0.13347260351E+04  0.12699999809E+01 0. -1.
</event>
<event>
 5   0  0.1086507E-05  0.2476430E+04  0.7818609E-02  0.8411431E-01
       -2   -1    0    0    0  501  0.00000000000E+00  0.00000000000E+00  0.86141866895E+03  0.86141866895E+03  0.25500000920E-02 0.  1.
        2   -1    0    0  501    0  0.00000000000E+00  0.00000000000E+00 -0.17798275706E+04  0.17798275706E+04  0.25500000920E-02 0. -1.
    10030    2    1    2    0    0  0.00000000000E+00  0.00000000000E+00 -0.91840890168E+03  0.26412462396E+04  0.24764302509E+04 0.  0.
        2    1    3    3  502    0 -0.78389912056E+03 -0.28367195158E+03 -0.14356746064E+04  0.16601593848E+04  0.25500000920E-02 0. -1.
       -2    1    3    3    0  502  0.78389912056E+03  0.28367195158E+03  0.51726570476E+03  0.98108685480E+03  0.25500000920E-02 0.  1.
</event>
<event>
 5   0  0.1086507E-05  0.2567966E+04  0.7818609E-02  0.8379164E-01
       -2   -1    0    0    0  501  0.00000000000E+00  0.00000000000E+00  0.71181195538E+03  0.71181195539E+03  0.25500000920E-02 0. -1.
        2   -1    0    0  501    0  0.00000000000E+00  0.00000000000E+00 -0.23160787572E+04  0.23160787572E+04  0.25500000920E-02 0.  1.
    10030    2    1    2    0    0  0.00000000000E+00  0.00000000000E+00 -0.16042668018E+04  0.30278907126E+04  0.25679661594E+04 0.  0.
        2    1    3    3  502    0 -0.10678584677E+04 -0.37398054255E+03 -0.15178284888E+04  0.18931419584E+04  0.25500000920E-02 0.  1.
       -2    1    3    3    0  502  0.10678584677E+04  0.37398054255E+03 -0.86438313052E+02  0.11347487542E+04  0.25500000920E-02 0. -1.
</event>
<event>
 5   0  0.1086507E-05  0.2586777E+04  0.7818609E-02  0.8372707E-01
       -2   -1    0    0    0  501  0.00000000000E+00  0.00000000000E+00  0.10611123147E+04  0.10611123147E+04  0.25500000920E-02 0. -1.
        2   -1    0    0  501    0  0.00000000000E+00  0.00000000000E+00 -0.15765100923E+04  0.15765100923E+04  0.25500000920E-02 0.  1.
    10030    2    1    2    0    0  0.00000000000E+00  0.00000000000E+00 -0.51539777765E+03  0.26376224070E+04  0.25867773566E+04 0.  0.
        2    1    3    3  502    0 -0.89417124155E+03 -0.80309916440E+03 -0.74494477519E+03  0.14140202245E+04  0.25500000920E-02 0.  1.
       -2    1    3    3    0  502  0.89417124155E+03  0.80309916440E+03  0.22954699754E+03  0.12236021826E+04  0.25500000920E-02 0. -1.
</event>
<event>
 5   0  0.4415080E-06  0.2597596E+04  0.7818609E-02  0.8369018E-01
        1   -1    0    0  501    0  0.00000000000E+00  0.00000000000E+00  0.18122564679E+04  0.18122564680E+04  0.50400001928E-02 0. -1.
       -1   -1    0    0    0  501  0.00000000000E+00  0.00000000000E+00 -0.93081511221E+03  0.93081511223E+03  0.50400001928E-02 0.  1.
    10030    2    1    2    0    0  0.00000000000E+00  0.00000000000E+00  0.88144135573E+03  0.27430715802E+04  0.25975955864E+04 0.  0.
        2    1    3    3  502    0 -0.10792954840E+04  0.71312506860E+03  0.56318802911E+03  0.14108886779E+04  0.25500000920E-02 0. -1.
       -2    1    3    3    0  502  0.10792954840E+04 -0.71312506860E+03  0.31825332663E+03  0.13321829023E+04  0.25500000920E-02 0.  1.
</event>
<event>
 5   0  0.4464297E-06  0.2518532E+04  0.7818609E-02  0.8396413E-01
       -1   -1    0    0    0  501  0.00000000000E+00  0.00000000000E+00  0.80219217257E+03  0.80219217259E+03  0.50400001928E-02 0. -1.
        1   -1    0    0  501    0  0.00000000000E+00  0.00000000000E+00 -0.19767724296E+04  0.19767724296E+04  0.50400001928E-02 0.  1.
    10030    2    1    2    0    0  0.00000000000E+00  0.00000000000E+00 -0.11745802570E+04  0.27789646022E+04  0.25185324060E+04 0.  0.
        4    1    3    3  502    0 -0.91570247734E+02 -0.39034925750E+03  0.72987947690E+03  0.83275645707E+03  0.12699999809E+01 0. -1.
       -4    1    3    3    0  502  0.91570247734E+02  0.39034925750E+03 -0.19044597339E+04  0.19462081451E+04  0.12699999809E+01 0.  1.
</event>
<event>
 5   0  0.4361864E-06  0.2637574E+04  0.7818609E-02  0.8355549E-01
        1   -1    0    0  501    0  0.00000000000E+00  0.00000000000E+00  0.14380490135E+04  0.14380490135E+04  0.50400001928E-02 0. -1.
       -1   -1    0    0    0  501  0.00000000000E+00  0.00000000000E+00 -0.12094153497E+04  0.12094153497E+04  0.50400001928E-02 0.  1.
    10030    2    1    2    0    0  0.00000000000E+00  0.00000000000E+00  0.22863366378E+03  0.26474643632E+04  0.26375735444E+04 0.  0.
        3    1    3    3  502    0 -0.12690401903E+04 -0.14268431448E+03  0.44475754490E+03  0.13522688720E+04  0.10100000352E+00 0. -1.
       -3    1    3    3    0  502  0.12690401903E+04  0.14268431448E+03 -0.21612388112E+03  0.12951954912E+04  0.10100000352E+00 0.  1.
</event>
<event>
 5   0  0.1085255E-05  0.2602302E+04  0.7818609E-02  0.8367420E-01
        2   -1    0    0  501    0  0.00000000000E+00  0.00000000000E+00  0.20094591156E+04  0.20094591156E+04  0.25500000920E-02 0. -1.
       -2   -1    0    0    0  501  0.00000000000E+00  0.00000000000E+00 -0.84251232180E+03  0.84251232181E+03  0.25500000920E-02 0.  1.
    10030    2    1    2    0    0  0.00000000000E+00  0.00000000000E+00  0.11669467938E+04  0.28519714374E+04  0.26023021078E+04 0.  0.
        5    1    3    3  502    0  0.65456785073E+03 -0.83270998444E+02  0.18124824152E+04  0.19288617695E+04  0.46999998093E+01 0. -1.
       -5    1    3    3    0  502 -0.65456785073E+03  0.83270998444E+02 -0.64553562144E+03  0.92310966788E+03  0.46999998093E+01 0.  1.
</event>
<event>
 5   0  0.4464297E-06  0.2508502E+04  0.7818609E-02  0.8399963E-01
        1   -1    0    0  501    0  0.00000000000E+00  0.00000000000E+00  0.11538815428E+04  0.11538815428E+04  0.50400001928E-02 0.  1.
       -1   -1    0    0    0  501  0.00000000000E+00  0.00000000000E+00 -0.13633508173E+04  0.13633508173E+04  0.50400001928E-02 0. -1.
    10030    2    1    2    0    0  0.00000000000E+00  0.00000000000E+00 -0.20946927447E+03  0.25172323601E+04  0.25085018194E+04 0.  0.
        4    1    3    3  502    0 -0.61592171465E+03  0.51629918583E+02  0.99044755941E+03  0.11674815578E+04  0.12699999809E+01 0.  1.
       -4    1    3    3    0  502  0.61592171465E+03 -0.51629918583E+02 -0.11999168339E+04  0.13497508022E+04  0.12699999809E+01 0. -1.
</event>
<event>
 5   0  0.1085255E-05  0.2584929E+04  0.7818609E-02  0.8373339E-01
       -2   -1    0    0    0  501  0.00000000000E+00  0.00000000000E+00  0.11747667070E+04  0.11747667070E+04  0.25500000920E-02 0. -1.
        2   -1    0    0  501    0  0.00000000000E+00  0.00000000000E+00 -0.14219539276E+04  0.14219539276E+04  0.25500000920E-02 0.  1.
    10030    2    1    2    0    0  0.00000000000E+00  0.00000000000E+00 -0.24718722058E+03  0.25967206346E+04  0.25849287286E+04 0.  0.
        5    1    3    3  502    0 -0.79961873158E+03 -0.19084047373E+03 -0.11254554496E+04  0.13937296228E+04  0.46999998093E+01 0.  1.
       -5    1    3    3    0  502  0.79961873158E+03  0.19084047373E+03  0.87826822906E+03  0.12029910118E+04  0.46999998093E+01 0. -1.
</event>
<event>
 5   0  0.4464297E-06  0.2596266E+04  0.7818609E-02  0.8369471E-01
       -1   -1    0    0    0  501  0.00000000000E+00  0.00000000000E+00  0.83508118153E+03  0.83508118154E+03  0.50400001928E-02 0.  1.
        1   -1    0    0  501    0  0.00000000000E+00  0.00000000000E+00 -0.20179470996E+04  0.20179470996E+04  0.50400001928E-02 0. -1.
    10030    2    1    2    0    0  0.00000000000E+00  0.00000000000E+00 -0.11828659181E+04  0.28530282811E+04  0.25962662793E+04 0.  0.
        4    1    3    3  502    0 -0.26380027342E+03 -0.75953165645E+03 -0.17113747552E+04  0.18908421634E+04  0.12699999809E+01 0. -1.
       -4    1    3    3    0  502  0.26380027342E+03  0.75953165645E+03  0.52850883709E+03  0.96218611775E+03  0.12699999809E+01 0.  1.
</event>
<event>
 5   0  0.3705250E-06  0.2583005E+04  0.7818609E-02  0.8373997E-01
        3   -1    0    0  501    0  0.00000000000E+00  0.00000000000E+00  0.88215385559E+03  0.88215386137E+03  0.10100000352E+00 0. -1.
       -3   -1    0    0    0  501  0.00000000000E+00  0.00000000000E+00 -0.18908020420E+04  0.18908020446E+04  0.10100000352E+00 0.  1.
    10030    2    1    2    0    0  0.00000000000E+00  0.00000000000E+00 -0.10086481864E+04  0.27729559060E+04  0.25830047025E+04 0.  0.
        2    1    3    3  502    0  0.69737464683E+03 -0.94839806155E+03 -0.10746026869E+04  0.15939138044E+04  0.25500000920E-02 0.  1.
       -2    1    3    3    0  502 -0.69737464683E+03  0.94839806155E+03  0.65954500557E+02  0.11790421016E+04  0.25500000920E-02 0. -1.
</event>
<event>
 5   0  0.4361864E-06  0.2599619E+04  0.7818609E-02  0.8368331E-01
        1   -1    0    0  501    0  0.00000000000E+00  0.00000000000E+00  0.94747423544E+03  0.94747423546E+03  0.50400001928E-02 0. -1.
       -1   -1    0    0    0  501  0.00000000000E+00  0.00000000000E+00 -0.17831664294E+04  0.17831664294E+04  0.50400001928E-02 0.  1.
    10030    2    1    2    0    0  0.00000000000E+00  0.00000000000E+00 -0.83569219394E+03  0.27306406648E+04  0.25996186254E+04 0.  0.
        3    1    3    3  502    0 -0.69381126908E+03  0.10947986683E+04 -0.52047424490E+03  0.13967289111E+04  0.10100000352E+00 0.  1.
       -3    1    3    3    0  502  0.69381126908E+03 -0.10947986683E+04 -0.31521794904E+03  0.13339117538E+04  0.10100000352E+00 0. -1.
</event>
<event>
 5   0  0.4361864E-06  0.2605179E+04  0.7818609E-02  0.8366444E-01
       -1   -1    0    0    0  501  0.00000000000E+00  0.00000000000E+00  0.13766930188E+04  0.13766930188E+04  0.50400001928E-02 0.  1.
        1   -1    0    0  501    0  0.00000000000E+00  0.00000000000E+00 -0.12324746392E+04  0.12324746392E+04  0.50400001928E-02 0. -1.
    10030    2    1    2    0    0  0.00000000000E+00  0.00000000000E+00  0.14421837955E+03  0.26091676580E+04  0.26051788665E+04 0.  0.
        3    1    3    3  502    0  0.83875041242E+02 -0.40572401520E+03  0.13089462597E+04  0.13729484040E+04  0.10100000352E+00 0.  1.
       -3    1    3    3    0  502 -0.83875041242E+02  0.40572401520E+03 -0.11647278801E+04  0.12362192540E+04  0.10100000352E+00 0. -1.
</event>
<event>
 5   0  0.1116310E-05  0.2587800E+04  0.7818609E-02  0.8372357E-01
       -2   -1    0    0    0  501  0.00000000000E+00  0.00000000000E+00  0.11329611371E+04  0.11329611371E+04  0.25500000920E-02 0. -1.
        2   -1    0    0  501    0  0.00000000000E+00  0.00000000000E+00 -0.14777002850E+04  0.14777002850E+04  0.25500000920E-02 0.  1.
    10030    2    1    2    0    0  0.00000000000E+00  0.00000000000E+00 -0.34473914791E+03  0.26106614221E+04  0.25877998340E+04 0.  0.
        4    1    3    3  502    0  0.95786162619E+03 -0.43084551229E+03  0.58998396143E+03  0.12046615450E+04  0.12699999809E+01 0.  1.
       -4    1    3    3    0  502 -0.95786162619E+03  0.43084551229E+03 -0.93472310934E+03  0.14059998771E+04  0.12699999809E+01 0. -1.
</event>
<event>
 5   0  0.1086507E-05  0.2590752E+04  0.7818609E-02  0.8371349E-01
        2   -1    0    0  501    0  0.00000000000E+00  0.00000000000E+00  0.21913534190E+04  0.21913534190E+04  0.25500000920E-02 0. -1.
       -2   -1    0    0    0  501  0.00000000000E+00  0.00000000000E+00 -0.76573636066E+03  0.76573636067E+03  0.25500000920E-02 0.  1.
    10030    2    1    2    0    0  0.00000000000E+00  0.00000000000E+00  0.14256170583E+04  0.29570897797E+04  0.25907520082E+04 0.  0.
        2    1    3    3  502    0 -0.18446332126E+03  0.42672110039E+03  0.20928582504E+04  0.21438687625E+04  0.25500000920E-02 0. -1.
       -2    1    3    3    0  502  0.18446332126E+03 -0.42672110039E+03 -0.66724119207E+03  0.81322101720E+03  0.25500000920E-02 0.  1.
</event>
<event>
 5   0  0.4361864E-06  0.2545477E+04  0.7818609E-02  0.8386961E-01
        1   -1    0    0  501    0  0.00000000000E+00  0.00000000000E+00  0.14718309796E+04  0.14718309796E+04  0.50400001928E-02 0.  1.
       -1   -1    0    0    0  501  0.00000000000E+00  0.00000000000E+00 -0.11005766265E+04  0.11005766265E+04  0.50400001928E-02 0. -1.
    10030    2    1    2    0    0  0.00000000000E+00  0.00000000000E+00  0.37125435305E+03  0.25724076061E+04  0.25454765953E+04 0.  0.
        3    1    3    3  502    0  0.97519711044E+02 -0.13478905021E+03  0.14607951125E+04  0.14702382640E+04  0.10100000352E+00 0.  1.
       -3    1    3    3    0  502 -0.97519711044E+02  0.13478905021E+03 -0.10895407594E+04  0.11021693421E+04  0.10100000352E+00 0. -1.
</event>
<event>
 5   0  0.1136881E-05  0.2603819E+04  0.7818609E-02  0.8366905E-01
        2   -1    0    0  501    0  0.00000000000E+00  0.00000000000E+00  0.14645757098E+04  0.14645757098E+04  0.25500000920E-02 0.  1.
       -2   -1    0    0    0  501  0.00000000000E+00  0.00000000000E+00 -0.11573098643E+04  0.11573098644E+04  0.25500000920E-02 0. -1.
    10030    2    1    2    0    0  0.00000000000E+00  0.00000000000E+00  0.30726584544E+03  0.26218855741E+04  0.26038186696E+04 0.  0.
        3    1    3    3  502    0  0.31895871623E+03  0.48619331643E+03  0.13265540396E+04  0.14484005778E+04  0.10100000352E+00 0.  1.
       -3    1    3    3    0  502 -0.31895871623E+03 -0.48619331643E+03 -0.10192881942E+04  0.11734849963E+04  0.10100000352E+00 0. -1.
</event>
<event>
 5   0  0.4218590E-06  0.2575318E+04  0.7818609E-02  0.8376634E-01
        1   -1    0    0  501    0  0.00000000000E+00  0.00000000000E+00  0.21808756191E+04  0.21808756191E+04  0.50400001928E-02 0. -1.
       -1   -1    0    0    0  501  0.00000000000E+00  0.00000000000E+00 -0.76027525415E+03  0.76027525417E+03  0.50400001928E-02 0.  1.
    10030    2    1    2    0    0  0.00000000000E+00  0.00000000000E+00  0.14206003649E+04  0.29411508732E+04  0.25753180507E+04 0.  0.
        1    1    3    3  502    0  0.24260627811E+03 -0.23687707156E+03 -0.70837533717E+03  0.78534334628E+03  0.50400001928E-02 0.  1.
       -1    1    3    3    0  502 -0.24260627811E+03  0.23687707156E+03  0.21289757021E+04  0.21558075269E+04  0.50400001928E-02 0. -1.
</event>
<event>
 5   0  0.4464297E-06  0.2591241E+04  0.7818609E-02  0.8371183E-01
        1   -1    0    0  501    0  0.00000000000E+00  0.00000000000E+00  0.12229341951E+04  0.12229341951E+04  0.50400001928E-02 0. -1.
       -1   -1    0    0    0  501  0.00000000000E+00  0.00000000000E+00 -0.13726265767E+04  0.13726265767E+04  0.50400001928E-02 0.  1.
    10030    2    1    2    0    0  0.00000000000E+00  0.00000000000E+00 -0.14969238161E+03  0.25955607717E+04  0.25912406123E+04 0.  0.
        4    1    3    3  502    0 -0.42101757511E+03  0.11206356365E+04  0.42151032439E+03  0.12691542833E+04  0.12699999809E+01 0. -1.
       -4    1    3    3    0  502  0.42101757511E+03 -0.11206356365E+04 -0.57120270600E+03  0.13264064884E+04  0.12699999809E+01 0.  1.
</event>
<event>
 5   0  0.4597705E-06  0.2598983E+04  0.7818609E-02  0.8368547E-01
        1   -1    0    0  501    0  0.00000000000E+00  0.00000000000E+00  0.11504267395E+04  0.11504267395E+04  0.50400001928E-02 0.  1.
       -1   -1    0    0    0  501  0.00000000000E+00  0.00000000000E+00 -0.14678709444E+04  0.14678709444E+04  0.50400001928E-02 0. -1.
    10030    2    1    2    0    0  0.00000000000E+00  0.00000000000E+00 -0.31744420494E+03  0.26182976839E+04  0.25989828661E+04 0.  0.
        5    1    3    3  502    0 -0.13393841041E+03  0.86162575512E+03 -0.11293747945E+04  0.14268314393E+04  0.46999998093E+01 0. -1.
       -5    1    3    3    0  502  0.13393841041E+03 -0.86162575512E+03  0.81193058958E+03  0.11914662446E+04  0.46999998093E+01 0.  1.
</event>
<event>
 5   0  0.1136881E-05  0.2551993E+04  0.7818609E-02  0.8384694E-01
        2   -1    0    0  501    0  0.00000000000E+00  0.00000000000E+00  0.14405235435E+04  0.14405235435E+04  0.25500000920E-02 0. -1.
       -2   -1    0    0    0  501  0.00000000000E+00  0.00000000000E+00 -0.11302602943E+04  0.11302602943E+04  0.25500000920E-02 0.  1.
    10030    2    1    2    0    0  0.00000000000E+00  0.00000000000E+00  0.31026324915E+03  0.25707838378E+04  0.25519926052E+04 0.  0.
        3    1    3    3  502    0  0.62835591421E+02  0.74148525208E+03  0.11993053467E+04  0.14114113558E+04  0.10100000352E+00 0. -1.
       -3    1    3    3    0  502 -0.62835591421E+02 -0.74148525208E+03 -0.88904209754E+03  0.11593724820E+04  0.10100000352E+00 0.  1.
</event>
<event>
 5   0  0.4218590E-06  0.2633169E+04  0.7818609E-02  0.8357021E-01
       -1   -1    0    0    0  501  0.00000000000E+00  0.00000000000E+00  0.11044543974E+04  0.11044543974E+04  0.50400001928E-02 0.  1.
        1   -1    0    0  501    0  0.00000000000E+00  0.00000000000E+00 -0.15694584293E+04  0.15694584293E+04  0.50400001928E-02 0. -1.
    10030    2    1    2    0    0  0.00000000000E+00  0.00000000000E+00 -0.46500403192E+03  0.26739128267E+04  0.26331693935E+04 0.  0.
        1    1    3    3  502    0  0.36988727553E+03  0.77612472686E+03 -0.12450306358E+04  0.15130391509E+04  0.50400001928E-02 0. -1.
       -1    1    3    3    0  502 -0.36988727553E+03 -0.77612472686E+03  0.78002660385E+03  0.11608736757E+04  0.50400001928E-02 0.  1.
</event>
<event>
 5   0  0.1085061E-05  0.2585921E+04  0.7818609E-02  0.8372999E-01
        2   -1    0    0  501    0  0.00000000000E+00  0.00000000000E+00  0.14843499544E+04  0.14843499545E+04  0.25500000920E-02 0. -1.
       -2   -1    0    0    0  501  0.00000000000E+00  0.00000000000E+00 -0.11262484432E+04  0.11262484432E+04  0.25500000920E-02 0.  1.
    10030    2    1    2    0    0  0.00000000000E+00  0.00000000000E+00  0.35810151121E+03  0.26105983977E+04  0.25859209775E+04 0.  0.
        1    1    3    3  502    0  0.67618749928E+03 -0.78629577029E+03 -0.60049442528E+03  0.11983672757E+04  0.50400001928E-02 0.  1.
       -1    1    3    3    0  502 -0.67618749928E+03  0.78629577029E+03  0.95859593649E+03  0.14122311220E+04  0.50400001928E-02 0. -1.
</event>
<event>
 5   0  0.4464297E-06  0.2598186E+04  0.7818609E-02  0.8368818E-01
        1   -1    0    0  501    0  0.00000000000E+00  0.00000000000E+00  0.19083476227E+04  0.19083476227E+04  0.50400001928E-02 0.  1.
       -1   -1    0    0    0  501  0.00000000000E+00  0.00000000000E+00 -0.88434725860E+03  0.88434725862E+03  0.50400001928E-02 0. -1.
    10030    2    1    2    0    0  0.00000000000E+00  0.00000000000E+00  0.10240003641E+04  0.27926948813E+04  0.25981855119E+04 0.  0.
        4    1    3    3  502    0  0.53214005359E+03  0.98678742108E+03 -0.19342312590E+03  0.11376891357E+04  0.12699999809E+01 0. -1.
       -4    1    3    3    0  502 -0.53214005359E+03 -0.98678742108E+03  0.12174234900E+04  0.16550057456E+04  0.12699999809E+01 0.  1.
</event>
<event>
 5   0  0.4597705E-06  0.2609179E+04  0.7818609E-02  0.8365090E-01
        1   -1    0    0  501    0  0.00000000000E+00  0.00000000000E+00  0.16209433800E+04  0.16209433800E+04  0.50400001928E-02 0. -1.
       -1   -1    0    0    0  501  0.00000000000E+00  0.00000000000E+00 -0.10499770509E+04  0.10499770509E+04  0.50400001928E-02 0.  1.
    10030    2    1    2    0    0  0.00000000000E+00  0.00000000000E+00  0.57096632912E+03  0.26709204310E+04  0.26091786829E+04 0.  0.
        5    1    3    3  502    0 -0.46388073434E+03 -0.99929931573E+02 -0.95849305679E+03  0.10695337100E+04  0.46999998093E+01 0.  1.
       -5    1    3    3    0  502  0.46388073434E+03  0.99929931573E+02  0.15294593859E+04  0.16013867210E+04  0.46999998093E+01 0. -1.
</event>
<event>
 5   0  0.4415080E-06  0.2597929E+04  0.7818609E-02  0.8368905E-01
        1   -1    0    0  501    0  0.00000000000E+00  0.00000000000E+00  0.21050954684E+04  0.21050954684E+04  0.50400001928E-02 0.  1.
       -1   -1    0    0    0  501  0.00000000000E+00  0.00000000000E+00 -0.80153557872E+03  0.80153557873E+03  0.50400001928E-02 0. -1.
    10030    2    1    2    0    0  0.00000000000E+00  0.00000000000E+00  0.13035598897E+04  0.29066310471E+04  0.25979291095E+04 0.  0.
        2    1    3    3  502    0  0.12234365496E+04 -0.64533749934E+02  0.16880546200E+03  0.12367121249E+04  0.25500000920E-02 0. -1.
       -2    1    3    3    0  502 -0.12234365496E+04  0.64533749934E+02  0.11347544277E+04  0.16699189222E+04  0.25500000920E-02 0.  1.
</event>
<event>
 5   0  0.4464297E-06  0.2604749E+04  0.7818609E-02  0.8366590E-01
        1   -1    0    0  501    0  0.00000000000E+00  0.00000000000E+00  0.13169940538E+04  0.13169940538E+04  0.50400001928E-02 0. -1.
       -1   -1    0    0    0  501  0.00000000000E+00  0.00000000000E+00 -0.12879176423E+04  0.12879176423E+04  0.50400001928E-02 0.  1.
    10030    2    1    2    0    0  0.00000000000E+00  0.00000000000E+00  0.29076411464E+02  0.26049116962E+04  0.26047494135E+04 0.  0.
        4    1    3    3  502    0 -0.99962786657E+03 -0.74029790494E+03 -0.37133736508E+03  0.12981486476E+04  0.12699999809E+01 0. -1.
       -4    1    3    3    0  502  0.99962786657E+03  0.74029790494E+03  0.40041377655E+03  0.13067630485E+04  0.12699999809E+01 0.  1.
</event>
<event>
 5   0  0.4597705E-06  0.2597937E+04  0.7818609E-02  0.8368902E-01
       -1   -1    0    0    0  501  0.00000000000E+00  0.00000000000E+00  0.92128064473E+03  0.92128064474E+03  0.50400001928E-02 0.  1.
        1   -1    0    0  501    0  0.00000000000E+00  0.00000000000E+00 -0.18314927739E+04  0.18314927739E+04  0.50400001928E-02 0. -1.
    10030    2    1    2    0    0  0.00000000000E+00  0.00000000000E+00 -0.91021212919E+03  0.27527734187E+04  0.25979367533E+04 0.  0.
        5    1    3    3  502    0 -0.54184583981E+03  0.11712012682E+04 -0.29798691686E+03  0.13244348294E+04  0.46999998093E+01 0.  1.
       -5    1    3    3    0  502  0.54184583981E+03 -0.11712012682E+04 -0.61222521234E+03  0.14283385892E+04  0.46999998093E+01 0. -1.
</event>
<event>
 5   0  0.1086507E-05  0.2672850E+04  0.7818609E-02  0.8343868E-01
        2   -1    0    0  501    0  0.00000000000E+00  0.00000000000E+00  0.18175315124E+04  0.18175315124E+04  0.25500000920E-02 0.  1.
       -2   -1    0    0    0  501  0.00000000000E+00  0.00000000000E+00 -0.98266886194E+03  0.98266886195E+03  0.25500000920E-02 0. -1.
    10030    2    1    2    0    0  0.00000000000E+00  0.00000000000E+00  0.83486265041E+03  0.28002003743E+04  0.26728498819E+04 0.  0.
        2    1    3    3  502    0  0.66120649152E+03  0.65563955851E+03  0.14217377492E+04  0.16995280176E+04  0.25500000920E-02 0.  1.
       -2    1    3    3    0  502 -0.66120649152E+03 -0.65563955851E+03 -0.58687509883E+03  0.11006723567E+04  0.25500000920E-02 0. -1.
</event>
<event>
 5   0  0.4218590E-06  0.2604675E+04  0.7818609E-02  0.8366615E-01
       -1   -1    0    0    0  501  0.00000000000E+00  0.00000000000E+00  0.18856022656E+04  0.18856022656E+04  0.50400001928E-02 0.  1.
        1   -1    0    0  501    0  0.00000000000E+00  0.00000000000E+00 -0.89949161353E+03  0.89949161355E+03  0.50400001928E-02 0. -1.
    10030    2    1    2    0    0  0.00000000000E+00  0.00000000000E+00  0.98611065203E+03  0.27850938791E+04  0.26046753536E+04 0.  0.
        1    1    3    3  502    0  0.18635857158E+03  0.11294611415E+04  0.11570964503E+04  0.16276621832E+04  0.50400001928E-02 0. -1.
       -1    1    3    3    0  502 -0.18635857158E+03 -0.11294611415E+04 -0.17098579825E+03  0.11574316959E+04  0.50400001928E-02 0.  1.
</event>
<event>
 5   0  0.4218590E-06  0.2596997E+04  0.7818609E-02  0.8369222E-01
       -1   -1    0    0    0  501  0.00000000000E+00  0.00000000000E+00  0.21026382967E+04  0.21026382967E+04  0.50400001928E-02 0. -1.
        1   -1    0    0  501    0  0.00000000000E+00  0.00000000000E+00 -0.80189633958E+03  0.80189633960E+03  0.50400001928E-02 0.  1.
    10030    2    1    2    0    0  0.00000000000E+00  0.00000000000E+00  0.13007419572E+04  0.29045346363E+04  0.25969966913E+04 0.  0.
        1    1    3    3  502    0 -0.44443749071E+03  0.69495155951E+03 -0.47118554161E+03  0.94999903572E+03  0.50400001928E-02 0.  1.
       -1    1    3    3    0  502  0.44443749071E+03 -0.69495155951E+03  0.17719274988E+04  0.19545356006E+04  0.50400001928E-02 0. -1.
</event>
<event>
 5   0  0.4218590E-06  0.2592951E+04  0.7818609E-02  0.8370599E-01
       -1   -1    0    0    0  501  0.00000000000E+00  0.00000000000E+00  0.11178630284E+04  0.11178630284E+04  0.50400001928E-02 0.  1.
        1   -1    0    0  501    0  0.00000000000E+00  0.00000000000E+00 -0.15036270038E+04  0.15036270038E+04  0.50400001928E-02 0. -1.
    10030    2    1    2    0    0  0.00000000000E+00  0.00000000000E+00 -0.38576397545E+03  0.26214900322E+04  0.25929512421E+04 0.  0.
        1    1    3    3  502    0 -0.36330851225E+03  0.82223356083E+03 -0.11373956118E+04  0.14497344176E+04  0.50400001928E-02 0. -1.
       -1    1    3    3    0  502  0.36330851225E+03 -0.82223356083E+03  0.75163163637E+03  0.11717556146E+04  0.50400001928E-02 0.  1.
</event>
<event>
 5   0  0.1116310E-05  0.2612733E+04  0.7818609E-02  0.8363889E-01
       -2   -1    0    0    0  501  0.00000000000E+00  0.00000000000E+00  0.75899277886E+03  0.75899277887E+03  0.25500000920E-02 0.  1.
        2   -1    0    0  501    0  0.00000000000E+00  0.00000000000E+00 -0.22484968653E+04  0.22484968653E+04  0.25500000920E-02 0. -1.
    10030    2    1    2    0    0  0.00000000000E+00  0.00000000000E+00 -0.14895040865E+04  0.30074896442E+04  0.26127325803E+04 0.  0.
        4    1    3    3  502    0  0.16409971906E+03  0.32711917569E+03  0.69877854960E+03  0.78881477368E+03  0.12699999809E+01 0.  1.
       -4    1    3    3    0  502 -0.16409971906E+03 -0.32711917569E+03 -0.21882826360E+04  0.22186748705E+04  0.12699999809E+01 0. -1.
</event>
<event>
 5   0  0.4361864E-06  0.2597167E+04  0.7818609E-02  0.8369164E-01
        1   -1    0    0  501    0  0.00000000000E+00  0.00000000000E+00  0.66516388577E+03  0.66516388579E+03  0.50400001928E-02 0. -1.
       -1   -1    0    0    0  501  0.00000000000E+00  0.00000000000E+00 -0.25351932456E+04  0.25351932456E+04  0.50400001928E-02 0.  1.
    10030    2    1    2    0    0  0.00000000000E+00  0.00000000000E+00 -0.18700293598E+04  0.32003571314E+04  0.25971669107E+04 0.  0.
        3    1    3    3  502    0  0.55543684445E+03  0.31233699288E+03  0.45925485484E+03  0.78548043718E+03  0.10100000352E+00 0. -1.
       -3    1    3    3    0  502 -0.55543684445E+03 -0.31233699288E+03 -0.23292842147E+04  0.24148766942E+04  0.10100000352E+00 0.  1.
</event>
<event>
 5   0  0.1116310E-05  0.2716587E+04  0.7818609E-02  0.8329643E-01
       -2   -1    0    0    0  501  0.00000000000E+00  0.00000000000E+00  0.17702495205E+04  0.17702495205E+04  0.25500000920E-02 0.  1.
        2   -1    0    0  501    0  0.00000000000E+00  0.00000000000E+00 -0.10422037237E+04  0.10422037237E+04  0.25500000920E-02 0. -1.
    10030    2    1    2    0    0  0.00000000000E+00  0.00000000000E+00  0.72804579676E+03  0.28124532442E+04  0.27165865657E+04 0.  0.
        4    1    3    3  502    0 -0.72563986844E+03  0.87591062545E+03 -0.40459590364E+03  0.12072580920E+04  0.12699999809E+01 0. -1.
       -4    1    3    3    0  502  0.72563986844E+03 -0.87591062545E+03  0.11326417004E+04  0.16051951523E+04  0.12699999809E+01 0.  1.
</event>
<event>
 5   0  0.1136881E-05  0.2606086E+04  0.7818609E-02  0.8366137E-01
        2   -1    0    0  501    0  0.00000000000E+00  0.00000000000E+00  0.16523126578E+04  0.16523126578E+04  0.25500000920E-02 0. -1.
       -2   -1    0    0    0  501  0.00000000000E+00  0.00000000000E+00 -0.10276027059E+04  0.10276027059E+04  0.25500000920E-02 0.  1.
    10030    2    1    2    0    0  0.00000000000E+00  0.00000000000E+00  0.62470995195E+03  0.26799153637E+04  0.26060859219E+04 0.  0.
        3    1    3    3  502    0  0.55499664655E+03 -0.16797303611E+03  0.15123256482E+04  0.16196805534E+04  0.10100000352E+00 0. -1.
       -3    1    3    3    0  502 -0.55499664655E+03  0.16797303611E+03 -0.88761569626E+03  0.10602348103E+04  0.10100000352E+00 0.  1.
</event>
<event>
 5   0  0.1085061E-05  0.2310728E+04  0.7818609E-02  0.8473703E-01
       -2   -1    0    0    0  501  0.00000000000E+00  0.00000000000E+00  0.11124385863E+04  0.11124385863E+04  0.25500000920E-02 0.  1.
        2   -1    0    0  501    0  0.00000000000E+00  0.00000000000E+00 -0.11999461185E+04  0.11999461185E+04  0.25500000920E-02 0. -1.
    10030    2    1    2    0    0  0.00000000000E+00  0.00000000000E+00 -0.87507532208E+02  0.23123847048E+04  0.23107283386E+04 0.  0.
        1    1    3    3  502    0 -0.22761972323E+03  0.74708081505E+03 -0.89578987449E+03  0.11884359393E+04  0.50400001928E-02 0. -1.
       -1    1    3    3    0  502  0.22761972323E+03 -0.74708081505E+03  0.80828234228E+03  0.11239487655E+04  0.50400001928E-02 0.  1.
</event>
<event>
 5   0  0.1116310E-05  0.2580664E+04  0.7818609E-02  0.8374799E-01
       -2   -1    0    0    0  501  0.00000000000E+00  0.00000000000E+00  0.97347698806E+03  0.97347698806E+03  0.25500000920E-02 0. -1.
        2   -1    0    0  501    0  0.00000000000E+00  0.00000000000E+00 -0.17103200334E+04  0.17103200334E+04  0.25500000920E-02 0.  1.
    10030    2    1    2    0    0  0.00000000000E+00  0.00000000000E+00 -0.73684304539E+03  0.26837970215E+04  0.25806644065E+04 0.  0.
        4    1    3    3  502    0 -0.56714201772E+03  0.11534222220E+04 -0.48664252044E+03  0.13743563752E+04  0.12699999809E+01 0.  1.
       -4    1    3    3    0  502  0.56714201772E+03 -0.11534222220E+04 -0.25020052495E+03  0.13094406463E+04  0.12699999809E+01 0. -1.
</event>
<event>
 5   0  0.4361864E-06  0.2545625E+04  0.7818609E-02  0.8386909E-01
        1   -1    0    0  501    0  0.00000000000E+00  0.00000000000E+00  0.25630444008E+04  0.25630444008E+04  0.50400001928E-02 0.  1.
       -1   -1    0    0    0  501  0.00000000000E+00  0.00000000000E+00 -0.63208083732E+03  0.63208083734E+03  0.50400001928E-02 0. -1.
    10030    2    1    2    0    0  0.00000000000E+00  0.00000000000E+00  0.19309635634E+04  0.31951252381E+04  0.25456246785E+04 0.  0.
        3    1    3    3  502    0  0.13989876176E+03  0.86643660947E+03  0.21225087712E+04  0.22968081234E+04  0.10100000352E+00 0.  1.
       -3    1    3    3    0  502 -0.13989876176E+03 -0.86643660947E+03 -0.19154520774E+03  0.89831711471E+03  0.10100000352E+00 0. -1.
</event>
<event>
 5   0  0.1136881E-05  0.2607262E+04  0.7818609E-02  0.8365739E-01
        2   -1    0    0  501    0  0.00000000000E+00  0.00000000000E+00  0.18548153741E+04  0.18548153741E+04  0.25500000920E-02 0. -1.
       -2   -1    0    0    0  501  0.00000000000E+00  0.00000000000E+00 -0.91623893025E+03  0.91623893025E+03  0.25500000920E-02 0.  1.
    10030    2    1    2    0    0  0.00000000000E+00  0.00000000000E+00  0.93857644389E+03  0.27710543044E+04  0.26072622072E+04 0.  0.
        3    1    3    3  502    0  0.70321968998E+03 -0.49998788173E+03  0.15078928207E+04  0.17373101574E+04  0.10100000352E+00 0. -1.
       -3    1    3    3    0  502 -0.70321968998E+03  0.49998788173E+03 -0.56931637681E+03  0.10337441470E+04  0.10100000352E+00 0.  1.
</event>
<event>
 5   0  0.4361864E-06  0.2676353E+04  0.7818609E-02  0.8342718E-01
        1   -1    0    0  501    0  0.00000000000E+00  0.00000000000E+00  0.16234287291E+04  0.16234287291E+04  0.50400001928E-02 0. -1.
       -1   -1    0    0    0  501  0.00000000000E+00  0.00000000000E+00 -0.11030462175E+04  0.11030462176E+04  0.50400001928E-02 0.  1.
    10030    2    1    2    0    0  0.00000000000E+00  0.00000000000E+00  0.52038251152E+03  0.27264749466E+04  0.26763534289E+04 0.  0.
        3    1    3    3  502    0  0.89089519547E+03  0.18247649128E+03 -0.73988843405E+03  0.11723595115E+04  0.10100000352E+00 0.  1.
       -3    1    3    3    0  502 -0.89089519547E+03 -0.18247649128E+03  0.12602709456E+04  0.15541154351E+04  0.10100000352E+00 0. -1.
</event>
<event>
 5   0  0.1116310E-05  0.2402789E+04  0.7818609E-02  0.8438460E-01
        2   -1    0    0  501    0  0.00000000000E+00  0.00000000000E+00  0.87739864842E+03  0.87739864842E+03  0.25500000920E-02 0. -1.
       -2   -1    0    0    0  501  0.00000000000E+00  0.00000000000E+00 -0.16450321926E+04  0.16450321926E+04  0.25500000920E-02 0.  1.
    10030    2    1    2    0    0  0.00000000000E+00  0.00000000000E+00 -0.76763354416E+03  0.25224308410E+04  0.24027892312E+04 0.  0.
        4    1    3    3  502    0 -0.74792503161E+03  0.65239814651E+03 -0.10945289921E+04  0.14775014457E+04  0.12699999809E+01 0.  1.
       -4    1    3    3    0  502  0.74792503161E+03 -0.65239814651E+03  0.32689544794E+03  0.10449293953E+04  0.12699999809E+01 0. -1.
</event>
<event>
 5   0  0.1086507E-05  0.2609555E+04  0.7818609E-02  0.8364963E-01
       -2   -1    0    0    0  501  0.00000000000E+00  0.00000000000E+00  0.14704322748E+04  0.14704322748E+04  0.25500000920E-02 0.  1.
        2   -1    0    0  501    0  0.00000000000E+00  0.00000000000E+00 -0.11577847915E+04  0.11577847915E+04  0.25500000920E-02 0. -1.
    10030    2    1    2    0    0  0.00000000000E+00  0.00000000000E+00  0.31264748326E+03  0.26282170663E+04  0.26095548469E+04 0.  0.
        2    1    3    3  502    0  0.80830280490E+03  0.99504199486E+03  0.40092293665E+03  0.13432055677E+04  0.25500000920E-02 0.  1.
       -2    1    3    3    0  502 -0.80830280490E+03 -0.99504199486E+03 -0.88275453387E+02  0.12850114986E+04  0.25500000920E-02 0. -1.
</event>
<event>
 5   0  0.1085061E-05  0.2604697E+04  0.7818609E-02  0.8366608E-01
       -2   -1    0    0    0  501  0.00000000000E+00  0.00000000000E+00  0.96862441919E+03  0.96862441919E+03  0.25500000920E-02 0.  1.
        2   -1    0    0  501    0  0.00000000000E+00  0.00000000000E+00 -0.17510513477E+04  0.17510513477E+04  0.25500000920E-02 0. -1.
    10030    2    1    2    0    0  0.00000000000E+00  0.00000000000E+00 -0.78242692851E+03  0.27196757669E+04  0.26046966001E+04 0.  0.
        1    1    3    3  502    0 -0.94904599365E+03 -0.76489723782E+03 -0.87010418350E+03  0.14976105544E+04  0.50400001928E-02 0.  1.
       -1    1    3    3    0  502  0.94904599365E+03  0.76489723782E+03  0.87677254998E+02  0.12220652125E+04  0.50400001928E-02 0. -1.
</event>
<event>
 5   0  0.1136881E-05  0.2596341E+04  0.7818609E-02  0.8369445E-01
       -2   -1    0    0    0  501  0.00000000000E+00  0.00000000000E+00  0.99265215830E+03  0.99265215830E+03  0.25500000920E-02 0. -1.
        2   -1    0    0  501    0  0.00000000000E+00  0.00000000000E+00 -0.16977212525E+04  0.16977212525E+04  0.25500000920E-02 0.  1.
    10030    2    1    2    0    0  0.00000000000E+00  0.00000000000E+00 -0.70506909419E+03  0.26903734108E+04  0.25963410142E+04 0.  0.
        3    1    3    3  502    0 -0.83684032337E+03 -0.60722540450E+02 -0.13789953445E+04  0.16141924061E+04  0.10100000352E+00 0.  1.
       -3    1    3    3    0  502  0.83684032337E+03  0.60722540450E+02  0.67392625030E+03  0.10761810047E+04  0.10100000352E+00 0. -1.
</event>
<event>
 5   0  0.1086507E-05  0.2605758E+04  0.7818609E-02  0.8366248E-01
       -2   -1    0    0    0  501  0.00000000000E+00  0.00000000000E+00  0.88396077199E+03  0.88396077200E+03  0.25500000920E-02 0.  1.
        2   -1    0    0  501    0  0.00000000000E+00  0.00000000000E+00 -0.19203272215E+04  0.19203272215E+04  0.25500000920E-02 0. -1.
    10030    2    1    2    0    0  0.00000000000E+00  0.00000000000E+00 -0.10363664495E+04  0.28042879935E+04  0.26057581877E+04 0.  0.
        2    1    3    3  502    0 -0.24433282442E+03  0.86236526035E+02 -0.18923203703E+04  0.19099768720E+04  0.25500000920E-02 0. -1.
       -2    1    3    3    0  502  0.24433282442E+03 -0.86236526035E+02  0.85595392082E+03  0.89431112153E+03  0.25500000920E-02 0.  1.
</event>
<event>
 5   0  0.4415080E-06  0.2592306E+04  0.7818609E-02  0.8370819E-01
       -1   -1    0    0    0  501  0.00000000000E+00  0.00000000000E+00  0.14362264145E+04  0.14362264146E+04  0.50400001928E-02 0. -1.
        1   -1    0    0  501    0  0.00000000000E+00  0.00000000000E+00 -0.11697406239E+04  0.11697406239E+04  0.50400001928E-02 0.  1.
    10030    2    1    2    0    0  0.00000000000E+00  0.00000000000E+00  0.26648579066E+03  0.26059670385E+04  0.25923058324E+04 0.  0.
        2    1    3    3  502    0 -0.50736492742E+03  0.11886098977E+04  0.23275813586E+03  0.13131599325E+04  0.25500000920E-02 0. -1.
       -2    1    3    3    0  502  0.50736492742E+03 -0.11886098977E+04  0.33727654798E+02  0.12928071060E+04  0.25500000920E-02 0.  1.
</event>
<event>
 5   0  0.4415080E-06  0.2643101E+04  0.7818609E-02  0.8353706E-01
       -1   -1    0    0    0  501  0.00000000000E+00  0.00000000000E+00  0.10480072718E+04  0.10480072718E+04  0.50400001928E-02 0. -1.
        1   -1    0    0  501    0  0.00000000000E+00  0.00000000000E+00 -0.16664917427E+04  0.16664917427E+04  0.50400001928E-02 0.  1.
    10030    2    1    2    0    0  0.00000000000E+00  0.00000000000E+00 -0.61848447088E+03  0.27144990145E+04  0.26431008038E+04 0.  0.
        2    1    3    3  502    0  0.43714711143E+03  0.13674668083E+03 -0.15823649147E+04  0.16473238828E+04  0.25500000920E-02 0.  1.
       -2    1    3    3    0  502 -0.43714711143E+03 -0.13674668083E+03  0.96388044377E+03  0.10671751317E+04  0.25500000920E-02 0. -1.
</event>
<event>
 5   0  0.4464297E-06  0.2578395E+04  0.7818609E-02  0.8375577E-01
       -1   -1    0    0    0  501  0.00000000000E+00  0.00000000000E+00  0.15459437163E+04  0.15459437164E+04  0.50400001928E-02 0.  1.
        1   -1    0    0  501    0  0.00000000000E+00  0.00000000000E+00 -0.10750912136E+04  0.10750912136E+04  0.50400001928E-02 0. -1.
    10030    2    1    2    0    0  0.00000000000E+00  0.00000000000E+00  0.47085250275E+03  0.26210349300E+04  0.25783952421E+04 0.  0.
        4    1    3    3  502    0 -0.55532288873E+03 -0.10138744436E+04 -0.34471648683E+03  0.12062984570E+04  0.12699999809E+01 0. -1.
       -4    1    3    3    0  502  0.55532288873E+03  0.10138744436E+04  0.81556898959E+03  0.14147364729E+04  0.12699999809E+01 0.  1.
</event>
<event>
 5   0  0.4597705E-06  0.2626431E+04  0.7818609E-02  0.8359278E-01
        1   -1    0    0  501    0  0.00000000000E+00  0.00000000000E+00  0.21606070706E+04  0.21606070706E+04  0.50400001928E-02 0.  1.
       -1   -1    0    0    0  501  0.00000000000E+00  0.00000000000E+00 -0.79817126123E+03  0.79817126125E+03  0.50400001928E-02 0. -1.
    10030    2    1    2    0    0  0.00000000000E+00  0.00000000000E+00  0.13624358094E+04  0.29587783319E+04  0.26264306354E+04 0.  0.
        5    1    3    3  502    0  0.65602891245E+03  0.10800647872E+04  0.27880742491E+03  0.12940902398E+04  0.46999998093E+01 0.  1.
       -5    1    3    3    0  502 -0.65602891245E+03 -0.10800647872E+04  0.10836283845E+04  0.16646880921E+04  0.46999998093E+01 0. -1.
</event>
<event>
 5   0  0.4597705E-06  0.2553623E+04  0.7818609E-02  0.8384127E-01
        1   -1    0    0  501    0  0.00000000000E+00  0.00000000000E+00  0.13482289595E+04  0.13482289595E+04  0.50400001928E-02 0. -1.
       -1   -1    0    0    0  501  0.00000000000E+00  0.00000000000E+00 -0.12091773254E+04  0.12091773254E+04  0.50400001928E-02 0.  1.
    10030    2    1    2    0    0  0.00000000000E+00  0.00000000000E+00  0.13905163408E+03  0.25574062849E+04  0.25536232199E+04 0.  0.
        5    1    3    3  502    0 -0.40673802631E+03 -0.11756080831E+04  0.35758992290E+03  0.12943658023E+04  0.46999998093E+01 0. -1.
       -5    1    3    3    0  502  0.40673802631E+03  0.11756080831E+04 -0.21853828881E+03  0.12630404826E+04  0.46999998093E+01 0.  1.
</event>
<event>
 5   0  0.1136881E-05  0.2601284E+04  0.7818609E-02  0.8367765E-01
       -2   -1    0    0    0  501  0.00000000000E+00  0.00000000000E+00  0.97255583509E+03  0.97255583509E+03  0.25500000920E-02 0. -1.
        2   -1    0    0  501    0  0.00000000000E+00  0.00000000000E+00 -0.17394066071E+04  0.17394066071E+04  0.25500000920E-02 0.  1.
    10030    2    1    2    0    0  0.00000000000E+00  0.00000000000E+00 -0.76685077204E+03  0.27119624422E+04  0.26012843331E+04 0.  0.
        3    1    3    3  502    0 -0.28247107402E+02 -0.12597225649E+04 -0.71959028518E+03  0.14510372250E+04  0.10100000352E+00 0.  1.
       -3    1    3    3    0  502  0.28247107402E+02  0.12597225649E+04 -0.47260486856E+02  0.12609252172E+04  0.10100000352E+00 0. -1.
</event>
<event>
 5   0  0.1136881E-05  0.2610870E+04  0.7818609E-02  0.8364518E-01
        2   -1    0    0  501    0  0.00000000000E+00  0.00000000000E+00  0.19350488158E+04  0.19350488158E+04  0.25500000920E-02 0. -1.
       -2   -1    0    0    0  501  0.00000000000E+00  0.00000000000E+00 -0.88068100851E+03  0.88068100852E+03  0.25500000920E-02 0.  1.
    10030    2    1    2    0    0  0.00000000000E+00  0.00000000000E+00  0.10543678072E+04  0.28157298243E+04  0.26108701558E+04 0.  0.
        3    1    3    3  502    0 -0.90947317393E+03  0.16893929179E+03  0.15205885871E+04  0.17798515668E+04  0.10100000352E+00 0. -1.
       -3    1    3    3    0  502  0.90947317393E+03 -0.16893929179E+03 -0.46622077991E+03  0.10358782574E+04  0.10100000352E+00 0.  1.
</event>
<event>
 5   0  0.4597705E-06  0.2624971E+04  0.7818609E-02  0.8359768E-01
       -1   -1    0    0    0  501  0.00000000000E+00  0.00000000000E+00  0.11996771610E+04  0.11996771610E+04  0.50400001928E-02 0.  1.
        1   -1    0    0  501    0  0.00000000000E+00  0.00000000000E+00 -0.14359017531E+04  0.14359017531E+04  0.50400001928E-02 0. -1.
    10030    2    1    2    0    0  0.00000000000E+00  0.00000000000E+00 -0.23622459215E+03  0.26355789141E+04  0.26249712674E+04 0.  0.
        5    1    3    3  502    0 -0.48328330253E+03 -0.94248195918E+02 -0.13396432545E+04  0.14272741896E+04  0.46999998093E+01 0. -1.
       -5    1    3    3    0  502  0.48328330253E+03  0.94248195918E+02  0.11034186623E+04  0.12083047245E+04  0.46999998093E+01 0.  1.
</event>
<event>
 5   0  0.1085061E-05  0.2569774E+04  0.7818609E-02  0.8378542E-01
       -2   -1    0    0    0  501  0.00000000000E+00  0.00000000000E+00  0.25947272639E+04  0.25947272639E+04  0.25500000920E-02 0. -1.
        2   -1    0    0  501    0  0.00000000000E+00  0.00000000000E+00 -0.63626494344E+03  0.63626494344E+03  0.25500000920E-02 0.  1.
    10030    2    1    2    0    0  0.00000000000E+00  0.00000000000E+00  0.19584623205E+04  0.32309922074E+04  0.25697735276E+04 0.  0.
        1    1    3    3  502    0 -0.27722791053E+03  0.87553804750E+03 -0.15060507932E+03  0.93064712805E+03  0.50400001928E-02 0.  1.
       -1    1    3    3    0  502  0.27722791053E+03 -0.87553804750E+03  0.21090673998E+04  0.23003450793E+04  0.50400001928E-02 0. -1.
</event>
<event>
 5   0  0.4415080E-06  0.2636154E+04  0.7818609E-02  0.8356023E-01
       -1   -1    0    0    0  501  0.00000000000E+00  0.00000000000E+00  0.78121319865E+03  0.78121319867E+03  0.50400001928E-02 0. -1.
        1   -1    0    0  501    0  0.00000000000E+00  0.00000000000E+00 -0.22238838979E+04  0.22238838979E+04  0.50400001928E-02 0.  1.
    10030    2    1    2    0    0  0.00000000000E+00  0.00000000000E+00 -0.14426706992E+04  0.30050970965E+04  0.26361543607E+04 0.  0.
        2    1    3    3  502    0  0.62528338952E+03  0.80271307208E+03  0.23378079199E+03  0.10440215764E+04  0.25500000920E-02 0. -1.
       -2    1    3    3    0  502 -0.62528338952E+03 -0.80271307208E+03 -0.16764514912E+04  0.19610755201E+04  0.25500000920E-02 0.  1.
</event>
<event>
 5   0  0.1136881E-05  0.2614063E+04  0.7818609E-02  0.8363440E-01
        2   -1    0    0  501    0  0.00000000000E+00  0.00000000000E+00  0.15393826332E+04  0.15393826332E+04  0.25500000920E-02 0.  1.
       -2   -1    0    0    0  501  0.00000000000E+00  0.00000000000E+00 -0.11097512189E+04  0.11097512189E+04  0.25500000920E-02 0. -1.
    10030    2    1    2    0    0  0.00000000000E+00  0.00000000000E+00  0.42963141431E+03  0.26491338521E+04  0.26140633149E+04 0.  0.
        3    1    3    3  502    0 -0.30438956283E+02 -0.88502113771E+03  0.11890363820E+04  0.14825641545E+04  0.10100000352E+00 0.  1.
       -3    1    3    3    0  502  0.30438956283E+02  0.88502113771E+03 -0.75940496769E+03  0.11665696976E+04  0.10100000352E+00 0. -1.
</event>
<event>
 5   0  0.1116310E-05  0.2601804E+04  0.7818609E-02  0.8367589E-01
       -2   -1    0    0    0  501  0.00000000000E+00  0.00000000000E+00  0.96968436788E+03  0.96968436789E+03  0.25500000920E-02 0. -1.
        2   -1    0    0  501    0  0.00000000000E+00  0.00000000000E+00 -0.17452548503E+04  0.17452548503E+04  0.25500000920E-02 0.  1.
    10030    2    1    2    0    0  0.00000000000E+00  0.00000000000E+00 -0.77557048242E+03  0.27149392182E+04  0.26018042558E+04 0.  0.
        4    1    3    3  502    0  0.41594900160E+03 -0.36965531078E+03 -0.16147929517E+04  0.17079860979E+04  0.12699999809E+01 0.  1.
       -4    1    3    3    0  502 -0.41594900160E+03  0.36965531078E+03  0.83922246928E+03  0.10069531203E+04  0.12699999809E+01 0. -1.
</event>
<event>
 5   0  0.1085255E-05  0.2704217E+04  0.7818609E-02  0.8333638E-01
        2   -1    0    0  501    0  0.00000000000E+00  0.00000000000E+00  0.28335296026E+04  0.28335296026E+04  0.25500000920E-02 0.  1.
       -2   -1    0    0    0  501  0.00000000000E+00  0.00000000000E+00 -0.64520132592E+03  0.64520132593E+03  0.25500000920E-02 0. -1.
    10030    2    1    2    0    0  0.00000000000E+00  0.00000000000E+00  0.21883282766E+04  0.34787309285E+04  0.27042167492E+04 0.  0.
        5    1    3    3  502    0 -0.50106607351E+03  0.31782845347E+03 -0.46875379894E+03  0.75619729560E+03  0.46999998093E+01 0. -1.
       -5    1    3    3    0  502  0.50106607351E+03 -0.31782845347E+03  0.26570820756E+04  0.27225336329E+04  0.46999998093E+01 0.  1.
</event>
<event>
 5   0  0.4218590E-06  0.2598909E+04  0.7818609E-02  0.8368572E-01
        1   -1    0    0  501    0  0.00000000000E+00  0.00000000000E+00  0.15192301381E+04  0.15192301381E+04  0.50400001928E-02 0. -1.
       -1   -1    0    0    0  501  0.00000000000E+00  0.00000000000E+00 -0.11114725205E+04  0.11114725205E+04  0.50400001928E-02 0.  1.
    10030    2    1    2    0    0  0.00000000000E+00  0.00000000000E+00  0.40775761758E+03  0.26307026586E+04  0.25989094257E+04 0.  0.
        1    1    3    3  502    0 -0.95117429660E+03 -0.46792841866E+01  0.11000501209E+04  0.14542574417E+04  0.50400001928E-02 0. -1.
       -1    1    3    3    0  502  0.95117429660E+03  0.46792841866E+01 -0.69229250330E+03  0.11764452169E+04  0.50400001928E-02 0.  1.
</event>
<event>
 5   0  0.4361864E-06  0.2586750E+04  0.7818609E-02  0.8372716E-01
       -1   -1    0    0    0  501  0.00000000000E+00  0.00000000000E+00  0.13622024184E+04  0.13622024184E+04  0.50400001928E-02 0. -1.
        1   -1    0    0  501    0  0.00000000000E+00  0.00000000000E+00 -0.12280254351E+04  0.12280254351E+04  0.50400001928E-02 0.  1.
    10030    2    1    2    0    0  0.00000000000E+00  0.00000000000E+00  0.13417698325E+03  0.25902278535E+04  0.25867502528E+04 0.  0.
        3    1    3    3  502    0  0.63669999881E+03  0.81412180810E+03 -0.71154160776E+03  0.12547799316E+04  0.10100000352E+00 0.  1.
       -3    1    3    3    0  502 -0.63669999881E+03 -0.81412180810E+03  0.84571859101E+03  0.13354479220E+04  0.10100000352E+00 0. -1.
</event>
<event>
 5   0  0.4464297E-06  0.2615231E+04  0.7818609E-02  0.8363046E-01
        1   -1    0    0  501    0  0.00000000000E+00  0.00000000000E+00  0.16325054381E+04  0.16325054381E+04  0.50400001928E-02 0. -1.
       -1   -1    0    0    0  501  0.00000000000E+00  0.00000000000E+00 -0.10473828275E+04  0.10473828276E+04  0.50400001928E-02 0.  1.
    10030    2    1    2    0    0  0.00000000000E+00  0.00000000000E+00  0.58512261058E+03  0.26798882657E+04  0.26152308975E+04 0.  0.
        4    1    3    3  502    0  0.48131707542E+03 -0.59900924244E+03  0.13767255987E+04  0.15766588682E+04  0.12699999809E+01 0. -1.
       -4    1    3    3    0  502 -0.48131707542E+03  0.59900924244E+03 -0.79160298816E+03  0.11032293974E+04  0.12699999809E+01 0.  1.
</event>
<event>
 5   0  0.4597705E-06  0.2403119E+04  0.7818609E-02  0.8438337E-01
        1   -1    0    0  501    0  0.00000000000E+00  0.00000000000E+00  0.22006964606E+04  0.22006964606E+04  0.50400001928E-02 0.  1.
       -1   -1    0    0    0  501  0.00000000000E+00  0.00000000000E+00 -0.65604012873E+03  0.65604012875E+03  0.50400001928E-02 0. -1.
    10030    2    1    2    0    0  0.00000000000E+00  0.00000000000E+00  0.15446563318E+04  0.28567365893E+04  0.24031189644E+04 0.  0.
        5    1    3    3  502    0 -0.10193834543E+04  0.30347779072E+03  0.14368468906E+04  0.17876779558E+04  0.46999998093E+01 0.  1.
       -5    1    3    3    0  502  0.10193834543E+04 -0.30347779072E+03  0.10780944122E+03  0.10690586336E+04  0.46999998093E+01 0. -1.
</event>
<event>
 5   0  0.1136881E-05  0.2645401E+04  0.7818609E-02  0.8352941E-01
        2   -1    0    0  501    0  0.00000000000E+00  0.00000000000E+00  0.12496723524E+04  0.12496723524E+04  0.25500000920E-02 0. -1.
       -2   -1    0    0    0  501  0.00000000000E+00  0.00000000000E+00 -0.13999965296E+04  0.13999965296E+04  0.25500000920E-02 0.  1.
    10030    2    1    2    0    0  0.00000000000E+00  0.00000000000E+00 -0.15032417720E+03  0.26496688820E+04  0.26454012599E+04 0.  0.
        3    1    3    3  502    0 -0.43253402843E+03  0.46000470386E+03  0.10889723036E+04  0.12587893793E+04  0.10100000352E+00 0. -1.
       -3    1    3    3    0  502  0.43253402843E+03 -0.46000470386E+03 -0.12392964808E+04  0.13908795026E+04  0.10100000352E+00 0.  1.
</event>
<event>
 5   0  0.4415080E-06  0.2632626E+04  0.7818609E-02  0.8357203E-01
        1   -1    0    0  501    0  0.00000000000E+00  0.00000000000E+00  0.19327070134E+04  0.19327070134E+04  0.50400001928E-02 0. -1.
       -1   -1    0    0    0  501  0.00000000000E+00  0.00000000000E+00 -0.89650427345E+03  0.89650427346E+03  0.50400001928E-02 0.  1.
    10030    2    1    2    0    0  0.00000000000E+00  0.00000000000E+00  0.10362027400E+04  0.28292112869E+04  0.26326261390E+04 0.  0.
        2    1    3    3  502    0  0.12817242897E+04 -0.49336827887E+02  0.20033824322E+03  0.12982244371E+04  0.25500000920E-02 0.  1.
       -2    1    3    3    0  502 -0.12817242897E+04  0.49336827887E+02  0.83586449677E+03  0.15309868498E+04  0.25500000920E-02 0. -1.
</event>
<event>
 5   0  0.4464297E-06  0.2609466E+04  0.7818609E-02  0.8364993E-01
       -1   -1    0    0    0  501  0.00000000000E+00  0.00000000000E+00  0.11559062095E+04  0.11559062095E+04  0.50400001928E-02 0. -1.
        1   -1    0    0  501    0  0.00000000000E+00  0.00000000000E+00 -0.14727218300E+04  0.14727218300E+04  0.50400001928E-02 0.  1.
    10030    2    1    2    0    0  0.00000000000E+00  0.00000000000E+00 -0.31681562048E+03  0.26286280395E+04  0.26094660819E+04 0.  0.
        4    1    3    3  502    0 -0.91163281102E+03 -0.90196413396E+03  0.83591628274E+02  0.12851470166E+04  0.12699999809E+01 0.  1.
       -4    1    3    3    0  502  0.91163281102E+03  0.90196413396E+03 -0.40040724875E+03  0.13434810229E+04  0.12699999809E+01 0. -1.
</event>
<event>
 5   0  0.4361864E-06  0.2598485E+04  0.7818609E-02  0.8368716E-01
       -1   -1    0    0    0  501  0.00000000000E+00  0.00000000000E+00  0.71280088740E+03  0.71280088741E+03  0.50400001928E-02 0.  1.
        1   -1    0    0  501    0  0.00000000000E+00  0.00000000000E+00 -0.23681666195E+04  0.23681666195E+04  0.50400001928E-02 0. -1.
    10030    2    1    2    0    0  0.00000000000E+00  0.00000000000E+00 -0.16553657321E+04  0.30809675070E+04  0.25984851494E+04 0.  0.
        3    1    3    3  502    0 -0.21178181456E+02  0.22665854842E+03 -0.23443358379E+04  0.23553626353E+04  0.10100000352E+00 0. -1.
       -3    1    3    3    0  502  0.21178181456E+02 -0.22665854842E+03  0.68897010573E+03  0.72560487163E+03  0.10100000352E+00 0.  1.
</event>
<event>
 5   0  0.4464297E-06  0.2615793E+04  0.7818609E-02  0.8362857E-01
        1   -1    0    0  501    0  0.00000000000E+00  0.00000000000E+00  0.15961760325E+04  0.15961760326E+04  0.50400001928E-02 0. -1.
       -1   -1    0    0    0  501  0.00000000000E+00  0.00000000000E+00 -0.10716817203E+04  0.10716817203E+04  0.50400001928E-02 0.  1.
    10030    2    1    2    0    0  0.00000000000E+00  0.00000000000E+00  0.52449431230E+03  0.26678577528E+04  0.26157925578E+04 0.  0.
        4    1    3    3  502    0 -0.12992704774E+04  0.98028028680E+02  0.14650804768E+03  0.13111748506E+04  0.12699999809E+01 0.  1.
       -4    1    3    3    0  502  0.12992704774E+04 -0.98028028680E+02  0.37798626461E+03  0.13566829022E+04  0.12699999809E+01 0. -1.
</event>
<event>
 5   0  0.1086507E-05  0.2606310E+04  0.7818609E-02  0.8366061E-01
       -2   -1    0    0    0  501  0.00000000000E+00  0.00000000000E+00  0.11998047058E+04  0.11998047058E+04  0.25500000920E-02 0. -1.
        2   -1    0    0  501    0  0.00000000000E+00  0.00000000000E+00 -0.14154077878E+04  0.14154077878E+04  0.25500000920E-02 0.  1.
    10030    2    1    2    0    0  0.00000000000E+00  0.00000000000E+00 -0.21560308194E+03  0.26152124936E+04  0.26063099773E+04 0.  0.
        2    1    3    3  502    0  0.24627647999E+03 -0.99828691671E+02  0.11723285203E+04  0.12020698947E+04  0.25500000920E-02 0. -1.
       -2    1    3    3    0  502 -0.24627647999E+03  0.99828691671E+02 -0.13879316022E+04  0.14131425989E+04  0.25500000920E-02 0.  1.
</event>
<event>
 5   0  0.1085255E-05  0.2706118E+04  0.7818609E-02  0.8333023E-01
       -2   -1    0    0    0  501  0.00000000000E+00  0.00000000000E+00  0.15537237812E+04  0.15537237812E+04  0.25500000920E-02 0. -1.
        2   -1    0    0  501    0  0.00000000000E+00  0.00000000000E+00 -0.11783100067E+04  0.11783100067E+04  0.25500000920E-02 0.  1.
    10030    2    1    2    0    0  0.00000000000E+00  0.00000000000E+00  0.37541377454E+03  0.27320337878E+04  0.27061177202E+04 0.  0.
        5    1    3    3  502    0  0.93902659372E+02 -0.13203078094E+04 -0.95543328611E+02  0.13270949622E+04  0.46999998093E+01 0. -1.
       -5    1    3    3    0  502 -0.93902659372E+02  0.13203078094E+04  0.47095710315E+03  0.14049388257E+04  0.46999998093E+01 0.  1.
</event>
<event>
 5   0  0.1136881E-05  0.2593626E+04  0.7818609E-02  0.8370369E-01
       -2   -1    0    0    0  501  0.00000000000E+00  0.00000000000E+00  0.57211395508E+03  0.57211395509E+03  0.25500000920E-02 0.  1.
        2   -1    0    0  501    0  0.00000000000E+00  0.00000000000E+00 -0.29394921991E+04  0.29394921991E+04  0.25500000920E-02 0. -1.
    10030    2    1    2    0    0  0.00000000000E+00  0.00000000000E+00 -0.23673782440E+04  0.35116061542E+04  0.25936264249E+04 0.  0.
        3    1    3    3  502    0  0.20071732055E+03  0.10505715001E+04 -0.21765380444E+04  0.24251403647E+04  0.10100000352E+00 0. -1.
       -3    1    3    3    0  502 -0.20071732055E+03 -0.10505715001E+04 -0.19084019959E+03  0.10864657894E+04  0.10100000352E+00 0.  1.
</event>
<event>
 5   0  0.1085255E-05  0.2595066E+04  0.7818609E-02  0.8369879E-01
       -2   -1    0    0    0  501  0.00000000000E+00  0.00000000000E+00  0.22039783990E+04  0.22039783990E+04  0.25500000920E-02 0.  1.
        2   -1    0    0  501    0  0.00000000000E+00  0.00000000000E+00 -0.76388781801E+03  0.76388781801E+03  0.25500000920E-02 0. -1.
    10030    2    1    2    0    0  0.00000000000E+00  0.00000000000E+00  0.14400905810E+04  0.29678662170E+04  0.25950662806E+04 0.  0.
        5    1    3    3  502    0  0.63906808285E+02 -0.77737183320E+02 -0.75940824183E+03  0.76606143198E+03  0.46999998093E+01 0. -1.
       -5    1    3    3    0  502 -0.63906808285E+02  0.77737183320E+02  0.21994988228E+04  0.22018047850E+04  0.46999998093E+01 0.  1.
</event>
<event>
 5   0  0.4464297E-06  0.2609371E+04  0.7818609E-02  0.8365025E-01
        1   -1    0    0  501    0  0.00000000000E+00  0.00000000000E+00  0.30135318948E+04  0.30135318948E+04  0.50400001928E-02 0. -1.
       -1   -1    0    0    0  501  0.00000000000E+00  0.00000000000E+00 -0.56485369628E+03  0.56485369630E+03  0.50400001928E-02 0.  1.
    10030    2    1    2    0    0  0.00000000000E+00  0.00000000000E+00  0.24486781985E+04  0.35783855911E+04  0.26093712880E+04 0.  0.
        4    1    3    3  502    0 -0.95257341353E+03  0.72803170958E+03  0.51868613347E+03  0.13063166524E+04  0.12699999809E+01 0.  1.
       -4    1    3    3    0  502  0.95257341353E+03 -0.72803170958E+03  0.19299920651E+04  0.22720689387E+04  0.12699999809E+01 0. -1.
</event>
<event>
 5   0  0.4597705E-06  0.2608399E+04  0.7818609E-02  0.8365354E-01
        1   -1    0    0  501    0  0.00000000000E+00  0.00000000000E+00  0.11774654702E+04  0.11774654702E+04  0.50400001928E-02 0. -1.
       -1   -1    0    0    0  501  0.00000000000E+00  0.00000000000E+00 -0.14445745058E+04  0.14445745058E+04  0.50400001928E-02 0.  1.
    10030    2    1    2    0    0  0.00000000000E+00  0.00000000000E+00 -0.26710903556E+03  0.26220399760E+04  0.26083992023E+04 0.  0.
        5    1    3    3  502    0  0.97788836334E+03 -0.47542115311E+03 -0.85747586220E+03  0.13847663587E+04  0.46999998093E+01 0.  1.
       -5    1    3    3    0  502 -0.97788836334E+03  0.47542115311E+03  0.59036682664E+03  0.12372736173E+04  0.46999998093E+01 0. -1.
</event>
<event>
 5   0  0.4361864E-06  0.2613182E+04  0.7818609E-02  0.8363737E-01
       -1   -1    0    0    0  501  0.00000000000E+00  0.00000000000E+00  0.97143598422E+03  0.97143598423E+03  0.50400001928E-02 0. -1.
        1   -1    0    0  501    0  0.00000000000E+00  0.00000000000E+00 -0.17573773660E+04  0.17573773660E+04  0.50400001928E-02 0.  1.
    10030    2    1    2    0    0  0.00000000000E+00  0.00000000000E+00 -0.78594138179E+03  0.27288133503E+04  0.26131816709E+04 0.  0.
        3    1    3    3  502    0 -0.10140654914E+04 -0.77853273352E+03 -0.11133765209E+03  0.12832919079E+04  0.10100000352E+00 0. -1.
       -3    1    3    3    0  502  0.10140654914E+04  0.77853273352E+03 -0.67460372970E+03  0.14455214423E+04  0.10100000352E+00 0.  1.
</event>
<event>
 5   0  0.4597705E-06  0.2612880E+04  0.7818609E-02  0.8363839E-01
       -1   -1    0    0    0  501  0.00000000000E+00  0.00000000000E+00  0.11634579639E+04  0.11634579639E+04  0.50400001928E-02 0. -1.
        1   -1    0    0  501    0  0.00000000000E+00  0.00000000000E+00 -0.14669933021E+04  0.14669933021E+04  0.50400001928E-02 0.  1.
    10030    2    1    2    0    0  0.00000000000E+00  0.00000000000E+00 -0.30353533822E+03  0.26304512660E+04  0.26128796683E+04 0.  0.
        5    1    3    3  502    0  0.56535204721E+02  0.82287001191E+03  0.86818519591E+03  0.11975303379E+04  0.46999998093E+01 0. -1.
       -5    1    3    3    0  502 -0.56535204721E+02 -0.82287001191E+03 -0.11717205341E+04  0.14329209280E+04  0.46999998093E+01 0.  1.
</event>
<event>
 5   0  0.1086507E-05  0.2410682E+04  0.7818609E-02  0.8435515E-01
       -2   -1    0    0    0  501  0.00000000000E+00  0.00000000000E+00  0.11182459076E+04  0.11182459076E+04  0.25500000920E-02 0.  1.
        2   -1    0    0  501    0  0.00000000000E+00  0.00000000000E+00 -0.12992193404E+04  0.12992193404E+04  0.25500000920E-02 0. -1.
    10030    2    1    2    0    0  0.00000000000E+00  0.00000000000E+00 -0.18097343276E+03  0.24174652480E+04  0.24106818210E+04 0.  0.
        2    1    3    3  502    0 -0.54152795136E+03  0.46972989087E+03 -0.10622066718E+04  0.12814763775E+04  0.25500000920E-02 0. -1.
       -2    1    3    3    0  502  0.54152795136E+03 -0.46972989087E+03  0.88123323901E+03  0.11359888706E+04  0.25500000920E-02 0.  1.
</event>
<event>
 5   0  0.1136881E-05  0.2598206E+04  0.7818609E-02  0.8368811E-01
        2   -1    0    0  501    0  0.00000000000E+00  0.00000000000E+00  0.21541880394E+04  0.21541880394E+04  0.25500000920E-02 0. -1.
       -2   -1    0    0    0  501  0.00000000000E+00  0.00000000000E+00 -0.78343607964E+03  0.78343607964E+03  0.25500000920E-02 0.  1.
    10030    2    1    2    0    0  0.00000000000E+00  0.00000000000E+00  0.13707519598E+04  0.29376241190E+04  0.25982060214E+04 0.  0.
        3    1    3    3  502    0 -0.51494161361E+03  0.62791799238E+03 -0.46110339186E+03  0.93384271629E+03  0.10100000352E+00 0.  1.
       -3    1    3    3    0  502  0.51494161361E+03 -0.62791799238E+03  0.18318553516E+04  0.20037814028E+04  0.10100000352E+00 0. -1.
</event>
<event>
 5   0  0.1136881E-05  0.2577040E+04  0.7818609E-02  0.8376042E-01
       -2   -1    0    0    0  501  0.00000000000E+00  0.00000000000E+00  0.83304264960E+03  0.83304264960E+03  0.25500000920E-02 0. -1.
        2   -1    0    0  501    0  0.00000000000E+00  0.00000000000E+00 -0.19930351969E+04  0.19930351969E+04  0.25500000920E-02 0.  1.
    10030    2    1    2    0    0  0.00000000000E+00  0.00000000000E+00 -0.11599925473E+04  0.28260778465E+04  0.25770396358E+04 0.  0.
        3    1    3    3  502    0 -0.79315592849E+03 -0.10002792952E+04 -0.77191819331E+03  0.14918152375E+04  0.10100000352E+00 0.  1.
       -3    1    3    3    0  502  0.79315592849E+03  0.10002792952E+04 -0.38807435396E+03  0.13342626090E+04  0.10100000352E+00 0. -1.
</event>
<event>
 5   0  0.4415080E-06  0.2591112E+04  0.7818609E-02  0.8371226E-01
       -1   -1    0    0    0  501  0.00000000000E+00  0.00000000000E+00  0.98310105146E+03  0.98310105147E+03  0.50400001928E-02 0.  1.
        1   -1    0    0  501    0  0.00000000000E+00  0.00000000000E+00 -0.17073172971E+04  0.17073172971E+04  0.50400001928E-02 0. -1.
    10030    2    1    2    0    0  0.00000000000E+00  0.00000000000E+00 -0.72421624561E+03  0.26904183486E+04  0.25911120624E+04 0.  0.
        2    1    3    3  502    0  0.61355726339E+03 -0.12215365818E+03 -0.15400891998E+04  0.16623022514E+04  0.25500000920E-02 0. -1.
       -2    1    3    3    0  502 -0.61355726339E+03  0.12215365818E+03  0.81587295423E+03  0.10281160971E+04  0.25500000920E-02 0.  1.
</event>
<event>
 5   0  0.1116310E-05  0.2597418E+04  0.7818609E-02  0.8369079E-01
        2   -1    0    0  501    0  0.00000000000E+00  0.00000000000E+00  0.14047836301E+04  0.14047836301E+04  0.25500000920E-02 0.  1.
       -2   -1    0    0    0  501  0.00000000000E+00  0.00000000000E+00 -0.12006441159E+04  0.12006441159E+04  0.25500000920E-02 0. -1.
    10030    2    1    2    0    0  0.00000000000E+00  0.00000000000E+00  0.20413951417E+03  0.26054277460E+04  0.25974181023E+04 0.  0.
        4    1    3    3  502    0 -0.52481483836E+03  0.15544765323E+03 -0.10792924479E+04  0.12101522171E+04  0.12699999809E+01 0. -1.
       -4    1    3    3    0  502  0.52481483836E+03 -0.15544765323E+03  0.12834319621E+04  0.13952755289E+04  0.12699999809E+01 0.  1.
</event>
<event>
 5   0  0.1136881E-05  0.2563149E+04  0.7818609E-02  0.8380828E-01
       -2   -1    0    0    0  501  0.00000000000E+00  0.00000000000E+00  0.91298333481E+03  0.91298333482E+03  0.25500000920E-02 0. -1.
        2   -1    0    0  501    0  0.00000000000E+00  0.00000000000E+00 -0.17989736734E+04  0.17989736734E+04  0.25500000920E-02 0.  1.
    10030    2    1    2    0    0  0.00000000000E+00  0.00000000000E+00 -0.88599033855E+03  0.27119570082E+04  0.25631488319E+04 0.  0.
        3    1    3    3  502    0  0.12287808284E+04 -0.30167512012E+03 -0.65859684893E+03  0.14264150946E+04  0.10100000352E+00 0. -1.
       -3    1    3    3    0  502 -0.12287808284E+04  0.30167512012E+03 -0.22739348962E+03  0.12855419136E+04  0.10100000352E+00 0.  1.
</event>
<event>
 5   0  0.1136881E-05  0.2641714E+04  0.7818609E-02  0.8354169E-01
       -2   -1    0    0    0  501  0.00000000000E+00  0.00000000000E+00  0.11095366881E+04  0.11095366881E+04  0.25500000920E-02 0. -1.
        2   -1    0    0  501    0  0.00000000000E+00  0.00000000000E+00 -0.15724244107E+04  0.15724244107E+04  0.25500000920E-02 0.  1.
    10030    2    1    2    0    0  0.00000000000E+00  0.00000000000E+00 -0.46288772258E+03  0.26819610987E+04  0.26417135143E+04 0.  0.
        3    1    3    3  502    0 -0.79304206826E+03  0.10370786565E+04 -0.27852578956E+02  0.13058421184E+04  0.10100000352E+00 0. -1.
       -3    1    3    3    0  502  0.79304206826E+03 -0.10370786565E+04 -0.43503514363E+03  0.13761189804E+04  0.10100000352E+00 0.  1.
</event>
<event>
 5   0  0.1136881E-05  0.2610178E+04  0.7818609E-02  0.8364752E-01
       -2   -1    0    0    0  501  0.00000000000E+00  0.00000000000E+00  0.11167625480E+04  0.11167625480E+04  0.25500000920E-02 0. -1.
        2   -1    0    0  501    0  0.00000000000E+00  0.00000000000E+00 -0.15251742975E+04  0.15251742975E+04  0.25500000920E-02 0.  1.
    10030    2    1    2    0    0  0.00000000000E+00  0.00000000000E+00 -0.40841174956E+03  0.26419368455E+04  0.26101781814E+04 0.  0.
        3    1    3    3  502    0  0.44168949277E+03 -0.72585530854E+03 -0.12068657047E+04  0.14759676068E+04  0.10100000352E+00 0.  1.
       -3    1    3    3    0  502 -0.44168949277E+03  0.72585530854E+03  0.79845395515E+03  0.11659692387E+04  0.10100000352E+00 0. -1.
</event>
<event>
 5   0  0.1085255E-05  0.2511356E+04  0.7818609E-02  0.8398951E-01
       -2   -1    0    0    0  501  0.00000000000E+00  0.00000000000E+00  0.13189617773E+04  0.13189617773E+04  0.25500000920E-02 0.  1.
        2   -1    0    0  501    0  0.00000000000E+00  0.00000000000E+00 -0.11954306068E+04  0.11954306069E+04  0.25500000920E-02 0. -1.
    10030    2    1    2    0    0  0.00000000000E+00  0.00000000000E+00  0.12353117044E+03  0.25143923841E+04  0.25113560304E+04 0.  0.
        5    1    3    3  502    0  0.12537201107E+04  0.33796003714E+02  0.46327934919E+00  0.12541844324E+04  0.46999998093E+01 0. -1.
       -5    1    3    3    0  502 -0.12537201107E+04 -0.33796003714E+02  0.12306789109E+03  0.12602079517E+04  0.46999998093E+01 0.  1.
</event>
<event>
 5   0  0.4361864E-06  0.2698473E+04  0.7818609E-02  0.8335501E-01
       -1   -1    0    0    0  501  0.00000000000E+00  0.00000000000E+00  0.87953133519E+03  0.87953133521E+03  0.50400001928E-02 0. -1.
        1   -1    0    0  501    0  0.00000000000E+00  0.00000000000E+00 -0.20697832469E+04  0.20697832470E+04  0.50400001928E-02 0.  1.
    10030    2    1    2    0    0  0.00000000000E+00  0.00000000000E+00 -0.11902519118E+04  0.29493145822E+04  0.26984730666E+04 0.  0.
        3    1    3    3  502    0  0.10652623669E+04  0.11778794300E+03  0.30068623117E+03  0.11131352701E+04  0.10100000352E+00 0. -1.
       -3    1    3    3    0  502 -0.10652623669E+04 -0.11778794300E+03 -0.14909381429E+04  0.18361793120E+04  0.10100000352E+00 0.  1.
</event>
<event>
 5   0  0.4415080E-06  0.2587248E+04  0.7818609E-02  0.8372546E-01
       -1   -1    0    0    0  501  0.00000000000E+00  0.00000000000E+00  0.88675706885E+03  0.88675706886E+03  0.50400001928E-02 0.  1.
        1   -1    0    0  501    0  0.00000000000E+00  0.00000000000E+00 -0.18871716234E+04  0.18871716234E+04  0.50400001928E-02 0. -1.
    10030    2    1    2    0    0  0.00000000000E+00  0.00000000000E+00 -0.10004145546E+04  0.27739286923E+04  0.25872477865E+04 0.  0.
        2    1    3    3  502    0  0.72531656925E+02 -0.81676427042E+03  0.57253545051E+03  0.10000807751E+04  0.25500000920E-02 0.  1.
       -2    1    3    3    0  502 -0.72531656925E+02  0.81676427042E+03 -0.15729500051E+04  0.17738479172E+04  0.25500000920E-02 0. -1.
</event>
<event>
 5   0  0.4464297E-06  0.2535646E+04  0.7818609E-02  0.8390395E-01
        1   -1    0    0  501    0  0.00000000000E+00  0.00000000000E+00  0.12983421944E+04  0.12983421944E+04  0.50400001928E-02 0.  1.
       -1   -1    0    0    0  501  0.00000000000E+00  0.00000000000E+00 -0.12380214839E+04  0.12380214839E+04  0.50400001928E-02 0. -1.
    10030    2    1    2    0    0  0.00000000000E+00  0.00000000000E+00  0.60320710494E+02  0.25363636783E+04  0.25356462924E+04 0.  0.
        4    1    3    3  502    0 -0.75735983280E+03  0.60401830213E+03  0.84828043174E+03  0.12876386642E+04  0.12699999809E+01 0.  1.
       -4    1    3    3    0  502  0.75735983280E+03 -0.60401830213E+03 -0.78795972124E+03  0.12487250141E+04  0.12699999809E+01 0. -1.
</event>
<event>
 5   0  0.1136881E-05  0.2658162E+04  0.7818609E-02  0.8348709E-01
        2   -1    0    0  501    0  0.00000000000E+00  0.00000000000E+00  0.15253867549E+04  0.15253867549E+04  0.25500000920E-02 0. -1.
       -2   -1    0    0    0  501  0.00000000000E+00  0.00000000000E+00 -0.11580380206E+04  0.11580380206E+04  0.25500000920E-02 0.  1.
    10030    2    1    2    0    0  0.00000000000E+00  0.00000000000E+00  0.36734873425E+03  0.26834247755E+04  0.26581616642E+04 0.  0.
        3    1    3    3  502    0 -0.97585071511E+03 -0.44515209799E+03  0.97599727392E+03  0.14501778158E+04  0.10100000352E+00 0. -1.
       -3    1    3    3    0  502  0.97585071511E+03  0.44515209799E+03 -0.60864853967E+03  0.12332469597E+04  0.10100000352E+00 0.  1.
</event>
<event>
 5   0  0.1136881E-05  0.2592102E+04  0.7818609E-02  0.8370889E-01
        2   -1    0    0  501    0  0.00000000000E+00  0.00000000000E+00  0.11020564016E+04  0.11020564016E+04  0.25500000920E-02 0. -1.
       -2   -1    0    0    0  501  0.00000000000E+00  0.00000000000E+00 -0.15241941936E+04  0.15241941936E+04  0.25500000920E-02 0.  1.
    10030    2    1    2    0    0  0.00000000000E+00  0.00000000000E+00 -0.42213779191E+03  0.26262505952E+04  0.25921018254E+04 0.  0.
        3    1    3    3  502    0  0.15559470035E+03  0.89288345565E+03 -0.11497174162E+04  0.14640016132E+04  0.10100000352E+00 0.  1.
       -3    1    3    3    0  502 -0.15559470035E+03 -0.89288345565E+03  0.72757962433E+03  0.11622489820E+04  0.10100000352E+00 0. -1.
</event>
<event>
 5   0  0.1085061E-05  0.2571775E+04  0.7818609E-02  0.8377852E-01
        2   -1    0    0  501    0  0.00000000000E+00  0.00000000000E+00  0.18112500120E+04  0.18112500121E+04  0.25500000920E-02 0.  1.
       -2   -1    0    0    0  501  0.00000000000E+00  0.00000000000E+00 -0.91290889679E+03  0.91290889679E+03  0.25500000920E-02 0. -1.
    10030    2    1    2    0    0  0.00000000000E+00  0.00000000000E+00  0.89834111526E+03  0.27241589088E+04  0.25717746793E+04 0.  0.
        1    1    3    3  502    0 -0.23191567550E+03 -0.10599091830E+04  0.11802189837E+04  0.16031560143E+04  0.50400001928E-02 0.  1.
       -1    1    3    3    0  502  0.23191567550E+03  0.10599091830E+04 -0.28187786847E+03  0.11210028945E+04  0.50400001928E-02 0. -1.
</event>
<event>
 5   0  0.4218590E-06  0.2600790E+04  0.7818609E-02  0.8367933E-01
       -1   -1    0    0    0  501  0.00000000000E+00  0.00000000000E+00  0.10039587771E+04  0.10039587771E+04  0.50400001928E-02 0.  1.
        1   -1    0    0  501    0  0.00000000000E+00  0.00000000000E+00 -0.16843595267E+04  0.16843595267E+04  0.50400001928E-02 0. -1.
    10030    2    1    2    0    0  0.00000000000E+00  0.00000000000E+00 -0.68040074957E+03  0.26883183039E+04  0.26007902881E+04 0.  0.
        1    1    3    3  502    0  0.33226835092E+03 -0.45359097292E+03  0.87181416809E+03  0.10374039577E+04  0.50400001928E-02 0.  1.
       -1    1    3    3    0  502 -0.33226835092E+03  0.45359097292E+03 -0.15522149177E+04  0.16509143462E+04  0.50400001928E-02 0. -1.
</event>
<event>
 5   0  0.1086507E-05  0.2579879E+04  0.7818609E-02  0.8375068E-01
       -2   -1    0    0    0  501  0.00000000000E+00  0.00000000000E+00  0.65665908803E+03  0.65665908804E+03  0.25500000920E-02 0. -1.
        2   -1    0    0  501    0  0.00000000000E+00  0.00000000000E+00 -0.25339538940E+04  0.25339538940E+04  0.25500000920E-02 0.  1.
    10030    2    1    2    0    0  0.00000000000E+00  0.00000000000E+00 -0.18772948060E+04  0.31906129821E+04  0.25798789531E+04 0.  0.
        2    1    3    3  502    0  0.11887222358E+04  0.64217647388E+02 -0.32430336914E+03  0.12338383749E+04  0.25500000920E-02 0. -1.
       -2    1    3    3    0  502 -0.11887222358E+04 -0.64217647388E+02 -0.15529914369E+04  0.19567746071E+04  0.25500000920E-02 0.  1.
</event>
<event>
 5   0  0.1136881E-05  0.2576505E+04  0.7818609E-02  0.8376226E-01
        2   -1    0    0  501    0  0.00000000000E+00  0.00000000000E+00  0.13212264804E+04  0.13212264804E+04  0.25500000920E-02 0. -1.
       -2   -1    0    0    0  501  0.00000000000E+00  0.00000000000E+00 -0.12561013225E+04  0.12561013225E+04  0.25500000920E-02 0.  1.
    10030    2    1    2    0    0  0.00000000000E+00  0.00000000000E+00  0.65125157917E+02  0.25773278029E+04  0.25765048646E+04 0.  0.
        3    1    3    3  502    0  0.12525076494E+04  0.23581224923E+03 -0.15514460580E+03  0.12839208261E+04  0.10100000352E+00 0.  1.
       -3    1    3    3    0  502 -0.12525076494E+04 -0.23581224923E+03  0.22026976372E+03  0.12934069768E+04  0.10100000352E+00 0. -1.
</event>
<event>
 5   0  0.4218590E-06  0.2602233E+04  0.7818609E-02  0.8367443E-01
        1   -1    0    0  501    0  0.00000000000E+00  0.00000000000E+00  0.12032831474E+04  0.12032831474E+04  0.50400001928E-02 0.  1.
       -1   -1    0    0    0  501  0.00000000000E+00  0.00000000000E+00 -0.14069046779E+04  0.14069046780E+04  0.50400001928E-02 0. -1.
    10030    2    1    2    0    0  0.00000000000E+00  0.00000000000E+00 -0.20362153053E+03  0.26101878254E+04  0.26022334169E+04 0.  0.
        1    1    3    3  502    0 -0.58542184134E+03 -0.67796328348E+03 -0.10483858937E+04  0.13789365207E+04  0.50400001928E-02 0. -1.
       -1    1    3    3    0  502  0.58542184134E+03  0.67796328348E+03  0.84476436313E+03  0.12312513047E+04  0.50400001928E-02 0.  1.
</event>
<event>
 5   0  0.1116310E-05  0.2581652E+04  0.7818609E-02  0.8374460E-01
       -2   -1    0    0    0  501  0.00000000000E+00  0.00000000000E+00  0.17713959798E+04  0.17713959798E+04  0.25500000920E-02 0. -1.
        2   -1    0    0  501    0  0.00000000000E+00  0.00000000000E+00 -0.94063211647E+03  0.94063211648E+03  0.25500000920E-02 0.  1.
    10030    2    1    2    0    0  0.00000000000E+00  0.00000000000E+00  0.83076386329E+03  0.27120280962E+04  0.25816521451E+04 0.  0.
        4    1    3    3  502    0 -0.90163234160E+03  0.76587881247E+03 -0.12714777082E+03  0.11898232656E+04  0.12699999809E+01 0.  1.
       -4    1    3    3    0  502  0.90163234160E+03 -0.76587881247E+03  0.95791163411E+03  0.15222048307E+04  0.12699999809E+01 0. -1.
</event>
<event>
 5   0  0.3705250E-06  0.2590676E+04  0.7818609E-02  0.8371375E-01
        3   -1    0    0  501    0  0.00000000000E+00  0.00000000000E+00  0.66645926837E+03  0.66645927603E+03  0.10100000352E+00 0.  1.
       -3   -1    0    0    0  501  0.00000000000E+00  0.00000000000E+00 -0.25176341189E+04  0.25176341209E+04  0.10100000352E+00 0. -1.
    10030    2    1    2    0    0  0.00000000000E+00  0.00000000000E+00 -0.18511748505E+04  0.31840933970E+04  0.25906760572E+04 0.  0.
        4    1    3    3  502    0 -0.10345868624E+04  0.18303837958E+03  0.56029055153E+01  0.10506693246E+04  0.12699999809E+01 0.  1.
       -4    1    3    3    0  502  0.10345868624E+04 -0.18303837958E+03 -0.18567777561E+04  0.21334240724E+04  0.12699999809E+01 0. -1.
</event>
<event>
 5   0  0.1085255E-05  0.2617425E+04  0.7818609E-02  0.8362306E-01
       -2   -1    0    0    0  501  0.00000000000E+00  0.00000000000E+00  0.10097582211E+04  0.10097582211E+04  0.25500000920E-02 0.  1.
        2   -1    0    0  501    0  0.00000000000E+00  0.00000000000E+00 -0.16961765117E+04  0.16961765117E+04  0.25500000920E-02 0. -1.
    10030    2    1    2    0    0  0.00000000000E+00  0.00000000000E+00 -0.68641829056E+03  0.27059347328E+04  0.26174248239E+04 0.  0.
        5    1    3    3  502    0 -0.90341783980E+03 -0.68775226203E+03  0.32959686923E+03  0.11822957132E+04  0.46999998093E+01 0.  1.
       -5    1    3    3    0  502  0.90341783980E+03  0.68775226203E+03 -0.10160151598E+04  0.15236390196E+04  0.46999998093E+01 0. -1.
</event>
<event>
 5   0  0.1116310E-05  0.2619589E+04  0.7818609E-02  0.8361578E-01
        2   -1    0    0  501    0  0.00000000000E+00  0.00000000000E+00  0.83342728021E+03  0.83342728022E+03  0.25500000920E-02 0.  1.
       -2   -1    0    0    0  501  0.00000000000E+00  0.00000000000E+00 -0.20584420757E+04  0.20584420757E+04  0.25500000920E-02 0. -1.
    10030    2    1    2    0    0  0.00000000000E+00  0.00000000000E+00 -0.12250147955E+04  0.28918693559E+04  0.26195891133E+04 0.  0.
        4    1    3    3  502    0  0.10888283587E+04 -0.72791491966E+03 -0.59885942858E+03  0.14401533089E+04  0.12699999809E+01 0.  1.
       -4    1    3    3    0  502 -0.10888283587E+04  0.72791491966E+03 -0.62615536692E+03  0.14517160471E+04  0.12699999809E+01 0. -1.
</event>
<event>
 5   0  0.1136881E-05  0.2624731E+04  0.7818609E-02  0.8359849E-01
       -2   -1    0    0    0  501  0.00000000000E+00  0.00000000000E+00  0.72386296214E+03  0.72386296214E+03  0.25500000920E-02 0.  1.
        2   -1    0    0  501    0  0.00000000000E+00  0.00000000000E+00 -0.23793226043E+04  0.23793226043E+04  0.25500000920E-02 0. -1.
    10030    2    1    2    0    0  0.00000000000E+00  0.00000000000E+00 -0.16554596422E+04  0.31031855664E+04  0.26247312306E+04 0.  0.
        3    1    3    3  502    0  0.36475959490E+03 -0.50718626036E+03  0.53678304190E+03  0.82366468240E+03  0.10100000352E+00 0.  1.
       -3    1    3    3    0  502 -0.36475959490E+03  0.50718626036E+03 -0.21922426840E+04  0.22795208840E+04  0.10100000352E+00 0. -1.
</event>
<event>
 5   0  0.1136881E-05  0.2651346E+04  0.7818609E-02  0.8350966E-01
        2   -1    0    0  501    0  0.00000000000E+00  0.00000000000E+00  0.16113749445E+04  0.16113749445E+04  0.25500000920E-02 0. -1.
       -2   -1    0    0    0  501  0.00000000000E+00  0.00000000000E+00 -0.10906271870E+04  0.10906271870E+04  0.25500000920E-02 0.  1.
    10030    2    1    2    0    0  0.00000000000E+00  0.00000000000E+00  0.52074775756E+03  0.27020021315E+04  0.26513463168E+04 0.  0.
        3    1    3    3  502    0 -0.11328048828E+04 -0.43495753723E+03 -0.28365520204E+03  0.12461521759E+04  0.10100000352E+00 0.  1.
       -3    1    3    3    0  502  0.11328048828E+04  0.43495753723E+03  0.80440295960E+03  0.14558499556E+04  0.10100000352E+00 0. -1.
</event>
<event>
 5   0  0.1116310E-05  0.2669581E+04  0.7818609E-02  0.8344943E-01
        2   -1    0    0  501    0  0.00000000000E+00  0.00000000000E+00  0.18643621196E+04  0.18643621196E+04  0.25500000920E-02 0. -1.
       -2   -1    0    0    0  501  0.00000000000E+00  0.00000000000E+00 -0.95564380250E+03  0.95564380250E+03  0.25500000920E-02 0.  1.
    10030    2    1    2    0    0  0.00000000000E+00  0.00000000000E+00  0.90871831711E+03  0.28200059221E+04  0.26695813194E+04 0.  0.
        4    1    3    3  502    0 -0.91434004784E+03  0.16538183240E+03  0.14666332509E+04  0.17361980241E+04  0.12699999809E+01 0.  1.
       -4    1    3    3    0  502  0.91434004784E+03 -0.16538183240E+03 -0.55791493374E+03  0.10838078980E+04  0.12699999809E+01 0. -1.
</event>
<event>
 5   0  0.1136881E-05  0.2591973E+04  0.7818609E-02  0.8370933E-01
        2   -1    0    0  501    0  0.00000000000E+00  0.00000000000E+00  0.11127513838E+04  0.11127513838E+04  0.25500000920E-02 0. -1.
       -2   -1    0    0    0  501  0.00000000000E+00  0.00000000000E+00 -0.15093942502E+04  0.15093942502E+04  0.25500000920E-02 0.  1.
    10030    2    1    2    0    0  0.00000000000E+00  0.00000000000E+00 -0.39664286640E+03  0.26221456340E+04  0.25919726392E+04 0.  0.
        3    1    3    3  502    0 -0.44622732561E+03 -0.11688961790E+04 -0.54010552878E+03  0.13627733105E+04  0.10100000352E+00 0.  1.
       -3    1    3    3    0  502  0.44622732561E+03  0.11688961790E+04  0.14346266239E+03  0.12593723235E+04  0.10100000352E+00 0. -1.
</event>
<event>
 5   0  0.4597705E-06  0.2569734E+04  0.7818609E-02  0.8378555E-01
        1   -1    0    0  501    0  0.00000000000E+00  0.00000000000E+00  0.14349131735E+04  0.14349131735E+04  0.50400001928E-02 0. -1.
       -1   -1    0    0    0  501  0.00000000000E+00  0.00000000000E+00 -0.11505107507E+04  0.11505107507E+04  0.50400001928E-02 0.  1.
    10030    2    1    2    0    0  0.00000000000E+00  0.00000000000E+00  0.28440242282E+03  0.25854239242E+04  0.25697338636E+04 0.  0.
        5    1    3    3  502    0 -0.40567806941E+03 -0.36344870833E+03 -0.10286012385E+04  0.11639210701E+04  0.46999998093E+01 0.  1.
       -5    1    3    3    0  502  0.40567806941E+03  0.36344870833E+03  0.13130036613E+04  0.14215028541E+04  0.46999998093E+01 0. -1.
</event>
<event>
 5   0  0.1085061E-05  0.2654628E+04  0.7818609E-02  0.8349879E-01
       -2   -1    0    0    0  501  0.00000000000E+00  0.00000000000E+00  0.72656467544E+03  0.72656467545E+03  0.25500000920E-02 0.  1.
        2   -1    0    0  501    0  0.00000000000E+00  0.00000000000E+00 -0.24247840784E+04  0.24247840784E+04  0.25500000920E-02 0. -1.
    10030    2    1    2    0    0  0.00000000000E+00  0.00000000000E+00 -0.16982194030E+04  0.31513487539E+04  0.26546280018E+04 0.  0.
        1    1    3    3  502    0 -0.34009179890E+03  0.50238540458E+03  0.55234427022E+03  0.82044970553E+03  0.50400001928E-02 0.  1.
       -1    1    3    3    0  502  0.34009179890E+03 -0.50238540458E+03 -0.22505636732E+04  0.23308990484E+04  0.50400001928E-02 0. -1.
</event>
<event>
 5   0  0.4361864E-06  0.2590289E+04  0.7818609E-02  0.8371507E-01
        1   -1    0    0  501    0  0.00000000000E+00  0.00000000000E+00  0.15524503857E+04  0.15524503857E+04  0.50400001928E-02 0. -1.
       -1   -1    0    0    0  501  0.00000000000E+00  0.00000000000E+00 -0.10804847931E+04  0.10804847931E+04  0.50400001928E-02 0.  1.
    10030    2    1    2    0    0  0.00000000000E+00  0.00000000000E+00  0.47196559263E+03  0.26329351788E+04  0.25902888131E+04 0.  0.
        3    1    3    3  502    0 -0.96378883604E+03  0.86483078270E+03  0.21154914139E+03  0.13120877458E+04  0.10100000352E+00 0.  1.
       -3    1    3    3    0  502  0.96378883604E+03 -0.86483078270E+03  0.26041645125E+03  0.13208474331E+04  0.10100000352E+00 0. -1.
</event>
<event>
 5   0  0.1116310E-05  0.2589743E+04  0.7818609E-02  0.8371693E-01
       -2   -1    0    0    0  501  0.00000000000E+00  0.00000000000E+00  0.17743141925E+04  0.17743141925E+04  0.25500000920E-02 0. -1.
        2   -1    0    0  501    0  0.00000000000E+00  0.00000000000E+00 -0.94498075816E+03  0.94498075816E+03  0.25500000920E-02 0.  1.
    10030    2    1    2    0    0  0.00000000000E+00  0.00000000000E+00  0.82933343435E+03  0.27192949507E+04  0.25897434397E+04 0.  0.
        4    1    3    3  502    0 -0.39795913526E+03 -0.10126168558E+04 -0.32254254826E+03  0.11348126181E+04  0.12699999809E+01 0.  1.
       -4    1    3    3    0  502  0.39795913526E+03  0.10126168558E+04  0.11518759826E+04  0.15844823325E+04  0.12699999809E+01 0. -1.
</event>
<event>
 5   0  0.1116310E-05  0.2595616E+04  0.7818609E-02  0.8369692E-01
       -2   -1    0    0    0  501  0.00000000000E+00  0.00000000000E+00  0.14936169136E+04  0.14936169136E+04  0.25500000920E-02 0. -1.
        2   -1    0    0  501    0  0.00000000000E+00  0.00000000000E+00 -0.11276692041E+04  0.11276692041E+04  0.25500000920E-02 0.  1.
    10030    2    1    2    0    0  0.00000000000E+00  0.00000000000E+00  0.36594770952E+03  0.26212861176E+04  0.25956161474E+04 0.  0.
        4    1    3    3  502    0  0.38649000643E+02  0.10859299325E+04 -0.53366842590E+03  0.12105953764E+04  0.12699999809E+01 0.  1.
       -4    1    3    3    0  502 -0.38649000643E+02 -0.10859299325E+04  0.89961613542E+03  0.14106907413E+04  0.12699999809E+01 0. -1.
</event>
<event>
 5   0  0.1116310E-05  0.2593677E+04  0.7818609E-02  0.8370352E-01
       -2   -1    0    0    0  501  0.00000000000E+00  0.00000000000E+00  0.84130274482E+03  0.84130274483E+03  0.25500000920E-02 0.  1.
        2   -1    0    0  501    0  0.00000000000E+00  0.00000000000E+00 -0.19990302714E+04  0.19990302714E+04  0.25500000920E-02 0. -1.
    10030    2    1    2    0    0  0.00000000000E+00  0.00000000000E+00 -0.11577275266E+04  0.28403330162E+04  0.25936766601E+04 0.  0.
        4    1    3    3  502    0  0.55549377527E+02 -0.12780064705E+04 -0.34552342825E+03  0.13250563476E+04  0.12699999809E+01 0.  1.
       -4    1    3    3    0  502 -0.55549377527E+02  0.12780064705E+04 -0.81220409832E+03  0.15152766686E+04  0.12699999809E+01 0. -1.
</event>
<event>
 5   0  0.1085061E-05  0.2626487E+04  0.7818609E-02  0.8359259E-01
       -2   -1    0    0    0  501  0.00000000000E+00  0.00000000000E+00  0.12492732397E+04  0.12492732397E+04  0.25500000920E-02 0. -1.
        2   -1    0    0  501    0  0.00000000000E+00  0.00000000000E+00 -0.13804896088E+04  0.13804896088E+04  0.25500000920E-02 0.  1.
    10030    2    1    2    0    0  0.00000000000E+00  0.00000000000E+00 -0.13121636903E+03  0.26297628485E+04  0.26264871794E+04 0.  0.
        1    1    3    3  502    0  0.78631100973E+03 -0.97623131921E+03 -0.45762698967E+03  0.13344418512E+04  0.50400001928E-02 0.  1.
       -1    1    3    3    0  502 -0.78631100973E+03  0.97623131921E+03  0.32641062064E+03  0.12953209973E+04  0.50400001928E-02 0. -1.
</event>
<event>
 5   0  0.4464297E-06  0.2594068E+04  0.7818609E-02  0.8370219E-01
       -1   -1    0    0    0  501  0.00000000000E+00  0.00000000000E+00  0.15015302562E+04  0.15015302562E+04  0.50400001928E-02 0.  1.
        1   -1    0    0  501    0  0.00000000000E+00  0.00000000000E+00 -0.11203888901E+04  0.11203888901E+04  0.50400001928E-02 0. -1.
    10030    2    1    2    0    0  0.00000000000E+00  0.00000000000E+00  0.38114136609E+03  0.26219191463E+04  0.25940684781E+04 0.  0.
        4    1    3    3  502    0  0.12443900086E+04  0.34787975726E+03  0.30478560674E+03  0.13275626908E+04  0.12699999809E+01 0.  1.
       -4    1    3    3    0  502 -0.12443900086E+04 -0.34787975726E+03  0.76355759353E+02  0.12943564555E+04  0.12699999809E+01 0. -1.
</event>
<event>
 5   0  0.4597705E-06  0.2622064E+04  0.7818609E-02  0.8360745E-01
        1   -1    0    0  501    0  0.00000000000E+00  0.00000000000E+00  0.12629202714E+04  0.12629202714E+04  0.50400001928E-02 0. -1.
       -1   -1    0    0    0  501  0.00000000000E+00  0.00000000000E+00 -0.13609760828E+04  0.13609760828E+04  0.50400001928E-02 0.  1.
    10030    2    1    2    0    0  0.00000000000E+00  0.00000000000E+00 -0.98055811414E+02  0.26238963542E+04  0.26220635262E+04 0.  0.
        5    1    3    3  502    0  0.67126819134E+02  0.13065560476E+04  0.35810352505E+02  0.13087777454E+04  0.46999998093E+01 0.  1.
       -5    1    3    3    0  502 -0.67126819134E+02 -0.13065560476E+04 -0.13386616392E+03  0.13151186088E+04  0.46999998093E+01 0. -1.
</event>
<event>
 5   0  0.1116310E-05  0.2570314E+04  0.7818609E-02  0.8378355E-01
        2   -1    0    0  501    0  0.00000000000E+00  0.00000000000E+00  0.21618543004E+04  0.21618543004E+04  0.25500000920E-02 0.  1.
       -2   -1    0    0    0  501  0.00000000000E+00  0.00000000000E+00 -0.76398699662E+03  0.76398699662E+03  0.25500000920E-02 0. -1.
    10030    2    1    2    0    0  0.00000000000E+00  0.00000000000E+00  0.13978673038E+04  0.29258412971E+04  0.25703140463E+04 0.  0.
        4    1    3    3  502    0  0.48349374754E+03  0.70189698709E+03  0.17938544647E+04  0.19860365147E+04  0.12699999809E+01 0.  1.
       -4    1    3    3    0  502 -0.48349374754E+03 -0.70189698709E+03 -0.39598716089E+03  0.93980478233E+03  0.12699999809E+01 0. -1.
</event>
<event>
 5   0  0.1085061E-05  0.2608746E+04  0.7818609E-02  0.8365236E-01
        2   -1    0    0  501    0  0.00000000000E+00  0.00000000000E+00  0.17174597301E+04  0.17174597301E+04  0.25500000920E-02 0.  1.
       -2   -1    0    0    0  501  0.00000000000E+00  0.00000000000E+00 -0.99064266092E+03  0.99064266092E+03  0.25500000920E-02 0. -1.
    10030    2    1    2    0    0  0.00000000000E+00  0.00000000000E+00  0.72681706920E+03  0.27081023910E+04  0.26087459647E+04 0.  0.
        1    1    3    3  502    0  0.63058198938E+03  0.99348567897E+03 -0.22082399161E+03  0.11972512998E+04  0.50400001928E-02 0. -1.
       -1    1    3    3    0  502 -0.63058198938E+03 -0.99348567897E+03  0.94764106081E+03  0.15108510912E+04  0.50400001928E-02 0.  1.
</event>
<event>
 5   0  0.1086507E-05  0.2602270E+04  0.7818609E-02  0.8367430E-01
        2   -1    0    0  501    0  0.00000000000E+00  0.00000000000E+00  0.14162167383E+04  0.14162167383E+04  0.25500000920E-02 0. -1.
       -2   -1    0    0    0  501  0.00000000000E+00  0.00000000000E+00 -0.11954050804E+04  0.11954050804E+04  0.25500000920E-02 0.  1.
    10030    2    1    2    0    0  0.00000000000E+00  0.00000000000E+00  0.22081165795E+03  0.26116218187E+04  0.26022703041E+04 0.  0.
        2    1    3    3  502    0  0.12498120277E+04  0.25812625937E+03 -0.14406682845E+03  0.12842953404E+04  0.25500000920E-02 0. -1.
       -2    1    3    3    0  502 -0.12498120277E+04 -0.25812625937E+03  0.36487848640E+03  0.13273264783E+04  0.25500000920E-02 0.  1.
</event>
<event>
 5   0  0.1085255E-05  0.2618524E+04  0.7818609E-02  0.8361936E-01
       -2   -1    0    0    0  501  0.00000000000E+00  0.00000000000E+00  0.14577934104E+04  0.14577934104E+04  0.25500000920E-02 0. -1.
        2   -1    0    0  501    0  0.00000000000E+00  0.00000000000E+00 -0.11758640704E+04  0.11758640704E+04  0.25500000920E-02 0.  1.
    10030    2    1    2    0    0  0.00000000000E+00  0.00000000000E+00  0.28192934003E+03  0.26336574808E+04  0.26185239303E+04 0.  0.
        5    1    3    3  502    0  0.51592900685E+03  0.54221479961E+03 -0.93947145415E+03  0.12011695685E+04  0.46999998093E+01 0.  1.
       -5    1    3    3    0  502 -0.51592900685E+03 -0.54221479961E+03  0.12214007942E+04  0.14324879124E+04  0.46999998093E+01 0. -1.
</event>
<event>
 5   0  0.1086507E-05  0.2542217E+04  0.7818609E-02  0.8388098E-01
       -2   -1    0    0    0  501  0.00000000000E+00  0.00000000000E+00  0.83537589549E+03  0.83537589550E+03  0.25500000920E-02 0. -1.
        2   -1    0    0  501    0  0.00000000000E+00  0.00000000000E+00 -0.19341193226E+04  0.19341193226E+04  0.25500000920E-02 0.  1.
    10030    2    1    2    0    0  0.00000000000E+00  0.00000000000E+00 -0.10987434271E+04  0.27694952181E+04  0.25422168760E+04 0.  0.
        2    1    3    3  502    0 -0.93838275724E+03  0.45989607012E+03  0.23895928452E+03  0.10719925998E+04  0.25500000920E-02 0. -1.
       -2    1    3    3    0  502  0.93838275724E+03 -0.45989607012E+03 -0.13377027116E+04  0.16975026183E+04  0.25500000920E-02 0.  1.
</event>
<event>
 5   0  0.4361864E-06  0.2741906E+04  0.7818609E-02  0.8321535E-01
       -1   -1    0    0    0  501  0.00000000000E+00  0.00000000000E+00  0.76926669589E+03  0.76926669591E+03  0.50400001928E-02 0. -1.
        1   -1    0    0  501    0  0.00000000000E+00  0.00000000000E+00 -0.24432518768E+04  0.24432518768E+04  0.50400001928E-02 0.  1.
    10030    2    1    2    0    0  0.00000000000E+00  0.00000000000E+00 -0.16739851809E+04  0.32125185727E+04  0.27419061242E+04 0.  0.
        3    1    3    3  502    0  0.11462776741E+04  0.55653526786E+03 -0.14296003573E+04  0.19150564489E+04  0.10100000352E+00 0.  1.
       -3    1    3    3    0  502 -0.11462776741E+04 -0.55653526786E+03 -0.24438482353E+03  0.12974621238E+04  0.10100000352E+00 0. -1.
</event>
<event>
 5   0  0.1085061E-05  0.2610673E+04  0.7818609E-02  0.8364585E-01
       -2   -1    0    0    0  501  0.00000000000E+00  0.00000000000E+00  0.10937220196E+04  0.10937220196E+04  0.25500000920E-02 0.  1.
        2   -1    0    0  501    0  0.00000000000E+00  0.00000000000E+00 -0.15578945645E+04  0.15578945645E+04  0.25500000920E-02 0. -1.
    10030    2    1    2    0    0  0.00000000000E+00  0.00000000000E+00 -0.46417254496E+03  0.26516165841E+04  0.26106731617E+04 0.  0.
        1    1    3    3  502    0 -0.57891383666E+02  0.12846986356E+04 -0.45943052980E+03  0.13656055098E+04  0.50400001928E-02 0. -1.
       -1    1    3    3    0  502  0.57891383666E+02 -0.12846986356E+04 -0.47420151556E+01  0.12860110743E+04  0.50400001928E-02 0.  1.
</event>
<event>
 5   0  0.4464297E-06  0.2545870E+04  0.7818609E-02  0.8386824E-01
       -1   -1    0    0    0  501  0.00000000000E+00  0.00000000000E+00  0.21685361466E+04  0.21685361466E+04  0.50400001928E-02 0.  1.
        1   -1    0    0  501    0  0.00000000000E+00  0.00000000000E+00 -0.74721528149E+03  0.74721528150E+03  0.50400001928E-02 0. -1.
    10030    2    1    2    0    0  0.00000000000E+00  0.00000000000E+00  0.14213208651E+04  0.29157514281E+04  0.25458698688E+04 0.  0.
        4    1    3    3  502    0 -0.81998012282E+03  0.75689020066E+03  0.92139882131E+01  0.11159465436E+04  0.12699999809E+01 0. -1.
       -4    1    3    3    0  502  0.81998012282E+03 -0.75689020066E+03  0.14121068769E+04  0.17998048845E+04  0.12699999809E+01 0.  1.
</event>
<event>
 5   0  0.4464297E-06  0.2589083E+04  0.7818609E-02  0.8371919E-01
        1   -1    0    0  501    0  0.00000000000E+00  0.00000000000E+00  0.92323103287E+03  0.92323103289E+03  0.50400001928E-02 0. -1.
       -1   -1    0    0    0  501  0.00000000000E+00  0.00000000000E+00 -0.18151883771E+04  0.18151883771E+04  0.50400001928E-02 0.  1.
    10030    2    1    2    0    0  0.00000000000E+00  0.00000000000E+00 -0.89195734423E+03  0.27384194100E+04  0.25890834210E+04 0.  0.
        4    1    3    3  502    0 -0.46749965287E+03  0.37144589218E+01  0.83082308495E+03  0.95333012856E+03  0.12699999809E+01 0. -1.
       -4    1    3    3    0  502  0.46749965287E+03 -0.37144589218E+01 -0.17227804292E+04  0.17850892814E+04  0.12699999809E+01 0.  1.
</event>
<event>
 5   0  0.1136881E-05  0.2608529E+04  0.7818609E-02  0.8365310E-01
       -2   -1    0    0    0  501  0.00000000000E+00  0.00000000000E+00  0.12086210208E+04  0.12086210208E+04  0.25500000920E-02 0. -1.
        2   -1    0    0  501    0  0.00000000000E+00  0.00000000000E+00 -0.14074766290E+04  0.14074766290E+04  0.25500000920E-02 0.  1.
    10030    2    1    2    0    0  0.00000000000E+00  0.00000000000E+00 -0.19885560820E+03  0.26160976497E+04  0.26085289648E+04 0.  0.
        3    1    3    3  502    0 -0.12675665385E+03 -0.18017940411E+03  0.11898269460E+04  0.12100496017E+04  0.10100000352E+00 0. -1.
       -3    1    3    3    0  502  0.12675665385E+03  0.18017940411E+03 -0.13886825542E+04  0.14060480481E+04  0.10100000352E+00 0.  1.
</event>
<event>
 5   0  0.1085255E-05  0.2603190E+04  0.7818609E-02  0.8367119E-01
        2   -1    0    0  501    0  0.00000000000E+00  0.00000000000E+00  0.21572195485E+04  0.21572195485E+04  0.25500000920E-02 0. -1.
       -2   -1    0    0    0  501  0.00000000000E+00  0.00000000000E+00 -0.78533928389E+03  0.78533928389E+03  0.25500000920E-02 0.  1.
    10030    2    1    2    0    0  0.00000000000E+00  0.00000000000E+00  0.13718802646E+04  0.29425588324E+04  0.26031897783E+04 0.  0.
        5    1    3    3  502    0  0.49684090514E+03 -0.59925550978E+03  0.18650859692E+04  0.20210209829E+04  0.46999998093E+01 0. -1.
       -5    1    3    3    0  502 -0.49684090514E+03  0.59925550978E+03 -0.49320570455E+03  0.92153784948E+03  0.46999998093E+01 0.  1.
</event>
<event>
 5   0  0.1085255E-05  0.2612468E+04  0.7818609E-02  0.8363978E-01
        2   -1    0    0  501    0  0.00000000000E+00  0.00000000000E+00  0.20705482523E+04  0.20705482523E+04  0.25500000920E-02 0.  1.
       -2   -1    0    0    0  501  0.00000000000E+00  0.00000000000E+00 -0.82405609830E+03  0.82405609831E+03  0.25500000920E-02 0. -1.
    10030    2    1    2    0    0  0.00000000000E+00  0.00000000000E+00  0.12464921540E+04  0.28946043506E+04  0.26124684987E+04 0.  0.
        5    1    3    3  502    0  0.41201233578E+03 -0.10064854273E+04  0.14248860735E+04  0.17925092727E+04  0.46999998093E+01 0.  1.
       -5    1    3    3    0  502 -0.41201233578E+03  0.10064854273E+04 -0.17839391949E+03  0.11020950779E+04  0.46999998093E+01 0. -1.
</event>
<event>
 5   0  0.1085061E-05  0.2597643E+04  0.7818609E-02  0.8369002E-01
        2   -1    0    0  501    0  0.00000000000E+00  0.00000000000E+00  0.18154986067E+04  0.18154986067E+04  0.25500000920E-02 0. -1.
       -2   -1    0    0    0  501  0.00000000000E+00  0.00000000000E+00 -0.92918711436E+03  0.92918711436E+03  0.25500000920E-02 0.  1.
    10030    2    1    2    0    0  0.00000000000E+00  0.00000000000E+00  0.88631149234E+03  0.27446857211E+04  0.25976434794E+04 0.  0.
        1    1    3    3  502    0  0.12657819315E+04 -0.61151264961E+02  0.14245054547E+03  0.12752394023E+04  0.50400001928E-02 0.  1.
       -1    1    3    3    0  502 -0.12657819315E+04  0.61151264961E+02  0.74386094687E+03  0.14694463187E+04  0.50400001928E-02 0. -1.
</event>
<event>
 5   0  0.4464297E-06  0.2597773E+04  0.7818609E-02  0.8368958E-01
        1   -1    0    0  501    0  0.00000000000E+00  0.00000000000E+00  0.25230286279E+04  0.25230286279E+04  0.50400001928E-02 0.  1.
       -1   -1    0    0    0  501  0.00000000000E+00  0.00000000000E+00 -0.66868307682E+03  0.66868307684E+03  0.50400001928E-02 0. -1.
    10030    2    1    2    0    0  0.00000000000E+00  0.00000000000E+00  0.18543455511E+04  0.31917117048E+04  0.25977733126E+04 0.  0.
        4    1    3    3  502    0  0.51412326953E+02 -0.68755580349E+03 -0.42528933346E+03  0.81009187153E+03  0.12699999809E+01 0. -1.
       -4    1    3    3    0  502 -0.51412326953E+02  0.68755580349E+03  0.22796348846E+04  0.23816198333E+04  0.12699999809E+01 0.  1.
</event>
<event>
 5   0  0.3705250E-06  0.2585766E+04  0.7818609E-02  0.8373052E-01
        3   -1    0    0  501    0  0.00000000000E+00  0.00000000000E+00  0.95373874411E+03  0.95373874946E+03  0.10100000352E+00 0. -1.
       -3   -1    0    0    0  501  0.00000000000E+00  0.00000000000E+00 -0.17526256118E+04  0.17526256147E+04  0.10100000352E+00 0.  1.
    10030    2    1    2    0    0  0.00000000000E+00  0.00000000000E+00 -0.79888686765E+03  0.27063643641E+04  0.25857663940E+04 0.  0.
        4    1    3    3  502    0 -0.12482908006E+04  0.32405014834E+03 -0.49483657944E+03  0.13813411145E+04  0.12699999809E+01 0.  1.
       -4    1    3    3    0  502  0.12482908006E+04 -0.32405014834E+03 -0.30405028822E+03  0.13250232496E+04  0.12699999809E+01 0. -1.
</event>
<event>
 5   0  0.1085255E-05  0.2582762E+04  0.7818609E-02  0.8374080E-01
        2   -1    0    0  501    0  0.00000000000E+00  0.00000000000E+00  0.22612542625E+04  0.22612542625E+04  0.25500000920E-02 0. -1.
       -2   -1    0    0    0  501  0.00000000000E+00  0.00000000000E+00 -0.73749558289E+03  0.73749558289E+03  0.25500000920E-02 0.  1.
    10030    2    1    2    0    0  0.00000000000E+00  0.00000000000E+00  0.15237586796E+04  0.29987498454E+04  0.25827621109E+04 0.  0.
        5    1    3    3  502    0  0.20468181449E+03  0.76257905319E+03  0.19483367244E+04  0.21022510648E+04  0.46999998093E+01 0. -1.
       -5    1    3    3    0  502 -0.20468181449E+03 -0.76257905319E+03 -0.42457804481E+03  0.89649878064E+03  0.46999998093E+01 0.  1.
</event>
<event>
 5   0  0.1086507E-05  0.2602063E+04  0.7818609E-02  0.8367501E-01
       -2   -1    0    0    0  501  0.00000000000E+00  0.00000000000E+00  0.14548752084E+04  0.14548752084E+04  0.25500000920E-02 0.  1.
        2   -1    0    0  501    0  0.00000000000E+00  0.00000000000E+00 -0.11634554330E+04  0.11634554330E+04  0.25500000920E-02 0. -1.
    10030    2    1    2    0    0  0.00000000000E+00  0.00000000000E+00  0.29141977543E+03  0.26183306414E+04  0.26020626169E+04 0.  0.
        2    1    3    3  502    0 -0.50507519019E+03  0.82719565225E+03  0.10190814578E+04  0.14063714347E+04  0.25500000920E-02 0.  1.
       -2    1    3    3    0  502  0.50507519019E+03 -0.82719565225E+03 -0.72766168232E+03  0.12119592067E+04  0.25500000920E-02 0. -1.
</event>
<event>
 5   0  0.1136881E-05  0.2609665E+04  0.7818609E-02  0.8364925E-01
        2   -1    0    0  501    0  0.00000000000E+00  0.00000000000E+00  0.19658138035E+04  0.19658138035E+04  0.25500000920E-02 0.  1.
       -2   -1    0    0    0  501  0.00000000000E+00  0.00000000000E+00 -0.86609849897E+03  0.86609849897E+03  0.25500000920E-02 0. -1.
    10030    2    1    2    0    0  0.00000000000E+00  0.00000000000E+00  0.10997153046E+04  0.28319123025E+04  0.26096654073E+04 0.  0.
        3    1    3    3  502    0 -0.10010680514E+03  0.10471639036E+04 -0.28790979120E+03  0.10906262749E+04  0.10100000352E+00 0. -1.
       -3    1    3    3    0  502  0.10010680514E+03 -0.10471639036E+04  0.13876250958E+04  0.17412860276E+04  0.10100000352E+00 0.  1.
</event>
<event>
 5   0  0.4218590E-06  0.2627854E+04  0.7818609E-02  0.8358801E-01
        1   -1    0    0  501    0  0.00000000000E+00  0.00000000000E+00  0.14185742880E+04  0.14185742881E+04  0.50400001928E-02 0. -1.
       -1   -1    0    0    0  501  0.00000000000E+00  0.00000000000E+00 -0.12169994037E+04  0.12169994037E+04  0.50400001928E-02 0.  1.
    10030    2    1    2    0    0  0.00000000000E+00  0.00000000000E+00  0.20157488431E+03  0.26355736918E+04  0.26278539250E+04 0.  0.
        1    1    3    3  502    0  0.77348008722E+03 -0.71361304692E+03  0.88979350090E+03  0.13781318879E+04  0.50400001928E-02 0. -1.
       -1    1    3    3    0  502 -0.77348008722E+03  0.71361304692E+03 -0.68821861659E+03  0.12574418039E+04  0.50400001928E-02 0.  1.
</event>
<event>
 5   0  0.1136881E-05  0.2574578E+04  0.7818609E-02  0.8376888E-01
       -2   -1    0    0    0  501  0.00000000000E+00  0.00000000000E+00  0.78347515220E+03  0.78347515221E+03  0.25500000920E-02 0. -1.
        2   -1    0    0  501    0  0.00000000000E+00  0.00000000000E+00 -0.21150800019E+04  0.21150800019E+04  0.25500000920E-02 0.  1.
    10030    2    1    2    0    0  0.00000000000E+00  0.00000000000E+00 -0.13316048497E+04  0.28985551541E+04  0.25745777335E+04 0.  0.
        3    1    3    3  502    0 -0.44857962077E+03 -0.88601393689E+03  0.25633187623E+03  0.10256463394E+04  0.10100000352E+00 0. -1.
       -3    1    3    3    0  502  0.44857962077E+03  0.88601393689E+03 -0.15879367259E+04  0.18729088147E+04  0.10100000352E+00 0.  1.
</event>
<event>
 5   0  0.1085255E-05  0.2609836E+04  0.7818609E-02  0.8364868E-01
       -2   -1    0    0    0  501  0.00000000000E+00  0.00000000000E+00  0.14255818364E+04  0.14255818365E+04  0.25500000920E-02 0.  1.
        2   -1    0    0  501    0  0.00000000000E+00  0.00000000000E+00 -0.11944674524E+04  0.11944674524E+04  0.25500000920E-02 0. -1.
    10030    2    1    2    0    0  0.00000000000E+00  0.00000000000E+00  0.23111438410E+03  0.26200492888E+04  0.26098360901E+04 0.  0.
        5    1    3    3  502    0  0.87651864062E+03  0.62594731050E+02  0.10840011258E+04  0.13954510233E+04  0.46999998093E+01 0.  1.
       -5    1    3    3    0  502 -0.87651864062E+03 -0.62594731050E+02 -0.85288674170E+03  0.12245982655E+04  0.46999998093E+01 0. -1.
</event>
<event>
 5   0  0.4218590E-06  0.2600750E+04  0.7818609E-02  0.8367947E-01
        1   -1    0    0  501    0  0.00000000000E+00  0.00000000000E+00  0.14780739971E+04  0.14780739972E+04  0.50400001928E-02 0. -1.
       -1   -1    0    0    0  501  0.00000000000E+00  0.00000000000E+00 -0.11440391862E+04  0.11440391862E+04  0.50400001928E-02 0.  1.
    10030    2    1    2    0    0  0.00000000000E+00  0.00000000000E+00  0.33403481098E+03  0.26221131833E+04  0.26007495634E+04 0.  0.
        1    1    3    3  502    0  0.88086654089E+03 -0.92577762522E+03  0.40979513906E+03  0.13419844001E+04  0.50400001928E-02 0. -1.
       -1    1    3    3    0  502 -0.88086654089E+03  0.92577762522E+03 -0.75760328086E+02  0.12801287832E+04  0.50400001928E-02 0.  1.
</event>
<event>
 5   0  0.4415080E-06  0.2554550E+04  0.7818609E-02  0.8383805E-01
       -1   -1    0    0    0  501  0.00000000000E+00  0.00000000000E+00  0.15786549275E+04  0.15786549275E+04  0.50400001928E-02 0.  1.
        1   -1    0    0  501    0  0.00000000000E+00  0.00000000000E+00 -0.10334313593E+04  0.10334313593E+04  0.50400001928E-02 0. -1.
    10030    2    1    2    0    0  0.00000000000E+00  0.00000000000E+00  0.54522356816E+03  0.26120862868E+04  0.25545500642E+04 0.  0.
        2    1    3    3  502    0 -0.29582180161E+03 -0.12384170726E+04  0.16911889649E+03  0.12844409621E+04  0.25500000920E-02 0. -1.
       -2    1    3    3    0  502  0.29582180161E+03  0.12384170726E+04  0.37610467167E+03  0.13276453247E+04  0.25500000920E-02 0.  1.
</event>
<event>
 5   0  0.1116310E-05  0.2610118E+04  0.7818609E-02  0.8364773E-01
        2   -1    0    0  501    0  0.00000000000E+00  0.00000000000E+00  0.19254318023E+04  0.19254318023E+04  0.25500000920E-02 0. -1.
       -2   -1    0    0    0  501  0.00000000000E+00  0.00000000000E+00 -0.88456972702E+03  0.88456972703E+03  0.25500000920E-02 0.  1.
    10030    2    1    2    0    0  0.00000000000E+00  0.00000000000E+00  0.10408620753E+04  0.28100015293E+04  0.26101177627E+04 0.  0.
        4    1    3    3  502    0 -0.11556566474E+04  0.60629913199E+03  0.52690367562E+03  0.14073983162E+04  0.12699999809E+01 0.  1.
       -4    1    3    3    0  502  0.11556566474E+04 -0.60629913199E+03  0.51395839967E+03  0.14026032132E+04  0.12699999809E+01 0. -1.
</event>
<event>
 5   0  0.1116310E-05  0.2611076E+04  0.7818609E-02  0.8364449E-01
        2   -1    0    0  501    0  0.00000000000E+00  0.00000000000E+00  0.11929665511E+04  0.11929665511E+04  0.25500000920E-02 0.  1.
       -2   -1    0    0    0  501  0.00000000000E+00  0.00000000000E+00 -0.14287324365E+04  0.14287324365E+04  0.25500000920E-02 0. -1.
    10030    2    1    2    0    0  0.00000000000E+00  0.00000000000E+00 -0.23576588540E+03  0.26216989876E+04  0.26110764119E+04 0.  0.
        4    1    3    3  502    0  0.40744586379E+03 -0.10070498705E+04 -0.84489134736E+03  0.13762283878E+04  0.12699999809E+01 0. -1.
       -4    1    3    3    0  502 -0.40744586379E+03  0.10070498705E+04  0.60912546196E+03  0.12454705998E+04  0.12699999809E+01 0.  1.
</event>
<event>
 5   0  0.1086507E-05  0.2613107E+04  0.7818609E-02  0.8363762E-01
        2   -1    0    0  501    0  0.00000000000E+00  0.00000000000E+00  0.77097575578E+03  0.77097575579E+03  0.25500000920E-02 0.  1.
       -2   -1    0    0    0  501  0.00000000000E+00  0.00000000000E+00 -0.22141846068E+04  0.22141846068E+04  0.25500000920E-02 0. -1.
    10030    2    1    2    0    0  0.00000000000E+00  0.00000000000E+00 -0.14432088510E+04  0.29851603626E+04  0.26131074610E+04 0.  0.
        2    1    3    3  502    0 -0.72250848911E+03 -0.35647440460E+03 -0.18966405137E+04  0.20606643968E+04  0.25500000920E-02 0. -1.
       -2    1    3    3    0  502  0.72250848911E+03  0.35647440460E+03  0.45343166271E+03  0.92449596577E+03  0.25500000920E-02 0.  1.
</event>
<event>
 5   0  0.1085061E-05  0.2597478E+04  0.7818609E-02  0.8369058E-01
        2   -1    0    0  501    0  0.00000000000E+00  0.00000000000E+00  0.33101468574E+04  0.33101468574E+04  0.25500000920E-02 0. -1.
       -2   -1    0    0    0  501  0.00000000000E+00  0.00000000000E+00 -0.50956135792E+03  0.50956135793E+03  0.25500000920E-02 0.  1.
    10030    2    1    2    0    0  0.00000000000E+00  0.00000000000E+00  0.28005854995E+04  0.38197082154E+04  0.25974779519E+04 0.  0.
        1    1    3    3  502    0 -0.22861697146E+03  0.11916000908E+04  0.20814367989E+04  0.24092645442E+04  0.50400001928E-02 0.  1.
       -1    1    3    3    0  502  0.22861697146E+03 -0.11916000908E+04  0.71914870057E+03  0.14104436712E+04  0.50400001928E-02 0. -1.
</event>
<event>
 5   0  0.1116310E-05  0.2571726E+04  0.7818609E-02  0.8377869E-01
        2   -1    0    0  501    0  0.00000000000E+00  0.00000000000E+00  0.16317613549E+04  0.16317613549E+04  0.25500000920E-02 0. -1.
       -2   -1    0    0    0  501  0.00000000000E+00  0.00000000000E+00 -0.10132875382E+04  0.10132875382E+04  0.25500000920E-02 0.  1.
    10030    2    1    2    0    0  0.00000000000E+00  0.00000000000E+00  0.61847381673E+03  0.26450488931E+04  0.25717258378E+04 0.  0.
        4    1    3    3  502    0 -0.10679634056E+04 -0.49167884472E+03 -0.22632806730E+03  0.11972969260E+04  0.12699999809E+01 0.  1.
       -4    1    3    3    0  502  0.10679634056E+04  0.49167884472E+03  0.84480188403E+03  0.14477519671E+04  0.12699999809E+01 0. -1.
</event>
<event>
 5   0  0.1085255E-05  0.2577010E+04  0.7818609E-02  0.8376053E-01
        2   -1    0    0  501    0  0.00000000000E+00  0.00000000000E+00  0.12298572926E+04  0.12298572926E+04  0.25500000920E-02 0.  1.
       -2   -1    0    0    0  501  0.00000000000E+00  0.00000000000E+00 -0.13499490820E+04  0.13499490820E+04  0.25500000920E-02 0. -1.
    10030    2    1    2    0    0  0.00000000000E+00  0.00000000000E+00 -0.12009178943E+03  0.25798063746E+04  0.25770096803E+04 0.  0.
        5    1    3    3  502    0  0.46795830390E+03  0.83469771419E+03 -0.92383651375E+03  0.13301132442E+04  0.46999998093E+01 0. -1.
       -5    1    3    3    0  502 -0.46795830390E+03 -0.83469771419E+03  0.80374472433E+03  0.12496931304E+04  0.46999998093E+01 0.  1.
</event>
<event>
 5   0  0.4361864E-06  0.2607968E+04  0.7818609E-02  0.8365500E-01
        1   -1    0    0  501    0  0.00000000000E+00  0.00000000000E+00  0.78776597529E+03  0.78776597530E+03  0.50400001928E-02 0.  1.
       -1   -1    0    0    0  501  0.00000000000E+00  0.00000000000E+00 -0.21584762055E+04  0.21584762055E+04  0.50400001928E-02 0. -1.
    10030    2    1    2    0    0  0.00000000000E+00  0.00000000000E+00 -0.13707102302E+04  0.29462421808E+04  0.26079678780E+04 0.  0.
        3    1    3    3  502    0  0.96202423155E+02  0.10168958063E+04 -0.16010753462E+04  0.18991509317E+04  0.10100000352E+00 0. -1.
       -3    1    3    3    0  502 -0.96202423155E+02 -0.10168958063E+04  0.23036511601E+03  0.10470912491E+04  0.10100000352E+00 0.  1.
</event>
<event>
 5   0  0.4361864E-06  0.2661449E+04  0.7818609E-02  0.8347623E-01
       -1   -1    0    0    0  501  0.00000000000E+00  0.00000000000E+00  0.12105867914E+04  0.12105867914E+04  0.50400001928E-02 0.  1.
        1   -1    0    0  501    0  0.00000000000E+00  0.00000000000E+00 -0.14627848246E+04  0.14627848246E+04  0.50400001928E-02 0. -1.
    10030    2    1    2    0    0  0.00000000000E+00  0.00000000000E+00 -0.25219803318E+03  0.26733716160E+04  0.26614492197E+04 0.  0.
        3    1    3    3  502    0  0.72591862125E+03 -0.65862277158E+03  0.77798076974E+03  0.12513975740E+04  0.10100000352E+00 0.  1.
       -3    1    3    3    0  502 -0.72591862125E+03  0.65862277158E+03 -0.10301788029E+04  0.14219740420E+04  0.10100000352E+00 0. -1.
</event>
<event>
 5   0  0.4464297E-06  0.2583546E+04  0.7818609E-02  0.8373812E-01
        1   -1    0    0  501    0  0.00000000000E+00  0.00000000000E+00  0.16441136764E+04  0.16441136764E+04  0.50400001928E-02 0.  1.
       -1   -1    0    0    0  501  0.00000000000E+00  0.00000000000E+00 -0.10149408089E+04  0.10149408089E+04  0.50400001928E-02 0. -1.
    10030    2    1    2    0    0  0.00000000000E+00  0.00000000000E+00  0.62917286750E+03  0.26590544853E+04  0.25835464499E+04 0.  0.
        4    1    3    3  502    0 -0.42289480785E+03 -0.42432701193E+03  0.14924924505E+04  0.16082377807E+04  0.12699999809E+01 0.  1.
       -4    1    3    3    0  502  0.42289480785E+03  0.42432701193E+03 -0.86331958297E+03  0.10508167047E+04  0.12699999809E+01 0. -1.
</event>
<event>
 5   0  0.4218590E-06  0.2643058E+04  0.7818609E-02  0.8353721E-01
       -1   -1    0    0    0  501  0.00000000000E+00  0.00000000000E+00  0.95920318166E+03  0.95920318167E+03  0.50400001928E-02 0. -1.
        1   -1    0    0  501    0  0.00000000000E+00  0.00000000000E+00 -0.18207178099E+04  0.18207178099E+04  0.50400001928E-02 0.  1.
    10030    2    1    2    0    0  0.00000000000E+00  0.00000000000E+00 -0.86151462826E+03  0.27799209916E+04  0.26430575599E+04 0.  0.
        1    1    3    3  502    0 -0.11037573910E+04  0.19270639108E+03  0.30625779128E+03  0.11615549776E+04  0.50400001928E-02 0. -1.
       -1    1    3    3    0  502  0.11037573910E+04 -0.19270639108E+03 -0.11677724195E+04  0.16183660140E+04  0.50400001928E-02 0.  1.
</event>
<event>
 5   0  0.1085061E-05  0.2604593E+04  0.7818609E-02  0.8366643E-01
       -2   -1    0    0    0  501  0.00000000000E+00  0.00000000000E+00  0.11871199759E+04  0.11871199759E+04  0.25500000920E-02 0. -1.
        2   -1    0    0  501    0  0.00000000000E+00  0.00000000000E+00 -0.14286474404E+04  0.14286474404E+04  0.25500000920E-02 0.  1.
    10030    2    1    2    0    0  0.00000000000E+00  0.00000000000E+00 -0.24152746448E+03  0.26157674163E+04  0.26045928012E+04 0.  0.
        1    1    3    3  502    0  0.95337569258E+03 -0.47897783630E+03  0.62918697572E+03  0.12386368432E+04  0.50400001928E-02 0. -1.
       -1    1    3    3    0  502 -0.95337569258E+03  0.47897783630E+03 -0.87071444020E+03  0.13771305731E+04  0.50400001928E-02 0.  1.
</event>
<event>
 5   0  0.1116310E-05  0.2588277E+04  0.7818609E-02  0.8372194E-01
       -2   -1    0    0    0  501  0.00000000000E+00  0.00000000000E+00  0.76006381898E+03  0.76006381899E+03  0.25500000920E-02 0.  1.
        2   -1    0    0  501    0  0.00000000000E+00  0.00000000000E+00 -0.22034917727E+04  0.22034917727E+04  0.25500000920E-02 0. -1.
    10030    2    1    2    0    0  0.00000000000E+00  0.00000000000E+00 -0.14434279537E+04  0.29635555917E+04  0.25882769341E+04 0.  0.
        4    1    3    3  502    0 -0.69125508016E+03 -0.81901627896E+03 -0.15522643927E+04  0.18863052798E+04  0.12699999809E+01 0. -1.
       -4    1    3    3    0  502  0.69125508016E+03  0.81901627896E+03  0.10883643896E+03  0.10772503119E+04  0.12699999809E+01 0.  1.
</event>
<event>
 5   0  0.1086507E-05  0.2612407E+04  0.7818609E-02  0.8363999E-01
       -2   -1    0    0    0  501  0.00000000000E+00  0.00000000000E+00  0.23549366671E+04  0.23549366671E+04  0.25500000920E-02 0.  1.
        2   -1    0    0  501    0  0.00000000000E+00  0.00000000000E+00 -0.72450678481E+03  0.72450678482E+03  0.25500000920E-02 0. -1.
    10030    2    1    2    0    0  0.00000000000E+00  0.00000000000E+00  0.16304298823E+04  0.30794434519E+04  0.26124070074E+04 0.  0.
        2    1    3    3  502    0 -0.89922393310E+03  0.63461092310E+03  0.16444175723E+04  0.19787480531E+04  0.25500000920E-02 0.  1.
       -2    1    3    3    0  502  0.89922393310E+03 -0.63461092310E+03 -0.13987689972E+02  0.11006953989E+04  0.25500000920E-02 0. -1.
</event>
<event>
 5   0  0.4597705E-06  0.2582633E+04  0.7818609E-02  0.8374124E-01
       -1   -1    0    0    0  501  0.00000000000E+00  0.00000000000E+00  0.15986213818E+04  0.15986213819E+04  0.50400001928E-02 0.  1.
        1   -1    0    0  501    0  0.00000000000E+00  0.00000000000E+00 -0.10430851813E+04  0.10430851813E+04  0.50400001928E-02 0. -1.
    10030    2    1    2    0    0  0.00000000000E+00  0.00000000000E+00  0.55553620054E+03  0.26417065632E+04  0.25826329774E+04 0.  0.
        5    1    3    3  502    0 -0.10621825644E+02  0.11491215560E+04 -0.32467134193E+03  0.11941636169E+04  0.46999998093E+01 0. -1.
       -5    1    3    3    0  502  0.10621825644E+02 -0.11491215560E+04  0.88020754246E+03  0.14475429463E+04  0.46999998093E+01 0.  1.
</event>
<event>
 5   0  0.4361864E-06  0.2553920E+04  0.7818609E-02  0.8384024E-01
        1   -1    0    0  501    0  0.00000000000E+00  0.00000000000E+00  0.22011334461E+04  0.22011334461E+04  0.50400001928E-02 0. -1.
       -1   -1    0    0    0  501  0.00000000000E+00  0.00000000000E+00 -0.74081216392E+03  0.74081216394E+03  0.50400001928E-02 0.  1.
    10030    2    1    2    0    0  0.00000000000E+00  0.00000000000E+00  0.14603212822E+04  0.29419456101E+04  0.25539196787E+04 0.  0.
        3    1    3    3  502    0 -0.10646567799E+04  0.43475975291E+03  0.13695784906E+04  0.17883666721E+04  0.10100000352E+00 0. -1.
       -3    1    3    3    0  502  0.10646567799E+04 -0.43475975291E+03  0.90742791578E+02  0.11535789380E+04  0.10100000352E+00 0.  1.
</event>
<event>
 5   0  0.1085061E-05  0.2611446E+04  0.7818609E-02  0.8364323E-01
       -2   -1    0    0    0  501  0.00000000000E+00  0.00000000000E+00  0.80967972950E+03  0.80967972950E+03  0.25500000920E-02 0.  1.
        2   -1    0    0  501    0  0.00000000000E+00  0.00000000000E+00 -0.21056635693E+04  0.21056635693E+04  0.25500000920E-02 0. -1.
    10030    2    1    2    0    0  0.00000000000E+00  0.00000000000E+00 -0.12959838398E+04  0.29153432988E+04  0.26114464262E+04 0.  0.
        1    1    3    3  502    0 -0.58652144229E+03  0.46784427279E+03 -0.18410095243E+04  0.19880145207E+04  0.50400001928E-02 0. -1.
       -1    1    3    3    0  502  0.58652144229E+03 -0.46784427279E+03  0.54502568453E+03  0.92732877809E+03  0.50400001928E-02 0.  1.
</event>
<event>
 5   0  0.4464297E-06  0.2602878E+04  0.7818609E-02  0.8367224E-01
       -1   -1    0    0    0  501  0.00000000000E+00  0.00000000000E+00  0.69004214570E+03  0.69004214572E+03  0.50400001928E-02 0.  1.
        1   -1    0    0  501    0  0.00000000000E+00  0.00000000000E+00 -0.24545513237E+04  0.24545513237E+04  0.50400001928E-02 0. -1.
    10030    2    1    2    0    0  0.00000000000E+00  0.00000000000E+00 -0.17645091780E+04  0.31445934694E+04  0.26028783008E+04 0.  0.
        4    1    3    3  502    0 -0.73751671508E+03 -0.10071636823E+04 -0.13268575510E+04  0.18217744541E+04  0.12699999809E+01 0. -1.
       -4    1    3    3    0  502  0.73751671508E+03  0.10071636823E+04 -0.43765162697E+03  0.13228190154E+04  0.12699999809E+01 0.  1.
</event>
<event>
 5   0  0.4361864E-06  0.2599781E+04  0.7818609E-02  0.8368276E-01
        1   -1    0    0  501    0  0.00000000000E+00  0.00000000000E+00  0.71385234420E+03  0.71385234422E+03  0.50400001928E-02 0.  1.
       -1   -1    0    0    0  501  0.00000000000E+00  0.00000000000E+00 -0.23670373701E+04  0.23670373701E+04  0.50400001928E-02 0. -1.
    10030    2    1    2    0    0  0.00000000000E+00  0.00000000000E+00 -0.16531850259E+04  0.30808897143E+04  0.25997808950E+04 0.  0.
        3    1    3    3  502    0  0.10996669468E+04  0.69268339021E+03 -0.79667145992E+03  0.15243894182E+04  0.10100000352E+00 0. -1.
       -3    1    3    3    0  502 -0.10996669468E+04 -0.69268339021E+03 -0.85651356599E+03  0.15565002961E+04  0.10100000352E+00 0.  1.
</event>
<event>
 5   0  0.4218590E-06  0.2554777E+04  0.7818609E-02  0.8383727E-01
        1   -1    0    0  501    0  0.00000000000E+00  0.00000000000E+00  0.12428567686E+04  0.12428567686E+04  0.50400001928E-02 0. -1.
       -1   -1    0    0    0  501  0.00000000000E+00  0.00000000000E+00 -0.13128799280E+04  0.13128799280E+04  0.50400001928E-02 0.  1.
    10030    2    1    2    0    0  0.00000000000E+00  0.00000000000E+00 -0.70023159375E+02  0.25557366966E+04  0.25547772544E+04 0.  0.
        1    1    3    3  502    0  0.10174342559E+04 -0.29446821609E+03 -0.74930893990E+03  0.12974389707E+04  0.50400001928E-02 0.  1.
       -1    1    3    3    0  502 -0.10174342559E+04  0.29446821609E+03  0.67928578052E+03  0.12582977259E+04  0.50400001928E-02 0. -1.
</event>
<event>
 5   0  0.4597705E-06  0.2579610E+04  0.7818609E-02  0.8375160E-01
       -1   -1    0    0    0  501  0.00000000000E+00  0.00000000000E+00  0.15731947202E+04  0.15731947202E+04  0.50400001928E-02 0.  1.
        1   -1    0    0  501    0  0.00000000000E+00  0.00000000000E+00 -0.10574639676E+04  0.10574639676E+04  0.50400001928E-02 0. -1.
    10030    2    1    2    0    0  0.00000000000E+00  0.00000000000E+00  0.51573075257E+03  0.26306586878E+04  0.25796098392E+04 0.  0.
        5    1    3    3  502    0 -0.31889281982E+03 -0.41405030099E+03  0.14603714733E+04  0.15510761465E+04  0.46999998093E+01 0.  1.
       -5    1    3    3    0  502  0.31889281982E+03  0.41405030099E+03 -0.94464072071E+03  0.10795825413E+04  0.46999998093E+01 0. -1.
</event>
<event>
 5   0  0.4361864E-06  0.2658949E+04  0.7818609E-02  0.8348449E-01
        1   -1    0    0  501    0  0.00000000000E+00  0.00000000000E+00  0.12398631581E+04  0.12398631581E+04  0.50400001928E-02 0. -1.
       -1   -1    0    0    0  501  0.00000000000E+00  0.00000000000E+00 -0.14255625351E+04  0.14255625351E+04  0.50400001928E-02 0.  1.
    10030    2    1    2    0    0  0.00000000000E+00  0.00000000000E+00 -0.18569937694E+03  0.26654256932E+04  0.26589490156E+04 0.  0.
        3    1    3    3  502    0 -0.11632236812E+04  0.33066996929E+03  0.46082755431E+03  0.12941383258E+04  0.10100000352E+00 0. -1.
       -3    1    3    3    0  502  0.11632236812E+04 -0.33066996929E+03 -0.64652693125E+03  0.13712873675E+04  0.10100000352E+00 0.  1.
</event>
<event>
 5   0  0.1116310E-05  0.2594181E+04  0.7818609E-02  0.8370180E-01
       -2   -1    0    0    0  501  0.00000000000E+00  0.00000000000E+00  0.10807765207E+04  0.10807765207E+04  0.25500000920E-02 0. -1.
        2   -1    0    0  501    0  0.00000000000E+00  0.00000000000E+00 -0.15566995314E+04  0.15566995314E+04  0.25500000920E-02 0.  1.
    10030    2    1    2    0    0  0.00000000000E+00  0.00000000000E+00 -0.47592301077E+03  0.26374760521E+04  0.25941814149E+04 0.  0.
        4    1    3    3  502    0  0.79848487513E+03  0.70103128398E+03  0.51837576487E+03  0.11822597022E+04  0.12699999809E+01 0. -1.
       -4    1    3    3    0  502 -0.79848487513E+03 -0.70103128398E+03 -0.99429877564E+03  0.14552163499E+04  0.12699999809E+01 0.  1.
</event>
<event>
 5   0  0.1085061E-05  0.2619225E+04  0.7818609E-02  0.8361700E-01
       -2   -1    0    0    0  501  0.00000000000E+00  0.00000000000E+00  0.78701033747E+03  0.78701033748E+03  0.25500000920E-02 0.  1.
        2   -1    0    0  501    0  0.00000000000E+00  0.00000000000E+00 -0.21792413988E+04  0.21792413988E+04  0.25500000920E-02 0. -1.
    10030    2    1    2    0    0  0.00000000000E+00  0.00000000000E+00 -0.13922310613E+04  0.29662517362E+04  0.26192254647E+04 0.  0.
        1    1    3    3  502    0  0.78222085307E+03 -0.88541825558E+03 -0.56231968500E+02  0.11827920293E+04  0.50400001928E-02 0.  1.
       -1    1    3    3    0  502 -0.78222085307E+03  0.88541825558E+03 -0.13359990928E+04  0.17834597069E+04  0.50400001928E-02 0. -1.
</event>
<event>
 5   0  0.4464297E-06  0.2605832E+04  0.7818609E-02  0.8366223E-01
       -1   -1    0    0    0  501  0.00000000000E+00  0.00000000000E+00  0.13709443647E+04  0.13709443647E+04  0.50400001928E-02 0. -1.
        1   -1    0    0  501    0  0.00000000000E+00  0.00000000000E+00 -0.12382635792E+04  0.12382635792E+04  0.50400001928E-02 0.  1.
    10030    2    1    2    0    0  0.00000000000E+00  0.00000000000E+00  0.13268078557E+03  0.26092079439E+04  0.26058322862E+04 0.  0.
        4    1    3    3  502    0 -0.30003337904E+03 -0.11964957413E+04 -0.35368695636E+03  0.12832451689E+04  0.12699999809E+01 0.  1.
       -4    1    3    3    0  502  0.30003337904E+03  0.11964957413E+04  0.48636774193E+03  0.13259627750E+04  0.12699999809E+01 0. -1.
</event>
<event>
 5   0  0.1085255E-05  0.2415283E+04  0.7818609E-02  0.8433804E-01
       -2   -1    0    0    0  501  0.00000000000E+00  0.00000000000E+00  0.80180907520E+03  0.80180907520E+03  0.25500000920E-02 0. -1.
        2   -1    0    0  501    0  0.00000000000E+00  0.00000000000E+00 -0.18188844905E+04  0.18188844905E+04  0.25500000920E-02 0.  1.
    10030    2    1    2    0    0  0.00000000000E+00  0.00000000000E+00 -0.10170754153E+04  0.26206935657E+04  0.24152830817E+04 0.  0.
        5    1    3    3  502    0 -0.78043285608E+03 -0.17640170561E+03 -0.14899995691E+04  0.16912462300E+04  0.46999998093E+01 0.  1.
       -5    1    3    3    0  502  0.78043285608E+03  0.17640170561E+03  0.47292415380E+03  0.92944733570E+03  0.46999998093E+01 0. -1.
</event>
<event>
 5   0  0.4464297E-06  0.2599605E+04  0.7818609E-02  0.8368335E-01
       -1   -1    0    0    0  501  0.00000000000E+00  0.00000000000E+00  0.11217439976E+04  0.11217439976E+04  0.50400001928E-02 0.  1.
        1   -1    0    0  501    0  0.00000000000E+00  0.00000000000E+00 -0.15061249763E+04  0.15061249763E+04  0.50400001928E-02 0. -1.
    10030    2    1    2    0    0  0.00000000000E+00  0.00000000000E+00 -0.38438097874E+03  0.26278689739E+04  0.25996050867E+04 0.  0.
        4    1    3    3  502    0  0.53600330726E+03  0.67000956496E+03 -0.11791626478E+04  0.14582998750E+04  0.12699999809E+01 0. -1.
       -4    1    3    3    0  502 -0.53600330726E+03 -0.67000956496E+03  0.79478166910E+03  0.11695690988E+04  0.12699999809E+01 0.  1.
</event>
<event>
 5   0  0.4218590E-06  0.2640272E+04  0.7818609E-02  0.8354649E-01
       -1   -1    0    0    0  501  0.00000000000E+00  0.00000000000E+00  0.13618577692E+04  0.13618577693E+04  0.50400001928E-02 0.  1.
        1   -1    0    0  501    0  0.00000000000E+00  0.00000000000E+00 -0.12796922938E+04  0.12796922938E+04  0.50400001928E-02 0. -1.
    10030    2    1    2    0    0  0.00000000000E+00  0.00000000000E+00  0.82165475433E+02  0.26415500631E+04  0.26402718743E+04 0.  0.
        1    1    3    3  502    0 -0.96466462761E+03  0.52328385233E+03 -0.69299929704E+03  0.12979413930E+04  0.50400001928E-02 0. -1.
       -1    1    3    3    0  502  0.96466462761E+03 -0.52328385233E+03  0.77516477247E+03  0.13436086701E+04  0.50400001928E-02 0.  1.
</event>
<event>
 5   0  0.4218590E-06  0.2622483E+04  0.7818609E-02  0.8360604E-01
       -1   -1    0    0    0  501  0.00000000000E+00  0.00000000000E+00  0.94665229323E+03  0.94665229324E+03  0.50400001928E-02 0. -1.
        1   -1    0    0  501    0  0.00000000000E+00  0.00000000000E+00 -0.18162475499E+04  0.18162475499E+04  0.50400001928E-02 0.  1.
    10030    2    1    2    0    0  0.00000000000E+00  0.00000000000E+00 -0.86959525666E+03  0.27628998431E+04  0.26224834857E+04 0.  0.
        1    1    3    3  502    0  0.56846821240E+03 -0.11783215547E+04 -0.34200735648E+03  0.13522451060E+04  0.50400001928E-02 0.  1.
       -1    1    3    3    0  502 -0.56846821240E+03  0.11783215547E+04 -0.52758790018E+03  0.14106547371E+04  0.50400001928E-02 0. -1.
</event>
<event>
 5   0  0.4361864E-06  0.2595954E+04  0.7818609E-02  0.8369577E-01
        1   -1    0    0  501    0  0.00000000000E+00  0.00000000000E+00  0.94638118560E+03  0.94638118562E+03  0.50400001928E-02 0.  1.
       -1   -1    0    0    0  501  0.00000000000E+00  0.00000000000E+00 -0.17801965184E+04  0.17801965184E+04  0.50400001928E-02 0. -1.
    10030    2    1    2    0    0  0.00000000000E+00  0.00000000000E+00 -0.83381533276E+03  0.27265777040E+04  0.25959541534E+04 0.  0.
        3    1    3    3  502    0  0.87359624410E+03  0.24217547376E+03  0.55877236703E+03  0.10649159244E+04  0.10100000352E+00 0.  1.
       -3    1    3    3    0  502 -0.87359624410E+03 -0.24217547376E+03 -0.13925876998E+04  0.16616617795E+04  0.10100000352E+00 0. -1.
</event>
<event>
 5   0  0.1085255E-05  0.2601571E+04  0.7818609E-02  0.8367668E-01
       -2   -1    0    0    0  501  0.00000000000E+00  0.00000000000E+00  0.94939503837E+03  0.94939503837E+03  0.25500000920E-02 0.  1.
        2   -1    0    0  501    0  0.00000000000E+00  0.00000000000E+00 -0.17822323776E+04  0.17822323776E+04  0.25500000920E-02 0. -1.
    10030    2    1    2    0    0  0.00000000000E+00  0.00000000000E+00 -0.83283733924E+03  0.27316274160E+04  0.26015707382E+04 0.  0.
        5    1    3    3  502    0 -0.51573828288E+03 -0.11937088534E+04 -0.45114282079E+03  0.13764006458E+04  0.46999998093E+01 0.  1.
       -5    1    3    3    0  502  0.51573828288E+03  0.11937088534E+04 -0.38169451845E+03  0.13552267701E+04  0.46999998093E+01 0. -1.
</event>
<event>
 5   0  0.1085061E-05  0.2585730E+04  0.7818609E-02  0.8373065E-01
       -2   -1    0    0    0  501  0.00000000000E+00  0.00000000000E+00  0.23518372676E+04  0.23518372676E+04  0.25500000920E-02 0. -1.
        2   -1    0    0  501    0  0.00000000000E+00  0.00000000000E+00 -0.71072102331E+03  0.71072102332E+03  0.25500000920E-02 0.  1.
    10030    2    1    2    0    0  0.00000000000E+00  0.00000000000E+00  0.16411162443E+04  0.30625582909E+04  0.25857302176E+04 0.  0.
        1    1    3    3  502    0  0.42925758168E+03  0.10984946483E+04  0.14479002485E+04  0.18674495156E+04  0.50400001928E-02 0. -1.
       -1    1    3    3    0  502 -0.42925758168E+03 -0.10984946483E+04  0.19321599583E+03  0.11951087753E+04  0.50400001928E-02 0.  1.
</event>
<event>
 5   0  0.4464297E-06  0.2608293E+04  0.7818609E-02  0.8365390E-01
        1   -1    0    0  501    0  0.00000000000E+00  0.00000000000E+00  0.66381837268E+03  0.66381837270E+03  0.50400001928E-02 0.  1.
       -1   -1    0    0    0  501  0.00000000000E+00  0.00000000000E+00 -0.25621439266E+04  0.25621439266E+04  0.50400001928E-02 0. -1.
    10030    2    1    2    0    0  0.00000000000E+00  0.00000000000E+00 -0.18983255540E+04  0.32259622993E+04  0.26082930909E+04 0.  0.
        4    1    3    3  502    0  0.63974249639E+03 -0.53090498553E+03 -0.21919356639E+04  0.23442939519E+04  0.12699999809E+01 0. -1.
       -4    1    3    3    0  502 -0.63974249639E+03  0.53090498553E+03  0.29361010993E+03  0.88166834745E+03  0.12699999809E+01 0.  1.
</event>
<event>
 5   0  0.4361864E-06  0.2662234E+04  0.7818609E-02  0.8347364E-01
        1   -1    0    0  501    0  0.00000000000E+00  0.00000000000E+00  0.23549612853E+04  0.23549612853E+04  0.50400001928E-02 0. -1.
       -1   -1    0    0    0  501  0.00000000000E+00  0.00000000000E+00 -0.75239963217E+03  0.75239963218E+03  0.50400001928E-02 0.  1.
    10030    2    1    2    0    0  0.00000000000E+00  0.00000000000E+00  0.16025616532E+04  0.31073609175E+04  0.26622336523E+04 0.  0.
        3    1    3    3  502    0 -0.42807387825E+03  0.96416975818E+03  0.17488015291E+04  0.20423460447E+04  0.10100000352E+00 0. -1.
       -3    1    3    3    0  502  0.42807387825E+03 -0.96416975818E+03 -0.14623987595E+03  0.10650148728E+04  0.10100000352E+00 0.  1.
</event>
<event>
 5   0  0.1085255E-05  0.2684920E+04  0.7818609E-02  0.8339914E-01
       -2   -1    0    0    0  501  0.00000000000E+00  0.00000000000E+00  0.79367330109E+03  0.79367330110E+03  0.25500000920E-02 0. -1.
        2   -1    0    0  501    0  0.00000000000E+00  0.00000000000E+00 -0.22707063795E+04  0.22707063795E+04  0.25500000920E-02 0.  1.
    10030    2    1    2    0    0  0.00000000000E+00  0.00000000000E+00 -0.14770330784E+04  0.30643796806E+04  0.26849201315E+04 0.  0.
        5    1    3    3  502    0 -0.13230325784E+04 -0.18771969875E+03 -0.88522538505E+03  0.16029036032E+04  0.46999998093E+01 0. -1.
       -5    1    3    3    0  502  0.13230325784E+04  0.18771969875E+03 -0.59180769339E+03  0.14614760774E+04  0.46999998093E+01 0.  1.
</event>
<event>
 5   0  0.4361864E-06  0.2589557E+04  0.7818609E-02  0.8371757E-01
        1   -1    0    0  501    0  0.00000000000E+00  0.00000000000E+00  0.10608000114E+04  0.10608000114E+04  0.50400001928E-02 0. -1.
       -1   -1    0    0    0  501  0.00000000000E+00  0.00000000000E+00 -0.15803649139E+04  0.15803649139E+04  0.50400001928E-02 0.  1.
    10030    2    1    2    0    0  0.00000000000E+00  0.00000000000E+00 -0.51956490251E+03  0.26411649254E+04  0.25895568106E+04 0.  0.
        3    1    3    3  502    0  0.99001472801E+03  0.73630017643E+03 -0.66027065459E+03  0.13993657345E+04  0.10100000352E+00 0.  1.
       -3    1    3    3    0  502 -0.99001472801E+03 -0.73630017643E+03  0.14070575208E+03  0.12417991908E+04  0.10100000352E+00 0. -1.
</event>
<event>
 5   0  0.4361864E-06  0.2601718E+04  0.7818609E-02  0.8367618E-01
       -1   -1    0    0    0  501  0.00000000000E+00  0.00000000000E+00  0.12440519826E+04  0.12440519826E+04  0.50400001928E-02 0.  1.
        1   -1    0    0  501    0  0.00000000000E+00  0.00000000000E+00 -0.13602600844E+04  0.13602600844E+04  0.50400001928E-02 0. -1.
    10030    2    1    2    0    0  0.00000000000E+00  0.00000000000E+00 -0.11620810184E+03  0.26043120671E+04  0.26017180900E+04 0.  0.
        3    1    3    3  502    0  0.75997924063E+02  0.12350798676E+04 -0.45979741056E+03  0.13200801615E+04  0.10100000352E+00 0. -1.
       -3    1    3    3    0  502 -0.75997924063E+02 -0.12350798676E+04  0.34358930872E+03  0.12842319055E+04  0.10100000352E+00 0.  1.
</event>
<event>
 5   0  0.1116310E-05  0.2598195E+04  0.7818609E-02  0.8368814E-01
       -2   -1    0    0    0  501  0.00000000000E+00  0.00000000000E+00  0.20612154739E+04  0.20612154739E+04  0.25500000920E-02 0. -1.
        2   -1    0    0  501    0  0.00000000000E+00  0.00000000000E+00 -0.81876676147E+03  0.81876676147E+03  0.25500000920E-02 0.  1.
    10030    2    1    2    0    0  0.00000000000E+00  0.00000000000E+00  0.12424487124E+04  0.28799822354E+04  0.25981953108E+04 0.  0.
        4    1    3    3  502    0 -0.11033793905E+04 -0.68415842626E+03  0.57001573592E+03  0.14178992855E+04  0.12699999809E+01 0.  1.
       -4    1    3    3    0  502  0.11033793905E+04  0.68415842626E+03  0.67243297653E+03  0.14620829499E+04  0.12699999809E+01 0. -1.
</event>
<event>
 5   0  0.1086507E-05  0.2600777E+04  0.7818609E-02  0.8367937E-01
       -2   -1    0    0    0  501  0.00000000000E+00  0.00000000000E+00  0.11287944290E+04  0.11287944290E+04  0.25500000920E-02 0. -1.
        2   -1    0    0  501    0  0.00000000000E+00  0.00000000000E+00 -0.14980674932E+04  0.14980674932E+04  0.25500000920E-02 0.  1.
    10030    2    1    2    0    0  0.00000000000E+00  0.00000000000E+00 -0.36927306419E+03  0.26268619222E+04  0.26007769920E+04 0.  0.
        2    1    3    3  502    0  0.45759060549E+03 -0.80080185753E+02 -0.14113998906E+04  0.14858841306E+04  0.25500000920E-02 0.  1.
       -2    1    3    3    0  502 -0.45759060549E+03  0.80080185753E+02  0.10421268265E+04  0.11409777915E+04  0.25500000920E-02 0. -1.
</event>
<event>
 5   0  0.4415080E-06  0.2599882E+04  0.7818609E-02  0.8368241E-01
       -1   -1    0    0    0  501  0.00000000000E+00  0.00000000000E+00  0.98151765368E+03  0.98151765370E+03  0.50400001928E-02 0. -1.
        1   -1    0    0  501    0  0.00000000000E+00  0.00000000000E+00 -0.17216669594E+04  0.17216669594E+04  0.50400001928E-02 0.  1.
    10030    2    1    2    0    0  0.00000000000E+00  0.00000000000E+00 -0.74014930575E+03  0.27031846131E+04  0.25998819315E+04 0.  0.
        2    1    3    3  502    0 -0.42177137727E+03 -0.12002568291E+04 -0.64778079172E+03  0.14276300307E+04  0.25500000920E-02 0.  1.
       -2    1    3    3    0  502  0.42177137727E+03  0.12002568291E+04 -0.92368514026E+02  0.12755545824E+04  0.25500000920E-02 0. -1.
</event>
<event>
 5   0  0.1086507E-05  0.2598579E+04  0.7818609E-02  0.8368684E-01
       -2   -1    0    0    0  501  0.00000000000E+00  0.00000000000E+00  0.70218235436E+03  0.70218235436E+03  0.25500000920E-02 0. -1.
        2   -1    0    0  501    0  0.00000000000E+00  0.00000000000E+00 -0.24041520331E+04  0.24041520331E+04  0.25500000920E-02 0.  1.
    10030    2    1    2    0    0  0.00000000000E+00  0.00000000000E+00 -0.17019696788E+04  0.31063343875E+04  0.25985789462E+04 0.  0.
        2    1    3    3  502    0 -0.51343367691E+03 -0.67533520148E+01  0.57574750719E+03  0.77145637621E+03  0.25500000920E-02 0. -1.
       -2    1    3    3    0  502  0.51343367691E+03  0.67533520148E+01 -0.22777171859E+04  0.23348780113E+04  0.25500000920E-02 0.  1.
</event>
<event>
 5   0  0.4415080E-06  0.2521937E+04  0.7818609E-02  0.8395212E-01
       -1   -1    0    0    0  501  0.00000000000E+00  0.00000000000E+00  0.14599039149E+04  0.14599039149E+04  0.50400001928E-02 0. -1.
        1   -1    0    0  501    0  0.00000000000E+00  0.00000000000E+00 -0.10891414357E+04  0.10891414357E+04  0.50400001928E-02 0.  1.
    10030    2    1    2    0    0  0.00000000000E+00  0.00000000000E+00  0.37076247914E+03  0.25490453506E+04  0.25219372283E+04 0.  0.
        2    1    3    3  502    0  0.50390490782E+03 -0.11035274388E+04 -0.16233531578E+03  0.12239467795E+04  0.25500000920E-02 0. -1.
       -2    1    3    3    0  502 -0.50390490782E+03  0.11035274388E+04  0.53309779492E+03  0.13250985711E+04  0.25500000920E-02 0.  1.
</event>
<event>
 5   0  0.4218590E-06  0.2591824E+04  0.7818609E-02  0.8370984E-01
        1   -1    0    0  501    0  0.00000000000E+00  0.00000000000E+00  0.13733690440E+04  0.13733690440E+04  0.50400001928E-02 0.  1.
       -1   -1    0    0    0  501  0.00000000000E+00  0.00000000000E+00 -0.12228234361E+04  0.12228234361E+04  0.50400001928E-02 0. -1.
    10030    2    1    2    0    0  0.00000000000E+00  0.00000000000E+00  0.15054560790E+03  0.25961924801E+04  0.25918239550E+04 0.  0.
        1    1    3    3  502    0 -0.12318239005E+03  0.93339442895E+03  0.96727292379E+03  0.13498207179E+04  0.50400001928E-02 0.  1.
       -1    1    3    3    0  502  0.12318239005E+03 -0.93339442895E+03 -0.81672731589E+03  0.12463717623E+04  0.50400001928E-02 0. -1.
</event>
<event>
 5   0  0.1086507E-05  0.2599791E+04  0.7818609E-02  0.8368272E-01
        2   -1    0    0  501    0  0.00000000000E+00  0.00000000000E+00  0.15832759870E+04  0.15832759870E+04  0.25500000920E-02 0. -1.
       -2   -1    0    0    0  501  0.00000000000E+00  0.00000000000E+00 -0.10672353619E+04  0.10672353619E+04  0.25500000920E-02 0.  1.
    10030    2    1    2    0    0  0.00000000000E+00  0.00000000000E+00  0.51604062510E+03  0.26505113490E+04  0.25997908539E+04 0.  0.
        2    1    3    3  502    0  0.59201388991E+03 -0.51597505941E+03  0.13140950198E+04  0.15308678679E+04  0.25500000920E-02 0. -1.
       -2    1    3    3    0  502 -0.59201388991E+03  0.51597505941E+03 -0.79805439472E+03  0.11196434811E+04  0.25500000920E-02 0.  1.
</event>
<event>
 5   0  0.1116310E-05  0.2551629E+04  0.7818609E-02  0.8384820E-01
        2   -1    0    0  501    0  0.00000000000E+00  0.00000000000E+00  0.17790941007E+04  0.17790941007E+04  0.25500000920E-02 0.  1.
       -2   -1    0    0    0  501  0.00000000000E+00  0.00000000000E+00 -0.91490525145E+03  0.91490525146E+03  0.25500000920E-02 0. -1.
    10030    2    1    2    0    0  0.00000000000E+00  0.00000000000E+00  0.86418884925E+03  0.26939993522E+04  0.25516289194E+04 0.  0.
        4    1    3    3  502    0  0.58374815097E+03  0.14715426373E+03 -0.75551624179E+03  0.96603451574E+03  0.12699999809E+01 0.  1.
       -4    1    3    3    0  502 -0.58374815097E+03 -0.14715426373E+03  0.16197050910E+04  0.17279648364E+04  0.12699999809E+01 0. -1.
</event>
<event>
 5   0  0.1085061E-05  0.2623106E+04  0.7818609E-02  0.8360395E-01
       -2   -1    0    0    0  501  0.00000000000E+00  0.00000000000E+00  0.10770691823E+04  0.10770691823E+04  0.25500000920E-02 0.  1.
        2   -1    0    0  501    0  0.00000000000E+00  0.00000000000E+00 -0.15970853461E+04  0.15970853461E+04  0.25500000920E-02 0. -1.
    10030    2    1    2    0    0  0.00000000000E+00  0.00000000000E+00 -0.52001616379E+03  0.26741545284E+04  0.26231061036E+04 0.  0.
        1    1    3    3  502    0 -0.38327868186E+03 -0.11663899084E+04  0.21027566019E+03  0.12456258746E+04  0.50400001928E-02 0.  1.
       -1    1    3    3    0  502  0.38327868186E+03  0.11663899084E+04 -0.73029182398E+03  0.14285286537E+04  0.50400001928E-02 0. -1.
</event>
<event>
 5   0  0.1085061E-05  0.2624929E+04  0.7818609E-02  0.8359782E-01
       -2   -1    0    0    0  501  0.00000000000E+00  0.00000000000E+00  0.55947917936E+03  0.55947917937E+03  0.25500000920E-02 0. -1.
        2   -1    0    0  501    0  0.00000000000E+00  0.00000000000E+00 -0.30788684256E+04  0.30788684256E+04  0.25500000920E-02 0.  1.
    10030    2    1    2    0    0  0.00000000000E+00  0.00000000000E+00 -0.25193892463E+04  0.36383476050E+04  0.26249287839E+04 0.  0.
        1    1    3    3  502    0 -0.95051288357E+03 -0.38207805152E+03 -0.23968711293E+04  0.26066165023E+04  0.50400001928E-02 0.  1.
       -1    1    3    3    0  502  0.95051288357E+03  0.38207805152E+03 -0.12251811691E+03  0.10317311027E+04  0.50400001928E-02 0. -1.
</event>
<event>
 5   0  0.4415080E-06  0.2620269E+04  0.7818609E-02  0.8361349E-01
       -1   -1    0    0    0  501  0.00000000000E+00  0.00000000000E+00  0.78354047613E+03  0.78354047615E+03  0.50400001928E-02 0. -1.
        1   -1    0    0  501    0  0.00000000000E+00  0.00000000000E+00 -0.21906370830E+04  0.21906370830E+04  0.50400001928E-02 0.  1.
    10030    2    1    2    0    0  0.00000000000E+00  0.00000000000E+00 -0.14070966068E+04  0.29741775591E+04  0.26202693167E+04 0.  0.
        2    1    3    3  502    0 -0.26155417784E+03 -0.11755949047E+03 -0.21545786245E+04  0.21735776662E+04  0.25500000920E-02 0.  1.
       -2    1    3    3    0  502  0.26155417784E+03  0.11755949047E+03  0.74748201770E+03  0.80059989291E+03  0.25500000920E-02 0. -1.
</event>
<event>
 5   0  0.4415080E-06  0.2575724E+04  0.7818609E-02  0.8376494E-01
       -1   -1    0    0    0  501  0.00000000000E+00  0.00000000000E+00  0.77086626866E+03  0.77086626867E+03  0.50400001928E-02 0.  1.
        1   -1    0    0  501    0  0.00000000000E+00  0.00000000000E+00 -0.21515902870E+04  0.21515902870E+04  0.50400001928E-02 0. -1.
    10030    2    1    2    0    0  0.00000000000E+00  0.00000000000E+00 -0.13807240184E+04  0.29224565557E+04  0.25757238798E+04 0.  0.
        2    1    3    3  502    0  0.22178045688E+03 -0.11795057540E+04 -0.12203234427E+04  0.17116102651E+04  0.25500000920E-02 0. -1.
       -2    1    3    3    0  502 -0.22178045688E+03  0.11795057540E+04 -0.16040057573E+03  0.12108462906E+04  0.25500000920E-02 0.  1.
</event>
<event>
 5   0  0.1085061E-05  0.2609788E+04  0.7818609E-02  0.8364884E-01
       -2   -1    0    0    0  501  0.00000000000E+00  0.00000000000E+00  0.13347869494E+04  0.13347869494E+04  0.25500000920E-02 0. -1.
        2   -1    0    0  501    0  0.00000000000E+00  0.00000000000E+00 -0.12756700283E+04  0.12756700283E+04  0.25500000920E-02 0.  1.
    10030    2    1    2    0    0  0.00000000000E+00  0.00000000000E+00  0.59116921113E+02  0.26104569778E+04  0.26097875052E+04 0.  0.
        1    1    3    3  502    0  0.68502817173E+03  0.96419729658E+03  0.58088737377E+03  0.13177139917E+04  0.50400001928E-02 0. -1.
       -1    1    3    3    0  502 -0.68502817173E+03 -0.96419729658E+03 -0.52177045266E+03  0.12927429861E+04  0.50400001928E-02 0.  1.
</event>
<event>
 5   0  0.1085255E-05  0.2594750E+04  0.7818609E-02  0.8369987E-01
       -2   -1    0    0    0  501  0.00000000000E+00  0.00000000000E+00  0.10066121642E+04  0.10066121642E+04  0.25500000920E-02 0.  1.
        2   -1    0    0  501    0  0.00000000000E+00  0.00000000000E+00 -0.16721253077E+04  0.16721253077E+04  0.25500000920E-02 0. -1.
    10030    2    1    2    0    0  0.00000000000E+00  0.00000000000E+00 -0.66551314350E+03  0.26787374719E+04  0.25947498337E+04 0.  0.
        5    1    3    3  502    0 -0.10058015425E+04 -0.59750456379E+03  0.24620891493E+03  0.11955289065E+04  0.46999998093E+01 0.  1.
       -5    1    3    3    0  502  0.10058015425E+04  0.59750456379E+03 -0.91172205843E+03  0.14832085654E+04  0.46999998093E+01 0. -1.
</event>
<event>
 5   0  0.1116310E-05  0.2602472E+04  0.7818609E-02  0.8367362E-01
        2   -1    0    0  501    0  0.00000000000E+00  0.00000000000E+00  0.12475184996E+04  0.12475184996E+04  0.25500000920E-02 0. -1.
       -2   -1    0    0    0  501  0.00000000000E+00  0.00000000000E+00 -0.13572668240E+04  0.13572668240E+04  0.25500000920E-02 0.  1.
    10030    2    1    2    0    0  0.00000000000E+00  0.00000000000E+00 -0.10974832438E+03  0.26047853237E+04  0.26024722645E+04 0.  0.
        4    1    3    3  502    0  0.12155100793E+04 -0.10687454568E+03  0.39755296757E+03  0.12833303925E+04  0.12699999809E+01 0. -1.
       -4    1    3    3    0  502 -0.12155100793E+04  0.10687454568E+03 -0.50730129195E+03  0.13214549312E+04  0.12699999809E+01 0.  1.
</event>
<event>
 5   0  0.4218590E-06  0.2618241E+04  0.7818609E-02  0.8362031E-01
        1   -1    0    0  501    0  0.00000000000E+00  0.00000000000E+00  0.20981284764E+04  0.20981284764E+04  0.50400001928E-02 0. -1.
       -1   -1    0    0    0  501  0.00000000000E+00  0.00000000000E+00 -0.81682162286E+03  0.81682162287E+03  0.50400001928E-02 0.  1.
    10030    2    1    2    0    0  0.00000000000E+00  0.00000000000E+00  0.12813068536E+04  0.29149500993E+04  0.26182411708E+04 0.  0.
        1    1    3    3  502    0 -0.98197014600E+02  0.91808796772E+03  0.16738685825E+04  0.19116391400E+04  0.50400001928E-02 0. -1.
       -1    1    3    3    0  502  0.98197014600E+02 -0.91808796772E+03 -0.39256172887E+03  0.10033109593E+04  0.50400001928E-02 0.  1.
</event>
<event>
 5   0  0.1136881E-05  0.2598594E+04  0.7818609E-02  0.8368679E-01
        2   -1    0    0  501    0  0.00000000000E+00  0.00000000000E+00  0.25603074041E+04  0.25603074041E+04  0.25500000920E-02 0. -1.
       -2   -1    0    0    0  501  0.00000000000E+00  0.00000000000E+00 -0.65936346790E+03  0.65936346791E+03  0.25500000920E-02 0.  1.
    10030    2    1    2    0    0  0.00000000000E+00  0.00000000000E+00  0.19009439362E+04  0.32196708720E+04  0.25985943653E+04 0.  0.
        3    1    3    3  502    0  0.12671642535E+03  0.51312880229E+03  0.24210902488E+04  0.24781114227E+04  0.10100000352E+00 0. -1.
       -3    1    3    3    0  502 -0.12671642535E+03 -0.51312880229E+03 -0.52014631259E+03  0.74155944933E+03  0.10100000352E+00 0.  1.
</event>
<event>
 5   0  0.1085061E-05  0.2599331E+04  0.7818609E-02  0.8368428E-01
       -2   -1    0    0    0  501  0.00000000000E+00  0.00000000000E+00  0.85059020861E+03  0.85059020861E+03  0.25500000920E-02 0.  1.
        2   -1    0    0  501    0  0.00000000000E+00  0.00000000000E+00 -0.19858339639E+04  0.19858339639E+04  0.25500000920E-02 0. -1.
    10030    2    1    2    0    0  0.00000000000E+00  0.00000000000E+00 -0.11352437553E+04  0.28364241726E+04  0.25993313953E+04 0.  0.
        1    1    3    3  502    0  0.81075523845E+03  0.62241577658E+03  0.30834792437E+03  0.10676159881E+04  0.50400001928E-02 0.  1.
       -1    1    3    3    0  502 -0.81075523845E+03 -0.62241577658E+03 -0.14435916797E+04  0.17688081844E+04  0.50400001928E-02 0. -1.
</event>
<event>
 5   0  0.4464297E-06  0.2597832E+04  0.7818609E-02  0.8368938E-01
        1   -1    0    0  501    0  0.00000000000E+00  0.00000000000E+00  0.15740456850E+04  0.15740456850E+04  0.50400001928E-02 0. -1.
       -1   -1    0    0    0  501  0.00000000000E+00  0.00000000000E+00 -0.10718769949E+04  0.10718769949E+04  0.50400001928E-02 0.  1.
    10030    2    1    2    0    0  0.00000000000E+00  0.00000000000E+00  0.50216869010E+03  0.26459226799E+04  0.25978324493E+04 0.  0.
        4    1    3    3  502    0 -0.47386898441E+03 -0.99096819453E+03  0.95717961573E+03  0.14569709011E+04  0.12699999809E+01 0. -1.
       -4    1    3    3    0  502  0.47386898441E+03  0.99096819453E+03 -0.45501092563E+03  0.11889517788E+04  0.12699999809E+01 0.  1.
</event>
<event>
 5   0  0.1136881E-05  0.2475171E+04  0.7818609E-02  0.8411885E-01
        2   -1    0    0  501    0  0.00000000000E+00  0.00000000000E+00  0.13768901517E+04  0.13768901517E+04  0.25500000920E-02 0.  1.
       -2   -1    0    0    0  501  0.00000000000E+00  0.00000000000E+00 -0.11123750134E+04  0.11123750134E+04  0.25500000920E-02 0. -1.
    10030    2    1    2    0    0  0.00000000000E+00  0.00000000000E+00  0.26451513829E+03  0.24892651652E+04  0.24751712676E+04 0.  0.
        3    1    3    3  502    0  0.89401208498E+03 -0.23582421148E+03 -0.69507332949E+03  0.11567184663E+04  0.10100000352E+00 0. -1.
       -3    1    3    3    0  502 -0.89401208498E+03  0.23582421148E+03  0.95958846779E+03  0.13325466988E+04  0.10100000352E+00 0.  1.
</event>
<event>
 5   0  0.1085061E-05  0.2596394E+04  0.7818609E-02  0.8369427E-01
        2   -1    0    0  501    0  0.00000000000E+00  0.00000000000E+00  0.18256089347E+04  0.18256089347E+04  0.25500000920E-02 0.  1.
       -2   -1    0    0    0  501  0.00000000000E+00  0.00000000000E+00 -0.92315232114E+03  0.92315232115E+03  0.25500000920E-02 0. -1.
    10030    2    1    2    0    0  0.00000000000E+00  0.00000000000E+00  0.90245661357E+03  0.27487612559E+04  0.25963937495E+04 0.  0.
        1    1    3    3  502    0  0.22776939738E+03 -0.26727649577E+03 -0.87191508262E+03  0.93997422034E+03  0.50400001928E-02 0. -1.
       -1    1    3    3    0  502 -0.22776939738E+03  0.26727649577E+03  0.17743716962E+04  0.18087870355E+04  0.50400001928E-02 0.  1.
</event>
<event>
 5   0  0.4415080E-06  0.2646526E+04  0.7818609E-02  0.8352567E-01
       -1   -1    0    0    0  501  0.00000000000E+00  0.00000000000E+00  0.95213404554E+03  0.95213404555E+03  0.50400001928E-02 0. -1.
        1   -1    0    0  501    0  0.00000000000E+00  0.00000000000E+00 -0.18390536279E+04  0.18390536280E+04  0.50400001928E-02 0.  1.
    10030    2    1    2    0    0  0.00000000000E+00  0.00000000000E+00 -0.88691958240E+03  0.27911876735E+04  0.26465264561E+04 0.  0.
        2    1    3    3  502    0 -0.78169892262E+03 -0.54825173039E+03 -0.14097227167E+04  0.17026307008E+04  0.25500000920E-02 0.  1.
       -2    1    3    3    0  502  0.78169892262E+03  0.54825173039E+03  0.52280313428E+03  0.10885569727E+04  0.25500000920E-02 0. -1.
</event>
<event>
 5   0  0.1085255E-05  0.2608609E+04  0.7818609E-02  0.8365283E-01
       -2   -1    0    0    0  501  0.00000000000E+00  0.00000000000E+00  0.11835964218E+04  0.11835964218E+04  0.25500000920E-02 0. -1.
        2   -1    0    0  501    0  0.00000000000E+00  0.00000000000E+00 -0.14373229376E+04  0.14373229376E+04  0.25500000920E-02 0.  1.
    10030    2    1    2    0    0  0.00000000000E+00  0.00000000000E+00 -0.25372651578E+03  0.26209193594E+04  0.26086090438E+04 0.  0.
        5    1    3    3  502    0 -0.79729324193E+03  0.39334768759E+01  0.91023670272E+03  0.12100598873E+04  0.46999998093E+01 0. -1.
       -5    1    3    3    0  502  0.79729324193E+03 -0.39334768759E+01 -0.11639632185E+04  0.14108594721E+04  0.46999998093E+01 0.  1.
</event>
<event>
 5   0  0.4218590E-06  0.2604181E+04  0.7818609E-02  0.8366782E-01
       -1   -1    0    0    0  501  0.00000000000E+00  0.00000000000E+00  0.11935879466E+04  0.11935879467E+04  0.50400001928E-02 0.  1.
        1   -1    0    0  501    0  0.00000000000E+00  0.00000000000E+00 -0.14204563410E+04  0.14204563410E+04  0.50400001928E-02 0. -1.
    10030    2    1    2    0    0  0.00000000000E+00  0.00000000000E+00 -0.22686839439E+03  0.26140442877E+04  0.26041809211E+04 0.  0.
        1    1    3    3  502    0  0.75846357560E+03  0.10508403743E+04 -0.24003516203E+03  0.13180096232E+04  0.50400001928E-02 0. -1.
       -1    1    3    3    0  502 -0.75846357560E+03 -0.10508403743E+04  0.13166767632E+02  0.12960346645E+04  0.50400001928E-02 0.  1.
</event>
<event>
 5   0  0.1085061E-05  0.2604450E+04  0.7818609E-02  0.8366691E-01
        2   -1    0    0  501    0  0.00000000000E+00  0.00000000000E+00  0.15970347311E+04  0.15970347311E+04  0.25500000920E-02 0. -1.
       -2   -1    0    0    0  501  0.00000000000E+00  0.00000000000E+00 -0.10618368105E+04  0.10618368105E+04  0.25500000920E-02 0.  1.
    10030    2    1    2    0    0  0.00000000000E+00  0.00000000000E+00  0.53519792061E+03  0.26588715416E+04  0.26044502415E+04 0.  0.
        1    1    3    3  502    0 -0.12450535928E+04 -0.33254346890E+03  0.76479640009E+02  0.12909658179E+04  0.50400001928E-02 0. -1.
       -1    1    3    3    0  502  0.12450535928E+04  0.33254346890E+03  0.45871828060E+03  0.13679057236E+04  0.50400001928E-02 0.  1.
</event>
<event>
 5   0  0.1086507E-05  0.2604889E+04  0.7818609E-02  0.8366542E-01
       -2   -1    0    0    0  501  0.00000000000E+00  0.00000000000E+00  0.11697164691E+04  0.11697164691E+04  0.25500000920E-02 0. -1.
        2   -1    0    0  501    0  0.00000000000E+00  0.00000000000E+00 -0.14502336071E+04  0.14502336071E+04  0.25500000920E-02 0.  1.
    10030    2    1    2    0    0  0.00000000000E+00  0.00000000000E+00 -0.28051713799E+03  0.26199500762E+04  0.26048893522E+04 0.  0.
        2    1    3    3  502    0 -0.48377909099E+03  0.10194291040E+04  0.51395139269E+03  0.12399290064E+04  0.25500000920E-02 0. -1.
       -2    1    3    3    0  502  0.48377909099E+03 -0.10194291040E+04 -0.79446853068E+03  0.13800210698E+04  0.25500000920E-02 0.  1.
</event>
<event>
 5   0  0.4597705E-06  0.2595577E+04  0.7818609E-02  0.8369705E-01
       -1   -1    0    0    0  501  0.00000000000E+00  0.00000000000E+00  0.23021566551E+04  0.23021566551E+04  0.50400001928E-02 0.  1.
        1   -1    0    0  501    0  0.00000000000E+00  0.00000000000E+00 -0.73159878832E+03  0.73159878834E+03  0.50400001928E-02 0. -1.
    10030    2    1    2    0    0  0.00000000000E+00  0.00000000000E+00  0.15705578668E+04  0.30337554434E+04  0.25955770221E+04 0.  0.
        5    1    3    3  502    0  0.84654212565E+02  0.11825246669E+04  0.14023237309E+04  0.18363182893E+04  0.46999998093E+01 0. -1.
       -5    1    3    3    0  502 -0.84654212565E+02 -0.11825246669E+04  0.16823413587E+03  0.11974371541E+04  0.46999998093E+01 0.  1.
</event>
<event>
 5   0  0.4361864E-06  0.2582996E+04  0.7818609E-02  0.8374000E-01
        1   -1    0    0  501    0  0.00000000000E+00  0.00000000000E+00  0.21416128482E+04  0.21416128482E+04  0.50400001928E-02 0. -1.
       -1   -1    0    0    0  501  0.00000000000E+00  0.00000000000E+00 -0.77883663281E+03  0.77883663282E+03  0.50400001928E-02 0.  1.
    10030    2    1    2    0    0  0.00000000000E+00  0.00000000000E+00  0.13627762154E+04  0.29204494810E+04  0.25829955784E+04 0.  0.
        3    1    3    3  502    0  0.38957447799E+02  0.13954124129E+03 -0.76961991654E+03  0.78313745083E+03  0.10100000352E+00 0.  1.
       -3    1    3    3    0  502 -0.38957447799E+02 -0.13954124129E+03  0.21323961319E+04  0.21373120302E+04  0.10100000352E+00 0. -1.
</event>
<event>
 5   0  0.1136881E-05  0.2601153E+04  0.7818609E-02  0.8367810E-01
       -2   -1    0    0    0  501  0.00000000000E+00  0.00000000000E+00  0.12196937671E+04  0.12196937671E+04  0.25500000920E-02 0. -1.
        2   -1    0    0  501    0  0.00000000000E+00  0.00000000000E+00 -0.13868232450E+04  0.13868232450E+04  0.25500000920E-02 0.  1.
    10030    2    1    2    0    0  0.00000000000E+00  0.00000000000E+00 -0.16712947791E+03  0.26065170121E+04  0.26011533350E+04 0.  0.
        3    1    3    3  502    0 -0.20867859246E+03 -0.11087157006E+04 -0.73197120027E+03  0.13448342306E+04  0.10100000352E+00 0.  1.
       -3    1    3    3    0  502  0.20867859246E+03  0.11087157006E+04  0.56484172236E+03  0.12616827815E+04  0.10100000352E+00 0. -1.
</event>
<event>
 5   0  0.1085255E-05  0.2600700E+04  0.7818609E-02  0.8367963E-01
       -2   -1    0    0    0  501  0.00000000000E+00  0.00000000000E+00  0.74612410154E+03  0.74612410154E+03  0.25500000920E-02 0.  1.
        2   -1    0    0  501    0  0.00000000000E+00  0.00000000000E+00 -0.22662584899E+04  0.22662584899E+04  0.25500000920E-02 0. -1.
    10030    2    1    2    0    0  0.00000000000E+00  0.00000000000E+00 -0.15201343883E+04  0.30123825914E+04  0.26006999670E+04 0.  0.
        5    1    3    3  502    0  0.49905207236E+03  0.12852459127E+03 -0.21429186315E+04  0.22040176707E+04  0.46999998093E+01 0. -1.
       -5    1    3    3    0  502 -0.49905207236E+03 -0.12852459127E+03  0.62278424318E+03  0.80836492071E+03  0.46999998093E+01 0.  1.
</event>
<event>
 5   0  0.4597705E-06  0.2596196E+04  0.7818609E-02  0.8369494E-01
        1   -1    0    0  501    0  0.00000000000E+00  0.00000000000E+00  0.13612946616E+04  0.13612946616E+04  0.50400001928E-02 0. -1.
       -1   -1    0    0    0  501  0.00000000000E+00  0.00000000000E+00 -0.12378354324E+04  0.12378354325E+04  0.50400001928E-02 0.  1.
    10030    2    1    2    0    0  0.00000000000E+00  0.00000000000E+00  0.12345922914E+03  0.25991300941E+04  0.25961962685E+04 0.  0.
        5    1    3    3  502    0  0.51500631389E+03  0.12875861372E+03 -0.11241875872E+04  0.12432337291E+04  0.46999998093E+01 0.  1.
       -5    1    3    3    0  502 -0.51500631389E+03 -0.12875861372E+03  0.12476468164E+04  0.13558963649E+04  0.46999998093E+01 0. -1.
</event>
<event>
 5   0  0.1085061E-05  0.2608385E+04  0.7818609E-02  0.8365359E-01
       -2   -1    0    0    0  501  0.00000000000E+00  0.00000000000E+00  0.10078591103E+04  0.10078591103E+04  0.25500000920E-02 0. -1.
        2   -1    0    0  501    0  0.00000000000E+00  0.00000000000E+00 -0.16876542768E+04  0.16876542768E+04  0.25500000920E-02 0.  1.
    10030    2    1    2    0    0  0.00000000000E+00  0.00000000000E+00 -0.67979516642E+03  0.26955133871E+04  0.26083847400E+04 0.  0.
        1    1    3    3  502    0  0.39450305795E+03 -0.12175709241E+04 -0.59888032510E+03  0.14130708623E+04  0.50400001928E-02 0.  1.
       -1    1    3    3    0  502 -0.39450305795E+03  0.12175709241E+04 -0.80914841318E+02  0.12824425248E+04  0.50400001928E-02 0. -1.
</event>
<event>
 5   0  0.4218590E-06  0.2595287E+04  0.7818609E-02  0.8369804E-01
       -1   -1    0    0    0  501  0.00000000000E+00  0.00000000000E+00  0.14474864355E+04  0.14474864355E+04  0.50400001928E-02 0. -1.
        1   -1    0    0  501    0  0.00000000000E+00  0.00000000000E+00 -0.11633120805E+04  0.11633120805E+04  0.50400001928E-02 0.  1.
    10030    2    1    2    0    0  0.00000000000E+00  0.00000000000E+00  0.28417435498E+03  0.26107985160E+04  0.25952868487E+04 0.  0.
        1    1    3    3  502    0 -0.51445432866E+03 -0.43447490425E+03  0.12579720865E+04  0.14268586017E+04  0.50400001928E-02 0. -1.
       -1    1    3    3    0  502  0.51445432866E+03  0.43447490425E+03 -0.97379773154E+03  0.11839399143E+04  0.50400001928E-02 0.  1.
</event>
<event>
 5   0  0.1136881E-05  0.2624091E+04  0.7818609E-02  0.8360064E-01
       -2   -1    0    0    0  501  0.00000000000E+00  0.00000000000E+00  0.80261937638E+03  0.80261937638E+03  0.25500000920E-02 0.  1.
        2   -1    0    0  501    0  0.00000000000E+00  0.00000000000E+00 -0.21448069592E+04  0.21448069592E+04  0.25500000920E-02 0. -1.
    10030    2    1    2    0    0  0.00000000000E+00  0.00000000000E+00 -0.13421875828E+04  0.29474263356E+04  0.26240911753E+04 0.  0.
        3    1    3    3  502    0 -0.80210569980E+03 -0.88234394316E+03 -0.12858534899E+04  0.17536600570E+04  0.10100000352E+00 0. -1.
       -3    1    3    3    0  502  0.80210569980E+03  0.88234394316E+03 -0.56334092885E+02  0.11937662786E+04  0.10100000352E+00 0.  1.
</event>
<event>
 5   0  0.1116310E-05  0.2590442E+04  0.7818609E-02  0.8371455E-01
       -2   -1    0    0    0  501  0.00000000000E+00  0.00000000000E+00  0.85686701964E+03  0.85686701964E+03  0.25500000920E-02 0.  1.
        2   -1    0    0  501    0  0.00000000000E+00  0.00000000000E+00 -0.19578268650E+04  0.19578268650E+04  0.25500000920E-02 0. -1.
    10030    2    1    2    0    0  0.00000000000E+00  0.00000000000E+00 -0.11009598454E+04  0.28146938847E+04  0.25904418703E+04 0.  0.
        4    1    3    3  502    0  0.10035472283E+04 -0.25839043180E+03 -0.13947398584E+04  0.17375769163E+04  0.12699999809E+01 0. -1.
       -4    1    3    3    0  502 -0.10035472283E+04  0.25839043180E+03  0.29378001302E+03  0.10771169684E+04  0.12699999809E+01 0.  1.
</event>
<event>
 5   0  0.1086507E-05  0.2604878E+04  0.7818609E-02  0.8366546E-01
       -2   -1    0    0    0  501  0.00000000000E+00  0.00000000000E+00  0.14879240575E+04  0.14879240575E+04  0.25500000920E-02 0. -1.
        2   -1    0    0  501    0  0.00000000000E+00  0.00000000000E+00 -0.11400766812E+04  0.11400766812E+04  0.25500000920E-02 0.  1.
    10030    2    1    2    0    0  0.00000000000E+00  0.00000000000E+00  0.34784737627E+03  0.26280007386E+04  0.26048781325E+04 0.  0.
        2    1    3    3  502    0  0.89971097872E+03  0.68351820178E+03  0.82749400083E+03  0.14005082287E+04  0.25500000920E-02 0.  1.
       -2    1    3    3    0  502 -0.89971097872E+03 -0.68351820178E+03 -0.47964662455E+03  0.12274925099E+04  0.25500000920E-02 0. -1.
</event>
<event>
 5   0  0.1086507E-05  0.2617841E+04  0.7818609E-02  0.8362166E-01
        2   -1    0    0  501    0  0.00000000000E+00  0.00000000000E+00  0.17453527471E+04  0.17453527471E+04  0.25500000920E-02 0.  1.
       -2   -1    0    0    0  501  0.00000000000E+00  0.00000000000E+00 -0.98161998670E+03  0.98161998670E+03  0.25500000920E-02 0. -1.
    10030    2    1    2    0    0  0.00000000000E+00  0.00000000000E+00  0.76373276040E+03  0.27269727338E+04  0.26178412025E+04 0.  0.
        2    1    3    3  502    0 -0.68481431910E+03 -0.96267472387E+03 -0.20515010931E+03  0.11990829175E+04  0.25500000920E-02 0. -1.
       -2    1    3    3    0  502  0.68481431910E+03  0.96267472387E+03  0.96888286971E+03  0.15278898163E+04  0.25500000920E-02 0.  1.
</event>
<event>
 5   0  0.1085061E-05  0.2636212E+04  0.7818609E-02  0.8356004E-01
       -2   -1    0    0    0  501  0.00000000000E+00  0.00000000000E+00  0.10174714842E+04  0.10174714842E+04  0.25500000920E-02 0. -1.
        2   -1    0    0  501    0  0.00000000000E+00  0.00000000000E+00 -0.17075700273E+04  0.17075700273E+04  0.25500000920E-02 0.  1.
    10030    2    1    2    0    0  0.00000000000E+00  0.00000000000E+00 -0.69009854311E+03  0.27250415114E+04  0.26362122904E+04 0.  0.
        1    1    3    3  502    0  0.37466111904E+03  0.10618463052E+04  0.36325132455E+03  0.11831483655E+04  0.50400001928E-02 0. -1.
       -1    1    3    3    0  502 -0.37466111904E+03 -0.10618463052E+04 -0.10533498677E+04  0.15418931460E+04  0.50400001928E-02 0.  1.
</event>
<event>
 5   0  0.4597705E-06  0.2598858E+04  0.7818609E-02  0.8368589E-01
        1   -1    0    0  501    0  0.00000000000E+00  0.00000000000E+00  0.24899986736E+04  0.24899986736E+04  0.50400001928E-02 0.  1.
       -1   -1    0    0    0  501  0.00000000000E+00  0.00000000000E+00 -0.67811937453E+03  0.67811937455E+03  0.50400001928E-02 0. -1.
    10030    2    1    2    0    0  0.00000000000E+00  0.00000000000E+00  0.18118792991E+04  0.31681180482E+04  0.25988584749E+04 0.  0.
        5    1    3    3  502    0 -0.41881759692E+02  0.10997749274E+04  0.63798290695E+02  0.11024297187E+04  0.46999998093E+01 0. -1.
       -5    1    3    3    0  502  0.41881759692E+02 -0.10997749274E+04  0.17480810084E+04  0.20656883295E+04  0.46999998093E+01 0.  1.
</event>
<event>
 5   0  0.4218590E-06  0.2607253E+04  0.7818609E-02  0.8365742E-01
        1   -1    0    0  501    0  0.00000000000E+00  0.00000000000E+00  0.10000947395E+04  0.10000947396E+04  0.50400001928E-02 0.  1.
       -1   -1    0    0    0  501  0.00000000000E+00  0.00000000000E+00 -0.16992814644E+04  0.16992814644E+04  0.50400001928E-02 0. -1.
    10030    2    1    2    0    0  0.00000000000E+00  0.00000000000E+00 -0.69918672483E+03  0.26993762039E+04  0.26072533084E+04 0.  0.
        1    1    3    3  502    0  0.66766318133E+03 -0.98485314575E+03 -0.90107977302E+03  0.14925329476E+04  0.50400001928E-02 0.  1.
       -1    1    3    3    0  502 -0.66766318133E+03  0.98485314575E+03  0.20189304819E+03  0.12068432563E+04  0.50400001928E-02 0. -1.
</event>
<event>
 5   0  0.1085061E-05  0.2589608E+04  0.7818609E-02  0.8371740E-01
        2   -1    0    0  501    0  0.00000000000E+00  0.00000000000E+00  0.15851565624E+04  0.15851565624E+04  0.25500000920E-02 0. -1.
       -2   -1    0    0    0  501  0.00000000000E+00  0.00000000000E+00 -0.10576351790E+04  0.10576351790E+04  0.25500000920E-02 0.  1.
    10030    2    1    2    0    0  0.00000000000E+00  0.00000000000E+00  0.52752138343E+03  0.26427917414E+04  0.25896079584E+04 0.  0.
        1    1    3    3  502    0 -0.67715186644E+03 -0.10584283902E+04 -0.55248321498E+02  0.12577192391E+04  0.50400001928E-02 0. -1.
       -1    1    3    3    0  502  0.67715186644E+03  0.10584283902E+04  0.58276970493E+03  0.13850725022E+04  0.50400001928E-02 0.  1.
</event>
<event>
 5   0  0.4415080E-06  0.2598542E+04  0.7818609E-02  0.8368696E-01
       -1   -1    0    0    0  501  0.00000000000E+00  0.00000000000E+00  0.82276060023E+03  0.82276060024E+03  0.50400001928E-02 0.  1.
        1   -1    0    0  501    0  0.00000000000E+00  0.00000000000E+00 -0.20517580600E+04  0.20517580600E+04  0.50400001928E-02 0. -1.
    10030    2    1    2    0    0  0.00000000000E+00  0.00000000000E+00 -0.12289974598E+04  0.28745186602E+04  0.25985424322E+04 0.  0.
        2    1    3    3  502    0 -0.62458438924E+03 -0.24960665166E+03  0.61517879946E+03  0.91151198299E+03  0.25500000920E-02 0.  1.
       -2    1    3    3    0  502  0.62458438924E+03  0.24960665166E+03 -0.18441762592E+04  0.19630066772E+04  0.25500000920E-02 0. -1.
</event>
<event>
 5   0  0.4361864E-06  0.2602496E+04  0.7818609E-02  0.8367354E-01
       -1   -1    0    0    0  501  0.00000000000E+00  0.00000000000E+00  0.64843282696E+03  0.64843282698E+03  0.50400001928E-02 0. -1.
        1   -1    0    0  501    0  0.00000000000E+00  0.00000000000E+00 -0.26112907721E+04  0.26112907721E+04  0.50400001928E-02 0.  1.
    10030    2    1    2    0    0  0.00000000000E+00  0.00000000000E+00 -0.19628579451E+04  0.32597235990E+04  0.26024962304E+04 0.  0.
        3    1    3    3  502    0  0.51594266192E+03 -0.11945918678E+04 -0.98179655811E+03  0.16300831429E+04  0.10100000352E+00 0. -1.
       -3    1    3    3    0  502 -0.51594266192E+03  0.11945918678E+04 -0.98106138699E+03  0.16296404561E+04  0.10100000352E+00 0.  1.
</event>
<event>
 5   0  0.4464297E-06  0.2617938E+04  0.7818609E-02  0.8362133E-01
       -1   -1    0    0    0  501  0.00000000000E+00  0.00000000000E+00  0.73352692786E+03  0.73352692788E+03  0.50400001928E-02 0.  1.
        1   -1    0    0  501    0  0.00000000000E+00  0.00000000000E+00 -0.23358380124E+04  0.23358380124E+04  0.50400001928E-02 0. -1.
    10030    2    1    2    0    0  0.00000000000E+00  0.00000000000E+00 -0.16023110845E+04  0.30693649403E+04  0.26179381820E+04 0.  0.
        4    1    3    3  502    0 -0.11051972707E+04  0.70114289114E+03 -0.82265008501E+03  0.15459033398E+04  0.12699999809E+01 0.  1.
       -4    1    3    3    0  502  0.11051972707E+04 -0.70114289114E+03 -0.77966099950E+03  0.15234616004E+04  0.12699999809E+01 0. -1.
</event>
<event>
 5   0  0.1085061E-05  0.2614152E+04  0.7818609E-02  0.8363410E-01
        2   -1    0    0  501    0  0.00000000000E+00  0.00000000000E+00  0.11209494704E+04  0.11209494704E+04  0.25500000920E-02 0.  1.
       -2   -1    0    0    0  501  0.00000000000E+00  0.00000000000E+00 -0.15241080153E+04  0.15241080153E+04  0.25500000920E-02 0. -1.
    10030    2    1    2    0    0  0.00000000000E+00  0.00000000000E+00 -0.40315854496E+03  0.26450574857E+04  0.26141523082E+04 0.  0.
        1    1    3    3  502    0  0.87274961463E+03  0.30354509425E+03 -0.11369631487E+04  0.14650995583E+04  0.50400001928E-02 0. -1.
       -1    1    3    3    0  502 -0.87274961463E+03 -0.30354509425E+03  0.73380460374E+03  0.11799579275E+04  0.50400001928E-02 0.  1.
</event>
<event>
 5   0  0.4415080E-06  0.2552926E+04  0.7818609E-02  0.8384369E-01
        1   -1    0    0  501    0  0.00000000000E+00  0.00000000000E+00  0.16767178119E+04  0.16767178119E+04  0.50400001928E-02 0.  1.
       -1   -1    0    0    0  501  0.00000000000E+00  0.00000000000E+00 -0.97175421995E+03  0.97175421997E+03  0.50400001928E-02 0. -1.
    10030    2    1    2    0    0  0.00000000000E+00  0.00000000000E+00  0.70496359197E+03  0.26484720319E+04  0.25529258583E+04 0.  0.
        2    1    3    3  502    0  0.72567683986E+03  0.38658390376E+02 -0.73620106113E+03  0.10344531645E+04  0.25500000920E-02 0. -1.
       -2    1    3    3    0  502 -0.72567683986E+03 -0.38658390376E+02  0.14411646531E+04  0.16140188674E+04  0.25500000920E-02 0.  1.
</event>
<event>
 5   0  0.4597705E-06  0.2600574E+04  0.7818609E-02  0.8368006E-01
       -1   -1    0    0    0  501  0.00000000000E+00  0.00000000000E+00  0.99796929670E+03  0.99796929671E+03  0.50400001928E-02 0. -1.
        1   -1    0    0  501    0  0.00000000000E+00  0.00000000000E+00 -0.16941865457E+04  0.16941865457E+04  0.50400001928E-02 0.  1.
    10030    2    1    2    0    0  0.00000000000E+00  0.00000000000E+00 -0.69621724899E+03  0.26921558424E+04  0.26005739024E+04 0.  0.
        5    1    3    3  502    0  0.41859550338E+03 -0.67398709686E+03 -0.14145536426E+04  0.16218708025E+04  0.46999998093E+01 0.  1.
       -5    1    3    3    0  502 -0.41859550338E+03  0.67398709686E+03  0.71833639365E+03  0.10702850399E+04  0.46999998093E+01 0. -1.
</event>
<event>
 5   0  0.4597705E-06  0.2592852E+04  0.7818609E-02  0.8370633E-01
        1   -1    0    0  501    0  0.00000000000E+00  0.00000000000E+00  0.19120147081E+04  0.19120147081E+04  0.50400001928E-02 0.  1.
       -1   -1    0    0    0  501  0.00000000000E+00  0.00000000000E+00 -0.87903121067E+03  0.87903121068E+03  0.50400001928E-02 0. -1.
    10030    2    1    2    0    0  0.00000000000E+00  0.00000000000E+00  0.10329834974E+04  0.27910459188E+04  0.25928521776E+04 0.  0.
        5    1    3    3  502    0  0.10252839188E+04  0.31862042220E+03  0.12986503845E+04  0.16850047475E+04  0.46999998093E+01 0.  1.
       -5    1    3    3    0  502 -0.10252839188E+04 -0.31862042220E+03 -0.26566688714E+03  0.11060411713E+04  0.46999998093E+01 0. -1.
</event>
<event>
 5   0  0.1085061E-05  0.2605605E+04  0.7818609E-02  0.8366300E-01
        2   -1    0    0  501    0  0.00000000000E+00  0.00000000000E+00  0.16725231339E+04  0.16725231339E+04  0.25500000920E-02 0.  1.
       -2   -1    0    0    0  501  0.00000000000E+00  0.00000000000E+00 -0.10148107234E+04  0.10148107234E+04  0.25500000920E-02 0. -1.
    10030    2    1    2    0    0  0.00000000000E+00  0.00000000000E+00  0.65771241052E+03  0.26873338574E+04  0.26056050441E+04 0.  0.
        1    1    3    3  502    0 -0.10570559852E+04  0.41157110035E+03 -0.33197236574E+03  0.11819322223E+04  0.50400001928E-02 0. -1.
       -1    1    3    3    0  502  0.10570559852E+04 -0.41157110035E+03  0.98968477626E+03  0.15054016351E+04  0.50400001928E-02 0.  1.
</event>
<event>
 5   0  0.4597705E-06  0.2514269E+04  0.7818609E-02  0.8397920E-01
       -1   -1    0    0    0  501  0.00000000000E+00  0.00000000000E+00  0.15939281249E+04  0.15939281249E+04  0.50400001928E-02 0.  1.
        1   -1    0    0  501    0  0.00000000000E+00  0.00000000000E+00 -0.99150466039E+03  0.99150466040E+03  0.50400001928E-02 0. -1.
    10030    2    1    2    0    0  0.00000000000E+00  0.00000000000E+00  0.60242346451E+03  0.25854327853E+04  0.25142690104E+04 0.  0.
        5    1    3    3  502    0  0.94739047976E+03 -0.73264249269E+03 -0.91771724709E+02  0.12011485681E+04  0.46999998093E+01 0. -1.
       -5    1    3    3    0  502 -0.94739047976E+03  0.73264249269E+03  0.69419518922E+03  0.13842842172E+04  0.46999998093E+01 0.  1.
</event>
<event>
 5   0  0.1086507E-05  0.2545307E+04  0.7818609E-02  0.8387020E-01
       -2   -1    0    0    0  501  0.00000000000E+00  0.00000000000E+00  0.12207714579E+04  0.12207714579E+04  0.25500000920E-02 0. -1.
        2   -1    0    0  501    0  0.00000000000E+00  0.00000000000E+00 -0.13267406676E+04  0.13267406676E+04  0.25500000920E-02 0.  1.
    10030    2    1    2    0    0  0.00000000000E+00  0.00000000000E+00 -0.10596920963E+03  0.25475121255E+04  0.25453071634E+04 0.  0.
        2    1    3    3  502    0 -0.87024608431E+03 -0.63260369823E+03 -0.73337601781E+03  0.13020583972E+04  0.25500000920E-02 0.  1.
       -2    1    3    3    0  502  0.87024608431E+03  0.63260369823E+03  0.62740680818E+03  0.12454537283E+04  0.25500000920E-02 0. -1.
</event>
<event>
 5   0  0.4415080E-06  0.2590901E+04  0.7818609E-02  0.8371299E-01
       -1   -1    0    0    0  501  0.00000000000E+00  0.00000000000E+00  0.12799971980E+04  0.12799971980E+04  0.50400001928E-02 0. -1.
        1   -1    0    0  501    0  0.00000000000E+00  0.00000000000E+00 -0.13110899050E+04  0.13110899050E+04  0.50400001928E-02 0.  1.
    10030    2    1    2    0    0  0.00000000000E+00  0.00000000000E+00 -0.31092707017E+02  0.25910871030E+04  0.25909005421E+04 0.  0.
        2    1    3    3  502    0  0.39851495262E+03  0.43074192718E+03 -0.11705488322E+04  0.13094034305E+04  0.25500000920E-02 0.  1.
       -2    1    3    3    0  502 -0.39851495262E+03 -0.43074192718E+03  0.11394561251E+04  0.12816836725E+04  0.25500000920E-02 0. -1.
</event>
<event>
 5   0  0.1085255E-05  0.2654122E+04  0.7818609E-02  0.8350046E-01
        2   -1    0    0  501    0  0.00000000000E+00  0.00000000000E+00  0.16512932353E+04  0.16512932353E+04  0.25500000920E-02 0. -1.
       -2   -1    0    0    0  501  0.00000000000E+00  0.00000000000E+00 -0.10664920853E+04  0.10664920853E+04  0.25500000920E-02 0.  1.
    10030    2    1    2    0    0  0.00000000000E+00  0.00000000000E+00  0.58480115002E+03  0.27177853205E+04  0.26541222021E+04 0.  0.
        5    1    3    3  502    0 -0.82980305884E+03 -0.11720786280E+03  0.13460415287E+04  0.15856105091E+04  0.46999998093E+01 0. -1.
       -5    1    3    3    0  502  0.82980305884E+03  0.11720786280E+03 -0.76124037868E+03  0.11321748115E+04  0.46999998093E+01 0.  1.
</event>
<event>
 5   0  0.1116310E-05  0.2547391E+04  0.7818609E-02  0.8386294E-01
        2   -1    0    0  501    0  0.00000000000E+00  0.00000000000E+00  0.21509023000E+04  0.21509023000E+04  0.25500000920E-02 0.  1.
       -2   -1    0    0    0  501  0.00000000000E+00  0.00000000000E+00 -0.75424142589E+03  0.75424142589E+03  0.25500000920E-02 0. -1.
    10030    2    1    2    0    0  0.00000000000E+00  0.00000000000E+00  0.13966608741E+04  0.29051437258E+04  0.25473905218E+04 0.  0.
        4    1    3    3  502    0  0.13751677299E+03  0.12159857437E+04  0.11011586641E+04  0.16462333395E+04  0.12699999809E+01 0. -1.
       -4    1    3    3    0  502 -0.13751677299E+03 -0.12159857437E+04  0.29550220998E+03  0.12589103863E+04  0.12699999809E+01 0.  1.
</event>
<event>
 5   0  0.1116310E-05  0.2425268E+04  0.7818609E-02  0.8430104E-01
       -2   -1    0    0    0  501  0.00000000000E+00  0.00000000000E+00  0.12203847341E+04  0.12203847341E+04  0.25500000920E-02 0.  1.
        2   -1    0    0  501    0  0.00000000000E+00  0.00000000000E+00 -0.12049320681E+04  0.12049320681E+04  0.25500000920E-02 0. -1.
    10030    2    1    2    0    0  0.00000000000E+00  0.00000000000E+00  0.15452666001E+02  0.24253168021E+04  0.24252675741E+04 0.  0.
        4    1    3    3  502    0  0.46959201375E+03  0.47455430869E+03 -0.10045988316E+04  0.12062084715E+04  0.12699999809E+01 0. -1.
       -4    1    3    3    0  502 -0.46959201375E+03 -0.47455430869E+03  0.10200514976E+04  0.12191083307E+04  0.12699999809E+01 0.  1.
</event>
<event>
 5   0  0.4597705E-06  0.2643196E+04  0.7818609E-02  0.8353675E-01
        1   -1    0    0  501    0  0.00000000000E+00  0.00000000000E+00  0.24223172361E+04  0.24223172361E+04  0.50400001928E-02 0. -1.
       -1   -1    0    0    0  501  0.00000000000E+00  0.00000000000E+00 -0.72105382112E+03  0.72105382114E+03  0.50400001928E-02 0.  1.
    10030    2    1    2    0    0  0.00000000000E+00  0.00000000000E+00  0.17012634150E+04  0.31433710573E+04  0.26431958680E+04 0.  0.
        5    1    3    3  502    0  0.28555385376E+03 -0.53998196949E+03  0.22443566571E+04  0.23260009512E+04  0.46999998093E+01 0. -1.
       -5    1    3    3    0  502 -0.28555385376E+03  0.53998196949E+03 -0.54309324205E+03  0.81737010609E+03  0.46999998093E+01 0.  1.
</event>
<event>
 5   0  0.3705250E-06  0.2616951E+04  0.7818609E-02  0.8362466E-01
        3   -1    0    0  501    0  0.00000000000E+00  0.00000000000E+00  0.64767614192E+03  0.64767614979E+03  0.10100000352E+00 0.  1.
       -3   -1    0    0    0  501  0.00000000000E+00  0.00000000000E+00 -0.26434638838E+04  0.26434638857E+04  0.10100000352E+00 0. -1.
    10030    2    1    2    0    0  0.00000000000E+00  0.00000000000E+00 -0.19957877419E+04  0.32911400355E+04  0.26169512840E+04 0.  0.
        4    1    3    3  502    0 -0.98174140042E+03  0.62322105655E+03 -0.17523488666E+04  0.21030807939E+04  0.12699999809E+01 0. -1.
       -4    1    3    3    0  502  0.98174140042E+03 -0.62322105655E+03 -0.24343887528E+03  0.11880592416E+04  0.12699999809E+01 0.  1.
</event>
<event>
 5   0  0.4597705E-06  0.2608663E+04  0.7818609E-02  0.8365265E-01
        1   -1    0    0  501    0  0.00000000000E+00  0.00000000000E+00  0.22538853164E+04  0.22538853164E+04  0.50400001928E-02 0.  1.
       -1   -1    0    0    0  501  0.00000000000E+00  0.00000000000E+00 -0.75482126726E+03  0.75482126727E+03  0.50400001928E-02 0. -1.
    10030    2    1    2    0    0  0.00000000000E+00  0.00000000000E+00  0.14990640491E+04  0.30087065837E+04  0.26086629302E+04 0.  0.
        5    1    3    3  502    0  0.34280157104E+03 -0.16376822508E+02 -0.70180341155E+03  0.78123699085E+03  0.46999998093E+01 0. -1.
       -5    1    3    3    0  502 -0.34280157104E+03  0.16376822508E+02  0.22008674607E+04  0.22274695928E+04  0.46999998093E+01 0.  1.
</event>
<event>
 5   0  0.1085061E-05  0.2601766E+04  0.7818609E-02  0.8367602E-01
       -2   -1    0    0    0  501  0.00000000000E+00  0.00000000000E+00  0.18361435490E+04  0.18361435490E+04  0.25500000920E-02 0. -1.
        2   -1    0    0  501    0  0.00000000000E+00  0.00000000000E+00 -0.92165801973E+03  0.92165801973E+03  0.25500000920E-02 0.  1.
    10030    2    1    2    0    0  0.00000000000E+00  0.00000000000E+00  0.91448552928E+03  0.27578015687E+04  0.26017658829E+04 0.  0.
        1    1    3    3  502    0 -0.56175770374E+03 -0.10403811008E+04 -0.11781761696E+03  0.11882110685E+04  0.50400001928E-02 0.  1.
       -1    1    3    3    0  502  0.56175770374E+03  0.10403811008E+04  0.10323031462E+04  0.15695905002E+04  0.50400001928E-02 0. -1.
</event>
<event>
 5   0  0.1085255E-05  0.2507798E+04  0.7818609E-02  0.8400213E-01
        2   -1    0    0  501    0  0.00000000000E+00  0.00000000000E+00  0.19958468580E+04  0.19958468580E+04  0.25500000920E-02 0. -1.
       -2   -1    0    0    0  501  0.00000000000E+00  0.00000000000E+00 -0.78776745820E+03  0.78776745821E+03  0.25500000920E-02 0.  1.
    10030    2    1    2    0    0  0.00000000000E+00  0.00000000000E+00  0.12080793998E+04  0.27836143162E+04  0.25077984020E+04 0.  0.
        5    1    3    3  502    0 -0.99392059694E+03 -0.29831277412E+03 -0.17719651267E+03  0.10527532276E+04  0.46999998093E+01 0.  1.
       -5    1    3    3    0  502  0.99392059694E+03  0.29831277412E+03  0.13852759124E+04  0.17308610885E+04  0.46999998093E+01 0. -1.
</event>
<event>
 5   0  0.4361864E-06  0.2610277E+04  0.7818609E-02  0.8364719E-01
        1   -1    0    0  501    0  0.00000000000E+00  0.00000000000E+00  0.16597189067E+04  0.16597189067E+04  0.50400001928E-02 0.  1.
       -1   -1    0    0    0  501  0.00000000000E+00  0.00000000000E+00 -0.10263102286E+04  0.10263102286E+04  0.50400001928E-02 0. -1.
    10030    2    1    2    0    0  0.00000000000E+00  0.00000000000E+00  0.63340867808E+03  0.26860291353E+04  0.26102769896E+04 0.  0.
        3    1    3    3  502    0 -0.21279425007E+03  0.35792324994E+03  0.15895310388E+04  0.16431674836E+04  0.10100000352E+00 0.  1.
       -3    1    3    3    0  502  0.21279425007E+03 -0.35792324994E+03 -0.95612236074E+03  0.10428616517E+04  0.10100000352E+00 0. -1.
</event>
<event>
 5   0  0.1116310E-05  0.2592561E+04  0.7818609E-02  0.8370732E-01
       -2   -1    0    0    0  501  0.00000000000E+00  0.00000000000E+00  0.69571274731E+03  0.69571274732E+03  0.25500000920E-02 0.  1.
        2   -1    0    0  501    0  0.00000000000E+00  0.00000000000E+00 -0.24152827203E+04  0.24152827203E+04  0.25500000920E-02 0. -1.
    10030    2    1    2    0    0  0.00000000000E+00  0.00000000000E+00 -0.17195699730E+04  0.31109954676E+04  0.25925608783E+04 0.  0.
        4    1    3    3  502    0  0.46135538138E+03 -0.36915996496E+03 -0.22442891661E+04  0.23207678345E+04  0.12699999809E+01 0. -1.
       -4    1    3    3    0  502 -0.46135538138E+03  0.36915996496E+03  0.52471919310E+03  0.79022763313E+03  0.12699999809E+01 0.  1.
</event>
<event>
 5   0  0.1085061E-05  0.2628202E+04  0.7818609E-02  0.8358684E-01
        2   -1    0    0  501    0  0.00000000000E+00  0.00000000000E+00  0.13155124876E+04  0.13155124876E+04  0.25500000920E-02 0.  1.
       -2   -1    0    0    0  501  0.00000000000E+00  0.00000000000E+00 -0.13126907344E+04  0.13126907344E+04  0.25500000920E-02 0. -1.
    10030    2    1    2    0    0  0.00000000000E+00  0.00000000000E+00  0.28217531911E+01  0.26282032220E+04  0.26282017072E+04 0.  0.
        1    1    3    3  502    0 -0.96707045306E+02 -0.35612963063E+03  0.12626334266E+04  0.13154557143E+04  0.50400001928E-02 0.  1.
       -1    1    3    3    0  502  0.96707045306E+02  0.35612963063E+03 -0.12598116734E+04  0.13127475077E+04  0.50400001928E-02 0. -1.
</event>
<event>
 5   0  0.4361864E-06  0.2632207E+04  0.7818609E-02  0.8357343E-01
       -1   -1    0    0    0  501  0.00000000000E+00  0.00000000000E+00  0.12890389874E+04  0.12890389875E+04  0.50400001928E-02 0.  1.
        1   -1    0    0  501    0  0.00000000000E+00  0.00000000000E+00 -0.13437363091E+04  0.13437363091E+04  0.50400001928E-02 0. -1.
    10030    2    1    2    0    0  0.00000000000E+00  0.00000000000E+00 -0.54697321659E+02  0.26327752966E+04  0.26322070521E+04 0.  0.
        3    1    3    3  502    0  0.85667593322E+03 -0.23761240959E+03  0.94331185483E+03  0.12962216544E+04  0.10100000352E+00 0.  1.
       -3    1    3    3    0  502 -0.85667593322E+03  0.23761240959E+03 -0.99800917649E+03  0.13365536421E+04  0.10100000352E+00 0. -1.
</event>
<event>
 5   0  0.1136881E-05  0.2472781E+04  0.7818609E-02  0.8412747E-01
       -2   -1    0    0    0  501  0.00000000000E+00  0.00000000000E+00  0.11607030800E+04  0.11607030800E+04  0.25500000920E-02 0. -1.
        2   -1    0    0  501    0  0.00000000000E+00  0.00000000000E+00 -0.13170136437E+04  0.13170136437E+04  0.25500000920E-02 0.  1.
    10030    2    1    2    0    0  0.00000000000E+00  0.00000000000E+00 -0.15631056377E+03  0.24777167237E+04  0.24727812622E+04 0.  0.
        3    1    3    3  502    0  0.17060563548E+03  0.72716366822E+00  0.11488520178E+04  0.11614507224E+04  0.10100000352E+00 0. -1.
       -3    1    3    3    0  502 -0.17060563548E+03 -0.72716366822E+00 -0.13051625816E+04  0.13162660013E+04  0.10100000352E+00 0.  1.
</event>
<event>
 5   0  0.4361864E-06  0.2580771E+04  0.7818609E-02  0.8374762E-01
        1   -1    0    0  501    0  0.00000000000E+00  0.00000000000E+00  0.11340055274E+04  0.11340055274E+04  0.50400001928E-02 0.  1.
       -1   -1    0    0    0  501  0.00000000000E+00  0.00000000000E+00 -0.14683306857E+04  0.14683306857E+04  0.50400001928E-02 0. -1.
    10030    2    1    2    0    0  0.00000000000E+00  0.00000000000E+00 -0.33432515822E+03  0.26023362131E+04  0.25807712906E+04 0.  0.
        3    1    3    3  502    0  0.12390405477E+04  0.36032711039E+03 -0.16094680860E+03  0.13003695593E+04  0.10100000352E+00 0. -1.
       -3    1    3    3    0  502 -0.12390405477E+04 -0.36032711039E+03 -0.17337834962E+03  0.13019666538E+04  0.10100000352E+00 0.  1.
</event>
<event>
 5   0  0.4597705E-06  0.2610059E+04  0.7818609E-02  0.8364792E-01
        1   -1    0    0  501    0  0.00000000000E+00  0.00000000000E+00  0.16299085936E+04  0.16299085936E+04  0.50400001928E-02 0.  1.
       -1   -1    0    0    0  501  0.00000000000E+00  0.00000000000E+00 -0.10449065913E+04  0.10449065913E+04  0.50400001928E-02 0. -1.
    10030    2    1    2    0    0  0.00000000000E+00  0.00000000000E+00  0.58500200231E+03  0.26748151849E+04  0.26100591814E+04 0.  0.
        5    1    3    3  502    0  0.91130212115E+03  0.72695178817E+03 -0.30869642546E+03  0.12059212377E+04  0.46999998093E+01 0. -1.
       -5    1    3    3    0  502 -0.91130212115E+03 -0.72695178817E+03  0.89369842777E+03  0.14688939472E+04  0.46999998093E+01 0.  1.
</event>
<event>
 5   0  0.4218590E-06  0.2594073E+04  0.7818609E-02  0.8370217E-01
       -1   -1    0    0    0  501  0.00000000000E+00  0.00000000000E+00  0.12817311956E+04  0.12817311956E+04  0.50400001928E-02 0. -1.
        1   -1    0    0  501    0  0.00000000000E+00  0.00000000000E+00 -0.13125247876E+04  0.13125247876E+04  0.50400001928E-02 0.  1.
    10030    2    1    2    0    0  0.00000000000E+00  0.00000000000E+00 -0.30793591937E+02  0.25942559832E+04  0.25940732182E+04 0.  0.
        1    1    3    3  502    0  0.53300124548E+02 -0.99650685215E+03  0.81317660735E+03  0.12872928977E+04  0.50400001928E-02 0. -1.
       -1    1    3    3    0  502 -0.53300124548E+02  0.99650685215E+03 -0.84397019929E+03  0.13069630855E+04  0.50400001928E-02 0.  1.
</event>
<event>
 5   0  0.4218590E-06  0.2601888E+04  0.7818609E-02  0.8367560E-01
        1   -1    0    0  501    0  0.00000000000E+00  0.00000000000E+00  0.16421578190E+04  0.16421578190E+04  0.50400001928E-02 0.  1.
       -1   -1    0    0    0  501  0.00000000000E+00  0.00000000000E+00 -0.10306286691E+04  0.10306286691E+04  0.50400001928E-02 0. -1.
    10030    2    1    2    0    0  0.00000000000E+00  0.00000000000E+00  0.61152914988E+03  0.26727864882E+04  0.26018877205E+04 0.  0.
        1    1    3    3  502    0  0.68238237649E+03  0.95297959036E+03 -0.27409824431E+03  0.12037215853E+04  0.50400001928E-02 0. -1.
       -1    1    3    3    0  502 -0.68238237649E+03 -0.95297959036E+03  0.88562739419E+03  0.14690649028E+04  0.50400001928E-02 0.  1.
</event>
<event>
 5   0  0.1136881E-05  0.2591371E+04  0.7818609E-02  0.8371138E-01
        2   -1    0    0  501    0  0.00000000000E+00  0.00000000000E+00  0.89733253318E+03  0.89733253318E+03  0.25500000920E-02 0. -1.
       -2   -1    0    0    0  501  0.00000000000E+00  0.00000000000E+00 -0.18708786555E+04  0.18708786555E+04  0.25500000920E-02 0.  1.
    10030    2    1    2    0    0  0.00000000000E+00  0.00000000000E+00 -0.97354612231E+03  0.27682111887E+04  0.25913705125E+04 0.  0.
        3    1    3    3  502    0  0.70784766915E+03 -0.19593091592E+03  0.65347874311E+03  0.98309293784E+03  0.10100000352E+00 0. -1.
       -3    1    3    3    0  502 -0.70784766915E+03  0.19593091592E+03 -0.16270248654E+04  0.17851182508E+04  0.10100000352E+00 0.  1.
</event>
<event>
 5   0  0.4218590E-06  0.2611219E+04  0.7818609E-02  0.8364400E-01
        1   -1    0    0  501    0  0.00000000000E+00  0.00000000000E+00  0.15244410987E+04  0.15244410987E+04  0.50400001928E-02 0. -1.
       -1   -1    0    0    0  501  0.00000000000E+00  0.00000000000E+00 -0.11181908041E+04  0.11181908041E+04  0.50400001928E-02 0.  1.
    10030    2    1    2    0    0  0.00000000000E+00  0.00000000000E+00  0.40625029463E+03  0.26426319028E+04  0.26112188862E+04 0.  0.
        1    1    3    3  502    0  0.42201064994E+03 -0.11201476455E+04  0.73073385560E+03  0.14024249371E+04  0.50400001928E-02 0. -1.
       -1    1    3    3    0  502 -0.42201064994E+03  0.11201476455E+04 -0.32448356096E+03  0.12402069657E+04  0.50400001928E-02 0.  1.
</event>
<event>
 5   0  0.4415080E-06  0.2598160E+04  0.7818609E-02  0.8368827E-01
        1   -1    0    0  501    0  0.00000000000E+00  0.00000000000E+00  0.17704041821E+04  0.17704041821E+04  0.50400001928E-02 0.  1.
       -1   -1    0    0    0  501  0.00000000000E+00  0.00000000000E+00 -0.95323357164E+03  0.95323357165E+03  0.50400001928E-02 0. -1.
    10030    2    1    2    0    0  0.00000000000E+00  0.00000000000E+00  0.81717061050E+03  0.27236377538E+04  0.25981598887E+04 0.  0.
        2    1    3    3  502    0  0.10313804593E+03  0.64299825382E+03 -0.76976740208E+03  0.10082787632E+04  0.25500000920E-02 0. -1.
       -2    1    3    3    0  502 -0.10313804593E+03 -0.64299825382E+03  0.15869380126E+04  0.17153589906E+04  0.25500000920E-02 0.  1.
</event>
<event>
 5   0  0.4597705E-06  0.2670807E+04  0.7818609E-02  0.8344540E-01
       -1   -1    0    0    0  501  0.00000000000E+00  0.00000000000E+00  0.17769316268E+04  0.17769316268E+04  0.50400001928E-02 0. -1.
        1   -1    0    0  501    0  0.00000000000E+00  0.00000000000E+00 -0.10035853327E+04  0.10035853327E+04  0.50400001928E-02 0.  1.
    10030    2    1    2    0    0  0.00000000000E+00  0.00000000000E+00  0.77334629407E+03  0.27805169595E+04  0.26708070075E+04 0.  0.
        5    1    3    3  502    0 -0.54972633741E+03 -0.10483681587E+04 -0.25678143520E+03  0.12112941994E+04  0.46999998093E+01 0.  1.
       -5    1    3    3    0  502  0.54972633741E+03  0.10483681587E+04  0.10301277293E+04  0.15692227601E+04  0.46999998093E+01 0. -1.
</event>
<event>
 5   0  0.1085061E-05  0.2611621E+04  0.7818609E-02  0.8364265E-01
       -2   -1    0    0    0  501  0.00000000000E+00  0.00000000000E+00  0.65195918939E+03  0.65195918939E+03  0.25500000920E-02 0.  1.
        2   -1    0    0  501    0  0.00000000000E+00  0.00000000000E+00 -0.26154103063E+04  0.26154103063E+04  0.25500000920E-02 0. -1.
    10030    2    1    2    0    0  0.00000000000E+00  0.00000000000E+00 -0.19634511170E+04  0.32673694957E+04  0.26116207866E+04 0.  0.
        1    1    3    3  502    0 -0.81739001495E+03  0.54037477992E+03  0.98138340623E+02  0.98476518685E+03  0.50400001928E-02 0.  1.
       -1    1    3    3    0  502  0.81739001495E+03 -0.54037477992E+03 -0.20615894576E+04  0.22826043089E+04  0.50400001928E-02 0. -1.
</event>
<event>
 5   0  0.1136881E-05  0.2581852E+04  0.7818609E-02  0.8374392E-01
       -2   -1    0    0    0  501  0.00000000000E+00  0.00000000000E+00  0.23894620886E+04  0.23894620886E+04  0.25500000920E-02 0. -1.
        2   -1    0    0  501    0  0.00000000000E+00  0.00000000000E+00 -0.69743299643E+03  0.69743299644E+03  0.25500000920E-02 0.  1.
    10030    2    1    2    0    0  0.00000000000E+00  0.00000000000E+00  0.16920290922E+04  0.30868950851E+04  0.25818518194E+04 0.  0.
        3    1    3    3  502    0 -0.25649897661E+03 -0.11732716042E+04  0.27998094805E+03  0.12331858431E+04  0.10100000352E+00 0.  1.
       -3    1    3    3    0  502  0.25649897661E+03  0.11732716042E+04  0.14120481442E+04  0.18537092420E+04  0.10100000352E+00 0. -1.
</event>
<event>
 5   0  0.4218590E-06  0.2587523E+04  0.7818609E-02  0.8372452E-01
       -1   -1    0    0    0  501  0.00000000000E+00  0.00000000000E+00  0.13491390581E+04  0.13491390581E+04  0.50400001928E-02 0. -1.
        1   -1    0    0  501    0  0.00000000000E+00  0.00000000000E+00 -0.12406569820E+04  0.12406569820E+04  0.50400001928E-02 0.  1.
    10030    2    1    2    0    0  0.00000000000E+00  0.00000000000E+00  0.10848207608E+03  0.25897960401E+04  0.25875229793E+04 0.  0.
        1    1    3    3  502    0 -0.43646035324E+03  0.92458511695E+02 -0.11612279250E+04  0.12439841278E+04  0.50400001928E-02 0.  1.
       -1    1    3    3    0  502  0.43646035324E+03 -0.92458511695E+02  0.12697100011E+04  0.13458119123E+04  0.50400001928E-02 0. -1.
</event>
<event>
 5   0  0.4415080E-06  0.2617778E+04  0.7818609E-02  0.8362188E-01
       -1   -1    0    0    0  501  0.00000000000E+00  0.00000000000E+00  0.91324653970E+03  0.91324653971E+03  0.50400001928E-02 0. -1.
        1   -1    0    0  501    0  0.00000000000E+00  0.00000000000E+00 -0.18759335651E+04  0.18759335651E+04  0.50400001928E-02 0.  1.
    10030    2    1    2    0    0  0.00000000000E+00  0.00000000000E+00 -0.96268702542E+03  0.27891801048E+04  0.26177775590E+04 0.  0.
        2    1    3    3  502    0  0.27539534883E+03 -0.12607544549E+04 -0.71440156388E+03  0.14750301651E+04  0.25500000920E-02 0. -1.
       -2    1    3    3    0  502 -0.27539534883E+03  0.12607544549E+04 -0.24828546154E+03  0.13141499397E+04  0.25500000920E-02 0.  1.
</event>
<event>
 5   0  0.4464297E-06  0.2598974E+04  0.7818609E-02  0.8368550E-01
        1   -1    0    0  501    0  0.00000000000E+00  0.00000000000E+00  0.13704828277E+04  0.13704828277E+04  0.50400001928E-02 0.  1.
       -1   -1    0    0    0  501  0.00000000000E+00  0.00000000000E+00 -0.12321691891E+04  0.12321691891E+04  0.50400001928E-02 0. -1.
    10030    2    1    2    0    0  0.00000000000E+00  0.00000000000E+00  0.13831363861E+03  0.26026520167E+04  0.25989741933E+04 0.  0.
        4    1    3    3  502    0  0.91864477375E+03  0.89373155347E+03 -0.14562464073E+03  0.12899118028E+04  0.12699999809E+01 0.  1.
       -4    1    3    3    0  502 -0.91864477375E+03 -0.89373155347E+03  0.28393827934E+03  0.13127402140E+04  0.12699999809E+01 0. -1.
</event>
<event>
 5   0  0.4218590E-06  0.2604533E+04  0.7818609E-02  0.8366663E-01
       -1   -1    0    0    0  501  0.00000000000E+00  0.00000000000E+00  0.10663294548E+04  0.10663294548E+04  0.50400001928E-02 0. -1.
        1   -1    0    0  501    0  0.00000000000E+00  0.00000000000E+00 -0.15904074688E+04  0.15904074688E+04  0.50400001928E-02 0.  1.
    10030    2    1    2    0    0  0.00000000000E+00  0.00000000000E+00 -0.52407801404E+03  0.26567369236E+04  0.26045332243E+04 0.  0.
        1    1    3    3  502    0  0.88608767390E+03  0.16274817461E+03  0.69715981900E+03  0.11391532590E+04  0.50400001928E-02 0. -1.
       -1    1    3    3    0  502 -0.88608767390E+03 -0.16274817461E+03 -0.12212378330E+04  0.15175836646E+04  0.50400001928E-02 0.  1.
</event>
<event>
 5   0  0.4218590E-06  0.2601960E+04  0.7818609E-02  0.8367536E-01
        1   -1    0    0  501    0  0.00000000000E+00  0.00000000000E+00  0.18188820079E+04  0.18188820079E+04  0.50400001928E-02 0.  1.
       -1   -1    0    0    0  501  0.00000000000E+00  0.00000000000E+00 -0.93054389662E+03  0.93054389664E+03  0.50400001928E-02 0. -1.
    10030    2    1    2    0    0  0.00000000000E+00  0.00000000000E+00  0.88833811126E+03  0.27494259045E+04  0.26019604541E+04 0.  0.
        1    1    3    3  502    0 -0.78843971941E+03 -0.32390867376E+03 -0.59438447663E+03  0.10391568342E+04  0.50400001928E-02 0. -1.
       -1    1    3    3    0  502  0.78843971941E+03  0.32390867376E+03  0.14827225879E+04  0.17102690703E+04  0.50400001928E-02 0.  1.
</event>
<event>
 5   0  0.1116310E-05  0.2591533E+04  0.7818609E-02  0.8371083E-01
        2   -1    0    0  501    0  0.00000000000E+00  0.00000000000E+00  0.20627829010E+04  0.20627829010E+04  0.25500000920E-02 0. -1.
       -2   -1    0    0    0  501  0.00000000000E+00  0.00000000000E+00 -0.81395393564E+03  0.81395393564E+03  0.25500000920E-02 0.  1.
    10030    2    1    2    0    0  0.00000000000E+00  0.00000000000E+00  0.12488289653E+04  0.28767368366E+04  0.25915325664E+04 0.  0.
        4    1    3    3  502    0  0.22994401282E+03 -0.11130345807E+03 -0.78572166318E+03  0.82620993319E+03  0.12699999809E+01 0.  1.
       -4    1    3    3    0  502 -0.22994401282E+03  0.11130345807E+03  0.20345506285E+04  0.20505269034E+04  0.12699999809E+01 0. -1.
</event>
<event>
 5   0  0.1116310E-05  0.2650714E+04  0.7818609E-02  0.8351176E-01
        2   -1    0    0  501    0  0.00000000000E+00  0.00000000000E+00  0.12485582901E+04  0.12485582901E+04  0.25500000920E-02 0.  1.
       -2   -1    0    0    0  501  0.00000000000E+00  0.00000000000E+00 -0.14068796669E+04  0.14068796669E+04  0.25500000920E-02 0. -1.
    10030    2    1    2    0    0  0.00000000000E+00  0.00000000000E+00 -0.15832137678E+03  0.26554379571E+04  0.26507140709E+04 0.  0.
        4    1    3    3  502    0  0.76510073568E+03  0.10778246579E+04 -0.17672279628E+03  0.13335357845E+04  0.12699999809E+01 0.  1.
       -4    1    3    3    0  502 -0.76510073568E+03 -0.10778246579E+04  0.18401419497E+02  0.13219021726E+04  0.12699999809E+01 0. -1.
</event>
<event>
 5   0  0.4218590E-06  0.2613457E+04  0.7818609E-02  0.8363645E-01
        1   -1    0    0  501    0  0.00000000000E+00  0.00000000000E+00  0.17755887186E+04  0.17755887186E+04  0.50400001928E-02 0. -1.
       -1   -1    0    0    0  501  0.00000000000E+00  0.00000000000E+00 -0.96167497826E+03  0.96167497827E+03  0.50400001928E-02 0.  1.
    10030    2    1    2    0    0  0.00000000000E+00  0.00000000000E+00  0.81391374032E+03  0.27372636969E+04  0.26134569002E+04 0.  0.
        1    1    3    3  502    0 -0.42214951296E+03 -0.44334204091E+02  0.17013687809E+04  0.17535197352E+04  0.50400001928E-02 0. -1.
       -1    1    3    3    0  502  0.42214951296E+03  0.44334204091E+02 -0.88745504062E+03  0.98374396166E+03  0.50400001928E-02 0.  1.
</event>
<event>
 5   0  0.4464297E-06  0.2598757E+04  0.7818609E-02  0.8368623E-01
       -1   -1    0    0    0  501  0.00000000000E+00  0.00000000000E+00  0.10693390086E+04  0.10693390087E+04  0.50400001928E-02 0.  1.
        1   -1    0    0  501    0  0.00000000000E+00  0.00000000000E+00 -0.15789050073E+04  0.15789050074E+04  0.50400001928E-02 0. -1.
    10030    2    1    2    0    0  0.00000000000E+00  0.00000000000E+00 -0.50956599871E+03  0.26482440160E+04  0.25987571763E+04 0.  0.
        4    1    3    3  502    0  0.24545194660E+03 -0.46479407689E+02  0.10446364954E+04  0.10740921812E+04  0.12699999809E+01 0.  1.
       -4    1    3    3    0  502 -0.24545194660E+03  0.46479407689E+02 -0.15542024941E+04  0.15741518348E+04  0.12699999809E+01 0. -1.
</event>
<event>
 5   0  0.1116310E-05  0.2617099E+04  0.7818609E-02  0.8362416E-01
        2   -1    0    0  501    0  0.00000000000E+00  0.00000000000E+00  0.17207404013E+04  0.17207404013E+04  0.25500000920E-02 0.  1.
       -2   -1    0    0    0  501  0.00000000000E+00  0.00000000000E+00 -0.99509576435E+03  0.99509576435E+03  0.25500000920E-02 0. -1.
    10030    2    1    2    0    0  0.00000000000E+00  0.00000000000E+00  0.72564463696E+03  0.27158361657E+04  0.26170987638E+04 0.  0.
        4    1    3    3  502    0 -0.16240335461E+03 -0.35317329009E+03  0.16594397117E+04  0.17043614616E+04  0.12699999809E+01 0.  1.
       -4    1    3    3    0  502  0.16240335461E+03  0.35317329009E+03 -0.93379507470E+03  0.10114747040E+04  0.12699999809E+01 0. -1.
</event>
<event>
 5   0  0.1116310E-05  0.2605633E+04  0.7818609E-02  0.8366290E-01
       -2   -1    0    0    0  501  0.00000000000E+00  0.00000000000E+00  0.91535739242E+03  0.91535739243E+03  0.25500000920E-02 0.  1.
        2   -1    0    0  501    0  0.00000000000E+00  0.00000000000E+00 -0.18542821357E+04  0.18542821357E+04  0.25500000920E-02 0. -1.
    10030    2    1    2    0    0  0.00000000000E+00  0.00000000000E+00 -0.93892474327E+03  0.27696395281E+04  0.26056330214E+04 0.  0.
        4    1    3    3  502    0 -0.54361684549E+03  0.74362942955E+03  0.50984526910E+03  0.10528284829E+04  0.12699999809E+01 0.  1.
       -4    1    3    3    0  502  0.54361684549E+03 -0.74362942955E+03 -0.14487700124E+04  0.17168110452E+04  0.12699999809E+01 0. -1.
</event>
<event>
 5   0  0.1085255E-05  0.2646776E+04  0.7818609E-02  0.8352484E-01
       -2   -1    0    0    0  501  0.00000000000E+00  0.00000000000E+00  0.10859707253E+04  0.10859707253E+04  0.25500000920E-02 0. -1.
        2   -1    0    0  501    0  0.00000000000E+00  0.00000000000E+00 -0.16127097421E+04  0.16127097421E+04  0.25500000920E-02 0.  1.
    10030    2    1    2    0    0  0.00000000000E+00  0.00000000000E+00 -0.52673901686E+03  0.26986804674E+04  0.26467758260E+04 0.  0.
        5    1    3    3  502    0  0.35753691777E+03 -0.29620209369E+03  0.10001929393E+04  0.11027131693E+04  0.46999998093E+01 0. -1.
       -5    1    3    3    0  502 -0.35753691777E+03  0.29620209369E+03 -0.15269319562E+04  0.15959672981E+04  0.46999998093E+01 0.  1.
</event>
<event>
 5   0  0.1085061E-05  0.2589035E+04  0.7818609E-02  0.8371935E-01
        2   -1    0    0  501    0  0.00000000000E+00  0.00000000000E+00  0.95405425731E+03  0.95405425731E+03  0.25500000920E-02 0.  1.
       -2   -1    0    0    0  501  0.00000000000E+00  0.00000000000E+00 -0.17564783581E+04  0.17564783581E+04  0.25500000920E-02 0. -1.
    10030    2    1    2    0    0  0.00000000000E+00  0.00000000000E+00 -0.80242410076E+03  0.27105326154E+04  0.25890350754E+04 0.  0.
        1    1    3    3  502    0 -0.12216564863E+04 -0.42554831738E+03 -0.35166554515E+03  0.13405985964E+04  0.50400001928E-02 0. -1.
       -1    1    3    3    0  502  0.12216564863E+04  0.42554831738E+03 -0.45075855561E+03  0.13699340190E+04  0.50400001928E-02 0.  1.
</event>
<event>
 5   0  0.4597705E-06  0.2673231E+04  0.7818609E-02  0.8343743E-01
        1   -1    0    0  501    0  0.00000000000E+00  0.00000000000E+00  0.18775691279E+04  0.18775691279E+04  0.50400001928E-02 0.  1.
       -1   -1    0    0    0  501  0.00000000000E+00  0.00000000000E+00 -0.95151829146E+03  0.95151829147E+03  0.50400001928E-02 0. -1.
    10030    2    1    2    0    0  0.00000000000E+00  0.00000000000E+00  0.92605083639E+03  0.28290874193E+04  0.26732312797E+04 0.  0.
        5    1    3    3  502    0 -0.14362765136E+03  0.61652852675E+03  0.17088515622E+04  0.18223424701E+04  0.46999998093E+01 0.  1.
       -5    1    3    3    0  502  0.14362765136E+03 -0.61652852675E+03 -0.78280072582E+03  0.10067449493E+04  0.46999998093E+01 0. -1.
</event>
<event>
 5   0  0.1085255E-05  0.2579582E+04  0.7818609E-02  0.8375170E-01
        2   -1    0    0  501    0  0.00000000000E+00  0.00000000000E+00  0.18467765407E+04  0.18467765407E+04  0.25500000920E-02 0. -1.
       -2   -1    0    0    0  501  0.00000000000E+00  0.00000000000E+00 -0.90079168290E+03  0.90079168290E+03  0.25500000920E-02 0.  1.
    10030    2    1    2    0    0  0.00000000000E+00  0.00000000000E+00  0.94598485782E+03  0.27475682236E+04  0.25795820964E+04 0.  0.
        5    1    3    3  502    0  0.10151857131E+04  0.71220097466E+02 -0.37098747035E+03  0.10832027176E+04  0.46999998093E+01 0.  1.
       -5    1    3    3    0  502 -0.10151857131E+04 -0.71220097466E+02  0.13169723282E+04  0.16643655060E+04  0.46999998093E+01 0. -1.
</event>
<event>
 5   0  0.4415080E-06  0.2608271E+04  0.7818609E-02  0.8365397E-01
        1   -1    0    0  501    0  0.00000000000E+00  0.00000000000E+00  0.10391705399E+04  0.10391705399E+04  0.50400001928E-02 0.  1.
       -1   -1    0    0    0  501  0.00000000000E+00  0.00000000000E+00 -0.16366599023E+04  0.16366599023E+04  0.50400001928E-02 0. -1.
    10030    2    1    2    0    0  0.00000000000E+00  0.00000000000E+00 -0.59748936241E+03  0.26758304422E+04  0.26082705031E+04 0.  0.
        2    1    3    3  502    0 -0.12935791891E+04 -0.16372458285E+03 -0.32420476810E+03  0.13436002342E+04  0.25500000920E-02 0.  1.
       -2    1    3    3    0  502  0.12935791891E+04  0.16372458285E+03 -0.27328459431E+03  0.13322302080E+04  0.25500000920E-02 0. -1.
</event>
<event>
 5   0  0.1085255E-05  0.2610337E+04  0.7818609E-02  0.8364698E-01
       -2   -1    0    0    0  501  0.00000000000E+00  0.00000000000E+00  0.78604038016E+03  0.78604038016E+03  0.25500000920E-02 0. -1.
        2   -1    0    0  501    0  0.00000000000E+00  0.00000000000E+00 -0.21671463939E+04  0.21671463939E+04  0.25500000920E-02 0.  1.
    10030    2    1    2    0    0  0.00000000000E+00  0.00000000000E+00 -0.13811060137E+04  0.29531867740E+04  0.26103368176E+04 0.  0.
        5    1    3    3  502    0  0.25092872125E+03 -0.83290775520E+03  0.41025143307E+03  0.96178421705E+03  0.46999998093E+01 0. -1.
       -5    1    3    3    0  502 -0.25092872125E+03  0.83290775520E+03 -0.17913574468E+04  0.19914025570E+04  0.46999998093E+01 0.  1.
</event>
<event>
 5   0  0.4361864E-06  0.2566748E+04  0.7818609E-02  0.8379585E-01
       -1   -1    0    0    0  501  0.00000000000E+00  0.00000000000E+00  0.14537450410E+04  0.14537450410E+04  0.50400001928E-02 0.  1.
        1   -1    0    0  501    0  0.00000000000E+00  0.00000000000E+00 -0.11329691233E+04  0.11329691233E+04  0.50400001928E-02 0. -1.
    10030    2    1    2    0    0  0.00000000000E+00  0.00000000000E+00  0.32077591771E+03  0.25867141644E+04  0.25667475487E+04 0.  0.
        3    1    3    3  502    0 -0.74510769662E+03  0.92644285878E+03 -0.32665857190E+03  0.12329589137E+04  0.10100000352E+00 0. -1.
       -3    1    3    3    0  502  0.74510769662E+03 -0.92644285878E+03  0.64743448961E+03  0.13537552507E+04  0.10100000352E+00 0.  1.
</event>
<event>
 5   0  0.4464297E-06  0.2619341E+04  0.7818609E-02  0.8361661E-01
        1   -1    0    0  501    0  0.00000000000E+00  0.00000000000E+00  0.11372880594E+04  0.11372880594E+04  0.50400001928E-02 0.  1.
       -1   -1    0    0    0  501  0.00000000000E+00  0.00000000000E+00 -0.15081817171E+04  0.15081817171E+04  0.50400001928E-02 0. -1.
    10030    2    1    2    0    0  0.00000000000E+00  0.00000000000E+00 -0.37089365776E+03  0.26454697765E+04  0.26193411830E+04 0.  0.
        4    1    3    3  502    0 -0.34126278562E+03 -0.61286228661E+03 -0.13024515957E+04  0.14793384478E+04  0.12699999809E+01 0. -1.
       -4    1    3    3    0  502  0.34126278562E+03  0.61286228661E+03  0.93155793791E+03  0.11661313287E+04  0.12699999809E+01 0.  1.
</event>
<event>
 5   0  0.4361864E-06  0.2580696E+04  0.7818609E-02  0.8374788E-01
       -1   -1    0    0    0  501  0.00000000000E+00  0.00000000000E+00  0.10802273401E+04  0.10802273401E+04  0.50400001928E-02 0. -1.
        1   -1    0    0  501    0  0.00000000000E+00  0.00000000000E+00 -0.15413403550E+04  0.15413403550E+04  0.50400001928E-02 0.  1.
    10030    2    1    2    0    0  0.00000000000E+00  0.00000000000E+00 -0.46111301495E+03  0.26215676951E+04  0.25806960238E+04 0.  0.
        3    1    3    3  502    0 -0.70498913924E+03  0.10022144154E+04 -0.64138026799E+03  0.13830444965E+04  0.10100000352E+00 0.  1.
       -3    1    3    3    0  502  0.70498913924E+03 -0.10022144154E+04  0.18026725304E+03  0.12385231986E+04  0.10100000352E+00 0. -1.
</event>
<event>
 5   0  0.4361864E-06  0.2597521E+04  0.7818609E-02  0.8369044E-01
        1   -1    0    0  501    0  0.00000000000E+00  0.00000000000E+00  0.14173794515E+04  0.14173794515E+04  0.50400001928E-02 0.  1.
       -1   -1    0    0    0  501  0.00000000000E+00  0.00000000000E+00 -0.11900684485E+04  0.11900684485E+04  0.50400001928E-02 0. -1.
    10030    2    1    2    0    0  0.00000000000E+00  0.00000000000E+00  0.22731100296E+03  0.26074479000E+04  0.25975207909E+04 0.  0.
        3    1    3    3  502    0 -0.10094412985E+04 -0.63102524933E+03 -0.40757256119E+03  0.12582845478E+04  0.10100000352E+00 0. -1.
       -3    1    3    3    0  502  0.10094412985E+04  0.63102524933E+03  0.63488356415E+03  0.13491633521E+04  0.10100000352E+00 0.  1.
</event>
<event>
 5   0  0.1086507E-05  0.2599486E+04  0.7818609E-02  0.8368376E-01
        2   -1    0    0  501    0  0.00000000000E+00  0.00000000000E+00  0.11494660392E+04  0.11494660392E+04  0.25500000920E-02 0.  1.
       -2   -1    0    0    0  501  0.00000000000E+00  0.00000000000E+00 -0.14696660730E+04  0.14696660731E+04  0.25500000920E-02 0. -1.
    10030    2    1    2    0    0  0.00000000000E+00  0.00000000000E+00 -0.32020003381E+03  0.26191321123E+04  0.25994855183E+04 0.  0.
        2    1    3    3  502    0  0.60728779380E+03  0.10321715250E+04  0.34884609984E+03  0.12473452300E+04  0.25500000920E-02 0.  1.
       -2    1    3    3    0  502 -0.60728779380E+03 -0.10321715250E+04 -0.66904613364E+03  0.13717868823E+04  0.25500000920E-02 0. -1.
</event>
<event>
 5   0  0.4597705E-06  0.2588153E+04  0.7818609E-02  0.8372236E-01
       -1   -1    0    0    0  501  0.00000000000E+00  0.00000000000E+00  0.11677529755E+04  0.11677529755E+04  0.50400001928E-02 0. -1.
        1   -1    0    0  501    0  0.00000000000E+00  0.00000000000E+00 -0.14340653848E+04  0.14340653848E+04  0.50400001928E-02 0.  1.
    10030    2    1    2    0    0  0.00000000000E+00  0.00000000000E+00 -0.26631240934E+03  0.26018183603E+04  0.25881531023E+04 0.  0.
        5    1    3    3  502    0 -0.57811676088E+03 -0.43693749628E+03 -0.12109544398E+04  0.14112285818E+04  0.46999998093E+01 0.  1.
       -5    1    3    3    0  502  0.57811676088E+03  0.43693749628E+03  0.94464203048E+03  0.11905897785E+04  0.46999998093E+01 0. -1.
</event>
<event>
 5   0  0.4415080E-06  0.2624822E+04  0.7818609E-02  0.8359818E-01
        1   -1    0    0  501    0  0.00000000000E+00  0.00000000000E+00  0.14925929985E+04  0.14925929985E+04  0.50400001928E-02 0. -1.
       -1   -1    0    0    0  501  0.00000000000E+00  0.00000000000E+00 -0.11539804915E+04  0.11539804915E+04  0.50400001928E-02 0.  1.
    10030    2    1    2    0    0  0.00000000000E+00  0.00000000000E+00  0.33861250701E+03  0.26465734900E+04  0.26248224336E+04 0.  0.
        2    1    3    3  502    0  0.21720177828E+03  0.35725922548E+03  0.14236458558E+04  0.14837716433E+04  0.25500000920E-02 0. -1.
       -2    1    3    3    0  502 -0.21720177828E+03 -0.35725922548E+03 -0.10850333488E+04  0.11628018467E+04  0.25500000920E-02 0.  1.
</event>
<event>
 5   0  0.4361864E-06  0.2484606E+04  0.7818609E-02  0.8408490E-01
       -1   -1    0    0    0  501  0.00000000000E+00  0.00000000000E+00  0.73143660751E+03  0.73143660752E+03  0.50400001928E-02 0.  1.
        1   -1    0    0  501    0  0.00000000000E+00  0.00000000000E+00 -0.21099797167E+04  0.21099797167E+04  0.50400001928E-02 0. -1.
    10030    2    1    2    0    0  0.00000000000E+00  0.00000000000E+00 -0.13785431092E+04  0.28414163242E+04  0.24846057280E+04 0.  0.
        3    1    3    3  502    0 -0.12140157956E+03  0.84343375911E+03  0.34453889120E+03  0.91914411671E+03  0.10100000352E+00 0.  1.
       -3    1    3    3    0  502  0.12140157956E+03 -0.84343375911E+03 -0.17230820004E+04  0.19222722075E+04  0.10100000352E+00 0. -1.
</event>
<event>
 5   0  0.1085061E-05  0.2605153E+04  0.7818609E-02  0.8366453E-01
        2   -1    0    0  501    0  0.00000000000E+00  0.00000000000E+00  0.70528761428E+03  0.70528761429E+03  0.25500000920E-02 0. -1.
       -2   -1    0    0    0  501  0.00000000000E+00  0.00000000000E+00 -0.24056939791E+04  0.24056939791E+04  0.25500000920E-02 0.  1.
    10030    2    1    2    0    0  0.00000000000E+00  0.00000000000E+00 -0.17004063649E+04  0.31109815934E+04  0.26051534828E+04 0.  0.
        1    1    3    3  502    0  0.96416129652E+03 -0.28786468574E+03  0.13759031160E+03  0.10155807092E+04  0.50400001928E-02 0. -1.
       -1    1    3    3    0  502 -0.96416129652E+03  0.28786468574E+03 -0.18379966765E+04  0.20954008842E+04  0.50400001928E-02 0.  1.
</event>
<event>
 5   0  0.1086507E-05  0.2596178E+04  0.7818609E-02  0.8369501E-01
        2   -1    0    0  501    0  0.00000000000E+00  0.00000000000E+00  0.16825833882E+04  0.16825833883E+04  0.25500000920E-02 0. -1.
       -2   -1    0    0    0  501  0.00000000000E+00  0.00000000000E+00 -0.10014568516E+04  0.10014568516E+04  0.25500000920E-02 0.  1.
    10030    2    1    2    0    0  0.00000000000E+00  0.00000000000E+00  0.68112653660E+03  0.26840402399E+04  0.25961777001E+04 0.  0.
        2    1    3    3  502    0 -0.44268990067E+03  0.43814939826E+03  0.15180035679E+04  0.16408181116E+04  0.25500000920E-02 0. -1.
       -2    1    3    3    0  502  0.44268990067E+03 -0.43814939826E+03 -0.83687703129E+03  0.10432221283E+04  0.25500000920E-02 0.  1.
</event>
<event>
 5   0  0.4361864E-06  0.2603678E+04  0.7818609E-02  0.8366953E-01
       -1   -1    0    0    0  501  0.00000000000E+00  0.00000000000E+00  0.82311925642E+03  0.82311925644E+03  0.50400001928E-02 0.  1.
        1   -1    0    0  501    0  0.00000000000E+00  0.00000000000E+00 -0.20589781499E+04  0.20589781499E+04  0.50400001928E-02 0. -1.
    10030    2    1    2    0    0  0.00000000000E+00  0.00000000000E+00 -0.12358588935E+04  0.28820974064E+04  0.26036778324E+04 0.  0.
        3    1    3    3  502    0  0.33110966142E+03 -0.12477492686E+04 -0.80405462079E+03  0.15208601805E+04  0.10100000352E+00 0. -1.
       -3    1    3    3    0  502 -0.33110966142E+03  0.12477492686E+04 -0.43180427272E+03  0.13612372259E+04  0.10100000352E+00 0.  1.
</event>
<event>
 5   0  0.1085061E-05  0.2606726E+04  0.7818609E-02  0.8365920E-01
       -2   -1    0    0    0  501  0.00000000000E+00  0.00000000000E+00  0.13393586615E+04  0.13393586615E+04  0.25500000920E-02 0. -1.
        2   -1    0    0  501    0  0.00000000000E+00  0.00000000000E+00 -0.12683346087E+04  0.12683346087E+04  0.25500000920E-02 0.  1.
    10030    2    1    2    0    0  0.00000000000E+00  0.00000000000E+00  0.71024052813E+02  0.26076932702E+04  0.26067258727E+04 0.  0.
        1    1    3    3  502    0  0.52037029531E+03  0.40479590348E+03 -0.10892316835E+04  0.12732127191E+04  0.50400001928E-02 0.  1.
       -1    1    3    3    0  502 -0.52037029531E+03 -0.40479590348E+03  0.11602557363E+04  0.13344805511E+04  0.50400001928E-02 0. -1.
</event>
<event>
 5   0  0.4218590E-06  0.2328530E+04  0.7818609E-02  0.8466756E-01
        1   -1    0    0  501    0  0.00000000000E+00  0.00000000000E+00  0.55338795178E+03  0.55338795180E+03  0.50400001928E-02 0.  1.
       -1   -1    0    0    0  501  0.00000000000E+00  0.00000000000E+00 -0.24494805109E+04  0.24494805109E+04  0.50400001928E-02 0. -1.
    10030    2    1    2    0    0  0.00000000000E+00  0.00000000000E+00 -0.18960925591E+04  0.30028684627E+04  0.23285300109E+04 0.  0.
        1    1    3    3  502    0 -0.96000839790E+03  0.64766070901E+03 -0.11029725349E+04  0.15992588692E+04  0.50400001928E-02 0.  1.
       -1    1    3    3    0  502  0.96000839790E+03 -0.64766070901E+03 -0.79312002420E+03  0.14036095935E+04  0.50400001928E-02 0. -1.
</event>
<event>
 5   0  0.4361864E-06  0.2596273E+04  0.7818609E-02  0.8369468E-01
        1   -1    0    0  501    0  0.00000000000E+00  0.00000000000E+00  0.92561696029E+03  0.92561696031E+03  0.50400001928E-02 0.  1.
       -1   -1    0    0    0  501  0.00000000000E+00  0.00000000000E+00 -0.18205787458E+04  0.18205787458E+04  0.50400001928E-02 0. -1.
    10030    2    1    2    0    0  0.00000000000E+00  0.00000000000E+00 -0.89496178552E+03  0.27461957061E+04  0.25962731480E+04 0.  0.
        3    1    3    3  502    0  0.44484618328E+03 -0.16856986755E+03  0.83009618396E+03  0.95674636756E+03  0.10100000352E+00 0.  1.
       -3    1    3    3    0  502 -0.44484618328E+03  0.16856986755E+03 -0.17250579695E+04  0.17894493386E+04  0.10100000352E+00 0. -1.
</event>
<event>
 5   0  0.1116310E-05  0.2607002E+04  0.7818609E-02  0.8365827E-01
        2   -1    0    0  501    0  0.00000000000E+00  0.00000000000E+00  0.22476231962E+04  0.22476231962E+04  0.25500000920E-02 0.  1.
       -2   -1    0    0    0  501  0.00000000000E+00  0.00000000000E+00 -0.75596051676E+03  0.75596051676E+03  0.25500000920E-02 0. -1.
    10030    2    1    2    0    0  0.00000000000E+00  0.00000000000E+00  0.14916626794E+04  0.30035837129E+04  0.26070016439E+04 0.  0.
        4    1    3    3  502    0 -0.12327956107E+04 -0.40102486513E+03  0.58909693707E+03  0.14239532206E+04  0.12699999809E+01 0. -1.
       -4    1    3    3    0  502  0.12327956107E+04  0.40102486513E+03  0.90256574235E+03  0.15796304924E+04  0.12699999809E+01 0.  1.
</event>
<event>
 5   0  0.3705250E-06  0.2595760E+04  0.7818609E-02  0.8369643E-01
       -4   -1    0    0    0  501  0.00000000000E+00  0.00000000000E+00  0.10622539674E+04  0.10622547266E+04  0.12699999809E+01 0.  1.
        4   -1    0    0  501    0  0.00000000000E+00  0.00000000000E+00 -0.15857698486E+04  0.15857703571E+04  0.12699999809E+01 0. -1.
    10030    2    1    2    0    0  0.00000000000E+00  0.00000000000E+00 -0.52351588117E+03  0.26480250837E+04  0.25957596126E+04 0.  0.
        1    1    3    3  502    0 -0.12695107216E+04 -0.75770093182E+02  0.24814527561E+01  0.12717722819E+04  0.50400001928E-02 0.  1.
       -1    1    3    3    0  502  0.12695107216E+04  0.75770093182E+02 -0.52599733392E+03  0.13762528019E+04  0.50400001928E-02 0. -1.
</event>
<event>
 5   0  0.1085061E-05  0.2592075E+04  0.7818609E-02  0.8370898E-01
        2   -1    0    0  501    0  0.00000000000E+00  0.00000000000E+00  0.17437048942E+04  0.17437048942E+04  0.25500000920E-02 0. -1.
       -2   -1    0    0    0  501  0.00000000000E+00  0.00000000000E+00 -0.96330125294E+03  0.96330125294E+03  0.25500000920E-02 0.  1.
    10030    2    1    2    0    0  0.00000000000E+00  0.00000000000E+00  0.78040364129E+03  0.27070061472E+04  0.25920749290E+04 0.  0.
        1    1    3    3  502    0 -0.94596076111E+03  0.22577437812E+03  0.12848645159E+04  0.16114256593E+04  0.50400001928E-02 0. -1.
       -1    1    3    3    0  502  0.94596076111E+03 -0.22577437812E+03 -0.50446087456E+03  0.10955804879E+04  0.50400001928E-02 0.  1.
</event>
<event>
 5   0  0.1085255E-05  0.2592505E+04  0.7818609E-02  0.8370751E-01
        2   -1    0    0  501    0  0.00000000000E+00  0.00000000000E+00  0.21092101987E+04  0.21092101987E+04  0.25500000920E-02 0.  1.
       -2   -1    0    0    0  501  0.00000000000E+00  0.00000000000E+00 -0.79663515816E+03  0.79663515817E+03  0.25500000920E-02 0. -1.
    10030    2    1    2    0    0  0.00000000000E+00  0.00000000000E+00  0.13125750405E+04  0.29058453568E+04  0.25925053522E+04 0.  0.
        5    1    3    3  502    0  0.60218634561E+03  0.73552675543E+03 -0.33148599100E+03  0.10067437882E+04  0.46999998093E+01 0. -1.
       -5    1    3    3    0  502 -0.60218634561E+03 -0.73552675543E+03  0.16440610315E+04  0.18991015687E+04  0.46999998093E+01 0.  1.
</event>
<event>
 5   0  0.1116310E-05  0.2549597E+04  0.7818609E-02  0.8385526E-01
       -2   -1    0    0    0  501  0.00000000000E+00  0.00000000000E+00  0.14581172274E+04  0.14581172274E+04  0.25500000920E-02 0.  1.
        2   -1    0    0  501    0  0.00000000000E+00  0.00000000000E+00 -0.11145273507E+04  0.11145273507E+04  0.25500000920E-02 0. -1.
    10030    2    1    2    0    0  0.00000000000E+00  0.00000000000E+00  0.34358987669E+03  0.25726445782E+04  0.25495972471E+04 0.  0.
        4    1    3    3  502    0  0.42347584993E+03 -0.87360008988E+03 -0.66187025772E+03  0.11749820269E+04  0.12699999809E+01 0.  1.
       -4    1    3    3    0  502 -0.42347584993E+03  0.87360008988E+03  0.10054601344E+04  0.13976625513E+04  0.12699999809E+01 0. -1.
</event>
<event>
 5   0  0.4361864E-06  0.2563303E+04  0.7818609E-02  0.8380774E-01
       -1   -1    0    0    0  501  0.00000000000E+00  0.00000000000E+00  0.64122582018E+03  0.64122582020E+03  0.50400001928E-02 0.  1.
        1   -1    0    0  501    0  0.00000000000E+00  0.00000000000E+00 -0.25617039837E+04  0.25617039837E+04  0.50400001928E-02 0. -1.
    10030    2    1    2    0    0  0.00000000000E+00  0.00000000000E+00 -0.19204781636E+04  0.32029298039E+04  0.25633031331E+04 0.  0.
        3    1    3    3  502    0  0.36973609576E+01 -0.11170023378E+04 -0.17454811807E+04  0.20722964207E+04  0.10100000352E+00 0. -1.
       -3    1    3    3    0  502 -0.36973609576E+01  0.11170023378E+04 -0.17499698288E+03  0.11306333832E+04  0.10100000352E+00 0.  1.
</event>
<event>
 5   0  0.4361864E-06  0.2585215E+04  0.7818609E-02  0.8373241E-01
       -1   -1    0    0    0  501  0.00000000000E+00  0.00000000000E+00  0.16873926013E+04  0.16873926013E+04  0.50400001928E-02 0. -1.
        1   -1    0    0  501    0  0.00000000000E+00  0.00000000000E+00 -0.99018664905E+03  0.99018664907E+03  0.50400001928E-02 0.  1.
    10030    2    1    2    0    0  0.00000000000E+00  0.00000000000E+00  0.69720595225E+03  0.26775792504E+04  0.25852145950E+04 0.  0.
        3    1    3    3  502    0  0.11880283599E+03  0.51929468049E+03 -0.87120702606E+03  0.10211673572E+04  0.10100000352E+00 0.  1.
       -3    1    3    3    0  502 -0.11880283599E+03 -0.51929468049E+03  0.15684129783E+04  0.16564118931E+04  0.10100000352E+00 0. -1.
</event>
<event>
 5   0  0.1136881E-05  0.2589355E+04  0.7818609E-02  0.8371826E-01
        2   -1    0    0  501    0  0.00000000000E+00  0.00000000000E+00  0.71353431984E+03  0.71353431984E+03  0.25500000920E-02 0.  1.
       -2   -1    0    0    0  501  0.00000000000E+00  0.00000000000E+00 -0.23491362279E+04  0.23491362279E+04  0.25500000920E-02 0. -1.
    10030    2    1    2    0    0  0.00000000000E+00  0.00000000000E+00 -0.16356019080E+04  0.30626705477E+04  0.25893546073E+04 0.  0.
        3    1    3    3  502    0 -0.10926543242E+04 -0.56616724141E+03 -0.34210269899E+03  0.12772913075E+04  0.10100000352E+00 0.  1.
       -3    1    3    3    0  502  0.10926543242E+04  0.56616724141E+03 -0.12934992090E+04  0.17853792402E+04  0.10100000352E+00 0. -1.
</event>
<event>
 5   0  0.1116310E-05  0.2590226E+04  0.7818609E-02  0.8371529E-01
       -2   -1    0    0    0  501  0.00000000000E+00  0.00000000000E+00  0.71205679121E+03  0.71205679121E+03  0.25500000920E-02 0.  1.
        2   -1    0    0  501    0  0.00000000000E+00  0.00000000000E+00 -0.23555947573E+04  0.23555947573E+04  0.25500000920E-02 0. -1.
    10030    2    1    2    0    0  0.00000000000E+00  0.00000000000E+00 -0.16435379661E+04  0.30676515486E+04  0.25902256615E+04 0.  0.
        4    1    3    3  502    0 -0.89033197409E+02  0.15506472280E+03  0.69736729623E+03  0.71992689716E+03  0.12699999809E+01 0.  1.
       -4    1    3    3    0  502  0.89033197409E+02 -0.15506472280E+03 -0.23409052624E+04  0.23477246514E+04  0.12699999809E+01 0. -1.
</event>
<event>
 5   0  0.4415080E-06  0.2565982E+04  0.7818609E-02  0.8379849E-01
       -1   -1    0    0    0  501  0.00000000000E+00  0.00000000000E+00  0.10330562141E+04  0.10330562141E+04  0.50400001928E-02 0. -1.
        1   -1    0    0  501    0  0.00000000000E+00  0.00000000000E+00 -0.15933943926E+04  0.15933943927E+04  0.50400001928E-02 0.  1.
    10030    2    1    2    0    0  0.00000000000E+00  0.00000000000E+00 -0.56033817856E+03  0.26264506068E+04  0.25659820567E+04 0.  0.
        2    1    3    3  502    0 -0.11300467900E+03  0.22099276200E+03  0.10082466011E+04  0.10383492028E+04  0.25500000920E-02 0. -1.
       -2    1    3    3    0  502  0.11300467900E+03 -0.22099276200E+03 -0.15685847796E+04  0.15881014040E+04  0.25500000920E-02 0.  1.
</event>
<event>
 5   0  0.4218590E-06  0.2625611E+04  0.7818609E-02  0.8359553E-01
       -1   -1    0    0    0  501  0.00000000000E+00  0.00000000000E+00  0.11614343482E+04  0.11614343482E+04  0.50400001928E-02 0. -1.
        1   -1    0    0  501    0  0.00000000000E+00  0.00000000000E+00 -0.14839052464E+04  0.14839052464E+04  0.50400001928E-02 0.  1.
    10030    2    1    2    0    0  0.00000000000E+00  0.00000000000E+00 -0.32247089820E+03  0.26453395945E+04  0.26256111841E+04 0.  0.
        1    1    3    3  502    0 -0.10792522078E+04  0.71454017065E+02  0.58837618478E+03  0.12312910052E+04  0.50400001928E-02 0. -1.
       -1    1    3    3    0  502  0.10792522078E+04 -0.71454017065E+02 -0.91084708298E+03  0.14140485894E+04  0.50400001928E-02 0.  1.
</event>
<event>
 5   0  0.4415080E-06  0.2620066E+04  0.7818609E-02  0.8361417E-01
        1   -1    0    0  501    0  0.00000000000E+00  0.00000000000E+00  0.11162821599E+04  0.11162821599E+04  0.50400001928E-02 0. -1.
       -1   -1    0    0    0  501  0.00000000000E+00  0.00000000000E+00 -0.15374130443E+04  0.15374130443E+04  0.50400001928E-02 0.  1.
    10030    2    1    2    0    0  0.00000000000E+00  0.00000000000E+00 -0.42113088438E+03  0.26536952042E+04  0.26200662234E+04 0.  0.
        2    1    3    3  502    0  0.69967075695E+03 -0.22900226258E+03 -0.13080813793E+04  0.15010190203E+04  0.25500000920E-02 0.  1.
       -2    1    3    3    0  502 -0.69967075695E+03  0.22900226258E+03  0.88695049493E+03  0.11526761839E+04  0.25500000920E-02 0. -1.
</event>
<event>
 5   0  0.1116310E-05  0.2609206E+04  0.7818609E-02  0.8365081E-01
       -2   -1    0    0    0  501  0.00000000000E+00  0.00000000000E+00  0.80557638720E+03  0.80557638720E+03  0.25500000920E-02 0. -1.
        2   -1    0    0  501    0  0.00000000000E+00  0.00000000000E+00 -0.21127588545E+04  0.21127588545E+04  0.25500000920E-02 0.  1.
    10030    2    1    2    0    0  0.00000000000E+00  0.00000000000E+00 -0.13071824673E+04  0.29183352417E+04  0.26092057374E+04 0.  0.
        4    1    3    3  502    0  0.74529110325E+03 -0.99960118079E+03 -0.10828963717E+04  0.16514622351E+04  0.12699999809E+01 0.  1.
       -4    1    3    3    0  502 -0.74529110325E+03  0.99960118079E+03 -0.22428609556E+03  0.12668730066E+04  0.12699999809E+01 0. -1.
</event>
<event>
 5   0  0.1116310E-05  0.2592737E+04  0.7818609E-02  0.8370673E-01
        2   -1    0    0  501    0  0.00000000000E+00  0.00000000000E+00  0.14284485894E+04  0.14284485894E+04  0.25500000920E-02 0. -1.
       -2   -1    0    0    0  501  0.00000000000E+00  0.00000000000E+00 -0.11765006296E+04  0.11765006296E+04  0.25500000920E-02 0.  1.
    10030    2    1    2    0    0  0.00000000000E+00  0.00000000000E+00  0.25194795985E+03  0.26049492190E+04  0.25927365194E+04 0.  0.
        4    1    3    3  502    0 -0.10951891717E+04 -0.61596737694E+03  0.44640243379E+03  0.13334661139E+04  0.12699999809E+01 0. -1.
       -4    1    3    3    0  502  0.10951891717E+04  0.61596737694E+03 -0.19445447394E+03  0.12714831051E+04  0.12699999809E+01 0.  1.
</event>
<event>
 5   0  0.1085255E-05  0.2594849E+04  0.7818609E-02  0.8369953E-01
        2   -1    0    0  501    0  0.00000000000E+00  0.00000000000E+00  0.25432251653E+04  0.25432251653E+04  0.25500000920E-02 0.  1.
       -2   -1    0    0    0  501  0.00000000000E+00  0.00000000000E+00 -0.66188009010E+03  0.66188009011E+03  0.25500000920E-02 0. -1.
    10030    2    1    2    0    0  0.00000000000E+00  0.00000000000E+00  0.18813450752E+04  0.32051052554E+04  0.25948488215E+04 0.  0.
        5    1    3    3  502    0 -0.88950822905E+03 -0.83875623000E+03  0.14770182103E+04  0.19173788844E+04  0.46999998093E+01 0.  1.
       -5    1    3    3    0  502  0.88950822905E+03  0.83875623000E+03  0.40432686495E+03  0.12877263710E+04  0.46999998093E+01 0. -1.
</event>
<event>
 5   0  0.4361864E-06  0.2607359E+04  0.7818609E-02  0.8365706E-01
       -1   -1    0    0    0  501  0.00000000000E+00  0.00000000000E+00  0.12563091598E+04  0.12563091598E+04  0.50400001928E-02 0.  1.
        1   -1    0    0  501    0  0.00000000000E+00  0.00000000000E+00 -0.13528364382E+04  0.13528364382E+04  0.50400001928E-02 0. -1.
    10030    2    1    2    0    0  0.00000000000E+00  0.00000000000E+00 -0.96527278446E+02  0.26091455980E+04  0.26073594375E+04 0.  0.
        3    1    3    3  502    0  0.59071401471E+03 -0.77849553913E+01  0.11146758236E+04  0.12615489902E+04  0.10100000352E+00 0.  1.
       -3    1    3    3    0  502 -0.59071401471E+03  0.77849553913E+01 -0.12112031021E+04  0.13475966078E+04  0.10100000352E+00 0. -1.
</event>
<event>
 5   0  0.4415080E-06  0.2581995E+04  0.7818609E-02  0.8374343E-01
        1   -1    0    0  501    0  0.00000000000E+00  0.00000000000E+00  0.16290668397E+04  0.16290668397E+04  0.50400001928E-02 0. -1.
       -1   -1    0    0    0  501  0.00000000000E+00  0.00000000000E+00 -0.10230851669E+04  0.10230851669E+04  0.50400001928E-02 0.  1.
    10030    2    1    2    0    0  0.00000000000E+00  0.00000000000E+00  0.60598167278E+03  0.26521520066E+04  0.25819946705E+04 0.  0.
        2    1    3    3  502    0 -0.94511213158E+03 -0.65032359316E+03  0.91112197730E+03  0.14650259297E+04  0.25500000920E-02 0. -1.
       -2    1    3    3    0  502  0.94511213158E+03  0.65032359316E+03 -0.30514030452E+03  0.11871260769E+04  0.25500000920E-02 0.  1.
</event>
<event>
 5   0  0.1085061E-05  0.2545778E+04  0.7818609E-02  0.8386856E-01
        2   -1    0    0  501    0  0.00000000000E+00  0.00000000000E+00  0.16667627571E+04  0.16667627571E+04  0.25500000920E-02 0. -1.
       -2   -1    0    0    0  501  0.00000000000E+00  0.00000000000E+00 -0.97209212487E+03  0.97209212487E+03  0.25500000920E-02 0.  1.
    10030    2    1    2    0    0  0.00000000000E+00  0.00000000000E+00  0.69467063219E+03  0.26388548819E+04  0.25457784273E+04 0.  0.
        1    1    3    3  502    0  0.67224236149E+03  0.16137288642E+03  0.14551936375E+04  0.16110678210E+04  0.50400001928E-02 0.  1.
       -1    1    3    3    0  502 -0.67224236149E+03 -0.16137288642E+03 -0.76052300532E+03  0.10277870610E+04  0.50400001928E-02 0. -1.
</event>
<event>
 5   0  0.4464297E-06  0.2561393E+04  0.7818609E-02  0.8381435E-01
        1   -1    0    0  501    0  0.00000000000E+00  0.00000000000E+00  0.12776903606E+04  0.12776903606E+04  0.50400001928E-02 0.  1.
       -1   -1    0    0    0  501  0.00000000000E+00  0.00000000000E+00 -0.12837095107E+04  0.12837095107E+04  0.50400001928E-02 0. -1.
    10030    2    1    2    0    0  0.00000000000E+00  0.00000000000E+00 -0.60191501152E+01  0.25613998713E+04  0.25613927989E+04 0.  0.
        4    1    3    3  502    0  0.18033033431E+02 -0.59705730225E+03  0.11298567584E+04  0.12780377615E+04  0.12699999809E+01 0.  1.
       -4    1    3    3    0  502 -0.18033033431E+02  0.59705730225E+03 -0.11358759085E+04  0.12833621098E+04  0.12699999809E+01 0. -1.
</event>
<event>
 5   0  0.1085061E-05  0.2598222E+04  0.7818609E-02  0.8368806E-01
       -2   -1    0    0    0  501  0.00000000000E+00  0.00000000000E+00  0.10361575485E+04  0.10361575485E+04  0.25500000920E-02 0.  1.
        2   -1    0    0  501    0  0.00000000000E+00  0.00000000000E+00 -0.16287955152E+04  0.16287955152E+04  0.25500000920E-02 0. -1.
    10030    2    1    2    0    0  0.00000000000E+00  0.00000000000E+00 -0.59263796667E+03  0.26649530637E+04  0.25982215210E+04 0.  0.
        1    1    3    3  502    0  0.39355345742E+03 -0.11215741608E+04  0.24143257575E+03  0.12128901891E+04  0.50400001928E-02 0.  1.
       -1    1    3    3    0  502 -0.39355345742E+03  0.11215741608E+04 -0.83407054242E+03  0.14520628746E+04  0.50400001928E-02 0. -1.
</event>
<event>
 5   0  0.1086507E-05  0.2297828E+04  0.7818609E-02  0.8478778E-01
       -2   -1    0    0    0  501  0.00000000000E+00  0.00000000000E+00  0.71554474913E+03  0.71554474914E+03  0.25500000920E-02 0. -1.
        2   -1    0    0  501    0  0.00000000000E+00  0.00000000000E+00 -0.18447538526E+04  0.18447538526E+04  0.25500000920E-02 0.  1.
    10030    2    1    2    0    0  0.00000000000E+00  0.00000000000E+00 -0.11292091034E+04  0.25602986017E+04  0.22978284816E+04 0.  0.
        2    1    3    3  502    0 -0.26037595309E+03  0.10344056190E+04 -0.88981318473E+02  0.10703776420E+04  0.25500000920E-02 0. -1.
       -2    1    3    3    0  502  0.26037595309E+03 -0.10344056190E+04 -0.10402277850E+04  0.14899209597E+04  0.25500000920E-02 0.  1.
</event>
<event>
 5   0  0.4464297E-06  0.2666992E+04  0.7818609E-02  0.8345795E-01
       -1   -1    0    0    0  501  0.00000000000E+00  0.00000000000E+00  0.97088406627E+03  0.97088406628E+03  0.50400001928E-02 0. -1.
        1   -1    0    0  501    0  0.00000000000E+00  0.00000000000E+00 -0.18315390522E+04  0.18315390522E+04  0.50400001928E-02 0.  1.
    10030    2    1    2    0    0  0.00000000000E+00  0.00000000000E+00 -0.86065498593E+03  0.28024231185E+04  0.26669923754E+04 0.  0.
        4    1    3    3  502    0 -0.55036288785E+03 -0.55760935733E+03 -0.15641885895E+04  0.17494327824E+04  0.12699999809E+01 0.  1.
       -4    1    3    3    0  502  0.55036288785E+03  0.55760935733E+03  0.70353360355E+03  0.10529903361E+04  0.12699999809E+01 0. -1.
</event>
<event>
 5   0  0.1116310E-05  0.2623952E+04  0.7818609E-02  0.8360110E-01
       -2   -1    0    0    0  501  0.00000000000E+00  0.00000000000E+00  0.16624461073E+04  0.16624461073E+04  0.25500000920E-02 0.  1.
        2   -1    0    0  501    0  0.00000000000E+00  0.00000000000E+00 -0.10353906735E+04  0.10353906735E+04  0.25500000920E-02 0. -1.
    10030    2    1    2    0    0  0.00000000000E+00  0.00000000000E+00  0.62705543385E+03  0.26978367808E+04  0.26239521296E+04 0.  0.
        4    1    3    3  502    0  0.41369504934E+02 -0.64320182366E+03  0.14884469145E+04  0.16220036535E+04  0.12699999809E+01 0.  1.
       -4    1    3    3    0  502 -0.41369504934E+02  0.64320182366E+03 -0.86139148063E+03  0.10758331273E+04  0.12699999809E+01 0. -1.
</event>
<event>
 5   0  0.4361864E-06  0.2608309E+04  0.7818609E-02  0.8365384E-01
        1   -1    0    0  501    0  0.00000000000E+00  0.00000000000E+00  0.18137542581E+04  0.18137542581E+04  0.50400001928E-02 0.  1.
       -1   -1    0    0    0  501  0.00000000000E+00  0.00000000000E+00 -0.93773368507E+03  0.93773368509E+03  0.50400001928E-02 0. -1.
    10030    2    1    2    0    0  0.00000000000E+00  0.00000000000E+00  0.87602057306E+03  0.27514879432E+04  0.26083086200E+04 0.  0.
        3    1    3    3  502    0 -0.21259731402E+03  0.42774930807E+03 -0.84213307875E+03  0.96817107012E+03  0.10100000352E+00 0. -1.
       -3    1    3    3    0  502  0.21259731402E+03 -0.42774930807E+03  0.17181536518E+04  0.17833168731E+04  0.10100000352E+00 0.  1.
</event>
<event>
 5   0  0.1085255E-05  0.2583859E+04  0.7818609E-02  0.8373705E-01
        2   -1    0    0  501    0  0.00000000000E+00  0.00000000000E+00  0.15645649018E+04  0.15645649018E+04  0.25500000920E-02 0.  1.
       -2   -1    0    0    0  501  0.00000000000E+00  0.00000000000E+00 -0.10668028174E+04  0.10668028174E+04  0.25500000920E-02 0. -1.
    10030    2    1    2    0    0  0.00000000000E+00  0.00000000000E+00  0.49776208434E+03  0.26313677192E+04  0.25838593191E+04 0.  0.
        5    1    3    3  502    0 -0.76230725965E+03  0.25994855482E+03 -0.77982783219E+03  0.11210883761E+04  0.46999998093E+01 0. -1.
       -5    1    3    3    0  502  0.76230725965E+03 -0.25994855482E+03  0.12775899165E+04  0.15102793431E+04  0.46999998093E+01 0.  1.
</event>
<event>
 5   0  0.1085255E-05  0.2592823E+04  0.7818609E-02  0.8370643E-01
        2   -1    0    0  501    0  0.00000000000E+00  0.00000000000E+00  0.17665195617E+04  0.17665195617E+04  0.25500000920E-02 0.  1.
       -2   -1    0    0    0  501  0.00000000000E+00  0.00000000000E+00 -0.95140882768E+03  0.95140882768E+03  0.25500000920E-02 0. -1.
    10030    2    1    2    0    0  0.00000000000E+00  0.00000000000E+00  0.81511073399E+03  0.27179283894E+04  0.25928226359E+04 0.  0.
        5    1    3    3  502    0  0.78837386146E+03 -0.10278143335E+04  0.35283943094E+03  0.13425548047E+04  0.46999998093E+01 0. -1.
       -5    1    3    3    0  502 -0.78837386146E+03  0.10278143335E+04  0.46227130305E+03  0.13753735846E+04  0.46999998093E+01 0.  1.
</event>
<event>
 5   0  0.1085061E-05  0.2570513E+04  0.7818609E-02  0.8378287E-01
        2   -1    0    0  501    0  0.00000000000E+00  0.00000000000E+00  0.18306433629E+04  0.18306433629E+04  0.25500000920E-02 0.  1.
       -2   -1    0    0    0  501  0.00000000000E+00  0.00000000000E+00 -0.90235196405E+03  0.90235196405E+03  0.25500000920E-02 0. -1.
    10030    2    1    2    0    0  0.00000000000E+00  0.00000000000E+00  0.92829139886E+03  0.27329953270E+04  0.25705132826E+04 0.  0.
        1    1    3    3  502    0  0.15487235777E+02  0.46213145936E+03  0.17391464879E+04  0.17995654605E+04  0.50400001928E-02 0.  1.
       -1    1    3    3    0  502 -0.15487235777E+02 -0.46213145936E+03 -0.81085508903E+03  0.93342986648E+03  0.50400001928E-02 0. -1.
</event>
<event>
 5   0  0.4464297E-06  0.2625029E+04  0.7818609E-02  0.8359749E-01
       -1   -1    0    0    0  501  0.00000000000E+00  0.00000000000E+00  0.14690899097E+04  0.14690899098E+04  0.50400001928E-02 0.  1.
        1   -1    0    0  501    0  0.00000000000E+00  0.00000000000E+00 -0.11726271942E+04  0.11726271942E+04  0.50400001928E-02 0. -1.
    10030    2    1    2    0    0  0.00000000000E+00  0.00000000000E+00  0.29646271552E+03  0.26417171040E+04  0.26250293552E+04 0.  0.
        4    1    3    3  502    0  0.55256157587E+03  0.39525822173E+03  0.12783752990E+04  0.14476872504E+04  0.12699999809E+01 0.  1.
       -4    1    3    3    0  502 -0.55256157587E+03 -0.39525822173E+03 -0.98191258343E+03  0.11940298536E+04  0.12699999809E+01 0. -1.
</event>
<event>
 5   0  0.4361864E-06  0.2578784E+04  0.7818609E-02  0.8375444E-01
        1   -1    0    0  501    0  0.00000000000E+00  0.00000000000E+00  0.12977051040E+04  0.12977051040E+04  0.50400001928E-02 0. -1.
       -1   -1    0    0    0  501  0.00000000000E+00  0.00000000000E+00 -0.12811320512E+04  0.12811320512E+04  0.50400001928E-02 0.  1.
    10030    2    1    2    0    0  0.00000000000E+00  0.00000000000E+00  0.16573052786E+02  0.25788371552E+04  0.25787839008E+04 0.  0.
        3    1    3    3  502    0  0.45563544616E+03 -0.67831957020E+03 -0.98913594201E+03  0.12830085818E+04  0.10100000352E+00 0.  1.
       -3    1    3    3    0  502 -0.45563544616E+03  0.67831957020E+03  0.10057089948E+04  0.12958285734E+04  0.10100000352E+00 0. -1.
</event>
<event>
 5   0  0.4361864E-06  0.2596244E+04  0.7818609E-02  0.8369478E-01
       -1   -1    0    0    0  501  0.00000000000E+00  0.00000000000E+00  0.10244001411E+04  0.10244001411E+04  0.50400001928E-02 0.  1.
        1   -1    0    0  501    0  0.00000000000E+00  0.00000000000E+00 -0.16449829288E+04  0.16449829288E+04  0.50400001928E-02 0. -1.
    10030    2    1    2    0    0  0.00000000000E+00  0.00000000000E+00 -0.62058278766E+03  0.26693830699E+04  0.25962440135E+04 0.  0.
        3    1    3    3  502    0  0.59454995475E+03  0.24408203552E+03  0.84933567930E+03  0.10650994297E+04  0.10100000352E+00 0.  1.
       -3    1    3    3    0  502 -0.59454995475E+03 -0.24408203552E+03 -0.14699184670E+04  0.16042836403E+04  0.10100000352E+00 0. -1.
</event>
<event>
 5   0  0.1116310E-05  0.2625850E+04  0.7818609E-02  0.8359473E-01
       -2   -1    0    0    0  501  0.00000000000E+00  0.00000000000E+00  0.13636736200E+04  0.13636736200E+04  0.25500000920E-02 0. -1.
        2   -1    0    0  501    0  0.00000000000E+00  0.00000000000E+00 -0.12640649992E+04  0.12640649992E+04  0.25500000920E-02 0.  1.
    10030    2    1    2    0    0  0.00000000000E+00  0.00000000000E+00  0.99608620729E+02  0.26277386192E+04  0.26258500287E+04 0.  0.
        4    1    3    3  502    0  0.27699840516E+03  0.47643190473E+03 -0.11427133756E+04  0.12686650259E+04  0.12699999809E+01 0.  1.
       -4    1    3    3    0  502 -0.27699840516E+03 -0.47643190473E+03  0.12423219964E+04  0.13590735932E+04  0.12699999809E+01 0. -1.
</event>
<event>
 5   0  0.4597705E-06  0.2591100E+04  0.7818609E-02  0.8371231E-01
        1   -1    0    0  501    0  0.00000000000E+00  0.00000000000E+00  0.16352285116E+04  0.16352285116E+04  0.50400001928E-02 0.  1.
       -1   -1    0    0    0  501  0.00000000000E+00  0.00000000000E+00 -0.10264313715E+04  0.10264313715E+04  0.50400001928E-02 0. -1.
    10030    2    1    2    0    0  0.00000000000E+00  0.00000000000E+00  0.60879714016E+03  0.26616598831E+04  0.25911000319E+04 0.  0.
        5    1    3    3  502    0  0.13653479815E+03 -0.11061773046E+04 -0.37400822286E+03  0.11756590581E+04  0.46999998093E+01 0. -1.
       -5    1    3    3    0  502 -0.13653479815E+03  0.11061773046E+04  0.98280536303E+03  0.14860008250E+04  0.46999998093E+01 0.  1.
</event>
<event>
 5   0  0.4464297E-06  0.2650576E+04  0.7818609E-02  0.8351222E-01
        1   -1    0    0  501    0  0.00000000000E+00  0.00000000000E+00  0.17592102840E+04  0.17592102840E+04  0.50400001928E-02 0. -1.
       -1   -1    0    0    0  501  0.00000000000E+00  0.00000000000E+00 -0.99839561240E+03  0.99839561241E+03  0.50400001928E-02 0.  1.
    10030    2    1    2    0    0  0.00000000000E+00  0.00000000000E+00  0.76081467164E+03  0.27576058965E+04  0.26505756574E+04 0.  0.
        4    1    3    3  502    0 -0.13335874514E+03  0.93923043060E+03 -0.58240680028E+03  0.11131655989E+04  0.12699999809E+01 0.  1.
       -4    1    3    3    0  502  0.13335874514E+03 -0.93923043060E+03  0.13432214719E+04  0.16444402975E+04  0.12699999809E+01 0. -1.
</event>
<event>
 5   0  0.4415080E-06  0.2608695E+04  0.7818609E-02  0.8365254E-01
       -1   -1    0    0    0  501  0.00000000000E+00  0.00000000000E+00  0.87539497867E+03  0.87539497868E+03  0.50400001928E-02 0. -1.
        1   -1    0    0  501    0  0.00000000000E+00  0.00000000000E+00 -0.19434908813E+04  0.19434908813E+04  0.50400001928E-02 0.  1.
    10030    2    1    2    0    0  0.00000000000E+00  0.00000000000E+00 -0.10680959026E+04  0.28188858600E+04  0.26086948143E+04 0.  0.
        2    1    3    3  502    0  0.37899697123E+03 -0.30941900325E+03  0.77248234889E+03  0.91438930611E+03  0.25500000920E-02 0. -1.
       -2    1    3    3    0  502 -0.37899697123E+03  0.30941900325E+03 -0.18405782515E+04  0.19044965539E+04  0.25500000920E-02 0.  1.
</event>
<event>
 5   0  0.1136881E-05  0.2601552E+04  0.7818609E-02  0.8367674E-01
        2   -1    0    0  501    0  0.00000000000E+00  0.00000000000E+00  0.10763605401E+04  0.10763605401E+04  0.25500000920E-02 0. -1.
       -2   -1    0    0    0  501  0.00000000000E+00  0.00000000000E+00 -0.15719812409E+04  0.15719812409E+04  0.25500000920E-02 0.  1.
    10030    2    1    2    0    0  0.00000000000E+00  0.00000000000E+00 -0.49562070083E+03  0.26483417809E+04  0.26015522885E+04 0.  0.
        3    1    3    3  502    0  0.51756941083E+01 -0.70326074918E+03  0.86613534396E+03  0.11157028786E+04  0.10100000352E+00 0. -1.
       -3    1    3    3    0  502 -0.51756941083E+01  0.70326074918E+03 -0.13617560448E+04  0.15326389023E+04  0.10100000352E+00 0.  1.
</event>
<event>
 5   0  0.1116310E-05  0.2600755E+04  0.7818609E-02  0.8367945E-01
       -2   -1    0    0    0  501  0.00000000000E+00  0.00000000000E+00  0.10145485005E+04  0.10145485005E+04  0.25500000920E-02 0.  1.
        2   -1    0    0  501    0  0.00000000000E+00  0.00000000000E+00 -0.16667336838E+04  0.16667336838E+04  0.25500000920E-02 0. -1.
    10030    2    1    2    0    0  0.00000000000E+00  0.00000000000E+00 -0.65218518328E+03  0.26812821843E+04  0.26007553977E+04 0.  0.
        4    1    3    3  502    0  0.12127007621E+04  0.26972655158E+03  0.69970266854E+02  0.12443042241E+04  0.12699999809E+01 0.  1.
       -4    1    3    3    0  502 -0.12127007621E+04 -0.26972655158E+03 -0.72215545014E+03  0.14369779602E+04  0.12699999809E+01 0. -1.
</event>
<event>
 5   0  0.1085061E-05  0.2585487E+04  0.7818609E-02  0.8373148E-01
        2   -1    0    0  501    0  0.00000000000E+00  0.00000000000E+00  0.69235431721E+03  0.69235431722E+03  0.25500000920E-02 0.  1.
       -2   -1    0    0    0  501  0.00000000000E+00  0.00000000000E+00 -0.24137731962E+04  0.24137731962E+04  0.25500000920E-02 0. -1.
    10030    2    1    2    0    0  0.00000000000E+00  0.00000000000E+00 -0.17214188789E+04  0.31061275134E+04  0.25854874149E+04 0.  0.
        1    1    3    3  502    0 -0.55415594909E+03 -0.91020141429E+03  0.18535037079E+02  0.10657856155E+04  0.50400001928E-02 0.  1.
       -1    1    3    3    0  502  0.55415594909E+03  0.91020141429E+03 -0.17399539160E+04  0.20403418979E+04  0.50400001928E-02 0. -1.
</event>
<event>
 5   0  0.1136881E-05  0.2597131E+04  0.7818609E-02  0.8369177E-01
       -2   -1    0    0    0  501  0.00000000000E+00  0.00000000000E+00  0.17161540945E+04  0.17161540945E+04  0.25500000920E-02 0. -1.
        2   -1    0    0  501    0  0.00000000000E+00  0.00000000000E+00 -0.98258759369E+03  0.98258759369E+03  0.25500000920E-02 0.  1.
    10030    2    1    2    0    0  0.00000000000E+00  0.00000000000E+00  0.73356650085E+03  0.26987416882E+04  0.25971305105E+04 0.  0.
        3    1    3    3  502    0 -0.59001921656E+03 -0.31344404763E+03  0.15238574243E+04  0.16638844030E+04  0.10100000352E+00 0. -1.
       -3    1    3    3    0  502  0.59001921656E+03  0.31344404763E+03 -0.79029092343E+03  0.10348572852E+04  0.10100000352E+00 0.  1.
</event>
<event>
 5   0  0.4597705E-06  0.2597240E+04  0.7818609E-02  0.8369139E-01
        1   -1    0    0  501    0  0.00000000000E+00  0.00000000000E+00  0.12027268511E+04  0.12027268511E+04  0.50400001928E-02 0.  1.
       -1   -1    0    0    0  501  0.00000000000E+00  0.00000000000E+00 -0.14021584205E+04  0.14021584205E+04  0.50400001928E-02 0. -1.
    10030    2    1    2    0    0  0.00000000000E+00  0.00000000000E+00 -0.19943156938E+03  0.26048852716E+04  0.25972397516E+04 0.  0.
        5    1    3    3  502    0 -0.50407888321E+03 -0.11915300059E+04  0.12650692948E+02  0.12938397913E+04  0.46999998093E+01 0.  1.
       -5    1    3    3    0  502  0.50407888321E+03  0.11915300059E+04 -0.21208226233E+03  0.13110454803E+04  0.46999998093E+01 0. -1.
</event>
<event>
 5   0  0.4464297E-06  0.2648186E+04  0.7818609E-02  0.8352015E-01
       -1   -1    0    0    0  501  0.00000000000E+00  0.00000000000E+00  0.79206784269E+03  0.79206784271E+03  0.50400001928E-02 0.  1.
        1   -1    0    0  501    0  0.00000000000E+00  0.00000000000E+00 -0.22134740856E+04  0.22134740856E+04  0.50400001928E-02 0. -1.
    10030    2    1    2    0    0  0.00000000000E+00  0.00000000000E+00 -0.14214062429E+04  0.30055419284E+04  0.26481855251E+04 0.  0.
        4    1    3    3  502    0  0.29441706590E+03 -0.87689729995E+03 -0.17859627129E+04  0.20112918008E+04  0.12699999809E+01 0. -1.
       -4    1    3    3    0  502 -0.29441706590E+03  0.87689729995E+03  0.36455646996E+03  0.99425012751E+03  0.12699999809E+01 0.  1.
</event>
<event>
 5   0  0.4597705E-06  0.2586991E+04  0.7818609E-02  0.8372633E-01
        1   -1    0    0  501    0  0.00000000000E+00  0.00000000000E+00  0.14211696669E+04  0.14211696669E+04  0.50400001928E-02 0.  1.
       -1   -1    0    0    0  501  0.00000000000E+00  0.00000000000E+00 -0.11772914834E+04  0.11772914834E+04  0.50400001928E-02 0. -1.
    10030    2    1    2    0    0  0.00000000000E+00  0.00000000000E+00  0.24387818349E+03  0.25984611503E+04  0.25869912604E+04 0.  0.
        5    1    3    3  502    0 -0.24144501156E+03 -0.12464808398E+04  0.37021648236E+03  0.13225326126E+04  0.46999998093E+01 0. -1.
       -5    1    3    3    0  502  0.24144501156E+03  0.12464808398E+04 -0.12633829886E+03  0.12759285377E+04  0.46999998093E+01 0.  1.
</event>
<event>
 5   0  0.4218590E-06  0.2625376E+04  0.7818609E-02  0.8359632E-01
       -1   -1    0    0    0  501  0.00000000000E+00  0.00000000000E+00  0.74131452123E+03  0.74131452125E+03  0.50400001928E-02 0. -1.
        1   -1    0    0  501    0  0.00000000000E+00  0.00000000000E+00 -0.23244522800E+04  0.23244522800E+04  0.50400001928E-02 0.  1.
    10030    2    1    2    0    0  0.00000000000E+00  0.00000000000E+00 -0.15831377588E+04  0.30657668013E+04  0.26253763381E+04 0.  0.
        1    1    3    3  502    0  0.49031043381E+03  0.11389553667E+04 -0.28858899109E+03  0.12731485595E+04  0.50400001928E-02 0. -1.
       -1    1    3    3    0  502 -0.49031043381E+03 -0.11389553667E+04 -0.12945487677E+04  0.17926182418E+04  0.50400001928E-02 0.  1.
</event>
<event>
 5   0  0.1116310E-05  0.2573978E+04  0.7818609E-02  0.8377094E-01
        2   -1    0    0  501    0  0.00000000000E+00  0.00000000000E+00  0.12424068370E+04  0.12424068370E+04  0.25500000920E-02 0.  1.
       -2   -1    0    0    0  501  0.00000000000E+00  0.00000000000E+00 -0.13331709429E+04  0.13331709429E+04  0.25500000920E-02 0. -1.
    10030    2    1    2    0    0  0.00000000000E+00  0.00000000000E+00 -0.90764105901E+02  0.25755777800E+04  0.25739780065E+04 0.  0.
        4    1    3    3  502    0  0.73604815572E+03  0.95394334762E+03  0.40718688465E+03  0.12718402297E+04  0.12699999809E+01 0.  1.
       -4    1    3    3    0  502 -0.73604815572E+03 -0.95394334762E+03 -0.49795099055E+03  0.13037375502E+04  0.12699999809E+01 0. -1.
</event>
<event>
 5   0  0.1085061E-05  0.2606843E+04  0.7818609E-02  0.8365880E-01
       -2   -1    0    0    0  501  0.00000000000E+00  0.00000000000E+00  0.11115133675E+04  0.11115133675E+04  0.25500000920E-02 0.  1.
        2   -1    0    0  501    0  0.00000000000E+00  0.00000000000E+00 -0.15284640609E+04  0.15284640609E+04  0.25500000920E-02 0. -1.
    10030    2    1    2    0    0  0.00000000000E+00  0.00000000000E+00 -0.41695069343E+03  0.26399774284E+04  0.26068434824E+04 0.  0.
        1    1    3    3  502    0  0.19924384367E+03  0.10055807727E+04  0.60675174327E+03  0.11912340147E+04  0.50400001928E-02 0.  1.
       -1    1    3    3    0  502 -0.19924384367E+03 -0.10055807727E+04 -0.10237024367E+04  0.14487434137E+04  0.50400001928E-02 0. -1.
</event>
<event>
 5   0  0.1086507E-05  0.2637271E+04  0.7818609E-02  0.8355650E-01
       -2   -1    0    0    0  501  0.00000000000E+00  0.00000000000E+00  0.64178991251E+03  0.64178991252E+03  0.25500000920E-02 0. -1.
        2   -1    0    0  501    0  0.00000000000E+00  0.00000000000E+00 -0.27092968279E+04  0.27092968279E+04  0.25500000920E-02 0.  1.
    10030    2    1    2    0    0  0.00000000000E+00  0.00000000000E+00 -0.20675069154E+04  0.33510867404E+04  0.26372708425E+04 0.  0.
        2    1    3    3  502    0 -0.72584582609E+03 -0.90474149027E+03 -0.23678227205E+03  0.11838391664E+04  0.25500000920E-02 0. -1.
       -2    1    3    3    0  502  0.72584582609E+03  0.90474149027E+03 -0.18307246433E+04  0.21672475740E+04  0.25500000920E-02 0.  1.
</event>
<event>
 5   0  0.4361864E-06  0.2621538E+04  0.7818609E-02  0.8360922E-01
        1   -1    0    0  501    0  0.00000000000E+00  0.00000000000E+00  0.15350056828E+04  0.15350056828E+04  0.50400001928E-02 0.  1.
       -1   -1    0    0    0  501  0.00000000000E+00  0.00000000000E+00 -0.11192893416E+04  0.11192893416E+04  0.50400001928E-02 0. -1.
    10030    2    1    2    0    0  0.00000000000E+00  0.00000000000E+00  0.41571634117E+03  0.26542950244E+04  0.26215380982E+04 0.  0.
        3    1    3    3  502    0  0.19312952364E+03  0.10980415367E+04 -0.49004512911E+03  0.12178417253E+04  0.10100000352E+00 0. -1.
       -3    1    3    3    0  502 -0.19312952364E+03 -0.10980415367E+04  0.90576147028E+03  0.14364532991E+04  0.10100000352E+00 0.  1.
</event>
<event>
 5   0  0.1136881E-05  0.2612783E+04  0.7818609E-02  0.8363872E-01
       -2   -1    0    0    0  501  0.00000000000E+00  0.00000000000E+00  0.91765229785E+03  0.91765229786E+03  0.25500000920E-02 0. -1.
        2   -1    0    0  501    0  0.00000000000E+00  0.00000000000E+00 -0.18598102792E+04  0.18598102792E+04  0.25500000920E-02 0.  1.
    10030    2    1    2    0    0  0.00000000000E+00  0.00000000000E+00 -0.94215798130E+03  0.27774625770E+04  0.26127833253E+04 0.  0.
        3    1    3    3  502    0  0.10872979039E+04 -0.40959071060E+03  0.16378823989E+03  0.11733745693E+04  0.10100000352E+00 0. -1.
       -3    1    3    3    0  502 -0.10872979039E+04  0.40959071060E+03 -0.11059462212E+04  0.16040880077E+04  0.10100000352E+00 0.  1.
</event>
<event>
 5   0  0.1085255E-05  0.2411298E+04  0.7818609E-02  0.8435286E-01
       -2   -1    0    0    0  501  0.00000000000E+00  0.00000000000E+00  0.77363832907E+03  0.77363832907E+03  0.25500000920E-02 0. -1.
        2   -1    0    0  501    0  0.00000000000E+00  0.00000000000E+00 -0.18789001120E+04  0.18789001120E+04  0.25500000920E-02 0.  1.
    10030    2    1    2    0    0  0.00000000000E+00  0.00000000000E+00 -0.11052617830E+04  0.26525384411E+04  0.24112976947E+04 0.  0.
        5    1    3    3  502    0  0.40498196300E+03  0.12796893130E+03 -0.17938711824E+04  0.18434701914E+04  0.46999998093E+01 0.  1.
       -5    1    3    3    0  502 -0.40498196300E+03 -0.12796893130E+03  0.68860939939E+03  0.80906824970E+03  0.46999998093E+01 0. -1.
</event>
<event>
 5   0  0.1085061E-05  0.2593156E+04  0.7818609E-02  0.8370530E-01
        2   -1    0    0  501    0  0.00000000000E+00  0.00000000000E+00  0.15911478236E+04  0.15911478236E+04  0.25500000920E-02 0. -1.
       -2   -1    0    0    0  501  0.00000000000E+00  0.00000000000E+00 -0.10565422990E+04  0.10565422990E+04  0.25500000920E-02 0.  1.
    10030    2    1    2    0    0  0.00000000000E+00  0.00000000000E+00  0.53460552463E+03  0.26476901226E+04  0.25931563622E+04 0.  0.
        1    1    3    3  502    0 -0.79579503495E+03 -0.92517832930E+03  0.71454450292E+03  0.14141493999E+04  0.50400001928E-02 0. -1.
       -1    1    3    3    0  502  0.79579503495E+03  0.92517832930E+03 -0.17993897829E+03  0.12335407227E+04  0.50400001928E-02 0.  1.
</event>
<event>
 5   0  0.4361864E-06  0.2595851E+04  0.7818609E-02  0.8369612E-01
       -1   -1    0    0    0  501  0.00000000000E+00  0.00000000000E+00  0.10964295318E+04  0.10964295318E+04  0.50400001928E-02 0. -1.
        1   -1    0    0  501    0  0.00000000000E+00  0.00000000000E+00 -0.15364508220E+04  0.15364508220E+04  0.50400001928E-02 0.  1.
    10030    2    1    2    0    0  0.00000000000E+00  0.00000000000E+00 -0.44002129025E+03  0.26328803538E+04  0.25958505777E+04 0.  0.
        3    1    3    3  502    0 -0.14915881875E+03  0.80197640309E+03  0.80394275238E+03  0.11453115138E+04  0.10100000352E+00 0. -1.
       -3    1    3    3    0  502  0.14915881875E+03 -0.80197640309E+03 -0.12439640426E+04  0.14875688400E+04  0.10100000352E+00 0.  1.
</event>
<event>
 5   0  0.4464297E-06  0.2520480E+04  0.7818609E-02  0.8395726E-01
       -1   -1    0    0    0  501  0.00000000000E+00  0.00000000000E+00  0.10081467500E+04  0.10081467500E+04  0.50400001928E-02 0. -1.
        1   -1    0    0  501    0  0.00000000000E+00  0.00000000000E+00 -0.15753701512E+04  0.15753701512E+04  0.50400001928E-02 0.  1.
    10030    2    1    2    0    0  0.00000000000E+00  0.00000000000E+00 -0.56722340123E+03  0.25835169012E+04  0.25204795559E+04 0.  0.
        4    1    3    3  502    0  0.68461622278E+03 -0.38964752256E+03 -0.12919205731E+04  0.15131374506E+04  0.12699999809E+01 0.  1.
       -4    1    3    3    0  502 -0.68461622278E+03  0.38964752256E+03  0.72469717191E+03  0.10703794506E+04  0.12699999809E+01 0. -1.
</event>
<event>
 5   0  0.4361864E-06  0.2587846E+04  0.7818609E-02  0.8372341E-01
        1   -1    0    0  501    0  0.00000000000E+00  0.00000000000E+00  0.19751546174E+04  0.19751546174E+04  0.50400001928E-02 0. -1.
       -1   -1    0    0    0  501  0.00000000000E+00  0.00000000000E+00 -0.84764828647E+03  0.84764828648E+03  0.50400001928E-02 0.  1.
    10030    2    1    2    0    0  0.00000000000E+00  0.00000000000E+00  0.11275063310E+04  0.28228029039E+04  0.25878457659E+04 0.  0.
        3    1    3    3  502    0  0.36806079282E+03 -0.62990810811E+03  0.17294136399E+04  0.18769988065E+04  0.10100000352E+00 0. -1.
       -3    1    3    3    0  502 -0.36806079282E+03  0.62990810811E+03 -0.60190730890E+03  0.94580409736E+03  0.10100000352E+00 0.  1.
</event>
<event>
 5   0  0.1116310E-05  0.2607413E+04  0.7818609E-02  0.8365687E-01
        2   -1    0    0  501    0  0.00000000000E+00  0.00000000000E+00  0.22751121363E+04  0.22751121363E+04  0.25500000920E-02 0.  1.
       -2   -1    0    0    0  501  0.00000000000E+00  0.00000000000E+00 -0.74706247424E+03  0.74706247425E+03  0.25500000920E-02 0. -1.
    10030    2    1    2    0    0  0.00000000000E+00  0.00000000000E+00  0.15280496620E+04  0.30221746105E+04  0.26074132022E+04 0.  0.
        4    1    3    3  502    0  0.17348576735E+03 -0.18707350386E+03 -0.71784318917E+03  0.76183611391E+03  0.12699999809E+01 0. -1.
       -4    1    3    3    0  502 -0.17348576735E+03  0.18707350386E+03  0.22458928512E+04  0.22603384966E+04  0.12699999809E+01 0.  1.
</event>
<event>
 5   0  0.1085255E-05  0.2610699E+04  0.7818609E-02  0.8364576E-01
       -2   -1    0    0    0  501  0.00000000000E+00  0.00000000000E+00  0.90898917399E+03  0.90898917400E+03  0.25500000920E-02 0.  1.
        2   -1    0    0  501    0  0.00000000000E+00  0.00000000000E+00 -0.18745406241E+04  0.18745406241E+04  0.25500000920E-02 0. -1.
    10030    2    1    2    0    0  0.00000000000E+00  0.00000000000E+00 -0.96555145016E+03  0.27835297981E+04  0.26106988594E+04 0.  0.
        5    1    3    3  502    0  0.64560994514E+03 -0.13391658205E+03 -0.16839301791E+04  0.18084216296E+04  0.46999998093E+01 0. -1.
       -5    1    3    3    0  502 -0.64560994514E+03  0.13391658205E+03  0.71837872895E+03  0.97510816857E+03  0.46999998093E+01 0.  1.
</event>
<event>
 5   0  0.1086507E-05  0.2520811E+04  0.7818609E-02  0.8395609E-01
       -2   -1    0    0    0  501  0.00000000000E+00  0.00000000000E+00  0.12894378829E+04  0.12894378829E+04  0.25500000920E-02 0.  1.
        2   -1    0    0  501    0  0.00000000000E+00  0.00000000000E+00 -0.12320267433E+04  0.12320267433E+04  0.25500000920E-02 0. -1.
    10030    2    1    2    0    0  0.00000000000E+00  0.00000000000E+00  0.57411139664E+02  0.25214646262E+04  0.25208109454E+04 0.  0.
        2    1    3    3  502    0 -0.14246426884E+03 -0.90749719677E+03 -0.83452153598E+03  0.12410775254E+04  0.25500000920E-02 0. -1.
       -2    1    3    3    0  502  0.14246426884E+03  0.90749719677E+03  0.89193267564E+03  0.12803871008E+04  0.25500000920E-02 0.  1.
</event>
<event>
 5   0  0.1136881E-05  0.2769604E+04  0.7818609E-02  0.8312768E-01
        2   -1    0    0  501    0  0.00000000000E+00  0.00000000000E+00  0.18074722452E+04  0.18074722452E+04  0.25500000920E-02 0.  1.
       -2   -1    0    0    0  501  0.00000000000E+00  0.00000000000E+00 -0.10609716768E+04  0.10609716768E+04  0.25500000920E-02 0. -1.
    10030    2    1    2    0    0  0.00000000000E+00  0.00000000000E+00  0.74650056845E+03  0.28684439220E+04  0.27696042019E+04 0.  0.
        3    1    3    3  502    0  0.40575491403E+02 -0.89410673441E+03  0.14676555431E+04  0.17190363656E+04  0.10100000352E+00 0.  1.
       -3    1    3    3    0  502 -0.40575491403E+02  0.89410673441E+03 -0.72115497463E+03  0.11494075564E+04  0.10100000352E+00 0. -1.
</event>
<event>
 5   0  0.1086507E-05  0.2601817E+04  0.7818609E-02  0.8367584E-01
        2   -1    0    0  501    0  0.00000000000E+00  0.00000000000E+00  0.18438435151E+04  0.18438435151E+04  0.25500000920E-02 0. -1.
       -2   -1    0    0    0  501  0.00000000000E+00  0.00000000000E+00 -0.91784537493E+03  0.91784537494E+03  0.25500000920E-02 0.  1.
    10030    2    1    2    0    0  0.00000000000E+00  0.00000000000E+00  0.92599814021E+03  0.27616888901E+04  0.26018172438E+04 0.  0.
        2    1    3    3  502    0 -0.12566401199E+03 -0.12808667596E+04  0.26173773236E+03  0.13133612375E+04  0.25500000920E-02 0. -1.
       -2    1    3    3    0  502  0.12566401199E+03  0.12808667596E+04  0.66426040785E+03  0.14483276526E+04  0.25500000920E-02 0.  1.
</event>
<event>
 5   0  0.1136881E-05  0.2612176E+04  0.7818609E-02  0.8364077E-01
       -2   -1    0    0    0  501  0.00000000000E+00  0.00000000000E+00  0.14057060978E+04  0.14057060978E+04  0.25500000920E-02 0. -1.
        2   -1    0    0  501    0  0.00000000000E+00  0.00000000000E+00 -0.12135293882E+04  0.12135293882E+04  0.25500000920E-02 0.  1.
    10030    2    1    2    0    0  0.00000000000E+00  0.00000000000E+00  0.19217670954E+03  0.26192354860E+04  0.26121758446E+04 0.  0.
        3    1    3    3  502    0  0.22789749093E+03 -0.87449973977E+03 -0.84942275303E+03  0.12402443650E+04  0.10100000352E+00 0.  1.
       -3    1    3    3    0  502 -0.22789749093E+03  0.87449973977E+03  0.10415994626E+04  0.13789911210E+04  0.10100000352E+00 0. -1.
</event>
<event>
 5   0  0.1136881E-05  0.2630791E+04  0.7818609E-02  0.8357817E-01
       -2   -1    0    0    0  501  0.00000000000E+00  0.00000000000E+00  0.17112696048E+04  0.17112696048E+04  0.25500000920E-02 0.  1.
        2   -1    0    0  501    0  0.00000000000E+00  0.00000000000E+00 -0.10111004045E+04  0.10111004045E+04  0.25500000920E-02 0. -1.
    10030    2    1    2    0    0  0.00000000000E+00  0.00000000000E+00  0.70016920026E+03  0.27223700094E+04  0.26307910519E+04 0.  0.
        3    1    3    3  502    0  0.79769111594E+03 -0.10294640795E+04  0.15883222586E+03  0.13119966058E+04  0.10100000352E+00 0. -1.
       -3    1    3    3    0  502 -0.79769111594E+03  0.10294640795E+04  0.54133697440E+03  0.14103734036E+04  0.10100000352E+00 0.  1.
</event>
<event>
 5   0  0.1116310E-05  0.2471284E+04  0.7818609E-02  0.8413288E-01
        2   -1    0    0  501    0  0.00000000000E+00  0.00000000000E+00  0.72351674585E+03  0.72351674585E+03  0.25500000920E-02 0.  1.
       -2   -1    0    0    0  501  0.00000000000E+00  0.00000000000E+00 -0.21102638911E+04  0.21102638911E+04  0.25500000920E-02 0. -1.
    10030    2    1    2    0    0  0.00000000000E+00  0.00000000000E+00 -0.13867471453E+04  0.28337806370E+04  0.24712840900E+04 0.  0.
        4    1    3    3  502    0 -0.54687257785E+03 -0.29810214930E+03  0.53034517134E+03  0.81804775012E+03  0.12699999809E+01 0.  1.
       -4    1    3    3    0  502  0.54687257785E+03  0.29810214930E+03 -0.19170923166E+04  0.20157328869E+04  0.12699999809E+01 0. -1.
</event>
<event>
 5   0  0.4597705E-06  0.2584826E+04  0.7818609E-02  0.8373374E-01
        1   -1    0    0  501    0  0.00000000000E+00  0.00000000000E+00  0.18498823876E+04  0.18498823876E+04  0.50400001928E-02 0.  1.
       -1   -1    0    0    0  501  0.00000000000E+00  0.00000000000E+00 -0.90293890627E+03  0.90293890629E+03  0.50400001928E-02 0. -1.
    10030    2    1    2    0    0  0.00000000000E+00  0.00000000000E+00  0.94694348131E+03  0.27528212939E+04  0.25848255491E+04 0.  0.
        5    1    3    3  502    0  0.91084293945E+03  0.16825502363E+03  0.14333632196E+04  0.17066038857E+04  0.46999998093E+01 0.  1.
       -5    1    3    3    0  502 -0.91084293945E+03 -0.16825502363E+03 -0.48641973833E+03  0.10462174082E+04  0.46999998093E+01 0. -1.
</event>
<event>
 5   0  0.4415080E-06  0.2605755E+04  0.7818609E-02  0.8366249E-01
       -1   -1    0    0    0  501  0.00000000000E+00  0.00000000000E+00  0.10196717013E+04  0.10196717013E+04  0.50400001928E-02 0. -1.
        1   -1    0    0  501    0  0.00000000000E+00  0.00000000000E+00 -0.16647420968E+04  0.16647420968E+04  0.50400001928E-02 0.  1.
    10030    2    1    2    0    0  0.00000000000E+00  0.00000000000E+00 -0.64507039554E+03  0.26844137982E+04  0.26057554806E+04 0.  0.
        2    1    3    3  502    0  0.88218304679E+02  0.10053414530E+04 -0.11714215871E+04  0.15461961199E+04  0.25500000920E-02 0.  1.
       -2    1    3    3    0  502 -0.88218304679E+02 -0.10053414530E+04  0.52635119157E+03  0.11382176783E+04  0.25500000920E-02 0. -1.
</event>
<event>
 5   0  0.4415080E-06  0.2604382E+04  0.7818609E-02  0.8366714E-01
       -1   -1    0    0    0  501  0.00000000000E+00  0.00000000000E+00  0.12744846667E+04  0.12744846667E+04  0.50400001928E-02 0. -1.
        1   -1    0    0  501    0  0.00000000000E+00  0.00000000000E+00 -0.13304995239E+04  0.13304995239E+04  0.50400001928E-02 0.  1.
    10030    2    1    2    0    0  0.00000000000E+00  0.00000000000E+00 -0.56014857189E+02  0.26049841907E+04  0.26043818786E+04 0.  0.
        2    1    3    3  502    0  0.92512041261E+03 -0.91299590082E+03 -0.10734758351E+03  0.13041981431E+04  0.25500000920E-02 0.  1.
       -2    1    3    3    0  502 -0.92512041261E+03  0.91299590082E+03  0.51332726323E+02  0.13007860476E+04  0.25500000920E-02 0. -1.
</event>
<event>
 5   0  0.4361864E-06  0.2559784E+04  0.7818609E-02  0.8381991E-01
        1   -1    0    0  501    0  0.00000000000E+00  0.00000000000E+00  0.10564687782E+04  0.10564687782E+04  0.50400001928E-02 0. -1.
       -1   -1    0    0    0  501  0.00000000000E+00  0.00000000000E+00 -0.15505654664E+04  0.15505654664E+04  0.50400001928E-02 0.  1.
    10030    2    1    2    0    0  0.00000000000E+00  0.00000000000E+00 -0.49409668817E+03  0.26070342446E+04  0.25597843689E+04 0.  0.
        3    1    3    3  502    0 -0.22294327022E+03 -0.66394803981E+03 -0.13380800050E+04  0.15102942797E+04  0.10100000352E+00 0.  1.
       -3    1    3    3    0  502  0.22294327022E+03  0.66394803981E+03  0.84398331685E+03  0.10967399649E+04  0.10100000352E+00 0. -1.
</event>
<event>
 5   0  0.1085061E-05  0.2595809E+04  0.7818609E-02  0.8369626E-01
        2   -1    0    0  501    0  0.00000000000E+00  0.00000000000E+00  0.19734134582E+04  0.19734134582E+04  0.25500000920E-02 0. -1.
       -2   -1    0    0    0  501  0.00000000000E+00  0.00000000000E+00 -0.85362540501E+03  0.85362540501E+03  0.25500000920E-02 0.  1.
    10030    2    1    2    0    0  0.00000000000E+00  0.00000000000E+00  0.11197880532E+04  0.28270388632E+04  0.25958088239E+04 0.  0.
        1    1    3    3  502    0 -0.45014075464E+03 -0.10806650573E+04 -0.50468199624E+02  0.11717553944E+04  0.50400001928E-02 0.  1.
       -1    1    3    3    0  502  0.45014075464E+03  0.10806650573E+04  0.11702562528E+04  0.16552834689E+04  0.50400001928E-02 0. -1.
</event>
<event>
 5   0  0.4361864E-06  0.2600150E+04  0.7818609E-02  0.8368150E-01
        1   -1    0    0  501    0  0.00000000000E+00  0.00000000000E+00  0.16258285459E+04  0.16258285459E+04  0.50400001928E-02 0. -1.
       -1   -1    0    0    0  501  0.00000000000E+00  0.00000000000E+00 -0.10395899147E+04  0.10395899147E+04  0.50400001928E-02 0.  1.
    10030    2    1    2    0    0  0.00000000000E+00  0.00000000000E+00  0.58623863124E+03  0.26654184606E+04  0.26001499644E+04 0.  0.
        3    1    3    3  502    0 -0.48628538959E+03 -0.16764450153E+03  0.15170826423E+04  0.16019107069E+04  0.10100000352E+00 0. -1.
       -3    1    3    3    0  502  0.48628538959E+03  0.16764450153E+03 -0.93084401106E+03  0.10635077537E+04  0.10100000352E+00 0.  1.
</event>
<event>
 5   0  0.1136881E-05  0.2606898E+04  0.7818609E-02  0.8365862E-01
        2   -1    0    0  501    0  0.00000000000E+00  0.00000000000E+00  0.19758464557E+04  0.19758464557E+04  0.25500000920E-02 0.  1.
       -2   -1    0    0    0  501  0.00000000000E+00  0.00000000000E+00 -0.85987435702E+03  0.85987435703E+03  0.25500000920E-02 0. -1.
    10030    2    1    2    0    0  0.00000000000E+00  0.00000000000E+00  0.11159720987E+04  0.28357208127E+04  0.26068983108E+04 0.  0.
        3    1    3    3  502    0  0.87705989288E+03  0.92107812875E+03  0.86826103180E+03  0.15399662998E+04  0.10100000352E+00 0.  1.
       -3    1    3    3    0  502 -0.87705989288E+03 -0.92107812875E+03  0.24771106690E+03  0.12957545129E+04  0.10100000352E+00 0. -1.
</event>
<event>
 5   0  0.4218590E-06  0.2591415E+04  0.7818609E-02  0.8371123E-01
        1   -1    0    0  501    0  0.00000000000E+00  0.00000000000E+00  0.88570297448E+03  0.88570297449E+03  0.50400001928E-02 0.  1.
       -1   -1    0    0    0  501  0.00000000000E+00  0.00000000000E+00 -0.18955090112E+04  0.18955090112E+04  0.50400001928E-02 0. -1.
    10030    2    1    2    0    0  0.00000000000E+00  0.00000000000E+00 -0.10098060367E+04  0.27812119857E+04  0.25914150338E+04 0.  0.
        1    1    3    3  502    0  0.99631966420E+03 -0.74128000015E+03 -0.10808099894E+03  0.12465273420E+04  0.50400001928E-02 0. -1.
       -1    1    3    3    0  502 -0.99631966420E+03  0.74128000015E+03 -0.90172503775E+03  0.15346846437E+04  0.50400001928E-02 0.  1.
</event>
<event>
 5   0  0.1116310E-05  0.2560437E+04  0.7818609E-02  0.8381765E-01
       -2   -1    0    0    0  501  0.00000000000E+00  0.00000000000E+00  0.67373099011E+03  0.67373099011E+03  0.25500000920E-02 0.  1.
        2   -1    0    0  501    0  0.00000000000E+00  0.00000000000E+00 -0.24326615372E+04  0.24326615372E+04  0.25500000920E-02 0. -1.
    10030    2    1    2    0    0  0.00000000000E+00  0.00000000000E+00 -0.17589305471E+04  0.31063925273E+04  0.25604370455E+04 0.  0.
        4    1    3    3  502    0 -0.39971908306E+02  0.39364322968E+03  0.59768841061E+03  0.71678852865E+03  0.12699999809E+01 0.  1.
       -4    1    3    3    0  502  0.39971908306E+02 -0.39364322968E+03 -0.23566189577E+04  0.23896039986E+04  0.12699999809E+01 0. -1.
</event>
<event>
 5   0  0.1116310E-05  0.2595420E+04  0.7818609E-02  0.8369759E-01
       -2   -1    0    0    0  501  0.00000000000E+00  0.00000000000E+00  0.99366131852E+03  0.99366131853E+03  0.25500000920E-02 0. -1.
        2   -1    0    0  501    0  0.00000000000E+00  0.00000000000E+00 -0.16947936216E+04  0.16947936216E+04  0.25500000920E-02 0.  1.
    10030    2    1    2    0    0  0.00000000000E+00  0.00000000000E+00 -0.70113230309E+03  0.26884549401E+04  0.25954197076E+04 0.  0.
        4    1    3    3  502    0  0.11192809785E+04  0.33157777765E+03 -0.93773230824E+03  0.14973567465E+04  0.12699999809E+01 0.  1.
       -4    1    3    3    0  502 -0.11192809785E+04 -0.33157777765E+03  0.23660000514E+03  0.11910981936E+04  0.12699999809E+01 0. -1.
</event>
<event>
 5   0  0.4597705E-06  0.2598517E+04  0.7818609E-02  0.8368705E-01
        1   -1    0    0  501    0  0.00000000000E+00  0.00000000000E+00  0.17721170800E+04  0.17721170800E+04  0.50400001928E-02 0. -1.
       -1   -1    0    0    0  501  0.00000000000E+00  0.00000000000E+00 -0.95257396258E+03  0.95257396259E+03  0.50400001928E-02 0.  1.
    10030    2    1    2    0    0  0.00000000000E+00  0.00000000000E+00  0.81954311738E+03  0.27246910426E+04  0.25985169532E+04 0.  0.
        5    1    3    3  502    0 -0.93958704375E+03  0.83779771429E+03  0.72726914035E+02  0.12609679286E+04  0.46999998093E+01 0.  1.
       -5    1    3    3    0  502  0.93958704375E+03 -0.83779771429E+03  0.74681620335E+03  0.14637231140E+04  0.46999998093E+01 0. -1.
</event>
<event>
 5   0  0.4361864E-06  0.2630888E+04  0.7818609E-02  0.8357784E-01
        1   -1    0    0  501    0  0.00000000000E+00  0.00000000000E+00  0.16960200962E+04  0.16960200962E+04  0.50400001928E-02 0.  1.
       -1   -1    0    0    0  501  0.00000000000E+00  0.00000000000E+00 -0.10202671224E+04  0.10202671224E+04  0.50400001928E-02 0. -1.
    10030    2    1    2    0    0  0.00000000000E+00  0.00000000000E+00  0.67575297374E+03  0.27162872186E+04  0.26308884758E+04 0.  0.
        3    1    3    3  502    0 -0.45591957396E+03  0.12268191709E+04  0.20150732618E+03  0.13242179385E+04  0.10100000352E+00 0.  1.
       -3    1    3    3    0  502  0.45591957396E+03 -0.12268191709E+04  0.47424564756E+03  0.13920692801E+04  0.10100000352E+00 0. -1.
</event>
<event>
 5   0  0.4415080E-06  0.2626582E+04  0.7818609E-02  0.8359228E-01
       -1   -1    0    0    0  501  0.00000000000E+00  0.00000000000E+00  0.96842566390E+03  0.96842566391E+03  0.50400001928E-02 0. -1.
        1   -1    0    0  501    0  0.00000000000E+00  0.00000000000E+00 -0.17809661483E+04  0.17809661483E+04  0.50400001928E-02 0.  1.
    10030    2    1    2    0    0  0.00000000000E+00  0.00000000000E+00 -0.81254048444E+03  0.27493918123E+04  0.26265820563E+04 0.  0.
        2    1    3    3  502    0 -0.32785110548E+03 -0.12706329260E+04 -0.46105216576E+03  0.13908858615E+04  0.25500000920E-02 0. -1.
       -2    1    3    3    0  502  0.32785110548E+03  0.12706329260E+04 -0.35148831868E+03  0.13585059508E+04  0.25500000920E-02 0.  1.
</event>
<event>
 5   0  0.1116310E-05  0.2601098E+04  0.7818609E-02  0.8367828E-01
       -2   -1    0    0    0  501  0.00000000000E+00  0.00000000000E+00  0.13009689271E+04  0.13009689271E+04  0.25500000920E-02 0.  1.
        2   -1    0    0  501    0  0.00000000000E+00  0.00000000000E+00 -0.13001294255E+04  0.13001294255E+04  0.25500000920E-02 0. -1.
    10030    2    1    2    0    0  0.00000000000E+00  0.00000000000E+00  0.83950165020E+00  0.26010983526E+04  0.26010982171E+04 0.  0.
        4    1    3    3  502    0  0.11546029968E+04 -0.43216351994E+03  0.41460932172E+03  0.13006828555E+04  0.12699999809E+01 0.  1.
       -4    1    3    3    0  502 -0.11546029968E+04  0.43216351994E+03 -0.41376982007E+03  0.13004154971E+04  0.12699999809E+01 0. -1.
</event>
<event>
 5   0  0.4361864E-06  0.2601366E+04  0.7818609E-02  0.8367737E-01
        1   -1    0    0  501    0  0.00000000000E+00  0.00000000000E+00  0.15583054390E+04  0.15583054390E+04  0.50400001928E-02 0.  1.
       -1   -1    0    0    0  501  0.00000000000E+00  0.00000000000E+00 -0.10856511848E+04  0.10856511848E+04  0.50400001928E-02 0. -1.
    10030    2    1    2    0    0  0.00000000000E+00  0.00000000000E+00  0.47265425422E+03  0.26439566238E+04  0.26013659074E+04 0.  0.
        3    1    3    3  502    0  0.11564684264E+03 -0.39173483391E+03  0.14914321875E+04  0.15463506563E+04  0.10100000352E+00 0.  1.
       -3    1    3    3    0  502 -0.11564684264E+03  0.39173483391E+03 -0.10187779332E+04  0.10976059675E+04  0.10100000352E+00 0. -1.
</event>
<event>
 5   0  0.1086507E-05  0.2599401E+04  0.7818609E-02  0.8368405E-01
        2   -1    0    0  501    0  0.00000000000E+00  0.00000000000E+00  0.19537686918E+04  0.19537686918E+04  0.25500000920E-02 0.  1.
       -2   -1    0    0    0  501  0.00000000000E+00  0.00000000000E+00 -0.86459653123E+03  0.86459653124E+03  0.25500000920E-02 0. -1.
    10030    2    1    2    0    0  0.00000000000E+00  0.00000000000E+00  0.10891721605E+04  0.28183652230E+04  0.25994011878E+04 0.  0.
        2    1    3    3  502    0 -0.12718402346E+04 -0.13568912074E+03  0.29442920355E+03  0.13125081622E+04  0.25500000920E-02 0.  1.
       -2    1    3    3    0  502  0.12718402346E+04  0.13568912074E+03  0.79474295698E+03  0.15058570608E+04  0.25500000920E-02 0. -1.
</event>
<event>
 5   0  0.1116310E-05  0.2606138E+04  0.7818609E-02  0.8366119E-01
        2   -1    0    0  501    0  0.00000000000E+00  0.00000000000E+00  0.14882239504E+04  0.14882239504E+04  0.25500000920E-02 0. -1.
       -2   -1    0    0    0  501  0.00000000000E+00  0.00000000000E+00 -0.11409494400E+04  0.11409494400E+04  0.25500000920E-02 0.  1.
    10030    2    1    2    0    0  0.00000000000E+00  0.00000000000E+00  0.34727451037E+03  0.26291733903E+04  0.26061375886E+04 0.  0.
        4    1    3    3  502    0 -0.48461319406E+03  0.42106543290E+03 -0.97033491434E+03  0.11634850689E+04  0.12699999809E+01 0.  1.
       -4    1    3    3    0  502  0.48461319406E+03 -0.42106543290E+03  0.13176094247E+04  0.14656883214E+04  0.12699999809E+01 0. -1.
</event>
<event>
 5   0  0.4597705E-06  0.2591170E+04  0.7818609E-02  0.8371207E-01
        1   -1    0    0  501    0  0.00000000000E+00  0.00000000000E+00  0.19692367115E+04  0.19692367115E+04  0.50400001928E-02 0.  1.
       -1   -1    0    0    0  501  0.00000000000E+00  0.00000000000E+00 -0.85238124204E+03  0.85238124205E+03  0.50400001928E-02 0. -1.
    10030    2    1    2    0    0  0.00000000000E+00  0.00000000000E+00  0.11168554695E+04  0.28216179536E+04  0.25911699551E+04 0.  0.
        5    1    3    3  502    0 -0.11472109207E+04  0.15547076596E+03  0.11917488479E+04  0.16614907348E+04  0.46999998093E+01 0.  1.
       -5    1    3    3    0  502  0.11472109207E+04 -0.15547076596E+03 -0.74893378377E+02  0.11601272188E+04  0.46999998093E+01 0. -1.
</event>
<event>
 5   0  0.4415080E-06  0.2603735E+04  0.7818609E-02  0.8366934E-01
       -1   -1    0    0    0  501  0.00000000000E+00  0.00000000000E+00  0.14007670512E+04  0.14007670512E+04  0.50400001928E-02 0. -1.
        1   -1    0    0  501    0  0.00000000000E+00  0.00000000000E+00 -0.12099506212E+04  0.12099506212E+04  0.50400001928E-02 0.  1.
    10030    2    1    2    0    0  0.00000000000E+00  0.00000000000E+00  0.19081642996E+03  0.26107176725E+04  0.26037349818E+04 0.  0.
        2    1    3    3  502    0  0.81878028965E+03  0.98221380018E+03  0.34042772905E+03  0.13232672257E+04  0.25500000920E-02 0.  1.
       -2    1    3    3    0  502 -0.81878028965E+03 -0.98221380018E+03 -0.14961129908E+03  0.12874504467E+04  0.25500000920E-02 0. -1.
</event>
<event>
 5   0  0.1086507E-05  0.2601866E+04  0.7818609E-02  0.8367568E-01
        2   -1    0    0  501    0  0.00000000000E+00  0.00000000000E+00  0.15547461339E+04  0.15547461339E+04  0.25500000920E-02 0.  1.
       -2   -1    0    0    0  501  0.00000000000E+00  0.00000000000E+00 -0.10885549929E+04  0.10885549929E+04  0.25500000920E-02 0. -1.
    10030    2    1    2    0    0  0.00000000000E+00  0.00000000000E+00  0.46619114103E+03  0.26433011268E+04  0.26018659972E+04 0.  0.
        2    1    3    3  502    0 -0.26624030210E+03 -0.21047426391E+03 -0.10427880686E+04  0.10966267689E+04  0.25500000920E-02 0. -1.
       -2    1    3    3    0  502  0.26624030210E+03  0.21047426391E+03  0.15089792097E+04  0.15466743579E+04  0.25500000920E-02 0.  1.
</event>
<event>
 5   0  0.1136881E-05  0.2631488E+04  0.7818609E-02  0.8357583E-01
       -2   -1    0    0    0  501  0.00000000000E+00  0.00000000000E+00  0.85450456513E+03  0.85450456513E+03  0.25500000920E-02 0. -1.
        2   -1    0    0  501    0  0.00000000000E+00  0.00000000000E+00 -0.20259491637E+04  0.20259491637E+04  0.25500000920E-02 0.  1.
    10030    2    1    2    0    0  0.00000000000E+00  0.00000000000E+00 -0.11714445986E+04  0.28804537288E+04  0.26314884070E+04 0.  0.
        3    1    3    3  502    0 -0.77946783385E+03 -0.18129257284E+03  0.55747501754E+03  0.97530277676E+03  0.10100000352E+00 0. -1.
       -3    1    3    3    0  502  0.77946783385E+03  0.18129257284E+03 -0.17289196161E+04  0.19051509521E+04  0.10100000352E+00 0.  1.
</event>
<event>
 5   0  0.1085255E-05  0.2557369E+04  0.7818609E-02  0.8382828E-01
        2   -1    0    0  501    0  0.00000000000E+00  0.00000000000E+00  0.15889356443E+04  0.15889356443E+04  0.25500000920E-02 0.  1.
       -2   -1    0    0    0  501  0.00000000000E+00  0.00000000000E+00 -0.10290123354E+04  0.10290123354E+04  0.25500000920E-02 0. -1.
    10030    2    1    2    0    0  0.00000000000E+00  0.00000000000E+00  0.55992330894E+03  0.26179479797E+04  0.25573692562E+04 0.  0.
        5    1    3    3  502    0  0.27918119172E+03 -0.46180954770E+03 -0.90672273420E+03  0.10551674762E+04  0.46999998093E+01 0. -1.
       -5    1    3    3    0  502 -0.27918119172E+03  0.46180954770E+03  0.14666460431E+04  0.15627805035E+04  0.46999998093E+01 0.  1.
</event>
<event>
 5   0  0.4415080E-06  0.2601274E+04  0.7818609E-02  0.8367769E-01
       -1   -1    0    0    0  501  0.00000000000E+00  0.00000000000E+00  0.22965586616E+04  0.22965586617E+04  0.50400001928E-02 0. -1.
        1   -1    0    0  501    0  0.00000000000E+00  0.00000000000E+00 -0.73660506456E+03  0.73660506457E+03  0.50400001928E-02 0.  1.
    10030    2    1    2    0    0  0.00000000000E+00  0.00000000000E+00  0.15599535971E+04  0.30331637262E+04  0.26012741042E+04 0.  0.
        2    1    3    3  502    0  0.13739758512E+03 -0.65875433369E+03  0.20777956576E+04  0.21840490295E+04  0.25500000920E-02 0. -1.
       -2    1    3    3    0  502 -0.13739758512E+03  0.65875433369E+03 -0.51784206051E+03  0.84911469672E+03  0.25500000920E-02 0.  1.
</event>
<event>
 5   0  0.1086507E-05  0.2635428E+04  0.7818609E-02  0.8356266E-01
       -2   -1    0    0    0  501  0.00000000000E+00  0.00000000000E+00  0.11522546296E+04  0.11522546296E+04  0.25500000920E-02 0.  1.
        2   -1    0    0  501    0  0.00000000000E+00  0.00000000000E+00 -0.15069325985E+04  0.15069325985E+04  0.25500000920E-02 0. -1.
    10030    2    1    2    0    0  0.00000000000E+00  0.00000000000E+00 -0.35467796891E+03  0.26591872281E+04  0.26354279069E+04 0.  0.
        2    1    3    3  502    0  0.28615803815E+02 -0.14786867765E+03  0.11435411448E+04  0.11534168197E+04  0.25500000920E-02 0.  1.
       -2    1    3    3    0  502 -0.28615803815E+02  0.14786867765E+03 -0.14982191137E+04  0.15057704084E+04  0.25500000920E-02 0. -1.
</event>
<event>
 5   0  0.4415080E-06  0.2591056E+04  0.7818609E-02  0.8371246E-01
       -1   -1    0    0    0  501  0.00000000000E+00  0.00000000000E+00  0.87626176004E+03  0.87626176005E+03  0.50400001928E-02 0.  1.
        1   -1    0    0  501    0  0.00000000000E+00  0.00000000000E+00 -0.19154009402E+04  0.19154009402E+04  0.50400001928E-02 0. -1.
    10030    2    1    2    0    0  0.00000000000E+00  0.00000000000E+00 -0.10391391802E+04  0.27916627003E+04  0.25910558458E+04 0.  0.
        2    1    3    3  502    0 -0.12697614473E+04 -0.10932297241E+03 -0.77028047213E+03  0.14891533336E+04  0.25500000920E-02 0.  1.
       -2    1    3    3    0  502  0.12697614473E+04  0.10932297241E+03 -0.26885870803E+03  0.13025093666E+04  0.25500000920E-02 0. -1.
</event>
<event>
 5   0  0.1085255E-05  0.2609500E+04  0.7818609E-02  0.8364981E-01
        2   -1    0    0  501    0  0.00000000000E+00  0.00000000000E+00  0.13392997448E+04  0.13392997448E+04  0.25500000920E-02 0.  1.
       -2   -1    0    0    0  501  0.00000000000E+00  0.00000000000E+00 -0.12710915721E+04  0.12710915721E+04  0.25500000920E-02 0. -1.
    10030    2    1    2    0    0  0.00000000000E+00  0.00000000000E+00  0.68208172646E+02  0.26103913169E+04  0.26095000427E+04 0.  0.
        5    1    3    3  502    0 -0.54183688515E+03 -0.51265191379E+02 -0.11521066423E+04  0.12742005867E+04  0.46999998093E+01 0. -1.
       -5    1    3    3    0  502  0.54183688515E+03  0.51265191379E+02  0.12203148149E+04  0.13361907302E+04  0.46999998093E+01 0.  1.
</event>
<event>
 5   0  0.4218590E-06  0.2761696E+04  0.7818609E-02  0.8315260E-01
       -1   -1    0    0    0  501  0.00000000000E+00  0.00000000000E+00  0.80293392792E+03  0.80293392794E+03  0.50400001928E-02 0.  1.
        1   -1    0    0  501    0  0.00000000000E+00  0.00000000000E+00 -0.23747171263E+04  0.23747171263E+04  0.50400001928E-02 0. -1.
    10030    2    1    2    0    0  0.00000000000E+00  0.00000000000E+00 -0.15717831984E+04  0.31776510543E+04  0.27616958196E+04 0.  0.
        1    1    3    3  502    0 -0.11155696106E+04 -0.70224367328E+03 -0.12590441226E+04  0.18228641846E+04  0.50400001928E-02 0.  1.
       -1    1    3    3    0  502  0.11155696106E+04  0.70224367328E+03 -0.31273907582E+03  0.13547868697E+04  0.50400001928E-02 0. -1.
</event>
<event>
 5   0  0.4464297E-06  0.2598177E+04  0.7818609E-02  0.8368821E-01
       -1   -1    0    0    0  501  0.00000000000E+00  0.00000000000E+00  0.19142535833E+04  0.19142535833E+04  0.50400001928E-02 0. -1.
        1   -1    0    0  501    0  0.00000000000E+00  0.00000000000E+00 -0.88161330376E+03  0.88161330377E+03  0.50400001928E-02 0.  1.
    10030    2    1    2    0    0  0.00000000000E+00  0.00000000000E+00  0.10326402795E+04  0.27958668871E+04  0.25981773810E+04 0.  0.
        4    1    3    3  502    0  0.83737099168E+02  0.52559322287E+03  0.17915498269E+04  0.18689335282E+04  0.12699999809E+01 0. -1.
       -4    1    3    3    0  502 -0.83737099168E+02 -0.52559322287E+03 -0.75890954739E+03  0.92693335883E+03  0.12699999809E+01 0.  1.
</event>
<event>
 5   0  0.4218590E-06  0.2602416E+04  0.7818609E-02  0.8367381E-01
        1   -1    0    0  501    0  0.00000000000E+00  0.00000000000E+00  0.13548321316E+04  0.13548321316E+04  0.50400001928E-02 0.  1.
       -1   -1    0    0    0  501  0.00000000000E+00  0.00000000000E+00 -0.12497066130E+04  0.12497066130E+04  0.50400001928E-02 0. -1.
    10030    2    1    2    0    0  0.00000000000E+00  0.00000000000E+00  0.10512551855E+03  0.26045387446E+04  0.26024163190E+04 0.  0.
        1    1    3    3  502    0  0.11916718768E+04 -0.97623885040E+02 -0.46120802067E+03  0.12815323340E+04  0.50400001928E-02 0. -1.
       -1    1    3    3    0  502 -0.11916718768E+04  0.97623885040E+02  0.56633353922E+03  0.13230064106E+04  0.50400001928E-02 0.  1.
</event>
<event>
 5   0  0.1085255E-05  0.2600778E+04  0.7818609E-02  0.8367937E-01
        2   -1    0    0  501    0  0.00000000000E+00  0.00000000000E+00  0.16236592657E+04  0.16236592657E+04  0.25500000920E-02 0.  1.
       -2   -1    0    0    0  501  0.00000000000E+00  0.00000000000E+00 -0.10414814547E+04  0.10414814547E+04  0.25500000920E-02 0. -1.
    10030    2    1    2    0    0  0.00000000000E+00  0.00000000000E+00  0.58217781092E+03  0.26651407204E+04  0.26007775868E+04 0.  0.
        5    1    3    3  502    0  0.11334677356E+03  0.53474355630E+03 -0.91802246387E+03  0.10684500439E+04  0.46999998093E+01 0. -1.
       -5    1    3    3    0  502 -0.11334677356E+03 -0.53474355630E+03  0.15002002748E+04  0.15966906765E+04  0.46999998093E+01 0.  1.
</event>
<event>
 5   0  0.4597705E-06  0.2601642E+04  0.7818609E-02  0.8367644E-01
        1   -1    0    0  501    0  0.00000000000E+00  0.00000000000E+00  0.23743742032E+04  0.23743742033E+04  0.50400001928E-02 0.  1.
       -1   -1    0    0    0  501  0.00000000000E+00  0.00000000000E+00 -0.71266564056E+03  0.71266564057E+03  0.50400001928E-02 0. -1.
    10030    2    1    2    0    0  0.00000000000E+00  0.00000000000E+00  0.16617085627E+04  0.30870398438E+04  0.26016417221E+04 0.  0.
        5    1    3    3  502    0  0.23806705343E+02  0.12958965706E+04  0.96190565554E+03  0.16140629669E+04  0.46999998093E+01 0.  1.
       -5    1    3    3    0  502 -0.23806705343E+02 -0.12958965706E+04  0.69980290715E+03  0.14729768769E+04  0.46999998093E+01 0. -1.
</event>
<event>
 5   0  0.4361864E-06  0.2618170E+04  0.7818609E-02  0.8362055E-01
       -1   -1    0    0    0  501  0.00000000000E+00  0.00000000000E+00  0.12306058010E+04  0.12306058010E+04  0.50400001928E-02 0. -1.
        1   -1    0    0  501    0  0.00000000000E+00  0.00000000000E+00 -0.13925688834E+04  0.13925688834E+04  0.50400001928E-02 0.  1.
    10030    2    1    2    0    0  0.00000000000E+00  0.00000000000E+00 -0.16196308234E+03  0.26231746844E+04  0.26181698541E+04 0.  0.
        3    1    3    3  502    0 -0.26432794631E+03 -0.12587540090E+04  0.16314880200E+03  0.12965139645E+04  0.10100000352E+00 0. -1.
       -3    1    3    3    0  502  0.26432794631E+03  0.12587540090E+04 -0.32511188434E+03  0.13266607199E+04  0.10100000352E+00 0.  1.
</event>
<event>
 5   0  0.1085061E-05  0.2604352E+04  0.7818609E-02  0.8366724E-01
       -2   -1    0    0    0  501  0.00000000000E+00  0.00000000000E+00  0.14982163191E+04  0.14982163191E+04  0.25500000920E-02 0.  1.
        2   -1    0    0  501    0  0.00000000000E+00  0.00000000000E+00 -0.11317877405E+04  0.11317877405E+04  0.25500000920E-02 0. -1.
    10030    2    1    2    0    0  0.00000000000E+00  0.00000000000E+00  0.36642857863E+03  0.26300040596E+04  0.26043524051E+04 0.  0.
        1    1    3    3  502    0  0.99320000544E+03  0.14747669304E+03  0.10205173362E+04  0.14316603156E+04  0.50400001928E-02 0.  1.
       -1    1    3    3    0  502 -0.99320000544E+03 -0.14747669304E+03 -0.65408875758E+03  0.11983437439E+04  0.50400001928E-02 0. -1.
</event>
<event>
 5   0  0.4361864E-06  0.2610462E+04  0.7818609E-02  0.8364656E-01
        1   -1    0    0  501    0  0.00000000000E+00  0.00000000000E+00  0.21203461649E+04  0.21203461649E+04  0.50400001928E-02 0. -1.
       -1   -1    0    0    0  501  0.00000000000E+00  0.00000000000E+00 -0.80346681908E+03  0.80346681910E+03  0.50400001928E-02 0.  1.
    10030    2    1    2    0    0  0.00000000000E+00  0.00000000000E+00  0.13168793458E+04  0.29238129840E+04  0.26104618660E+04 0.  0.
        3    1    3    3  502    0 -0.54724963156E+03  0.90316829275E+03 -0.20073332503E+03  0.10749367434E+04  0.10100000352E+00 0.  1.
       -3    1    3    3    0  502  0.54724963156E+03 -0.90316829275E+03  0.15176126708E+04  0.18488762406E+04  0.10100000352E+00 0. -1.
</event>
<event>
 5   0  0.1136881E-05  0.2604057E+04  0.7818609E-02  0.8366825E-01
        2   -1    0    0  501    0  0.00000000000E+00  0.00000000000E+00  0.19929173874E+04  0.19929173874E+04  0.25500000920E-02 0. -1.
       -2   -1    0    0    0  501  0.00000000000E+00  0.00000000000E+00 -0.85065129747E+03  0.85065129748E+03  0.25500000920E-02 0.  1.
    10030    2    1    2    0    0  0.00000000000E+00  0.00000000000E+00  0.11422660899E+04  0.28435686848E+04  0.26040566517E+04 0.  0.
        3    1    3    3  502    0  0.44363104056E+03  0.10709612904E+04  0.12185481934E+04  0.16818520433E+04  0.10100000352E+00 0. -1.
       -3    1    3    3    0  502 -0.44363104056E+03 -0.10709612904E+04 -0.76282103458E+02  0.11617166416E+04  0.10100000352E+00 0.  1.
</event>
<event>
 5   0  0.4218590E-06  0.2570566E+04  0.7818609E-02  0.8378269E-01
        1   -1    0    0  501    0  0.00000000000E+00  0.00000000000E+00  0.12402268399E+04  0.12402268399E+04  0.50400001928E-02 0. -1.
       -1   -1    0    0    0  501  0.00000000000E+00  0.00000000000E+00 -0.13319756799E+04  0.13319756799E+04  0.50400001928E-02 0.  1.
    10030    2    1    2    0    0  0.00000000000E+00  0.00000000000E+00 -0.91748839988E+02  0.25722025199E+04  0.25705656875E+04 0.  0.
        1    1    3    3  502    0 -0.58800057241E+02  0.55230300300E+03 -0.12056879378E+04  0.13274710759E+04  0.50400001928E-02 0.  1.
       -1    1    3    3    0  502  0.58800057241E+02 -0.55230300300E+03  0.11139390978E+04  0.12447314440E+04  0.50400001928E-02 0. -1.
</event>
<event>
 5   0  0.4218590E-06  0.2599134E+04  0.7818609E-02  0.8368495E-01
        1   -1    0    0  501    0  0.00000000000E+00  0.00000000000E+00  0.15477668822E+04  0.15477668822E+04  0.50400001928E-02 0.  1.
       -1   -1    0    0    0  501  0.00000000000E+00  0.00000000000E+00 -0.10911688581E+04  0.10911688581E+04  0.50400001928E-02 0. -1.
    10030    2    1    2    0    0  0.00000000000E+00  0.00000000000E+00  0.45659802407E+03  0.26389357403E+04  0.25991344878E+04 0.  0.
        1    1    3    3  502    0  0.11347479033E+04  0.32011072146E+03 -0.32665244573E+03  0.12234482001E+04  0.50400001928E-02 0. -1.
       -1    1    3    3    0  502 -0.11347479033E+04 -0.32011072146E+03  0.78325046981E+03  0.14154875402E+04  0.50400001928E-02 0.  1.
</event>
<event>
 5   0  0.1085061E-05  0.2600343E+04  0.7818609E-02  0.8368085E-01
       -2   -1    0    0    0  501  0.00000000000E+00  0.00000000000E+00  0.87024010590E+03  0.87024010590E+03  0.25500000920E-02 0. -1.
        2   -1    0    0  501    0  0.00000000000E+00  0.00000000000E+00 -0.19425051235E+04  0.19425051235E+04  0.25500000920E-02 0.  1.
    10030    2    1    2    0    0  0.00000000000E+00  0.00000000000E+00 -0.10722650176E+04  0.28127452294E+04  0.26003429500E+04 0.  0.
        1    1    3    3  502    0 -0.97569975424E+03 -0.60958155582E+02 -0.14633179353E+04  0.17598310393E+04  0.50400001928E-02 0.  1.
       -1    1    3    3    0  502  0.97569975424E+03  0.60958155582E+02  0.39105291772E+03  0.10529141901E+04  0.50400001928E-02 0. -1.
</event>
<event>
 5   0  0.4361864E-06  0.2599035E+04  0.7818609E-02  0.8368529E-01
        1   -1    0    0  501    0  0.00000000000E+00  0.00000000000E+00  0.14707004279E+04  0.14707004279E+04  0.50400001928E-02 0. -1.
       -1   -1    0    0    0  501  0.00000000000E+00  0.00000000000E+00 -0.11482594044E+04  0.11482594044E+04  0.50400001928E-02 0.  1.
    10030    2    1    2    0    0  0.00000000000E+00  0.00000000000E+00  0.32244102347E+03  0.26189598323E+04  0.25990348958E+04 0.  0.
        3    1    3    3  502    0  0.58468143266E+03 -0.81541900387E+03 -0.67093435351E+03  0.12070266967E+04  0.10100000352E+00 0.  1.
       -3    1    3    3    0  502 -0.58468143266E+03  0.81541900387E+03  0.99337537699E+03  0.14119331356E+04  0.10100000352E+00 0. -1.
</event>
<event>
 5   0  0.4218590E-06  0.2618666E+04  0.7818609E-02  0.8361888E-01
        1   -1    0    0  501    0  0.00000000000E+00  0.00000000000E+00  0.11048710478E+04  0.11048710478E+04  0.50400001928E-02 0. -1.
       -1   -1    0    0    0  501  0.00000000000E+00  0.00000000000E+00 -0.15516316733E+04  0.15516316733E+04  0.50400001928E-02 0.  1.
    10030    2    1    2    0    0  0.00000000000E+00  0.00000000000E+00 -0.44676062543E+03  0.26565027211E+04  0.26186660060E+04 0.  0.
        1    1    3    3  502    0  0.85269100136E+03  0.63094026995E+03  0.55529449172E+03  0.11972967638E+04  0.50400001928E-02 0. -1.
       -1    1    3    3    0  502 -0.85269100136E+03 -0.63094026995E+03 -0.10020551172E+04  0.14592059573E+04  0.50400001928E-02 0.  1.
</event>
<event>
 5   0  0.1136881E-05  0.2547993E+04  0.7818609E-02  0.8386085E-01
        2   -1    0    0  501    0  0.00000000000E+00  0.00000000000E+00  0.12921683883E+04  0.12921683883E+04  0.25500000920E-02 0.  1.
       -2   -1    0    0    0  501  0.00000000000E+00  0.00000000000E+00 -0.12560801493E+04  0.12560801493E+04  0.25500000920E-02 0. -1.
    10030    2    1    2    0    0  0.00000000000E+00  0.00000000000E+00  0.36088239080E+02  0.25482485376E+04  0.25479929844E+04 0.  0.
        3    1    3    3  502    0  0.67302140511E+03 -0.10792532526E+04  0.91001123308E+02  0.12751574843E+04  0.10100000352E+00 0.  1.
       -3    1    3    3    0  502 -0.67302140511E+03  0.10792532526E+04 -0.54912884228E+02  0.12730910533E+04  0.10100000352E+00 0. -1.
</event>
<event>
 5   0  0.1085255E-05  0.2602060E+04  0.7818609E-02  0.8367502E-01
       -2   -1    0    0    0  501  0.00000000000E+00  0.00000000000E+00  0.92342578047E+03  0.92342578047E+03  0.25500000920E-02 0. -1.
        2   -1    0    0  501    0  0.00000000000E+00  0.00000000000E+00 -0.18330422702E+04  0.18330422702E+04  0.25500000920E-02 0.  1.
    10030    2    1    2    0    0  0.00000000000E+00  0.00000000000E+00 -0.90961648970E+03  0.27564680506E+04  0.26020595604E+04 0.  0.
        5    1    3    3  502    0  0.37159503091E+03 -0.42827540978E+03  0.78564043336E+03  0.96889404692E+03  0.46999998093E+01 0. -1.
       -5    1    3    3    0  502 -0.37159503091E+03  0.42827540978E+03 -0.16952569231E+04  0.17875740037E+04  0.46999998093E+01 0.  1.
</event>
<event>
 5   0  0.1086507E-05  0.2604876E+04  0.7818609E-02  0.8366547E-01
       -2   -1    0    0    0  501  0.00000000000E+00  0.00000000000E+00  0.28441467743E+04  0.28441467743E+04  0.25500000920E-02 0.  1.
        2   -1    0    0  501    0  0.00000000000E+00  0.00000000000E+00 -0.59643371342E+03  0.59643371342E+03  0.25500000920E-02 0. -1.
    10030    2    1    2    0    0  0.00000000000E+00  0.00000000000E+00  0.22477130609E+04  0.34405804877E+04  0.26048762137E+04 0.  0.
        2    1    3    3  502    0 -0.10408356963E+04  0.68790197508E+03  0.63000832814E+03  0.13976618216E+04  0.25500000920E-02 0. -1.
       -2    1    3    3    0  502  0.10408356963E+04 -0.68790197508E+03  0.16177047328E+04  0.20429186661E+04  0.25500000920E-02 0.  1.
</event>
<event>
 5   0  0.1086507E-05  0.2589374E+04  0.7818609E-02  0.8371820E-01
        2   -1    0    0  501    0  0.00000000000E+00  0.00000000000E+00  0.14632222465E+04  0.14632222465E+04  0.25500000920E-02 0. -1.
       -2   -1    0    0    0  501  0.00000000000E+00  0.00000000000E+00 -0.11455635168E+04  0.11455635168E+04  0.25500000920E-02 0.  1.
    10030    2    1    2    0    0  0.00000000000E+00  0.00000000000E+00  0.31765872962E+03  0.26087857633E+04  0.25893736869E+04 0.  0.
        2    1    3    3  502    0  0.68030879011E+03  0.47544569007E+03  0.11599311412E+04  0.14262920130E+04  0.25500000920E-02 0. -1.
       -2    1    3    3    0  502 -0.68030879011E+03 -0.47544569007E+03 -0.84227241159E+03  0.11824937503E+04  0.25500000920E-02 0.  1.
</event>
<event>
 5   0  0.1136881E-05  0.2617743E+04  0.7818609E-02  0.8362199E-01
        2   -1    0    0  501    0  0.00000000000E+00  0.00000000000E+00  0.13974952800E+04  0.13974952800E+04  0.25500000920E-02 0. -1.
       -2   -1    0    0    0  501  0.00000000000E+00  0.00000000000E+00 -0.12258681662E+04  0.12258681662E+04  0.25500000920E-02 0.  1.
    10030    2    1    2    0    0  0.00000000000E+00  0.00000000000E+00  0.17162711376E+03  0.26233634462E+04  0.26177432847E+04 0.  0.
        3    1    3    3  502    0  0.63157931040E+03  0.11453438987E+04  0.13531489179E+03  0.13149202264E+04  0.10100000352E+00 0.  1.
       -3    1    3    3    0  502 -0.63157931040E+03 -0.11453438987E+04  0.36312221970E+02  0.13084432198E+04  0.10100000352E+00 0. -1.
</event>
<event>
 5   0  0.4415080E-06  0.2630801E+04  0.7818609E-02  0.8357813E-01
       -1   -1    0    0    0  501  0.00000000000E+00  0.00000000000E+00  0.67560286672E+03  0.67560286674E+03  0.50400001928E-02 0.  1.
        1   -1    0    0  501    0  0.00000000000E+00  0.00000000000E+00 -0.25610884714E+04  0.25610884714E+04  0.50400001928E-02 0. -1.
    10030    2    1    2    0    0  0.00000000000E+00  0.00000000000E+00 -0.18854856046E+04  0.32366913381E+04  0.26308011808E+04 0.  0.
        2    1    3    3  502    0 -0.10013453500E+04 -0.33924935090E+03 -0.19056067252E+04  0.21792474901E+04  0.25500000920E-02 0. -1.
       -2    1    3    3    0  502  0.10013453500E+04  0.33924935090E+03  0.20121120563E+02  0.10574438480E+04  0.25500000920E-02 0.  1.
</event>
<event>
 5   0  0.1085061E-05  0.2658687E+04  0.7818609E-02  0.8348535E-01
       -2   -1    0    0    0  501  0.00000000000E+00  0.00000000000E+00  0.86834639912E+03  0.86834639912E+03  0.25500000920E-02 0. -1.
        2   -1    0    0  501    0  0.00000000000E+00  0.00000000000E+00 -0.20350802420E+04  0.20350802420E+04  0.25500000920E-02 0.  1.
    10030    2    1    2    0    0  0.00000000000E+00  0.00000000000E+00 -0.11667338428E+04  0.29034266411E+04  0.26586873453E+04 0.  0.
        1    1    3    3  502    0  0.65018528653E+03  0.94769053629E+03 -0.13129172409E+04  0.17448810678E+04  0.50400001928E-02 0.  1.
       -1    1    3    3    0  502 -0.65018528653E+03 -0.94769053629E+03  0.14618339806E+03  0.11585455733E+04  0.50400001928E-02 0. -1.
</event>
<event>
 5   0  0.4361864E-06  0.2593084E+04  0.7818609E-02  0.8370554E-01
       -1   -1    0    0    0  501  0.00000000000E+00  0.00000000000E+00  0.12159126287E+04  0.12159126287E+04  0.50400001928E-02 0.  1.
        1   -1    0    0  501    0  0.00000000000E+00  0.00000000000E+00 -0.13825176883E+04  0.13825176883E+04  0.50400001928E-02 0. -1.
    10030    2    1    2    0    0  0.00000000000E+00  0.00000000000E+00 -0.16660505967E+03  0.25984303170E+04  0.25930836598E+04 0.  0.
        3    1    3    3  502    0  0.34376281322E+03 -0.59774249058E+03 -0.11835426440E+04  0.13697598903E+04  0.10100000352E+00 0. -1.
       -3    1    3    3    0  502 -0.34376281322E+03  0.59774249058E+03  0.10169375843E+04  0.12286704267E+04  0.10100000352E+00 0.  1.
</event>
<event>
 5   0  0.4361864E-06  0.2609068E+04  0.7818609E-02  0.8365128E-01
       -1   -1    0    0    0  501  0.00000000000E+00  0.00000000000E+00  0.19455986832E+04  0.19455986832E+04  0.50400001928E-02 0.  1.
        1   -1    0    0  501    0  0.00000000000E+00  0.00000000000E+00 -0.87469677183E+03  0.87469677184E+03  0.50400001928E-02 0. -1.
    10030    2    1    2    0    0  0.00000000000E+00  0.00000000000E+00  0.10709019114E+04  0.28202954551E+04  0.26090679466E+04 0.  0.
        3    1    3    3  502    0 -0.10587491522E+04  0.22873841702E+03  0.13213147190E+04  0.17085501537E+04  0.10100000352E+00 0.  1.
       -3    1    3    3    0  502  0.10587491522E+04 -0.22873841702E+03 -0.25041280763E+03  0.11117453014E+04  0.10100000352E+00 0. -1.
</event>
<event>
 5   0  0.4464297E-06  0.2588943E+04  0.7818609E-02  0.8371967E-01
        1   -1    0    0  501    0  0.00000000000E+00  0.00000000000E+00  0.71169532590E+03  0.71169532592E+03  0.50400001928E-02 0.  1.
       -1   -1    0    0    0  501  0.00000000000E+00  0.00000000000E+00 -0.23544576380E+04  0.23544576380E+04  0.50400001928E-02 0. -1.
    10030    2    1    2    0    0  0.00000000000E+00  0.00000000000E+00 -0.16427623121E+04  0.30661529639E+04  0.25889430245E+04 0.  0.
        4    1    3    3  502    0  0.12674452574E+04  0.13748239218E+03 -0.55566947272E+03  0.13907153068E+04  0.12699999809E+01 0.  1.
       -4    1    3    3    0  502 -0.12674452574E+04 -0.13748239218E+03 -0.10870928394E+04  0.16754376571E+04  0.12699999809E+01 0. -1.
</event>
<event>
 5   0  0.1116310E-05  0.2577929E+04  0.7818609E-02  0.8375737E-01
        2   -1    0    0  501    0  0.00000000000E+00  0.00000000000E+00  0.22821576816E+04  0.22821576816E+04  0.25500000920E-02 0. -1.
       -2   -1    0    0    0  501  0.00000000000E+00  0.00000000000E+00 -0.72800806483E+03  0.72800806483E+03  0.25500000920E-02 0.  1.
    10030    2    1    2    0    0  0.00000000000E+00  0.00000000000E+00  0.15541496168E+04  0.30101657465E+04  0.25779287790E+04 0.  0.
        4    1    3    3  502    0  0.11210700964E+04  0.22394237271E+02  0.15193738901E+04  0.18883321461E+04  0.12699999809E+01 0. -1.
       -4    1    3    3    0  502 -0.11210700964E+04 -0.22394237271E+02  0.34775726666E+02  0.11218336004E+04  0.12699999809E+01 0.  1.
</event>
<event>
 5   0  0.4361864E-06  0.2594275E+04  0.7818609E-02  0.8370148E-01
        1   -1    0    0  501    0  0.00000000000E+00  0.00000000000E+00  0.11254858712E+04  0.11254858712E+04  0.50400001928E-02 0.  1.
       -1   -1    0    0    0  501  0.00000000000E+00  0.00000000000E+00 -0.14949682301E+04  0.14949682301E+04  0.50400001928E-02 0. -1.
    10030    2    1    2    0    0  0.00000000000E+00  0.00000000000E+00 -0.36948235890E+03  0.26204541013E+04  0.25942749437E+04 0.  0.
        3    1    3    3  502    0 -0.95006254005E+03 -0.83368479342E+03 -0.47908604218E+03  0.13517294888E+04  0.10100000352E+00 0.  1.
       -3    1    3    3    0  502  0.95006254005E+03  0.83368479342E+03  0.10960368328E+03  0.12687246125E+04  0.10100000352E+00 0. -1.
</event>
<event>
 5   0  0.1085255E-05  0.2590971E+04  0.7818609E-02  0.8371275E-01
       -2   -1    0    0    0  501  0.00000000000E+00  0.00000000000E+00  0.11598052539E+04  0.11598052539E+04  0.25500000920E-02 0. -1.
        2   -1    0    0  501    0  0.00000000000E+00  0.00000000000E+00 -0.14470378784E+04  0.14470378784E+04  0.25500000920E-02 0.  1.
    10030    2    1    2    0    0  0.00000000000E+00  0.00000000000E+00 -0.28723262444E+03  0.26068431323E+04  0.25909705780E+04 0.  0.
        5    1    3    3  502    0 -0.12898656498E+04  0.88209096653E+02 -0.22612972459E+03  0.13125132310E+04  0.46999998093E+01 0. -1.
       -5    1    3    3    0  502  0.12898656498E+04 -0.88209096653E+02 -0.61102899855E+02  0.12943299013E+04  0.46999998093E+01 0.  1.
</event>
<event>
 5   0  0.4361864E-06  0.2593792E+04  0.7818609E-02  0.8370313E-01
        1   -1    0    0  501    0  0.00000000000E+00  0.00000000000E+00  0.14187808746E+04  0.14187808746E+04  0.50400001928E-02 0.  1.
       -1   -1    0    0    0  501  0.00000000000E+00  0.00000000000E+00 -0.11854817867E+04  0.11854817867E+04  0.50400001928E-02 0. -1.
    10030    2    1    2    0    0  0.00000000000E+00  0.00000000000E+00  0.23329908787E+03  0.26042626613E+04  0.25937917312E+04 0.  0.
        3    1    3    3  502    0 -0.21789984951E+03  0.12005504720E+04 -0.32459823367E+03  0.12626027894E+04  0.10100000352E+00 0. -1.
       -3    1    3    3    0  502  0.21789984951E+03 -0.12005504720E+04  0.55789732154E+03  0.13416598719E+04  0.10100000352E+00 0.  1.
</event>
<event>
 5   0  0.1085061E-05  0.2517162E+04  0.7818609E-02  0.8396897E-01
       -2   -1    0    0    0  501  0.00000000000E+00  0.00000000000E+00  0.12570572963E+04  0.12570572963E+04  0.25500000920E-02 0. -1.
        2   -1    0    0  501    0  0.00000000000E+00  0.00000000000E+00 -0.12601068342E+04  0.12601068342E+04  0.25500000920E-02 0.  1.
    10030    2    1    2    0    0  0.00000000000E+00  0.00000000000E+00 -0.30495379335E+01  0.25171641305E+04  0.25171622832E+04 0.  0.
        1    1    3    3  502    0 -0.28056905988E+03  0.94945274004E+03 -0.77860126027E+03  0.12595234914E+04  0.50400001928E-02 0.  1.
       -1    1    3    3    0  502  0.28056905988E+03 -0.94945274004E+03  0.77555172234E+03  0.12576406391E+04  0.50400001928E-02 0. -1.
</event>
<event>
 5   0  0.4361864E-06  0.2565128E+04  0.7818609E-02  0.8380144E-01
       -1   -1    0    0    0  501  0.00000000000E+00  0.00000000000E+00  0.96669594015E+03  0.96669594017E+03  0.50400001928E-02 0. -1.
        1   -1    0    0  501    0  0.00000000000E+00  0.00000000000E+00 -0.17016420162E+04  0.17016420162E+04  0.50400001928E-02 0.  1.
    10030    2    1    2    0    0  0.00000000000E+00  0.00000000000E+00 -0.73494607608E+03  0.26683379564E+04  0.25651280114E+04 0.  0.
        3    1    3    3  502    0 -0.65363061493E+03 -0.17620267891E+03 -0.15006570590E+04  0.16462842962E+04  0.10100000352E+00 0.  1.
       -3    1    3    3    0  502  0.65363061493E+03  0.17620267891E+03  0.76571098293E+03  0.10220536602E+04  0.10100000352E+00 0. -1.
</event>
<event>
 5   0  0.1085255E-05  0.2589446E+04  0.7818609E-02  0.8371795E-01
        2   -1    0    0  501    0  0.00000000000E+00  0.00000000000E+00  0.15493039504E+04  0.15493039504E+04  0.25500000920E-02 0. -1.
       -2   -1    0    0    0  501  0.00000000000E+00  0.00000000000E+00 -0.10819747430E+04  0.10819747430E+04  0.25500000920E-02 0.  1.
    10030    2    1    2    0    0  0.00000000000E+00  0.00000000000E+00  0.46732920740E+03  0.26312786935E+04  0.25894460749E+04 0.  0.
        5    1    3    3  502    0 -0.41994604272E+03  0.97377552922E+03  0.98842377188E+03  0.14496886228E+04  0.46999998093E+01 0. -1.
       -5    1    3    3    0  502  0.41994604272E+03 -0.97377552922E+03 -0.52109456449E+03  0.11815900707E+04  0.46999998093E+01 0.  1.
</event>
<event>
 5   0  0.1136881E-05  0.2587266E+04  0.7818609E-02  0.8372540E-01
       -2   -1    0    0    0  501  0.00000000000E+00  0.00000000000E+00  0.89178585535E+03  0.89178585535E+03  0.25500000920E-02 0. -1.
        2   -1    0    0  501    0  0.00000000000E+00  0.00000000000E+00 -0.18765560736E+04  0.18765560736E+04  0.25500000920E-02 0.  1.
    10030    2    1    2    0    0  0.00000000000E+00  0.00000000000E+00 -0.98477021825E+03  0.27683419290E+04  0.25872658643E+04 0.  0.
        3    1    3    3  502    0 -0.16765708692E+03 -0.24709576178E+02  0.87985725589E+03  0.89602916409E+03  0.10100000352E+00 0. -1.
       -3    1    3    3    0  502  0.16765708692E+03  0.24709576178E+02 -0.18646274741E+04  0.18723127649E+04  0.10100000352E+00 0.  1.
</event>
<event>
 5   0  0.1136881E-05  0.2604113E+04  0.7818609E-02  0.8366806E-01
       -2   -1    0    0    0  501  0.00000000000E+00  0.00000000000E+00  0.17504171719E+04  0.17504171719E+04  0.25500000920E-02 0. -1.
        2   -1    0    0  501    0  0.00000000000E+00  0.00000000000E+00 -0.96854108810E+03  0.96854108810E+03  0.25500000920E-02 0.  1.
    10030    2    1    2    0    0  0.00000000000E+00  0.00000000000E+00  0.78187608376E+03  0.27189582600E+04  0.26041128641E+04 0.  0.
        3    1    3    3  502    0  0.41780557950E+03  0.12137299783E+04  0.16302480999E+03  0.12939393577E+04  0.10100000352E+00 0.  1.
       -3    1    3    3    0  502 -0.41780557950E+03 -0.12137299783E+04  0.61885127377E+03  0.14250189023E+04  0.10100000352E+00 0. -1.
</event>
<event>
 5   0  0.4218590E-06  0.2610501E+04  0.7818609E-02  0.8364643E-01
        1   -1    0    0  501    0  0.00000000000E+00  0.00000000000E+00  0.17886659511E+04  0.17886659511E+04  0.50400001928E-02 0. -1.
       -1   -1    0    0    0  501  0.00000000000E+00  0.00000000000E+00 -0.95248582644E+03  0.95248582645E+03  0.50400001928E-02 0.  1.
    10030    2    1    2    0    0  0.00000000000E+00  0.00000000000E+00  0.83618012461E+03  0.27411517775E+04  0.26105010758E+04 0.  0.
        1    1    3    3  502    0 -0.75093734139E+01  0.11668725699E+04 -0.19601394293E+03  0.11832453046E+04  0.50400001928E-02 0.  1.
       -1    1    3    3    0  502  0.75093734139E+01 -0.11668725699E+04  0.10321940675E+04  0.15579064729E+04  0.50400001928E-02 0. -1.
</event>
<event>
 5   0  0.4464297E-06  0.2623550E+04  0.7818609E-02  0.8360245E-01
        1   -1    0    0  501    0  0.00000000000E+00  0.00000000000E+00  0.16867600648E+04  0.16867600648E+04  0.50400001928E-02 0.  1.
       -1   -1    0    0    0  501  0.00000000000E+00  0.00000000000E+00 -0.10201534600E+04  0.10201534600E+04  0.50400001928E-02 0. -1.
    10030    2    1    2    0    0  0.00000000000E+00  0.00000000000E+00  0.66660660479E+03  0.27069135248E+04  0.26235503550E+04 0.  0.
        4    1    3    3  502    0  0.25675268892E+02  0.35296202907E+03  0.16365747819E+04  0.16744013985E+04  0.12699999809E+01 0.  1.
       -4    1    3    3    0  502 -0.25675268892E+02 -0.35296202907E+03 -0.96996817715E+03  0.10325121263E+04  0.12699999809E+01 0. -1.
</event>
<event>
 5   0  0.4218590E-06  0.2565968E+04  0.7818609E-02  0.8379854E-01
        1   -1    0    0  501    0  0.00000000000E+00  0.00000000000E+00  0.12061603860E+04  0.12061603860E+04  0.50400001928E-02 0. -1.
       -1   -1    0    0    0  501  0.00000000000E+00  0.00000000000E+00 -0.13647009891E+04  0.13647009891E+04  0.50400001928E-02 0.  1.
    10030    2    1    2    0    0  0.00000000000E+00  0.00000000000E+00 -0.15854060308E+03  0.25708613751E+04  0.25659682553E+04 0.  0.
        1    1    3    3  502    0  0.11835209730E+04  0.34183118269E+02  0.41579531449E+03  0.12549008418E+04  0.50400001928E-02 0. -1.
       -1    1    3    3    0  502 -0.11835209730E+04 -0.34183118269E+02 -0.57433591757E+03  0.13159605334E+04  0.50400001928E-02 0.  1.
</event>
<event>
 5   0  0.3705250E-06  0.2595706E+04  0.7818609E-02  0.8369661E-01
       -3   -1    0    0    0  501  0.00000000000E+00  0.00000000000E+00  0.12007014921E+04  0.12007014963E+04  0.10100000352E+00 0.  1.
        3   -1    0    0  501    0  0.00000000000E+00  0.00000000000E+00 -0.14028647655E+04  0.14028647691E+04  0.10100000352E+00 0. -1.
    10030    2    1    2    0    0  0.00000000000E+00  0.00000000000E+00 -0.20216327337E+03  0.26035662655E+04  0.25957055514E+04 0.  0.
        4    1    3    3  502    0  0.94874606327E+03 -0.11707751187E+03  0.77941158143E+03  0.12334140678E+04  0.12699999809E+01 0.  1.
       -4    1    3    3    0  502 -0.94874606327E+03  0.11707751187E+03 -0.98157485481E+03  0.13701521977E+04  0.12699999809E+01 0. -1.
</event>
<event>
 5   0  0.4361864E-06  0.2611641E+04  0.7818609E-02  0.8364258E-01
        1   -1    0    0  501    0  0.00000000000E+00  0.00000000000E+00  0.15437797571E+04  0.15437797571E+04  0.50400001928E-02 0. -1.
       -1   -1    0    0    0  501  0.00000000000E+00  0.00000000000E+00 -0.11045403959E+04  0.11045403959E+04  0.50400001928E-02 0.  1.
    10030    2    1    2    0    0  0.00000000000E+00  0.00000000000E+00  0.43923936123E+03  0.26483201530E+04  0.26116409432E+04 0.  0.
        3    1    3    3  502    0 -0.14267349904E+03 -0.12423900214E+04  0.60076878402E+03  0.13873758809E+04  0.10100000352E+00 0. -1.
       -3    1    3    3    0  502  0.14267349904E+03  0.12423900214E+04 -0.16152942280E+03  0.12609442721E+04  0.10100000352E+00 0.  1.
</event>
<event>
 5   0  0.4464297E-06  0.2587822E+04  0.7818609E-02  0.8372350E-01
       -1   -1    0    0    0  501  0.00000000000E+00  0.00000000000E+00  0.61934792426E+03  0.61934792428E+03  0.50400001928E-02 0. -1.
        1   -1    0    0  501    0  0.00000000000E+00  0.00000000000E+00 -0.27031743132E+04  0.27031743132E+04  0.50400001928E-02 0.  1.
    10030    2    1    2    0    0  0.00000000000E+00  0.00000000000E+00 -0.20838263889E+04  0.33225222375E+04  0.25878217866E+04 0.  0.
        4    1    3    3  502    0  0.10260246995E+04  0.37256803800E+03 -0.19339006705E+04  0.22206996742E+04  0.12699999809E+01 0.  1.
       -4    1    3    3    0  502 -0.10260246995E+04 -0.37256803800E+03 -0.14992571842E+03  0.11018225632E+04  0.12699999809E+01 0. -1.
</event>
<event>
 5   0  0.4415080E-06  0.2598341E+04  0.7818609E-02  0.8368765E-01
       -1   -1    0    0    0  501  0.00000000000E+00  0.00000000000E+00  0.12030179763E+04  0.12030179763E+04  0.50400001928E-02 0. -1.
        1   -1    0    0  501    0  0.00000000000E+00  0.00000000000E+00 -0.14030077907E+04  0.14030077907E+04  0.50400001928E-02 0.  1.
    10030    2    1    2    0    0  0.00000000000E+00  0.00000000000E+00 -0.19998981440E+03  0.26060257670E+04  0.25983406960E+04 0.  0.
        2    1    3    3  502    0 -0.28774961435E+03  0.12648351349E+04 -0.27421829003E+02  0.12974435309E+04  0.25500000920E-02 0. -1.
       -2    1    3    3    0  502  0.28774961435E+03 -0.12648351349E+04 -0.17256798540E+03  0.13085822361E+04  0.25500000920E-02 0.  1.
</event>
<event>
 5   0  0.1086507E-05  0.2443174E+04  0.7818609E-02  0.8423515E-01
       -2   -1    0    0    0  501  0.00000000000E+00  0.00000000000E+00  0.76078359732E+03  0.76078359732E+03  0.25500000920E-02 0.  1.
        2   -1    0    0  501    0  0.00000000000E+00  0.00000000000E+00 -0.19614963854E+04  0.19614963854E+04  0.25500000920E-02 0. -1.
    10030    2    1    2    0    0  0.00000000000E+00  0.00000000000E+00 -0.12007127881E+04  0.27222799827E+04  0.24431735724E+04 0.  0.
        2    1    3    3  502    0  0.21046978978E+03  0.65893552973E+03  0.52153412974E+03  0.86630907489E+03  0.25500000920E-02 0.  1.
       -2    1    3    3    0  502 -0.21046978978E+03 -0.65893552973E+03 -0.17222469178E+04  0.18559709078E+04  0.25500000920E-02 0. -1.
</event>
<event>
 5   0  0.4597705E-06  0.2602991E+04  0.7818609E-02  0.8367186E-01
       -1   -1    0    0    0  501  0.00000000000E+00  0.00000000000E+00  0.70723458229E+03  0.70723458231E+03  0.50400001928E-02 0. -1.
        1   -1    0    0  501    0  0.00000000000E+00  0.00000000000E+00 -0.23950893211E+04  0.23950893211E+04  0.50400001928E-02 0.  1.
    10030    2    1    2    0    0  0.00000000000E+00  0.00000000000E+00 -0.16878547388E+04  0.31023239035E+04  0.26029905844E+04 0.  0.
        5    1    3    3  502    0  0.12675855136E+04 -0.24973649796E+03 -0.65651582870E+03  0.14491985633E+04  0.46999998093E+01 0. -1.
       -5    1    3    3    0  502 -0.12675855136E+04  0.24973649796E+03 -0.10313389101E+04  0.16531253401E+04  0.46999998093E+01 0.  1.
</event>
<event>
 5   0  0.4361864E-06  0.2588896E+04  0.7818609E-02  0.8371983E-01
       -1   -1    0    0    0  501  0.00000000000E+00  0.00000000000E+00  0.12101157742E+04  0.12101157742E+04  0.50400001928E-02 0.  1.
        1   -1    0    0  501    0  0.00000000000E+00  0.00000000000E+00 -0.13846574733E+04  0.13846574733E+04  0.50400001928E-02 0. -1.
    10030    2    1    2    0    0  0.00000000000E+00  0.00000000000E+00 -0.17454169914E+03  0.25947732475E+04  0.25888961743E+04 0.  0.
        3    1    3    3  502    0  0.98413206318E+03  0.82848041815E+03  0.56931122671E+02  0.12876866404E+04  0.10100000352E+00 0. -1.
       -3    1    3    3    0  502 -0.98413206318E+03 -0.82848041815E+03 -0.23147282181E+03  0.13070866071E+04  0.10100000352E+00 0.  1.
</event>
<event>
 5   0  0.1086507E-05  0.2673329E+04  0.7818609E-02  0.8343711E-01
        2   -1    0    0  501    0  0.00000000000E+00  0.00000000000E+00  0.12098442837E+04  0.12098442837E+04  0.25500000920E-02 0. -1.
       -2   -1    0    0    0  501  0.00000000000E+00  0.00000000000E+00 -0.14767789512E+04  0.14767789512E+04  0.25500000920E-02 0.  1.
    10030    2    1    2    0    0  0.00000000000E+00  0.00000000000E+00 -0.26693466752E+03  0.26866232350E+04  0.26733294391E+04 0.  0.
        2    1    3    3  502    0  0.12356380954E+04 -0.33269418527E+03  0.25469894941E+03  0.13047446028E+04  0.25500000920E-02 0. -1.
       -2    1    3    3    0  502 -0.12356380954E+04  0.33269418527E+03 -0.52163361693E+03  0.13818786322E+04  0.25500000920E-02 0.  1.
</event>
<event>
 5   0  0.4415080E-06  0.2598318E+04  0.7818609E-02  0.8368773E-01
       -1   -1    0    0    0  501  0.00000000000E+00  0.00000000000E+00  0.11743690677E+04  0.11743690677E+04  0.50400001928E-02 0.  1.
        1   -1    0    0  501    0  0.00000000000E+00  0.00000000000E+00 -0.14372089243E+04  0.14372089243E+04  0.50400001928E-02 0. -1.
    10030    2    1    2    0    0  0.00000000000E+00  0.00000000000E+00 -0.26283985659E+03  0.26115779920E+04  0.25983176900E+04 0.  0.
        2    1    3    3  502    0 -0.75004275137E+03 -0.72796690926E+03  0.64408347575E+03  0.12277391717E+04  0.25500000920E-02 0.  1.
       -2    1    3    3    0  502  0.75004275137E+03  0.72796690926E+03 -0.90692333234E+03  0.13838388203E+04  0.25500000920E-02 0. -1.
</event>
<event>
 5   0  0.4597705E-06  0.2628766E+04  0.7818609E-02  0.8358495E-01
       -1   -1    0    0    0  501  0.00000000000E+00  0.00000000000E+00  0.99464342010E+03  0.99464342011E+03  0.50400001928E-02 0. -1.
        1   -1    0    0  501    0  0.00000000000E+00  0.00000000000E+00 -0.17369066427E+04  0.17369066427E+04  0.50400001928E-02 0.  1.
    10030    2    1    2    0    0  0.00000000000E+00  0.00000000000E+00 -0.74226322262E+03  0.27315500628E+04  0.26287660706E+04 0.  0.
        5    1    3    3  502    0  0.13071504221E+04 -0.38732832226E+02 -0.50834871267E+03  0.14030619951E+04  0.46999998093E+01 0.  1.
       -5    1    3    3    0  502 -0.13071504221E+04  0.38732832226E+02 -0.23391450995E+03  0.13284880678E+04  0.46999998093E+01 0. -1.
</event>
<event>
 5   0  0.1085061E-05  0.2601553E+04  0.7818609E-02  0.8367674E-01
        2   -1    0    0  501    0  0.00000000000E+00  0.00000000000E+00  0.13247576363E+04  0.13247576363E+04  0.25500000920E-02 0.  1.
       -2   -1    0    0    0  501  0.00000000000E+00  0.00000000000E+00 -0.12772294494E+04  0.12772294494E+04  0.25500000920E-02 0. -1.
    10030    2    1    2    0    0  0.00000000000E+00  0.00000000000E+00  0.47528186950E+02  0.26019870857E+04  0.26015529719E+04 0.  0.
        1    1    3    3  502    0 -0.42797725342E+03 -0.34093879400E+03 -0.11565242095E+04  0.12794342648E+04  0.50400001928E-02 0. -1.
       -1    1    3    3    0  502  0.42797725342E+03  0.34093879400E+03  0.12040523965E+04  0.13225528209E+04  0.50400001928E-02 0.  1.
</event>
<event>
 5   0  0.1086507E-05  0.2581611E+04  0.7818609E-02  0.8374474E-01
        2   -1    0    0  501    0  0.00000000000E+00  0.00000000000E+00  0.20057000983E+04  0.20057000983E+04  0.25500000920E-02 0. -1.
       -2   -1    0    0    0  501  0.00000000000E+00  0.00000000000E+00 -0.83072204035E+03  0.83072204035E+03  0.25500000920E-02 0.  1.
    10030    2    1    2    0    0  0.00000000000E+00  0.00000000000E+00  0.11749780580E+04  0.28364221387E+04  0.25816113403E+04 0.  0.
        2    1    3    3  502    0  0.91566644153E+03  0.12969405024E+03 -0.40190053455E+03  0.10083598656E+04  0.25500000920E-02 0.  1.
       -2    1    3    3    0  502 -0.91566644153E+03 -0.12969405024E+03  0.15768785925E+04  0.18280622731E+04  0.25500000920E-02 0. -1.
</event>
<event>
 5   0  0.1116310E-05  0.2456218E+04  0.7818609E-02  0.8418751E-01
       -2   -1    0    0    0  501  0.00000000000E+00  0.00000000000E+00  0.10796658450E+04  0.10796658450E+04  0.25500000920E-02 0. -1.
        2   -1    0    0  501    0  0.00000000000E+00  0.00000000000E+00 -0.13969619949E+04  0.13969619949E+04  0.25500000920E-02 0.  1.
    10030    2    1    2    0    0  0.00000000000E+00  0.00000000000E+00 -0.31729614995E+03  0.24766278399E+04  0.24562183556E+04 0.  0.
        4    1    3    3  502    0 -0.86769534008E+03 -0.36046809361E+03  0.63875700382E+03  0.11361534107E+04  0.12699999809E+01 0. -1.
       -4    1    3    3    0  502  0.86769534008E+03  0.36046809361E+03 -0.95605315377E+03  0.13404744292E+04  0.12699999809E+01 0.  1.
</event>
<event>
 5   0  0.1085255E-05  0.2636353E+04  0.7818609E-02  0.8355957E-01
       -2   -1    0    0    0  501  0.00000000000E+00  0.00000000000E+00  0.21068063264E+04  0.21068063264E+04  0.25500000920E-02 0. -1.
        2   -1    0    0  501    0  0.00000000000E+00  0.00000000000E+00 -0.82475029565E+03  0.82475029565E+03  0.25500000920E-02 0.  1.
    10030    2    1    2    0    0  0.00000000000E+00  0.00000000000E+00  0.12820560308E+04  0.29315566221E+04  0.26363528903E+04 0.  0.
        5    1    3    3  502    0 -0.86390104203E+03  0.97913944609E+03  0.84157832038E+03  0.15534848646E+04  0.46999998093E+01 0.  1.
       -5    1    3    3    0  502  0.86390104203E+03 -0.97913944609E+03  0.44047771039E+03  0.13780717574E+04  0.46999998093E+01 0. -1.
</event>
<event>
 5   0  0.1116310E-05  0.2612381E+04  0.7818609E-02  0.8364008E-01
        2   -1    0    0  501    0  0.00000000000E+00  0.00000000000E+00  0.21368187584E+04  0.21368187584E+04  0.25500000920E-02 0.  1.
       -2   -1    0    0    0  501  0.00000000000E+00  0.00000000000E+00 -0.79844587825E+03  0.79844587825E+03  0.25500000920E-02 0. -1.
    10030    2    1    2    0    0  0.00000000000E+00  0.00000000000E+00  0.13383728802E+04  0.29352646367E+04  0.26123813889E+04 0.  0.
        4    1    3    3  502    0 -0.50424665828E+03  0.33769805726E+03  0.19687897149E+04  0.20602036852E+04  0.12699999809E+01 0.  1.
       -4    1    3    3    0  502  0.50424665828E+03 -0.33769805726E+03 -0.63041683474E+03  0.87506095142E+03  0.12699999809E+01 0. -1.
</event>
<event>
 5   0  0.1085061E-05  0.2599500E+04  0.7818609E-02  0.8368371E-01
       -2   -1    0    0    0  501  0.00000000000E+00  0.00000000000E+00  0.95014593149E+03  0.95014593149E+03  0.25500000920E-02 0. -1.
        2   -1    0    0  501    0  0.00000000000E+00  0.00000000000E+00 -0.17779895627E+04  0.17779895627E+04  0.25500000920E-02 0.  1.
    10030    2    1    2    0    0  0.00000000000E+00  0.00000000000E+00 -0.82784363120E+03  0.27281354942E+04  0.25994996051E+04 0.  0.
        1    1    3    3  502    0  0.42606305850E+03  0.48784089008E+03 -0.15965525392E+04  0.17229331021E+04  0.50400001928E-02 0.  1.
       -1    1    3    3    0  502 -0.42606305850E+03 -0.48784089008E+03  0.76870890798E+03  0.10052023921E+04  0.50400001928E-02 0. -1.
</event>
<event>
 5   0  0.4464297E-06  0.2608937E+04  0.7818609E-02  0.8365172E-01
       -1   -1    0    0    0  501  0.00000000000E+00  0.00000000000E+00  0.13132200145E+04  0.13132200145E+04  0.50400001928E-02 0. -1.
        1   -1    0    0  501    0  0.00000000000E+00  0.00000000000E+00 -0.12957750302E+04  0.12957750302E+04  0.50400001928E-02 0.  1.
    10030    2    1    2    0    0  0.00000000000E+00  0.00000000000E+00  0.17444984237E+02  0.26089950447E+04  0.26089367213E+04 0.  0.
        4    1    3    3  502    0  0.83290446185E+03  0.46399853384E+03 -0.88158478490E+03  0.12985445036E+04  0.12699999809E+01 0.  1.
       -4    1    3    3    0  502 -0.83290446185E+03 -0.46399853384E+03  0.89902976914E+03  0.13104505411E+04  0.12699999809E+01 0. -1.
</event>
<event>
 5   0  0.1086507E-05  0.2609259E+04  0.7818609E-02  0.8365063E-01
        2   -1    0    0  501    0  0.00000000000E+00  0.00000000000E+00  0.10948554891E+04  0.10948554891E+04  0.25500000920E-02 0.  1.
       -2   -1    0    0    0  501  0.00000000000E+00  0.00000000000E+00 -0.15545962941E+04  0.15545962941E+04  0.25500000920E-02 0. -1.
    10030    2    1    2    0    0  0.00000000000E+00  0.00000000000E+00 -0.45974080501E+03  0.26494517832E+04  0.26092591177E+04 0.  0.
        2    1    3    3  502    0  0.10267746734E+04  0.10815504512E+03  0.57997038311E+03  0.11841998941E+04  0.25500000920E-02 0.  1.
       -2    1    3    3    0  502 -0.10267746734E+04 -0.10815504512E+03 -0.10397111881E+04  0.14652518891E+04  0.25500000920E-02 0. -1.
</event>
<event>
 5   0  0.1136881E-05  0.2587634E+04  0.7818609E-02  0.8372414E-01
        2   -1    0    0  501    0  0.00000000000E+00  0.00000000000E+00  0.14810077387E+04  0.14810077387E+04  0.25500000920E-02 0.  1.
       -2   -1    0    0    0  501  0.00000000000E+00  0.00000000000E+00 -0.11302863225E+04  0.11302863225E+04  0.25500000920E-02 0. -1.
    10030    2    1    2    0    0  0.00000000000E+00  0.00000000000E+00  0.35072141622E+03  0.26112940613E+04  0.25876342792E+04 0.  0.
        3    1    3    3  502    0 -0.92382209401E+03 -0.87375100065E+03  0.41644823071E+03  0.13380273583E+04  0.10100000352E+00 0. -1.
       -3    1    3    3    0  502  0.92382209401E+03  0.87375100065E+03 -0.65726814488E+02  0.12732667030E+04  0.10100000352E+00 0.  1.
</event>
<event>
 5   0  0.3705250E-06  0.2597850E+04  0.7818609E-02  0.8368932E-01
       -4   -1    0    0    0  501  0.00000000000E+00  0.00000000000E+00  0.15431530984E+04  0.15431536210E+04  0.12699999809E+01 0. -1.
        4   -1    0    0  501    0  0.00000000000E+00  0.00000000000E+00 -0.10933484767E+04  0.10933492143E+04  0.12699999809E+01 0.  1.
    10030    2    1    2    0    0  0.00000000000E+00  0.00000000000E+00  0.44980462166E+03  0.26365028353E+04  0.25978496883E+04 0.  0.
        4    1    3    3  502    0  0.70835876001E+03  0.10450616649E+04  0.53486121656E+03  0.13711324335E+04  0.12699999809E+01 0. -1.
       -4    1    3    3    0  502 -0.70835876001E+03 -0.10450616649E+04 -0.85056594898E+02  0.12653704018E+04  0.12699999809E+01 0.  1.
</event>
<event>
 5   0  0.1085061E-05  0.2575025E+04  0.7818609E-02  0.8376734E-01
        2   -1    0    0  501    0  0.00000000000E+00  0.00000000000E+00  0.20564124177E+04  0.20564124177E+04  0.25500000920E-02 0.  1.
       -2   -1    0    0    0  501  0.00000000000E+00  0.00000000000E+00 -0.80610688003E+03  0.80610688004E+03  0.25500000920E-02 0. -1.
    10030    2    1    2    0    0  0.00000000000E+00  0.00000000000E+00  0.12503055377E+04  0.28625192977E+04  0.25750248139E+04 0.  0.
        1    1    3    3  502    0 -0.11636266630E+03  0.31411998698E+03  0.20071214987E+04  0.20348828829E+04  0.50400001928E-02 0.  1.
       -1    1    3    3    0  502  0.11636266630E+03 -0.31411998698E+03 -0.75681596104E+03  0.82763641488E+03  0.50400001928E-02 0. -1.
</event>
<event>
 5   0  0.4218590E-06  0.2594942E+04  0.7818609E-02  0.8369921E-01
        1   -1    0    0  501    0  0.00000000000E+00  0.00000000000E+00  0.22651738688E+04  0.22651738688E+04  0.50400001928E-02 0. -1.
       -1   -1    0    0    0  501  0.00000000000E+00  0.00000000000E+00 -0.74317942233E+03  0.74317942235E+03  0.50400001928E-02 0.  1.
    10030    2    1    2    0    0  0.00000000000E+00  0.00000000000E+00  0.15219944464E+04  0.30083532911E+04  0.25949417005E+04 0.  0.
        1    1    3    3  502    0 -0.11041504165E+04 -0.19460228716E+03  0.39618861269E+01  0.11211752267E+04  0.50400001928E-02 0.  1.
       -1    1    3    3    0  502  0.11041504165E+04  0.19460228716E+03  0.15180325603E+04  0.18871780644E+04  0.50400001928E-02 0. -1.
</event>
<event>
 5   0  0.1086507E-05  0.2598249E+04  0.7818609E-02  0.8368796E-01
        2   -1    0    0  501    0  0.00000000000E+00  0.00000000000E+00  0.92302705715E+03  0.92302705715E+03  0.25500000920E-02 0. -1.
       -2   -1    0    0    0  501  0.00000000000E+00  0.00000000000E+00 -0.18284663729E+04  0.18284663729E+04  0.25500000920E-02 0.  1.
    10030    2    1    2    0    0  0.00000000000E+00  0.00000000000E+00 -0.90543931580E+03  0.27514934301E+04  0.25982485911E+04 0.  0.
        2    1    3    3  502    0  0.21505869276E+03  0.98002972872E+03 -0.13266287425E+04  0.16633256840E+04  0.25500000920E-02 0.  1.
       -2    1    3    3    0  502 -0.21505869276E+03 -0.98002972872E+03  0.42118942672E+03  0.10881677461E+04  0.25500000920E-02 0. -1.
</event>
<event>
 5   0  0.4597705E-06  0.2588611E+04  0.7818609E-02  0.8372080E-01
        1   -1    0    0  501    0  0.00000000000E+00  0.00000000000E+00  0.12413444507E+04  0.12413444507E+04  0.50400001928E-02 0. -1.
       -1   -1    0    0    0  501  0.00000000000E+00  0.00000000000E+00 -0.13495266066E+04  0.13495266066E+04  0.50400001928E-02 0.  1.
    10030    2    1    2    0    0  0.00000000000E+00  0.00000000000E+00 -0.10818215586E+03  0.25908710573E+04  0.25886114921E+04 0.  0.
        5    1    3    3  502    0  0.24359349218E+02 -0.57126702208E+03 -0.12162531495E+04  0.13439617562E+04  0.46999998093E+01 0.  1.
       -5    1    3    3    0  502 -0.24359349218E+02  0.57126702208E+03  0.11080709936E+04  0.12469093012E+04  0.46999998093E+01 0. -1.
</event>
<event>
 5   0  0.1085255E-05  0.2588206E+04  0.7818609E-02  0.8372219E-01
       -2   -1    0    0    0  501  0.00000000000E+00  0.00000000000E+00  0.16178733508E+04  0.16178733508E+04  0.25500000920E-02 0. -1.
        2   -1    0    0  501    0  0.00000000000E+00  0.00000000000E+00 -0.10351256190E+04  0.10351256190E+04  0.25500000920E-02 0.  1.
    10030    2    1    2    0    0  0.00000000000E+00  0.00000000000E+00  0.58274773178E+03  0.26529989698E+04  0.25882056748E+04 0.  0.
        5    1    3    3  502    0  0.78217890099E+03 -0.27570987517E+03 -0.72690360298E+03  0.11028285027E+04  0.46999998093E+01 0.  1.
       -5    1    3    3    0  502 -0.78217890099E+03  0.27570987517E+03  0.13096513348E+04  0.15501704671E+04  0.46999998093E+01 0. -1.
</event>
<event>
 5   0  0.4464297E-06  0.2607400E+04  0.7818609E-02  0.8365692E-01
        1   -1    0    0  501    0  0.00000000000E+00  0.00000000000E+00  0.10716103394E+04  0.10716103394E+04  0.50400001928E-02 0. -1.
       -1   -1    0    0    0  501  0.00000000000E+00  0.00000000000E+00 -0.15860553729E+04  0.15860553729E+04  0.50400001928E-02 0.  1.
    10030    2    1    2    0    0  0.00000000000E+00  0.00000000000E+00 -0.51444503349E+03  0.26576657123E+04  0.26073997289E+04 0.  0.
        4    1    3    3  502    0  0.71316738208E+03  0.63148469966E+03 -0.11644666283E+04  0.15044483315E+04  0.12699999809E+01 0.  1.
       -4    1    3    3    0  502 -0.71316738208E+03 -0.63148469966E+03  0.65002159485E+03  0.11532173808E+04  0.12699999809E+01 0. -1.
</event>
<event>
 5   0  0.1116310E-05  0.2596225E+04  0.7818609E-02  0.8369485E-01
        2   -1    0    0  501    0  0.00000000000E+00  0.00000000000E+00  0.17390776264E+04  0.17390776264E+04  0.25500000920E-02 0. -1.
       -2   -1    0    0    0  501  0.00000000000E+00  0.00000000000E+00 -0.96895935757E+03  0.96895935757E+03  0.25500000920E-02 0.  1.
    10030    2    1    2    0    0  0.00000000000E+00  0.00000000000E+00  0.77011826886E+03  0.27080369840E+04  0.25962245971E+04 0.  0.
        4    1    3    3  502    0 -0.53040898352E+03 -0.82481823825E+02  0.16178909906E+04  0.17046142706E+04  0.12699999809E+01 0. -1.
       -4    1    3    3    0  502  0.53040898352E+03  0.82481823825E+02 -0.84777272178E+03  0.10034227134E+04  0.12699999809E+01 0.  1.
</event>
<event>
 5   0  0.4218590E-06  0.2590154E+04  0.7818609E-02  0.8371554E-01
       -1   -1    0    0    0  501  0.00000000000E+00  0.00000000000E+00  0.12010488911E+04  0.12010488911E+04  0.50400001928E-02 0. -1.
        1   -1    0    0  501    0  0.00000000000E+00  0.00000000000E+00 -0.13964659019E+04  0.13964659019E+04  0.50400001928E-02 0.  1.
    10030    2    1    2    0    0  0.00000000000E+00  0.00000000000E+00 -0.19541701081E+03  0.25975147929E+04  0.25901535266E+04 0.  0.
        1    1    3    3  502    0  0.66999115855E+03 -0.60443532008E+03 -0.10293231648E+04  0.13688449095E+04  0.50400001928E-02 0.  1.
       -1    1    3    3    0  502 -0.66999115855E+03  0.60443532008E+03  0.83390615400E+03  0.12286698834E+04  0.50400001928E-02 0. -1.
</event>
<event>
 5   0  0.1085061E-05  0.2565363E+04  0.7818609E-02  0.8380063E-01
        2   -1    0    0  501    0  0.00000000000E+00  0.00000000000E+00  0.14939697803E+04  0.14939697803E+04  0.25500000920E-02 0. -1.
       -2   -1    0    0    0  501  0.00000000000E+00  0.00000000000E+00 -0.11012749910E+04  0.11012749910E+04  0.25500000920E-02 0.  1.
    10030    2    1    2    0    0  0.00000000000E+00  0.00000000000E+00  0.39269478927E+03  0.25952447713E+04  0.25653627863E+04 0.  0.
        1    1    3    3  502    0 -0.40234796303E+03 -0.86241378649E+02  0.14253855657E+04  0.14835920833E+04  0.50400001928E-02 0. -1.
       -1    1    3    3    0  502  0.40234796303E+03  0.86241378649E+02 -0.10326907765E+04  0.11116526879E+04  0.50400001928E-02 0.  1.
</event>
<event>
 5   0  0.4464297E-06  0.2575376E+04  0.7818609E-02  0.8376614E-01
       -1   -1    0    0    0  501  0.00000000000E+00  0.00000000000E+00  0.12383088591E+04  0.12383088591E+04  0.50400001928E-02 0. -1.
        1   -1    0    0  501    0  0.00000000000E+00  0.00000000000E+00 -0.13390359219E+04  0.13390359219E+04  0.50400001928E-02 0.  1.
    10030    2    1    2    0    0  0.00000000000E+00  0.00000000000E+00 -0.10072706278E+03  0.25773447811E+04  0.25753757356E+04 0.  0.
        4    1    3    3  502    0  0.12711334998E+04  0.15735246288E+03 -0.18312339127E+03  0.12938608740E+04  0.12699999809E+01 0.  1.
       -4    1    3    3    0  502 -0.12711334998E+04 -0.15735246288E+03  0.82396328489E+02  0.12834839071E+04  0.12699999809E+01 0. -1.
</event>
<event>
 5   0  0.1136881E-05  0.2568974E+04  0.7818609E-02  0.8378817E-01
        2   -1    0    0  501    0  0.00000000000E+00  0.00000000000E+00  0.17662257138E+04  0.17662257138E+04  0.25500000920E-02 0. -1.
       -2   -1    0    0    0  501  0.00000000000E+00  0.00000000000E+00 -0.93414242546E+03  0.93414242546E+03  0.25500000920E-02 0.  1.
    10030    2    1    2    0    0  0.00000000000E+00  0.00000000000E+00  0.83208328833E+03  0.27003681392E+04  0.25689736255E+04 0.  0.
        3    1    3    3  502    0  0.15253201692E+03  0.71697866881E+03 -0.69269737468E+03  0.10085405747E+04  0.10100000352E+00 0.  1.
       -3    1    3    3    0  502 -0.15253201692E+03 -0.71697866881E+03  0.15247806630E+04  0.16918275646E+04  0.10100000352E+00 0. -1.
</event>
<event>
 5   0  0.4361864E-06  0.2595128E+04  0.7818609E-02  0.8369858E-01
       -1   -1    0    0    0  501  0.00000000000E+00  0.00000000000E+00  0.12729919358E+04  0.12729919358E+04  0.50400001928E-02 0.  1.
        1   -1    0    0  501    0  0.00000000000E+00  0.00000000000E+00 -0.13226102573E+04  0.13226102573E+04  0.50400001928E-02 0. -1.
    10030    2    1    2    0    0  0.00000000000E+00  0.00000000000E+00 -0.49618321486E+02  0.25956021931E+04  0.25951278903E+04 0.  0.
        3    1    3    3  502    0  0.46218921543E+03  0.85174045201E+03 -0.88786403210E+03  0.13142995161E+04  0.10100000352E+00 0. -1.
       -3    1    3    3    0  502 -0.46218921543E+03 -0.85174045201E+03  0.83824571061E+03  0.12813026770E+04  0.10100000352E+00 0.  1.
</event>
<event>
 5   0  0.1085061E-05  0.2589196E+04  0.7818609E-02  0.8371880E-01
       -2   -1    0    0    0  501  0.00000000000E+00  0.00000000000E+00  0.14460114867E+04  0.14460114867E+04  0.25500000920E-02 0. -1.
        2   -1    0    0  501    0  0.00000000000E+00  0.00000000000E+00 -0.11590393991E+04  0.11590393991E+04  0.25500000920E-02 0.  1.
    10030    2    1    2    0    0  0.00000000000E+00  0.00000000000E+00  0.28697208760E+03  0.26050508858E+04  0.25891962340E+04 0.  0.
        1    1    3    3  502    0  0.10885724727E+04 -0.24227595896E+03  0.80500479996E+03  0.13753982683E+04  0.50400001928E-02 0. -1.
       -1    1    3    3    0  502 -0.10885724727E+04  0.24227595896E+03 -0.51803271236E+03  0.12296526175E+04  0.50400001928E-02 0.  1.
</event>
<event>
 5   0  0.4464297E-06  0.2688161E+04  0.7818609E-02  0.8338856E-01
        1   -1    0    0  501    0  0.00000000000E+00  0.00000000000E+00  0.84058813620E+03  0.84058813621E+03  0.50400001928E-02 0.  1.
       -1   -1    0    0    0  501  0.00000000000E+00  0.00000000000E+00 -0.21491534539E+04  0.21491534539E+04  0.50400001928E-02 0. -1.
    10030    2    1    2    0    0  0.00000000000E+00  0.00000000000E+00 -0.13085653177E+04  0.29897415902E+04  0.26881613763E+04 0.  0.
        4    1    3    3  502    0  0.10421968237E+04 -0.15548329899E+03 -0.15822783331E+04  0.19010406655E+04  0.12699999809E+01 0. -1.
       -4    1    3    3    0  502 -0.10421968237E+04  0.15548329899E+03  0.27371301535E+03  0.10887009246E+04  0.12699999809E+01 0.  1.
</event>
<event>
 5   0  0.1136881E-05  0.2588087E+04  0.7818609E-02  0.8372259E-01
       -2   -1    0    0    0  501  0.00000000000E+00  0.00000000000E+00  0.13694324063E+04  0.13694324063E+04  0.25500000920E-02 0. -1.
        2   -1    0    0  501    0  0.00000000000E+00  0.00000000000E+00 -0.12228050390E+04  0.12228050390E+04  0.25500000920E-02 0.  1.
    10030    2    1    2    0    0  0.00000000000E+00  0.00000000000E+00  0.14662736729E+03  0.25922374453E+04  0.25880872064E+04 0.  0.
        3    1    3    3  502    0 -0.40513966882E+03  0.12287999524E+04  0.94827481783E+02  0.12973356295E+04  0.10100000352E+00 0.  1.
       -3    1    3    3    0  502  0.40513966882E+03 -0.12287999524E+04  0.51799885507E+02  0.12949018158E+04  0.10100000352E+00 0. -1.
</event>
<event>
 5   0  0.4464297E-06  0.2605024E+04  0.7818609E-02  0.8366497E-01
       -1   -1    0    0    0  501  0.00000000000E+00  0.00000000000E+00  0.12056756002E+04  0.12056756002E+04  0.50400001928E-02 0.  1.
        1   -1    0    0  501    0  0.00000000000E+00  0.00000000000E+00 -0.14071257121E+04  0.14071257121E+04  0.50400001928E-02 0. -1.
    10030    2    1    2    0    0  0.00000000000E+00  0.00000000000E+00 -0.20145011187E+03  0.26128013123E+04  0.26050237139E+04 0.  0.
        4    1    3    3  502    0 -0.31136706402E+03 -0.51134003164E+03 -0.12609489927E+04  0.13958553119E+04  0.12699999809E+01 0. -1.
       -4    1    3    3    0  502  0.31136706402E+03  0.51134003164E+03  0.10594988809E+04  0.12169460004E+04  0.12699999809E+01 0.  1.
</event>
<event>
 5   0  0.3705250E-06  0.2604802E+04  0.7818609E-02  0.8366572E-01
       -3   -1    0    0    0  501  0.00000000000E+00  0.00000000000E+00  0.22092993958E+04  0.22092993981E+04  0.10100000352E+00 0.  1.
        3   -1    0    0  501    0  0.00000000000E+00  0.00000000000E+00 -0.76777632810E+03  0.76777633474E+03  0.10100000352E+00 0. -1.
    10030    2    1    2    0    0  0.00000000000E+00  0.00000000000E+00  0.14415230677E+04  0.29770757328E+04  0.26048015595E+04 0.  0.
        1    1    3    3  502    0 -0.18673803899E+03  0.47109900957E+02  0.21929351409E+04  0.22013756994E+04  0.50400001928E-02 0.  1.
       -1    1    3    3    0  502  0.18673803899E+03 -0.47109900957E+02 -0.75141207322E+03  0.77570003337E+03  0.50400001928E-02 0. -1.
</event>
<event>
 5   0  0.4464297E-06  0.2553993E+04  0.7818609E-02  0.8383999E-01
       -1   -1    0    0    0  501  0.00000000000E+00  0.00000000000E+00  0.21178186041E+04  0.21178186041E+04  0.50400001928E-02 0.  1.
        1   -1    0    0  501    0  0.00000000000E+00  0.00000000000E+00 -0.77000006049E+03  0.77000006051E+03  0.50400001928E-02 0. -1.
    10030    2    1    2    0    0  0.00000000000E+00  0.00000000000E+00  0.13478185436E+04  0.28878186646E+04  0.25539933072E+04 0.  0.
        4    1    3    3  502    0 -0.39978659469E+03  0.44139026093E+03  0.19511901753E+04  0.20400488712E+04  0.12699999809E+01 0.  1.
       -4    1    3    3    0  502  0.39978659469E+03 -0.44139026093E+03 -0.60337163172E+03  0.84776979340E+03  0.12699999809E+01 0. -1.
</event>
<event>
 5   0  0.4597705E-06  0.2565044E+04  0.7818609E-02  0.8380173E-01
        1   -1    0    0  501    0  0.00000000000E+00  0.00000000000E+00  0.10606984147E+04  0.10606984147E+04  0.50400001928E-02 0.  1.
       -1   -1    0    0    0  501  0.00000000000E+00  0.00000000000E+00 -0.15507352484E+04  0.15507352484E+04  0.50400001928E-02 0. -1.
    10030    2    1    2    0    0  0.00000000000E+00  0.00000000000E+00 -0.49003683370E+03  0.26114336631E+04  0.25650437965E+04 0.  0.
        5    1    3    3  502    0 -0.84864823601E+03 -0.32301108450E+03 -0.11671027841E+04  0.14787464245E+04  0.46999998093E+01 0. -1.
       -5    1    3    3    0  502  0.84864823601E+03  0.32301108450E+03  0.67706595043E+03  0.11326872386E+04  0.46999998093E+01 0.  1.
</event>
<event>
 5   0  0.1086507E-05  0.2594450E+04  0.7818609E-02  0.8370089E-01
       -2   -1    0    0    0  501  0.00000000000E+00  0.00000000000E+00  0.15387197461E+04  0.15387197461E+04  0.25500000920E-02 0. -1.
        2   -1    0    0  501    0  0.00000000000E+00  0.00000000000E+00 -0.10936320762E+04  0.10936320762E+04  0.25500000920E-02 0.  1.
    10030    2    1    2    0    0  0.00000000000E+00  0.00000000000E+00  0.44508766996E+03  0.26323518223E+04  0.25944504394E+04 0.  0.
        2    1    3    3  502    0  0.11219196540E+04 -0.13076557691E+03 -0.42473347543E+03  0.12067318971E+04  0.25500000920E-02 0.  1.
       -2    1    3    3    0  502 -0.11219196540E+04  0.13076557691E+03  0.86982114540E+03  0.14256199252E+04  0.25500000920E-02 0. -1.
</event>
<event>
 5   0  0.1116310E-05  0.2599575E+04  0.7818609E-02  0.8368345E-01
       -2   -1    0    0    0  501  0.00000000000E+00  0.00000000000E+00  0.95818281002E+03  0.95818281002E+03  0.25500000920E-02 0.  1.
        2   -1    0    0  501    0  0.00000000000E+00  0.00000000000E+00 -0.17631791144E+04  0.17631791144E+04  0.25500000920E-02 0. -1.
    10030    2    1    2    0    0  0.00000000000E+00  0.00000000000E+00 -0.80499630437E+03  0.27213619244E+04  0.25995752872E+04 0.  0.
        4    1    3    3  502    0 -0.67235913450E+03 -0.83292558290E+03 -0.11743419342E+04  0.15889973013E+04  0.12699999809E+01 0. -1.
       -4    1    3    3    0  502  0.67235913450E+03  0.83292558290E+03  0.36934562982E+03  0.11323646231E+04  0.12699999809E+01 0.  1.
</event>
<event>
 5   0  0.1085255E-05  0.2599399E+04  0.7818609E-02  0.8368405E-01
       -2   -1    0    0    0  501  0.00000000000E+00  0.00000000000E+00  0.89587385997E+03  0.89587385997E+03  0.25500000920E-02 0.  1.
        2   -1    0    0  501    0  0.00000000000E+00  0.00000000000E+00 -0.18855549529E+04  0.18855549529E+04  0.25500000920E-02 0. -1.
    10030    2    1    2    0    0  0.00000000000E+00  0.00000000000E+00 -0.98968109294E+03  0.27814288129E+04  0.25993994644E+04 0.  0.
        5    1    3    3  502    0 -0.64134935544E+03  0.74946770745E+03  0.41068751695E+03  0.10685116597E+04  0.46999998093E+01 0.  1.
       -5    1    3    3    0  502  0.64134935544E+03 -0.74946770745E+03 -0.14003686099E+04  0.17129171532E+04  0.46999998093E+01 0. -1.
</event>
<event>
 5   0  0.1085255E-05  0.2612754E+04  0.7818609E-02  0.8363882E-01
        2   -1    0    0  501    0  0.00000000000E+00  0.00000000000E+00  0.20275192661E+04  0.20275192661E+04  0.25500000920E-02 0. -1.
       -2   -1    0    0    0  501  0.00000000000E+00  0.00000000000E+00 -0.84172842573E+03  0.84172842574E+03  0.25500000920E-02 0.  1.
    10030    2    1    2    0    0  0.00000000000E+00  0.00000000000E+00  0.11857908404E+04  0.28692476919E+04  0.26127537963E+04 0.  0.
        5    1    3    3  502    0 -0.76291284617E+03 -0.20241053990E+03 -0.55025279659E+03  0.96218827039E+03  0.46999998093E+01 0.  1.
       -5    1    3    3    0  502  0.76291284617E+03  0.20241053990E+03  0.17360436370E+04  0.19070594215E+04  0.46999998093E+01 0. -1.
</event>
<event>
 5   0  0.4464297E-06  0.2595453E+04  0.7818609E-02  0.8369747E-01
        1   -1    0    0  501    0  0.00000000000E+00  0.00000000000E+00  0.13728296173E+04  0.13728296173E+04  0.50400001928E-02 0.  1.
       -1   -1    0    0    0  501  0.00000000000E+00  0.00000000000E+00 -0.12267323002E+04  0.12267323002E+04  0.50400001928E-02 0. -1.
    10030    2    1    2    0    0  0.00000000000E+00  0.00000000000E+00  0.14609731712E+03  0.25995619176E+04  0.25954532816E+04 0.  0.
        4    1    3    3  502    0  0.11158370607E+04 -0.59964585463E+03  0.35531978005E+03  0.13156448062E+04  0.12699999809E+01 0.  1.
       -4    1    3    3    0  502 -0.11158370607E+04  0.59964585463E+03 -0.20922246293E+03  0.12839171114E+04  0.12699999809E+01 0. -1.
</event>
<event>
 5   0  0.4218590E-06  0.2628340E+04  0.7818609E-02  0.8358638E-01
        1   -1    0    0  501    0  0.00000000000E+00  0.00000000000E+00  0.10764346033E+04  0.10764346033E+04  0.50400001928E-02 0.  1.
       -1   -1    0    0    0  501  0.00000000000E+00  0.00000000000E+00 -0.16044101017E+04  0.16044101017E+04  0.50400001928E-02 0. -1.
    10030    2    1    2    0    0  0.00000000000E+00  0.00000000000E+00 -0.52797549839E+03  0.26808447050E+04  0.26283398193E+04 0.  0.
        1    1    3    3  502    0 -0.12613913231E+03 -0.12464071312E+04 -0.66890777922E+03  0.14201688049E+04  0.50400001928E-02 0. -1.
       -1    1    3    3    0  502  0.12613913231E+03  0.12464071312E+04  0.14093228083E+03  0.12606759001E+04  0.50400001928E-02 0.  1.
</event>
<event>
 5   0  0.1136881E-05  0.2599865E+04  0.7818609E-02  0.8368247E-01
       -2   -1    0    0    0  501  0.00000000000E+00  0.00000000000E+00  0.62136636629E+03  0.62136636629E+03  0.25500000920E-02 0. -1.
        2   -1    0    0  501    0  0.00000000000E+00  0.00000000000E+00 -0.27195304806E+04  0.27195304806E+04  0.25500000920E-02 0.  1.
    10030    2    1    2    0    0  0.00000000000E+00  0.00000000000E+00 -0.20981641143E+04  0.33408968469E+04  0.25998652063E+04 0.  0.
        3    1    3    3  502    0  0.28102041538E+03 -0.11140685659E+04 -0.26774391239E+03  0.11797491497E+04  0.10100000352E+00 0. -1.
       -3    1    3    3    0  502 -0.28102041538E+03  0.11140685659E+04 -0.18304202019E+04  0.21611476972E+04  0.10100000352E+00 0.  1.
</event>
<event>
 5   0  0.1085061E-05  0.2590627E+04  0.7818609E-02  0.8371392E-01
       -2   -1    0    0    0  501  0.00000000000E+00  0.00000000000E+00  0.60470935967E+03  0.60470935968E+03  0.25500000920E-02 0.  1.
        2   -1    0    0  501    0  0.00000000000E+00  0.00000000000E+00 -0.27746163635E+04  0.27746163635E+04  0.25500000920E-02 0. -1.
    10030    2    1    2    0    0  0.00000000000E+00  0.00000000000E+00 -0.21699070038E+04  0.33793257232E+04  0.25906265532E+04 0.  0.
        1    1    3    3  502    0  0.22858764744E+03 -0.12658608622E+04 -0.88635033549E+03  0.15621373026E+04  0.50400001928E-02 0. -1.
       -1    1    3    3    0  502 -0.22858764744E+03  0.12658608622E+04 -0.12835566683E+04  0.18171884205E+04  0.50400001928E-02 0.  1.
</event>
<event>
 5   0  0.1085255E-05  0.2594690E+04  0.7818609E-02  0.8370007E-01
        2   -1    0    0  501    0  0.00000000000E+00  0.00000000000E+00  0.13152156967E+04  0.13152156967E+04  0.25500000920E-02 0.  1.
       -2   -1    0    0    0  501  0.00000000000E+00  0.00000000000E+00 -0.12797173221E+04  0.12797173221E+04  0.25500000920E-02 0. -1.
    10030    2    1    2    0    0  0.00000000000E+00  0.00000000000E+00  0.35498374612E+02  0.25949330188E+04  0.25946902006E+04 0.  0.
        5    1    3    3  502    0 -0.54010381950E+03  0.40505895257E+03 -0.10901890090E+04  0.12823100468E+04  0.46999998093E+01 0. -1.
       -5    1    3    3    0  502  0.54010381950E+03 -0.40505895257E+03  0.11256873836E+04  0.13126229719E+04  0.46999998093E+01 0.  1.
</event>
<event>
 5   0  0.4361864E-06  0.2606688E+04  0.7818609E-02  0.8365933E-01
        1   -1    0    0  501    0  0.00000000000E+00  0.00000000000E+00  0.17991289230E+04  0.17991289230E+04  0.50400001928E-02 0. -1.
       -1   -1    0    0    0  501  0.00000000000E+00  0.00000000000E+00 -0.94418203052E+03  0.94418203053E+03  0.50400001928E-02 0.  1.
    10030    2    1    2    0    0  0.00000000000E+00  0.00000000000E+00  0.85494689245E+03  0.27433109535E+04  0.26066877064E+04 0.  0.
        3    1    3    3  502    0 -0.86559946852E+03 -0.50934628465E+02  0.14515354713E+04  0.16908021797E+04  0.10100000352E+00 0. -1.
       -3    1    3    3    0  502  0.86559946852E+03  0.50934628465E+02 -0.59658857886E+03  0.10525087738E+04  0.10100000352E+00 0.  1.
</event>
<event>
 5   0  0.1086507E-05  0.2506525E+04  0.7818609E-02  0.8400665E-01
        2   -1    0    0  501    0  0.00000000000E+00  0.00000000000E+00  0.25428714200E+04  0.25428714200E+04  0.25500000920E-02 0.  1.
       -2   -1    0    0    0  501  0.00000000000E+00  0.00000000000E+00 -0.61767463603E+03  0.61767463603E+03  0.25500000920E-02 0. -1.
    10030    2    1    2    0    0  0.00000000000E+00  0.00000000000E+00  0.19251967839E+04  0.31605460560E+04  0.25065252273E+04 0.  0.
        2    1    3    3  502    0  0.25592548511E+03  0.46969708484E+03  0.23917102465E+04  0.24507939752E+04  0.25500000920E-02 0.  1.
       -2    1    3    3    0  502 -0.25592548511E+03 -0.46969708484E+03 -0.46651346259E+03  0.70975208082E+03  0.25500000920E-02 0. -1.
</event>
<event>
 5   0  0.4218590E-06  0.2627104E+04  0.7818609E-02  0.8359053E-01
        1   -1    0    0  501    0  0.00000000000E+00  0.00000000000E+00  0.13084371953E+04  0.13084371953E+04  0.50400001928E-02 0.  1.
       -1   -1    0    0    0  501  0.00000000000E+00  0.00000000000E+00 -0.13186863537E+04  0.13186863537E+04  0.50400001928E-02 0. -1.
    10030    2    1    2    0    0  0.00000000000E+00  0.00000000000E+00 -0.10249158391E+02  0.26271235490E+04  0.26271035564E+04 0.  0.
        1    1    3    3  502    0 -0.20800676140E+03  0.70283653562E+02  0.12899573475E+04  0.13085092904E+04  0.50400001928E-02 0.  1.
       -1    1    3    3    0  502  0.20800676140E+03 -0.70283653562E+02 -0.13002065059E+04  0.13186142585E+04  0.50400001928E-02 0. -1.
</event>
<event>
 5   0  0.1136881E-05  0.2608810E+04  0.7818609E-02  0.8365215E-01
       -2   -1    0    0    0  501  0.00000000000E+00  0.00000000000E+00  0.14598178376E+04  0.14598178376E+04  0.25500000920E-02 0.  1.
        2   -1    0    0  501    0  0.00000000000E+00  0.00000000000E+00 -0.11655372435E+04  0.11655372435E+04  0.25500000920E-02 0. -1.
    10030    2    1    2    0    0  0.00000000000E+00  0.00000000000E+00  0.29428059403E+03  0.26253550811E+04  0.26088097351E+04 0.  0.
        3    1    3    3  502    0  0.57460332454E+03  0.55427203327E+03  0.11852277049E+04  0.14290385544E+04  0.10100000352E+00 0.  1.
       -3    1    3    3    0  502 -0.57460332454E+03 -0.55427203327E+03 -0.89094711084E+03  0.11963165267E+04  0.10100000352E+00 0. -1.
</event>
<event>
 5   0  0.1086507E-05  0.2596438E+04  0.7818609E-02  0.8369412E-01
        2   -1    0    0  501    0  0.00000000000E+00  0.00000000000E+00  0.11683836110E+04  0.11683836110E+04  0.25500000920E-02 0. -1.
       -2   -1    0    0    0  501  0.00000000000E+00  0.00000000000E+00 -0.14424819902E+04  0.14424819902E+04  0.25500000920E-02 0.  1.
    10030    2    1    2    0    0  0.00000000000E+00  0.00000000000E+00 -0.27409837919E+03  0.26108656013E+04  0.25964378033E+04 0.  0.
        2    1    3    3  502    0  0.86817769080E+03  0.86342529094E+03 -0.57088206431E+03  0.13509781890E+04  0.25500000920E-02 0.  1.
       -2    1    3    3    0  502 -0.86817769080E+03 -0.86342529094E+03  0.29678368511E+03  0.12598874123E+04  0.25500000920E-02 0. -1.
</event>
<event>
 5   0  0.4218590E-06  0.2877721E+04  0.7818609E-02  0.8279537E-01
        1   -1    0    0  501    0  0.00000000000E+00  0.00000000000E+00  0.13987928392E+04  0.13987928392E+04  0.50400001928E-02 0.  1.
       -1   -1    0    0    0  501  0.00000000000E+00  0.00000000000E+00 -0.14800756340E+04  0.14800756340E+04  0.50400001928E-02 0. -1.
    10030    2    1    2    0    0  0.00000000000E+00  0.00000000000E+00 -0.81282794802E+02  0.28788684732E+04  0.28777207636E+04 0.  0.
        1    1    3    3  502    0 -0.17237932403E+02  0.14003852413E+04 -0.37083852661E+03  0.14487571167E+04  0.50400001928E-02 0.  1.
       -1    1    3    3    0  502  0.17237932403E+02 -0.14003852413E+04  0.28955573181E+03  0.14301113565E+04  0.50400001928E-02 0. -1.
</event>
<event>
 5   0  0.1085255E-05  0.2619527E+04  0.7818609E-02  0.8361598E-01
       -2   -1    0    0    0  501  0.00000000000E+00  0.00000000000E+00  0.10707207314E+04  0.10707207314E+04  0.25500000920E-02 0. -1.
        2   -1    0    0  501    0  0.00000000000E+00  0.00000000000E+00 -0.16021735211E+04  0.16021735211E+04  0.25500000920E-02 0.  1.
    10030    2    1    2    0    0  0.00000000000E+00  0.00000000000E+00 -0.53145278975E+03  0.26728942525E+04  0.26195269835E+04 0.  0.
        5    1    3    3  502    0 -0.83565241484E+02 -0.12345933807E+04 -0.70372000472E+03  0.14235335965E+04  0.46999998093E+01 0.  1.
       -5    1    3    3    0  502  0.83565241484E+02  0.12345933807E+04  0.17226721497E+03  0.12493606560E+04  0.46999998093E+01 0. -1.
</event>
<event>
 5   0  0.1086507E-05  0.2610269E+04  0.7818609E-02  0.8364721E-01
       -2   -1    0    0    0  501  0.00000000000E+00  0.00000000000E+00  0.77102922885E+03  0.77102922885E+03  0.25500000920E-02 0.  1.
        2   -1    0    0  501    0  0.00000000000E+00  0.00000000000E+00 -0.22092244870E+04  0.22092244870E+04  0.25500000920E-02 0. -1.
    10030    2    1    2    0    0  0.00000000000E+00  0.00000000000E+00 -0.14381952581E+04  0.29802537158E+04  0.26102694517E+04 0.  0.
        2    1    3    3  502    0 -0.95885883078E+03 -0.26832642282E+03 -0.16824783010E+04  0.19550300663E+04  0.25500000920E-02 0. -1.
       -2    1    3    3    0  502  0.95885883078E+03  0.26832642282E+03  0.24428304291E+03  0.10252236496E+04  0.25500000920E-02 0.  1.
</event>
<event>
 5   0  0.1085255E-05  0.2603454E+04  0.7818609E-02  0.8367029E-01
       -2   -1    0    0    0  501  0.00000000000E+00  0.00000000000E+00  0.69452723494E+03  0.69452723495E+03  0.25500000920E-02 0. -1.
        2   -1    0    0  501    0  0.00000000000E+00  0.00000000000E+00 -0.24397792546E+04  0.24397792546E+04  0.25500000920E-02 0.  1.
    10030    2    1    2    0    0  0.00000000000E+00  0.00000000000E+00 -0.17452520196E+04  0.31343064895E+04  0.26034539670E+04 0.  0.
        5    1    3    3  502    0 -0.31578884219E+03  0.24076914582E+03  0.61981516254E+03  0.73612858941E+03  0.46999998093E+01 0. -1.
       -5    1    3    3    0  502  0.31578884219E+03 -0.24076914582E+03 -0.23650671822E+04  0.23981779001E+04  0.46999998093E+01 0.  1.
</event>
<event>
 5   0  0.4218590E-06  0.2605671E+04  0.7818609E-02  0.8366277E-01
       -1   -1    0    0    0  501  0.00000000000E+00  0.00000000000E+00  0.11116394154E+04  0.11116394154E+04  0.50400001928E-02 0. -1.
        1   -1    0    0  501    0  0.00000000000E+00  0.00000000000E+00 -0.15269165790E+04  0.15269165790E+04  0.50400001928E-02 0.  1.
    10030    2    1    2    0    0  0.00000000000E+00  0.00000000000E+00 -0.41527716362E+03  0.26385559944E+04  0.26056712404E+04 0.  0.
        1    1    3    3  502    0 -0.53819102121E+02  0.48105223806E+03 -0.14324794786E+04  0.15120533086E+04  0.50400001928E-02 0.  1.
       -1    1    3    3    0  502  0.53819102121E+02 -0.48105223806E+03  0.10172023150E+04  0.11265026858E+04  0.50400001928E-02 0. -1.
</event>
<event>
 5   0  0.1116310E-05  0.2631455E+04  0.7818609E-02  0.8357595E-01
        2   -1    0    0  501    0  0.00000000000E+00  0.00000000000E+00  0.18233765297E+04  0.18233765297E+04  0.25500000920E-02 0. -1.
       -2   -1    0    0    0  501  0.00000000000E+00  0.00000000000E+00 -0.94941372984E+03  0.94941372984E+03  0.25500000920E-02 0.  1.
    10030    2    1    2    0    0  0.00000000000E+00  0.00000000000E+00  0.87396279987E+03  0.27727902595E+04  0.26314548919E+04 0.  0.
        4    1    3    3  502    0  0.48329655758E+03 -0.74906650806E+03 -0.58270332884E+03  0.10649981119E+04  0.12699999809E+01 0.  1.
       -4    1    3    3    0  502 -0.48329655758E+03  0.74906650806E+03  0.14566661287E+04  0.17077921476E+04  0.12699999809E+01 0. -1.
</event>
<event>
 5   0  0.1136881E-05  0.2601455E+04  0.7818609E-02  0.8367707E-01
       -2   -1    0    0    0  501  0.00000000000E+00  0.00000000000E+00  0.94371237676E+03  0.94371237676E+03  0.25500000920E-02 0. -1.
        2   -1    0    0  501    0  0.00000000000E+00  0.00000000000E+00 -0.17928046508E+04  0.17928046508E+04  0.25500000920E-02 0.  1.
    10030    2    1    2    0    0  0.00000000000E+00  0.00000000000E+00 -0.84909227401E+03  0.27365170275E+04  0.26014549299E+04 0.  0.
        3    1    3    3  502    0 -0.12016927311E+04  0.91866543845E+02 -0.93922006843E+03  0.15279526265E+04  0.10100000352E+00 0.  1.
       -3    1    3    3    0  502  0.12016927311E+04 -0.91866543845E+02  0.90127794420E+02  0.12085644010E+04  0.10100000352E+00 0. -1.
</event>
<event>
 5   0  0.1085255E-05  0.2619974E+04  0.7818609E-02  0.8361448E-01
       -2   -1    0    0    0  501  0.00000000000E+00  0.00000000000E+00  0.15294891347E+04  0.15294891347E+04  0.25500000920E-02 0. -1.
        2   -1    0    0  501    0  0.00000000000E+00  0.00000000000E+00 -0.11219860423E+04  0.11219860423E+04  0.25500000920E-02 0.  1.
    10030    2    1    2    0    0  0.00000000000E+00  0.00000000000E+00  0.40750309245E+03  0.26514751770E+04  0.26199736342E+04 0.  0.
        5    1    3    3  502    0  0.81752063432E+03  0.58204230521E+03 -0.64835198408E+03  0.11947784807E+04  0.46999998093E+01 0.  1.
       -5    1    3    3    0  502 -0.81752063432E+03 -0.58204230521E+03  0.10558550765E+04  0.14566966964E+04  0.46999998093E+01 0. -1.
</event>
<event>
 5   0  0.1136881E-05  0.2608153E+04  0.7818609E-02  0.8365437E-01
        2   -1    0    0  501    0  0.00000000000E+00  0.00000000000E+00  0.14626485329E+04  0.14626485329E+04  0.25500000920E-02 0. -1.
       -2   -1    0    0    0  501  0.00000000000E+00  0.00000000000E+00 -0.11626963467E+04  0.11626963467E+04  0.25500000920E-02 0.  1.
    10030    2    1    2    0    0  0.00000000000E+00  0.00000000000E+00  0.29995218611E+03  0.26253448796E+04  0.26081534508E+04 0.  0.
        3    1    3    3  502    0 -0.11431195713E+04 -0.52945705224E+03 -0.18924517132E+03  0.12739155661E+04  0.10100000352E+00 0.  1.
       -3    1    3    3    0  502  0.11431195713E+04  0.52945705224E+03  0.48919735743E+03  0.13514293135E+04  0.10100000352E+00 0. -1.
</event>
<event>
 5   0  0.4361864E-06  0.2694562E+04  0.7818609E-02  0.8336772E-01
        1   -1    0    0  501    0  0.00000000000E+00  0.00000000000E+00  0.79305645387E+03  0.79305645389E+03  0.50400001928E-02 0. -1.
       -1   -1    0    0    0  501  0.00000000000E+00  0.00000000000E+00 -0.22888228709E+04  0.22888228709E+04  0.50400001928E-02 0.  1.
    10030    2    1    2    0    0  0.00000000000E+00  0.00000000000E+00 -0.14957664170E+04  0.30818793248E+04  0.26945617451E+04 0.  0.
        3    1    3    3  502    0 -0.11560400030E+04  0.55626041431E+03 -0.27726269921E+03  0.13125276194E+04  0.10100000352E+00 0.  1.
       -3    1    3    3    0  502  0.11560400030E+04 -0.55626041431E+03 -0.12185037178E+04  0.17693517054E+04  0.10100000352E+00 0. -1.
</event>
<event>
 5   0  0.4361864E-06  0.2587830E+04  0.7818609E-02  0.8372347E-01
       -1   -1    0    0    0  501  0.00000000000E+00  0.00000000000E+00  0.85997341738E+03  0.85997341740E+03  0.50400001928E-02 0. -1.
        1   -1    0    0  501    0  0.00000000000E+00  0.00000000000E+00 -0.19468236223E+04  0.19468236223E+04  0.50400001928E-02 0.  1.
    10030    2    1    2    0    0  0.00000000000E+00  0.00000000000E+00 -0.10868502050E+04  0.28067970397E+04  0.25878304145E+04 0.  0.
        3    1    3    3  502    0  0.20839788362E+03 -0.12729953080E+04 -0.65334002006E+03  0.14459598626E+04  0.10100000352E+00 0. -1.
       -3    1    3    3    0  502 -0.20839788362E+03  0.12729953080E+04 -0.43351018489E+03  0.13608371772E+04  0.10100000352E+00 0.  1.
</event>
<event>
 5   0  0.1116310E-05  0.2526280E+04  0.7818609E-02  0.8393682E-01
       -2   -1    0    0    0  501  0.00000000000E+00  0.00000000000E+00  0.10816365271E+04  0.10816365271E+04  0.25500000920E-02 0. -1.
        2   -1    0    0  501    0  0.00000000000E+00  0.00000000000E+00 -0.14751007598E+04  0.14751007598E+04  0.25500000920E-02 0.  1.
    10030    2    1    2    0    0  0.00000000000E+00  0.00000000000E+00 -0.39346423268E+03  0.25567372869E+04  0.25262801610E+04 0.  0.
        4    1    3    3  502    0  0.41594561200E+03  0.93249221106E+02 -0.14001068772E+04  0.14635597185E+04  0.12699999809E+01 0.  1.
       -4    1    3    3    0  502 -0.41594561200E+03 -0.93249221106E+02  0.10066426445E+04  0.10931775684E+04  0.12699999809E+01 0. -1.
</event>
<event>
 5   0  0.4597705E-06  0.2602287E+04  0.7818609E-02  0.8367425E-01
        1   -1    0    0  501    0  0.00000000000E+00  0.00000000000E+00  0.14626347208E+04  0.14626347208E+04  0.50400001928E-02 0. -1.
       -1   -1    0    0    0  501  0.00000000000E+00  0.00000000000E+00 -0.11574825827E+04  0.11574825827E+04  0.50400001928E-02 0.  1.
    10030    2    1    2    0    0  0.00000000000E+00  0.00000000000E+00  0.30515213807E+03  0.26201173035E+04  0.26022868514E+04 0.  0.
        5    1    3    3  502    0  0.26490060934E+03 -0.10082987542E+04  0.93644331100E+03  0.14013518028E+04  0.46999998093E+01 0. -1.
       -5    1    3    3    0  502 -0.26490060934E+03  0.10082987542E+04 -0.63129117294E+03  0.12187655007E+04  0.46999998093E+01 0.  1.
</event>
<event>
 5   0  0.4361864E-06  0.2575013E+04  0.7818609E-02  0.8376739E-01
       -1   -1    0    0    0  501  0.00000000000E+00  0.00000000000E+00  0.97754157533E+03  0.97754157535E+03  0.50400001928E-02 0.  1.
        1   -1    0    0  501    0  0.00000000000E+00  0.00000000000E+00 -0.16957571774E+04  0.16957571774E+04  0.50400001928E-02 0. -1.
    10030    2    1    2    0    0  0.00000000000E+00  0.00000000000E+00 -0.71821560208E+03  0.26732987528E+04  0.25750131204E+04 0.  0.
        3    1    3    3  502    0 -0.17716506364E+03 -0.12752535566E+04 -0.35521793516E+03  0.13356043146E+04  0.10100000352E+00 0.  1.
       -3    1    3    3    0  502  0.17716506364E+03  0.12752535566E+04 -0.36299766692E+03  0.13376944382E+04  0.10100000352E+00 0. -1.
</event>
<event>
 5   0  0.3705250E-06  0.2629068E+04  0.7818609E-02  0.8358394E-01
       -3   -1    0    0    0  501  0.00000000000E+00  0.00000000000E+00  0.20133862254E+04  0.20133862279E+04  0.10100000352E+00 0.  1.
        3   -1    0    0  501    0  0.00000000000E+00  0.00000000000E+00 -0.85825511726E+03  0.85825512320E+03  0.10100000352E+00 0. -1.
    10030    2    1    2    0    0  0.00000000000E+00  0.00000000000E+00  0.11551311081E+04  0.28716413511E+04  0.26290675481E+04 0.  0.
        3    1    3    3  502    0 -0.83150616960E+03  0.10162616280E+04  0.64497550940E+03  0.14629366440E+04  0.10100000352E+00 0.  1.
       -3    1    3    3    0  502  0.83150616960E+03 -0.10162616280E+04  0.51015559869E+03  0.14087047070E+04  0.10100000352E+00 0. -1.
</event>
<event>
 5   0  0.4361864E-06  0.2600719E+04  0.7818609E-02  0.8367957E-01
        1   -1    0    0  501    0  0.00000000000E+00  0.00000000000E+00  0.12329178536E+04  0.12329178536E+04  0.50400001928E-02 0. -1.
       -1   -1    0    0    0  501  0.00000000000E+00  0.00000000000E+00 -0.13714904248E+04  0.13714904248E+04  0.50400001928E-02 0.  1.
    10030    2    1    2    0    0  0.00000000000E+00  0.00000000000E+00 -0.13857257119E+03  0.26044082784E+04  0.26007191550E+04 0.  0.
        3    1    3    3  502    0  0.12410412454E+04  0.13976152289E+03  0.29346830848E+03  0.12829030806E+04  0.10100000352E+00 0. -1.
       -3    1    3    3    0  502 -0.12410412454E+04 -0.13976152289E+03 -0.43204087967E+03  0.13215051978E+04  0.10100000352E+00 0.  1.
</event>
<event>
 5   0  0.1085061E-05  0.2613101E+04  0.7818609E-02  0.8363765E-01
        2   -1    0    0  501    0  0.00000000000E+00  0.00000000000E+00  0.25614088894E+04  0.25614088894E+04  0.25500000920E-02 0.  1.
       -2   -1    0    0    0  501  0.00000000000E+00  0.00000000000E+00 -0.66645906594E+03  0.66645906594E+03  0.25500000920E-02 0. -1.
    10030    2    1    2    0    0  0.00000000000E+00  0.00000000000E+00  0.18949498235E+04  0.32278679553E+04  0.26131009746E+04 0.  0.
        1    1    3    3  502    0  0.10740068245E+04 -0.19462395340E+03  0.60400087866E+02  0.10931684742E+04  0.50400001928E-02 0. -1.
       -1    1    3    3    0  502 -0.10740068245E+04  0.19462395340E+03  0.18345497356E+04  0.21346994811E+04  0.50400001928E-02 0.  1.
</event>
<event>
 5   0  0.4415080E-06  0.2606222E+04  0.7818609E-02  0.8366091E-01
        1   -1    0    0  501    0  0.00000000000E+00  0.00000000000E+00  0.17354294655E+04  0.17354294655E+04  0.50400001928E-02 0. -1.
       -1   -1    0    0    0  501  0.00000000000E+00  0.00000000000E+00 -0.97848890844E+03  0.97848890845E+03  0.50400001928E-02 0.  1.
    10030    2    1    2    0    0  0.00000000000E+00  0.00000000000E+00  0.75694055709E+03  0.27139183740E+04  0.26062221574E+04 0.  0.
        2    1    3    3  502    0 -0.61989453875E+03 -0.10583963358E+04  0.83668356665E+03  0.14847597225E+04  0.25500000920E-02 0. -1.
       -2    1    3    3    0  502  0.61989453875E+03  0.10583963358E+04 -0.79743009560E+02  0.12291586515E+04  0.25500000920E-02 0.  1.
</event>
<event>
 5   0  0.4361864E-06  0.2604368E+04  0.7818609E-02  0.8366719E-01
        1   -1    0    0  501    0  0.00000000000E+00  0.00000000000E+00  0.12888770764E+04  0.12888770764E+04  0.50400001928E-02 0. -1.
       -1   -1    0    0    0  501  0.00000000000E+00  0.00000000000E+00 -0.13156278138E+04  0.13156278138E+04  0.50400001928E-02 0.  1.
    10030    2    1    2    0    0  0.00000000000E+00  0.00000000000E+00 -0.26750737381E+02  0.26045048902E+04  0.26043675088E+04 0.  0.
        3    1    3    3  502    0  0.52825047129E+03 -0.61191093474E+03 -0.10343106866E+04  0.13127384199E+04  0.10100000352E+00 0.  1.
       -3    1    3    3    0  502 -0.52825047129E+03  0.61191093474E+03  0.10075599492E+04  0.12917664703E+04  0.10100000352E+00 0. -1.
</event>
<event>
 5   0  0.4415080E-06  0.2568943E+04  0.7818609E-02  0.8378828E-01
        1   -1    0    0  501    0  0.00000000000E+00  0.00000000000E+00  0.13402847349E+04  0.13402847349E+04  0.50400001928E-02 0.  1.
       -1   -1    0    0    0  501  0.00000000000E+00  0.00000000000E+00 -0.12309823145E+04  0.12309823145E+04  0.50400001928E-02 0. -1.
    10030    2    1    2    0    0  0.00000000000E+00  0.00000000000E+00  0.10930242035E+03  0.25712670494E+04  0.25689428215E+04 0.  0.
        2    1    3    3  502    0  0.59621996224E+03  0.66338307392E+03  0.97977715805E+03  0.13249598581E+04  0.25500000920E-02 0.  1.
       -2    1    3    3    0  502 -0.59621996224E+03 -0.66338307392E+03 -0.87047473770E+03  0.12463071913E+04  0.25500000920E-02 0. -1.
</event>
<event>
 5   0  0.4361864E-06  0.2604404E+04  0.7818609E-02  0.8366707E-01
        1   -1    0    0  501    0  0.00000000000E+00  0.00000000000E+00  0.15700141372E+04  0.15700141372E+04  0.50400001928E-02 0. -1.
       -1   -1    0    0    0  501  0.00000000000E+00  0.00000000000E+00 -0.10800731408E+04  0.10800731408E+04  0.50400001928E-02 0.  1.
    10030    2    1    2    0    0  0.00000000000E+00  0.00000000000E+00  0.48994099633E+03  0.26500872780E+04  0.26044040395E+04 0.  0.
        3    1    3    3  502    0  0.11017856636E+04  0.32144776746E+03 -0.38101953365E+03  0.12093122884E+04  0.10100000352E+00 0.  1.
       -3    1    3    3    0  502 -0.11017856636E+04 -0.32144776746E+03  0.87096052998E+03  0.14407749896E+04  0.10100000352E+00 0. -1.
</event>
<event>
 5   0  0.1085255E-05  0.2625244E+04  0.7818609E-02  0.8359677E-01
       -2   -1    0    0    0  501  0.00000000000E+00  0.00000000000E+00  0.16631268761E+04  0.16631268761E+04  0.25500000920E-02 0. -1.
        2   -1    0    0  501    0  0.00000000000E+00  0.00000000000E+00 -0.10359858205E+04  0.10359858205E+04  0.25500000920E-02 0.  1.
    10030    2    1    2    0    0  0.00000000000E+00  0.00000000000E+00  0.62714105564E+03  0.26991126966E+04  0.26252435021E+04 0.  0.
        5    1    3    3  502    0 -0.36231525178E+03  0.15514867731E+03 -0.97370194553E+03  0.10504575301E+04  0.46999998093E+01 0.  1.
       -5    1    3    3    0  502  0.36231525178E+03 -0.15514867731E+03  0.16008430012E+04  0.16486551665E+04  0.46999998093E+01 0. -1.
</event>
<event>
 5   0  0.1085061E-05  0.2612924E+04  0.7818609E-02  0.8363824E-01
       -2   -1    0    0    0  501  0.00000000000E+00  0.00000000000E+00  0.79029766644E+03  0.79029766644E+03  0.25500000920E-02 0. -1.
        2   -1    0    0  501    0  0.00000000000E+00  0.00000000000E+00 -0.21597470618E+04  0.21597470618E+04  0.25500000920E-02 0.  1.
    10030    2    1    2    0    0  0.00000000000E+00  0.00000000000E+00 -0.13694493954E+04  0.29500447283E+04  0.26129240808E+04 0.  0.
        1    1    3    3  502    0  0.78125507312E+03  0.89908932304E+03 -0.12907489325E+04  0.17563467502E+04  0.50400001928E-02 0.  1.
       -1    1    3    3    0  502 -0.78125507312E+03 -0.89908932304E+03 -0.78700462924E+02  0.11936979781E+04  0.50400001928E-02 0. -1.
</event>
<event>
 5   0  0.4218590E-06  0.2584572E+04  0.7818609E-02  0.8373461E-01
        1   -1    0    0  501    0  0.00000000000E+00  0.00000000000E+00  0.28136019688E+04  0.28136019688E+04  0.50400001928E-02 0. -1.
       -1   -1    0    0    0  501  0.00000000000E+00  0.00000000000E+00 -0.59354638418E+03  0.59354638421E+03  0.50400001928E-02 0.  1.
    10030    2    1    2    0    0  0.00000000000E+00  0.00000000000E+00  0.22200555846E+04  0.34071483530E+04  0.25845721310E+04 0.  0.
        1    1    3    3  502    0  0.97080101189E+03  0.48489857712E+03  0.20350904041E+04  0.23063334944E+04  0.50400001928E-02 0. -1.
       -1    1    3    3    0  502 -0.97080101189E+03 -0.48489857712E+03  0.18496518053E+03  0.11008148586E+04  0.50400001928E-02 0.  1.
</event>
<event>
 5   0  0.1086507E-05  0.2625613E+04  0.7818609E-02  0.8359553E-01
       -2   -1    0    0    0  501  0.00000000000E+00  0.00000000000E+00  0.12418503915E+04  0.12418503915E+04  0.25500000920E-02 0. -1.
        2   -1    0    0  501    0  0.00000000000E+00  0.00000000000E+00 -0.13878172297E+04  0.13878172297E+04  0.25500000920E-02 0.  1.
    10030    2    1    2    0    0  0.00000000000E+00  0.00000000000E+00 -0.14596683817E+03  0.26296676212E+04  0.26256133531E+04 0.  0.
        2    1    3    3  502    0 -0.42430243671E+03 -0.28953612515E+03 -0.12829870220E+04  0.13819983445E+04  0.25500000920E-02 0.  1.
       -2    1    3    3    0  502  0.42430243671E+03  0.28953612515E+03  0.11370201838E+04  0.12476692767E+04  0.25500000920E-02 0. -1.
</event>
<event>
 5   0  0.1085255E-05  0.2612969E+04  0.7818609E-02  0.8363809E-01
        2   -1    0    0  501    0  0.00000000000E+00  0.00000000000E+00  0.16361614130E+04  0.16361614130E+04  0.25500000920E-02 0.  1.
       -2   -1    0    0    0  501  0.00000000000E+00  0.00000000000E+00 -0.10432352119E+04  0.10432352119E+04  0.25500000920E-02 0. -1.
    10030    2    1    2    0    0  0.00000000000E+00  0.00000000000E+00  0.59292620110E+03  0.26793966250E+04  0.26129685788E+04 0.  0.
        5    1    3    3  502    0 -0.10787231797E+04  0.16929631188E+02 -0.45912003591E+03  0.11724946090E+04  0.46999998093E+01 0. -1.
       -5    1    3    3    0  502  0.10787231797E+04 -0.16929631188E+02  0.10520462370E+04  0.15069020159E+04  0.46999998093E+01 0.  1.
</event>
<event>
 5   0  0.4415080E-06  0.2707524E+04  0.7818609E-02  0.8332568E-01
        1   -1    0    0  501    0  0.00000000000E+00  0.00000000000E+00  0.17430070021E+04  0.17430070021E+04  0.50400001928E-02 0.  1.
       -1   -1    0    0    0  501  0.00000000000E+00  0.00000000000E+00 -0.10514422830E+04  0.10514422830E+04  0.50400001928E-02 0. -1.
    10030    2    1    2    0    0  0.00000000000E+00  0.00000000000E+00  0.69156471916E+03  0.27944492851E+04  0.27075237850E+04 0.  0.
        2    1    3    3  502    0  0.89207665130E+03  0.55418518979E+03  0.12274619566E+04  0.16154209456E+04  0.25500000920E-02 0.  1.
       -2    1    3    3    0  502 -0.89207665130E+03 -0.55418518979E+03 -0.53589723745E+03  0.11790283396E+04  0.25500000920E-02 0. -1.
</event>
<event>
 5   0  0.1086507E-05  0.2531816E+04  0.7818609E-02  0.8391738E-01
        2   -1    0    0  501    0  0.00000000000E+00  0.00000000000E+00  0.20896021994E+04  0.20896021994E+04  0.25500000920E-02 0.  1.
       -2   -1    0    0    0  501  0.00000000000E+00  0.00000000000E+00 -0.76690317673E+03  0.76690317673E+03  0.25500000920E-02 0. -1.
    10030    2    1    2    0    0  0.00000000000E+00  0.00000000000E+00  0.13226990227E+04  0.28565053762E+04  0.25318156053E+04 0.  0.
        2    1    3    3  502    0 -0.19386474891E+03  0.11654595870E+04  0.14847242548E+03  0.11907659934E+04  0.25500000920E-02 0. -1.
       -2    1    3    3    0  502  0.19386474891E+03 -0.11654595870E+04  0.11742265972E+04  0.16657393828E+04  0.25500000920E-02 0.  1.
</event>
<event>
 5   0  0.1136881E-05  0.2598509E+04  0.7818609E-02  0.8368708E-01
       -2   -1    0    0    0  501  0.00000000000E+00  0.00000000000E+00  0.10796280365E+04  0.10796280365E+04  0.25500000920E-02 0. -1.
        2   -1    0    0  501    0  0.00000000000E+00  0.00000000000E+00 -0.15635591473E+04  0.15635591473E+04  0.25500000920E-02 0.  1.
    10030    2    1    2    0    0  0.00000000000E+00  0.00000000000E+00 -0.48393111077E+03  0.26431871837E+04  0.25985090279E+04 0.  0.
        3    1    3    3  502    0  0.11529059418E+04  0.16665930766E+03 -0.82726741002E+03  0.14287542873E+04  0.10100000352E+00 0. -1.
       -3    1    3    3    0  502 -0.11529059418E+04 -0.16665930766E+03  0.34333629925E+03  0.12144328965E+04  0.10100000352E+00 0.  1.
</event>
<event>
 5   0  0.3705250E-06  0.2604744E+04  0.7818609E-02  0.8366592E-01
        3   -1    0    0  501    0  0.00000000000E+00  0.00000000000E+00  0.71139180512E+03  0.71139181229E+03  0.10100000352E+00 0.  1.
       -3   -1    0    0    0  501  0.00000000000E+00  0.00000000000E+00 -0.23843011772E+04  0.23843011793E+04  0.10100000352E+00 0. -1.
    10030    2    1    2    0    0  0.00000000000E+00  0.00000000000E+00 -0.16729093721E+04  0.30956929916E+04  0.26047436210E+04 0.  0.
        4    1    3    3  502    0 -0.38126447146E+03 -0.23396638069E+03  0.61722441475E+03  0.76227977512E+03  0.12699999809E+01 0.  1.
       -4    1    3    3    0  502  0.38126447146E+03  0.23396638069E+03 -0.22901337868E+04  0.23334132165E+04  0.12699999809E+01 0. -1.
</event>
<event>
 5   0  0.4597705E-06  0.2585369E+04  0.7818609E-02  0.8373188E-01
        1   -1    0    0  501    0  0.00000000000E+00  0.00000000000E+00  0.14933217680E+04  0.14933217680E+04  0.50400001928E-02 0.  1.
       -1   -1    0    0    0  501  0.00000000000E+00  0.00000000000E+00 -0.11190038336E+04  0.11190038336E+04  0.50400001928E-02 0. -1.
    10030    2    1    2    0    0  0.00000000000E+00  0.00000000000E+00  0.37431793439E+03  0.26123256017E+04  0.25853686648E+04 0.  0.
        5    1    3    3  502    0  0.98675277288E+03 -0.60697142132E+03  0.76665023795E+03  0.13891976168E+04  0.46999998093E+01 0.  1.
       -5    1    3    3    0  502 -0.98675277288E+03  0.60697142132E+03 -0.39233230355E+03  0.12231279849E+04  0.46999998093E+01 0. -1.
</event>
<event>
 5   0  0.1085061E-05  0.2594242E+04  0.7818609E-02  0.8370160E-01
       -2   -1    0    0    0  501  0.00000000000E+00  0.00000000000E+00  0.10105875007E+04  0.10105875007E+04  0.25500000920E-02 0.  1.
        2   -1    0    0  501    0  0.00000000000E+00  0.00000000000E+00 -0.16648956979E+04  0.16648956979E+04  0.25500000920E-02 0. -1.
    10030    2    1    2    0    0  0.00000000000E+00  0.00000000000E+00 -0.65430819723E+03  0.26754831986E+04  0.25942419180E+04 0.  0.
        1    1    3    3  502    0 -0.44967031900E+01  0.10931990991E+04 -0.10471709606E+04  0.15138267772E+04  0.50400001928E-02 0. -1.
       -1    1    3    3    0  502  0.44967031900E+01 -0.10931990991E+04  0.39286276334E+03  0.11616564214E+04  0.50400001928E-02 0.  1.
</event>
<event>
 5   0  0.4464297E-06  0.2606089E+04  0.7818609E-02  0.8366136E-01
        1   -1    0    0  501    0  0.00000000000E+00  0.00000000000E+00  0.10843451047E+04  0.10843451047E+04  0.50400001928E-02 0. -1.
       -1   -1    0    0    0  501  0.00000000000E+00  0.00000000000E+00 -0.15658533004E+04  0.15658533004E+04  0.50400001928E-02 0.  1.
    10030    2    1    2    0    0  0.00000000000E+00  0.00000000000E+00 -0.48150819567E+03  0.26501984051E+04  0.26060893009E+04 0.  0.
        4    1    3    3  502    0 -0.50896015196E+03  0.34432160108E+03 -0.14092566736E+04  0.15374016346E+04  0.12699999809E+01 0.  1.
       -4    1    3    3    0  502  0.50896015196E+03 -0.34432160108E+03  0.92774847791E+03  0.11127967705E+04  0.12699999809E+01 0. -1.
</event>
<event>
 5   0  0.4415080E-06  0.2595742E+04  0.7818609E-02  0.8369649E-01
       -1   -1    0    0    0  501  0.00000000000E+00  0.00000000000E+00  0.17013199460E+04  0.17013199460E+04  0.50400001928E-02 0.  1.
        1   -1    0    0  501    0  0.00000000000E+00  0.00000000000E+00 -0.99009576147E+03  0.99009576149E+03  0.50400001928E-02 0. -1.
    10030    2    1    2    0    0  0.00000000000E+00  0.00000000000E+00  0.71122418453E+03  0.26914157075E+04  0.25957424121E+04 0.  0.
        2    1    3    3  502    0 -0.44826940389E+03  0.12135917289E+04  0.46296230287E+03  0.13740758483E+04  0.25500000920E-02 0. -1.
       -2    1    3    3    0  502  0.44826940389E+03 -0.12135917289E+04  0.24826188166E+03  0.13173398592E+04  0.25500000920E-02 0.  1.
</event>
<event>
 5   0  0.1116310E-05  0.2523738E+04  0.7818609E-02  0.8394577E-01
        2   -1    0    0  501    0  0.00000000000E+00  0.00000000000E+00  0.19879752874E+04  0.19879752874E+04  0.25500000920E-02 0.  1.
       -2   -1    0    0    0  501  0.00000000000E+00  0.00000000000E+00 -0.80097229252E+03  0.80097229252E+03  0.25500000920E-02 0. -1.
    10030    2    1    2    0    0  0.00000000000E+00  0.00000000000E+00  0.11870029949E+04  0.27889475799E+04  0.25237378021E+04 0.  0.
        4    1    3    3  502    0  0.67931785046E+03  0.67026931912E+03 -0.31883245935E+03  0.10061756567E+04  0.12699999809E+01 0. -1.
       -4    1    3    3    0  502 -0.67931785046E+03 -0.67026931912E+03  0.15058354542E+04  0.17827719232E+04  0.12699999809E+01 0.  1.
</event>
<event>
 5   0  0.1086507E-05  0.2598112E+04  0.7818609E-02  0.8368843E-01
       -2   -1    0    0    0  501  0.00000000000E+00  0.00000000000E+00  0.17218656790E+04  0.17218656790E+04  0.25500000920E-02 0.  1.
        2   -1    0    0  501    0  0.00000000000E+00  0.00000000000E+00 -0.98006893745E+03  0.98006893745E+03  0.25500000920E-02 0. -1.
    10030    2    1    2    0    0  0.00000000000E+00  0.00000000000E+00  0.74179674157E+03  0.27019346165E+04  0.25981124429E+04 0.  0.
        2    1    3    3  502    0  0.12425278056E+04 -0.37336699220E+03  0.30295138434E+03  0.13323129512E+04  0.25500000920E-02 0. -1.
       -2    1    3    3    0  502 -0.12425278056E+04  0.37336699220E+03  0.43884535722E+03  0.13696216653E+04  0.25500000920E-02 0.  1.
</event>
<event>
 5   0  0.1085255E-05  0.2597335E+04  0.7818609E-02  0.8369107E-01
       -2   -1    0    0    0  501  0.00000000000E+00  0.00000000000E+00  0.11380031835E+04  0.11380031835E+04  0.25500000920E-02 0. -1.
        2   -1    0    0  501    0  0.00000000000E+00  0.00000000000E+00 -0.14820140578E+04  0.14820140578E+04  0.25500000920E-02 0.  1.
    10030    2    1    2    0    0  0.00000000000E+00  0.00000000000E+00 -0.34401087426E+03  0.26200172413E+04  0.25973345690E+04 0.  0.
        5    1    3    3  502    0  0.37764989204E+02 -0.27808604045E+02 -0.14811509642E+04  0.14819007327E+04  0.46999998093E+01 0.  1.
       -5    1    3    3    0  502 -0.37764989204E+02  0.27808604045E+02  0.11371400900E+04  0.11381165086E+04  0.46999998093E+01 0. -1.
</event>
<event>
 5   0  0.4415080E-06  0.2611261E+04  0.7818609E-02  0.8364386E-01
        1   -1    0    0  501    0  0.00000000000E+00  0.00000000000E+00  0.14693880749E+04  0.14693880749E+04  0.50400001928E-02 0.  1.
       -1   -1    0    0    0  501  0.00000000000E+00  0.00000000000E+00 -0.11601227657E+04  0.11601227657E+04  0.50400001928E-02 0. -1.
    10030    2    1    2    0    0  0.00000000000E+00  0.00000000000E+00  0.30926530923E+03  0.26295108407E+04  0.26112606591E+04 0.  0.
        2    1    3    3  502    0  0.75896039475E+03  0.77165282893E+03  0.88994262877E+03  0.14012376143E+04  0.25500000920E-02 0.  1.
       -2    1    3    3    0  502 -0.75896039475E+03 -0.77165282893E+03 -0.58067731955E+03  0.12282732264E+04  0.25500000920E-02 0. -1.
</event>
<event>
 5   0  0.1116310E-05  0.2581739E+04  0.7818609E-02  0.8374431E-01
       -2   -1    0    0    0  501  0.00000000000E+00  0.00000000000E+00  0.16297969203E+04  0.16297969203E+04  0.25500000920E-02 0.  1.
        2   -1    0    0  501    0  0.00000000000E+00  0.00000000000E+00 -0.10224243067E+04  0.10224243067E+04  0.25500000920E-02 0. -1.
    10030    2    1    2    0    0  0.00000000000E+00  0.00000000000E+00  0.60737261358E+03  0.26522212271E+04  0.25817389383E+04 0.  0.
        4    1    3    3  502    0 -0.12891890408E+03 -0.23410862791E+03  0.16010634813E+04  0.16232168116E+04  0.12699999809E+01 0.  1.
       -4    1    3    3    0  502  0.12891890408E+03  0.23410862791E+03 -0.99369086772E+03  0.10290044154E+04  0.12699999809E+01 0. -1.
</event>
<event>
 5   0  0.1136881E-05  0.2588566E+04  0.7818609E-02  0.8372095E-01
        2   -1    0    0  501    0  0.00000000000E+00  0.00000000000E+00  0.11616561032E+04  0.11616561032E+04  0.25500000920E-02 0. -1.
       -2   -1    0    0    0  501  0.00000000000E+00  0.00000000000E+00 -0.14420522189E+04  0.14420522189E+04  0.25500000920E-02 0.  1.
    10030    2    1    2    0    0  0.00000000000E+00  0.00000000000E+00 -0.28039611566E+03  0.26037083221E+04  0.25885662142E+04 0.  0.
        3    1    3    3  502    0 -0.95543680484E+03  0.87308589392E+03 -0.14573341689E+03  0.13024502698E+04  0.10100000352E+00 0.  1.
       -3    1    3    3    0  502  0.95543680484E+03 -0.87308589392E+03 -0.13466269877E+03  0.13012580524E+04  0.10100000352E+00 0. -1.
</event>
<event>
 5   0  0.4361864E-06  0.2600500E+04  0.7818609E-02  0.8368031E-01
        1   -1    0    0  501    0  0.00000000000E+00  0.00000000000E+00  0.17235843166E+04  0.17235843166E+04  0.50400001928E-02 0. -1.
       -1   -1    0    0    0  501  0.00000000000E+00  0.00000000000E+00 -0.98089224949E+03  0.98089224950E+03  0.50400001928E-02 0.  1.
    10030    2    1    2    0    0  0.00000000000E+00  0.00000000000E+00  0.74269206713E+03  0.27044765661E+04  0.26005003346E+04 0.  0.
        3    1    3    3  502    0  0.27535136554E+03  0.11650956052E+04 -0.15626925499E+03  0.12073467746E+04  0.10100000352E+00 0. -1.
       -3    1    3    3    0  502 -0.27535136554E+03 -0.11650956052E+04  0.89896132212E+03  0.14971297915E+04  0.10100000352E+00 0.  1.
</event>
<event>
 5   0  0.1136881E-05  0.2601879E+04  0.7818609E-02  0.8367563E-01
        2   -1    0    0  501    0  0.00000000000E+00  0.00000000000E+00  0.15508428829E+04  0.15508428829E+04  0.25500000920E-02 0.  1.
       -2   -1    0    0    0  501  0.00000000000E+00  0.00000000000E+00 -0.10913053636E+04  0.10913053636E+04  0.25500000920E-02 0. -1.
    10030    2    1    2    0    0  0.00000000000E+00  0.00000000000E+00  0.45953751921E+03  0.26421482465E+04  0.26018786722E+04 0.  0.
        3    1    3    3  502    0 -0.16416357210E+03 -0.12903493396E+04  0.25229426218E+03  0.13249918874E+04  0.10100000352E+00 0. -1.
       -3    1    3    3    0  502  0.16416357210E+03  0.12903493396E+04  0.20724325704E+03  0.13171563591E+04  0.10100000352E+00 0.  1.
</event>
<event>
 5   0  0.4415080E-06  0.2588771E+04  0.7818609E-02  0.8372025E-01
       -1   -1    0    0    0  501  0.00000000000E+00  0.00000000000E+00  0.68662488400E+03  0.68662488402E+03  0.50400001928E-02 0.  1.
        1   -1    0    0  501    0  0.00000000000E+00  0.00000000000E+00 -0.24401004955E+04  0.24401004955E+04  0.50400001928E-02 0. -1.
    10030    2    1    2    0    0  0.00000000000E+00  0.00000000000E+00 -0.17534756115E+04  0.31267253795E+04  0.25887709205E+04 0.  0.
        2    1    3    3  502    0 -0.17091289494E+03  0.99535427520E+03 -0.18546051368E+04  0.21117531968E+04  0.25500000920E-02 0. -1.
       -2    1    3    3    0  502  0.17091289494E+03 -0.99535427520E+03  0.10112952528E+03  0.10149721827E+04  0.25500000920E-02 0.  1.
</event>
<event>
 5   0  0.4218590E-06  0.2602935E+04  0.7818609E-02  0.8367205E-01
       -1   -1    0    0    0  501  0.00000000000E+00  0.00000000000E+00  0.87008403633E+03  0.87008403634E+03  0.50400001928E-02 0. -1.
        1   -1    0    0  501    0  0.00000000000E+00  0.00000000000E+00 -0.19467284924E+04  0.19467284924E+04  0.50400001928E-02 0.  1.
    10030    2    1    2    0    0  0.00000000000E+00  0.00000000000E+00 -0.10766444561E+04  0.28168125287E+04  0.26029347931E+04 0.  0.
        1    1    3    3  502    0 -0.96581847891E+03  0.70634086257E+03 -0.10923400320E+04  0.16201634158E+04  0.50400001928E-02 0.  1.
       -1    1    3    3    0  502  0.96581847891E+03 -0.70634086257E+03  0.15695575953E+02  0.11966491129E+04  0.50400001928E-02 0. -1.
</event>
<event>
 5   0  0.1116310E-05  0.2600408E+04  0.7818609E-02  0.8368062E-01
        2   -1    0    0  501    0  0.00000000000E+00  0.00000000000E+00  0.10207352043E+04  0.10207352043E+04  0.25500000920E-02 0. -1.
       -2   -1    0    0    0  501  0.00000000000E+00  0.00000000000E+00 -0.16561895840E+04  0.16561895840E+04  0.25500000920E-02 0.  1.
    10030    2    1    2    0    0  0.00000000000E+00  0.00000000000E+00 -0.63545437964E+03  0.26769247883E+04  0.26004084398E+04 0.  0.
        4    1    3    3  502    0  0.11914647939E+04  0.52035086200E+03 -0.33138505681E+03  0.13417045291E+04  0.12699999809E+01 0.  1.
       -4    1    3    3    0  502 -0.11914647939E+04 -0.52035086200E+03 -0.30406932283E+03  0.13352202592E+04  0.12699999809E+01 0. -1.
</event>
<event>
 5   0  0.1116310E-05  0.2604578E+04  0.7818609E-02  0.8366648E-01
        2   -1    0    0  501    0  0.00000000000E+00  0.00000000000E+00  0.17857379373E+04  0.17857379373E+04  0.25500000920E-02 0.  1.
       -2   -1    0    0    0  501  0.00000000000E+00  0.00000000000E+00 -0.94972282557E+03  0.94972282558E+03  0.25500000920E-02 0. -1.
    10030    2    1    2    0    0  0.00000000000E+00  0.00000000000E+00  0.83601511174E+03  0.27354607629E+04  0.26045775700E+04 0.  0.
        4    1    3    3  502    0  0.10922005091E+04  0.26106061333E+03 -0.27460096909E+03  0.11560544542E+04  0.12699999809E+01 0. -1.
       -4    1    3    3    0  502 -0.10922005091E+04 -0.26106061333E+03  0.11106160808E+04  0.15794063087E+04  0.12699999809E+01 0.  1.
</event>
<event>
 5   0  0.1116310E-05  0.2594302E+04  0.7818609E-02  0.8370139E-01
        2   -1    0    0  501    0  0.00000000000E+00  0.00000000000E+00  0.14680361336E+04  0.14680361336E+04  0.25500000920E-02 0.  1.
       -2   -1    0    0    0  501  0.00000000000E+00  0.00000000000E+00 -0.11461578797E+04  0.11461578798E+04  0.25500000920E-02 0. -1.
    10030    2    1    2    0    0  0.00000000000E+00  0.00000000000E+00  0.32187825383E+03  0.26141940133E+04  0.25943023588E+04 0.  0.
        4    1    3    3  502    0  0.11127910612E+04  0.65416075459E+03  0.32015449094E+02  0.12912230019E+04  0.12699999809E+01 0. -1.
       -4    1    3    3    0  502 -0.11127910612E+04 -0.65416075459E+03  0.28986280474E+03  0.13229710115E+04  0.12699999809E+01 0.  1.
</event>
<event>
 5   0  0.4218590E-06  0.2597132E+04  0.7818609E-02  0.8369176E-01
        1   -1    0    0  501    0  0.00000000000E+00  0.00000000000E+00  0.17122063423E+04  0.17122063423E+04  0.50400001928E-02 0. -1.
       -1   -1    0    0    0  501  0.00000000000E+00  0.00000000000E+00 -0.98485418584E+03  0.98485418586E+03  0.50400001928E-02 0.  1.
    10030    2    1    2    0    0  0.00000000000E+00  0.00000000000E+00  0.72735215641E+03  0.26970605281E+04  0.25971319437E+04 0.  0.
        1    1    3    3  502    0 -0.36641800772E+01  0.56874505276E+03 -0.84862648741E+03  0.10215925198E+04  0.50400001928E-02 0.  1.
       -1    1    3    3    0  502  0.36641800772E+01 -0.56874505276E+03  0.15759786438E+04  0.16754680084E+04  0.50400001928E-02 0. -1.
</event>
<event>
 5   0  0.1136881E-05  0.2598241E+04  0.7818609E-02  0.8368799E-01
        2   -1    0    0  501    0  0.00000000000E+00  0.00000000000E+00  0.10819645192E+04  0.10819645192E+04  0.25500000920E-02 0. -1.
       -2   -1    0    0    0  501  0.00000000000E+00  0.00000000000E+00 -0.15598609749E+04  0.15598609749E+04  0.25500000920E-02 0.  1.
    10030    2    1    2    0    0  0.00000000000E+00  0.00000000000E+00 -0.47789645575E+03  0.26418254941E+04  0.25982411202E+04 0.  0.
        3    1    3    3  502    0 -0.61464295329E+03 -0.11261071182E+04 -0.44685567463E+03  0.13585224348E+04  0.10100000352E+00 0.  1.
       -3    1    3    3    0  502  0.61464295329E+03  0.11261071182E+04 -0.31040781119E+02  0.12833030593E+04  0.10100000352E+00 0. -1.
</event>
<event>
 5   0  0.1085061E-05  0.2579192E+04  0.7818609E-02  0.8375304E-01
        2   -1    0    0  501    0  0.00000000000E+00  0.00000000000E+00  0.16147978680E+04  0.16147978680E+04  0.25500000920E-02 0.  1.
       -2   -1    0    0    0  501  0.00000000000E+00  0.00000000000E+00 -0.10298858520E+04  0.10298858520E+04  0.25500000920E-02 0. -1.
    10030    2    1    2    0    0  0.00000000000E+00  0.00000000000E+00  0.58491201600E+03  0.26446837200E+04  0.25791917169E+04 0.  0.
        1    1    3    3  502    0 -0.83380952877E+03  0.45569936962E+03 -0.60155287158E+03  0.11246182032E+04  0.50400001928E-02 0. -1.
       -1    1    3    3    0  502  0.83380952877E+03 -0.45569936962E+03  0.11864648876E+04  0.15200655168E+04  0.50400001928E-02 0.  1.
</event>
<event>
 5   0  0.4415080E-06  0.2622676E+04  0.7818609E-02  0.8360539E-01
        1   -1    0    0  501    0  0.00000000000E+00  0.00000000000E+00  0.15570450877E+04  0.15570450877E+04  0.50400001928E-02 0. -1.
       -1   -1    0    0    0  501  0.00000000000E+00  0.00000000000E+00 -0.11044039644E+04  0.11044039644E+04  0.50400001928E-02 0.  1.
    10030    2    1    2    0    0  0.00000000000E+00  0.00000000000E+00  0.45264112336E+03  0.26614490521E+04  0.26226755557E+04 0.  0.
        2    1    3    3  502    0 -0.21499075232E+03  0.10356331215E+04  0.10129252713E+04  0.14645048962E+04  0.25500000920E-02 0. -1.
       -2    1    3    3    0  502  0.21499075232E+03 -0.10356331215E+04 -0.56028414790E+03  0.11969441559E+04  0.25500000920E-02 0.  1.
</event>
<event>
 5   0  0.4218590E-06  0.2591841E+04  0.7818609E-02  0.8370978E-01
       -1   -1    0    0    0  501  0.00000000000E+00  0.00000000000E+00  0.11915546345E+04  0.11915546346E+04  0.50400001928E-02 0.  1.
        1   -1    0    0  501    0  0.00000000000E+00  0.00000000000E+00 -0.14094276386E+04  0.14094276386E+04  0.50400001928E-02 0. -1.
    10030    2    1    2    0    0  0.00000000000E+00  0.00000000000E+00 -0.21787300408E+03  0.26009822732E+04  0.25918410714E+04 0.  0.
        1    1    3    3  502    0  0.25287502888E+03 -0.12519039078E+04  0.11138476431E+03  0.12820357797E+04  0.50400001928E-02 0.  1.
       -1    1    3    3    0  502 -0.25287502888E+03  0.12519039078E+04 -0.32925776839E+03  0.13189464935E+04  0.50400001928E-02 0. -1.
</event>
<event>
 5   0  0.4415080E-06  0.2597126E+04  0.7818609E-02  0.8369178E-01
       -1   -1    0    0    0  501  0.00000000000E+00  0.00000000000E+00  0.88036967515E+03  0.88036967517E+03  0.50400001928E-02 0. -1.
        1   -1    0    0  501    0  0.00000000000E+00  0.00000000000E+00 -0.19154066676E+04  0.19154066676E+04  0.50400001928E-02 0.  1.
    10030    2    1    2    0    0  0.00000000000E+00  0.00000000000E+00 -0.10350369925E+04  0.27957763428E+04  0.25971260622E+04 0.  0.
        2    1    3    3  502    0  0.33713491535E+03  0.29571760765E+03  0.79436597648E+03  0.91220949306E+03  0.25500000920E-02 0. -1.
       -2    1    3    3    0  502 -0.33713491535E+03 -0.29571760765E+03 -0.18294029690E+04  0.18835668497E+04  0.25500000920E-02 0.  1.
</event>
<event>
 5   0  0.1136881E-05  0.2577167E+04  0.7818609E-02  0.8375999E-01
        2   -1    0    0  501    0  0.00000000000E+00  0.00000000000E+00  0.11114426718E+04  0.11114426718E+04  0.25500000920E-02 0.  1.
       -2   -1    0    0    0  501  0.00000000000E+00  0.00000000000E+00 -0.14939569585E+04  0.14939569585E+04  0.25500000920E-02 0. -1.
    10030    2    1    2    0    0  0.00000000000E+00  0.00000000000E+00 -0.38251428669E+03  0.26053996302E+04  0.25771670597E+04 0.  0.
        3    1    3    3  502    0 -0.96848710027E+03  0.36986699417E+01 -0.10505489097E+04  0.14288575735E+04  0.10100000352E+00 0. -1.
       -3    1    3    3    0  502  0.96848710027E+03 -0.36986699417E+01  0.66803462299E+03  0.11765420567E+04  0.10100000352E+00 0.  1.
</event>
<event>
 5   0  0.4415080E-06  0.2610030E+04  0.7818609E-02  0.8364802E-01
       -1   -1    0    0    0  501  0.00000000000E+00  0.00000000000E+00  0.90390743235E+03  0.90390743236E+03  0.50400001928E-02 0. -1.
        1   -1    0    0  501    0  0.00000000000E+00  0.00000000000E+00 -0.18841137710E+04  0.18841137710E+04  0.50400001928E-02 0.  1.
    10030    2    1    2    0    0  0.00000000000E+00  0.00000000000E+00 -0.98020633868E+03  0.27880212034E+04  0.26100302228E+04 0.  0.
        2    1    3    3  502    0 -0.52694885522E+03 -0.61371276283E+03 -0.15840234970E+04  0.17786086951E+04  0.25500000920E-02 0.  1.
       -2    1    3    3    0  502  0.52694885522E+03  0.61371276283E+03  0.60381715829E+03  0.10094125083E+04  0.25500000920E-02 0. -1.
</event>
<event>
 5   0  0.1116310E-05  0.2595161E+04  0.7818609E-02  0.8369847E-01
        2   -1    0    0  501    0  0.00000000000E+00  0.00000000000E+00  0.19881333411E+04  0.19881333411E+04  0.25500000920E-02 0.  1.
       -2   -1    0    0    0  501  0.00000000000E+00  0.00000000000E+00 -0.84688244725E+03  0.84688244725E+03  0.25500000920E-02 0. -1.
    10030    2    1    2    0    0  0.00000000000E+00  0.00000000000E+00  0.11412508939E+04  0.28350157884E+04  0.25951610581E+04 0.  0.
        4    1    3    3  502    0  0.39159936955E+03  0.72089153640E+03  0.16688667552E+04  0.18596108553E+04  0.12699999809E+01 0.  1.
       -4    1    3    3    0  502 -0.39159936955E+03 -0.72089153640E+03 -0.52761586134E+03  0.97540493310E+03  0.12699999809E+01 0. -1.
</event>
<event>
 5   0  0.4361864E-06  0.2605190E+04  0.7818609E-02  0.8366441E-01
       -1   -1    0    0    0  501  0.00000000000E+00  0.00000000000E+00  0.14031859835E+04  0.14031859835E+04  0.50400001928E-02 0. -1.
        1   -1    0    0  501    0  0.00000000000E+00  0.00000000000E+00 -0.12092148081E+04  0.12092148081E+04  0.50400001928E-02 0.  1.
    10030    2    1    2    0    0  0.00000000000E+00  0.00000000000E+00  0.19397117546E+03  0.26124007916E+04  0.26051896436E+04 0.  0.
        3    1    3    3  502    0  0.61921441383E+03 -0.11296306181E+04  0.29055211443E+03  0.13205727413E+04  0.10100000352E+00 0.  1.
       -3    1    3    3    0  502 -0.61921441383E+03  0.11296306181E+04 -0.96580938971E+02  0.12918280503E+04  0.10100000352E+00 0. -1.
</event>
<event>
 5   0  0.4218590E-06  0.2608850E+04  0.7818609E-02  0.8365201E-01
        1   -1    0    0  501    0  0.00000000000E+00  0.00000000000E+00  0.19094148519E+04  0.19094148519E+04  0.50400001928E-02 0.  1.
       -1   -1    0    0    0  501  0.00000000000E+00  0.00000000000E+00 -0.89112326012E+03  0.89112326013E+03  0.50400001928E-02 0. -1.
    10030    2    1    2    0    0  0.00000000000E+00  0.00000000000E+00  0.10182915918E+04  0.28005381120E+04  0.26088495455E+04 0.  0.
        1    1    3    3  502    0 -0.24124555115E+03  0.66030337570E+03  0.16886632582E+04  0.18291483164E+04  0.50400001928E-02 0.  1.
       -1    1    3    3    0  502  0.24124555115E+03 -0.66030337570E+03 -0.67037166639E+03  0.97138979562E+03  0.50400001928E-02 0. -1.
</event>
<event>
 5   0  0.1116310E-05  0.2599621E+04  0.7818609E-02  0.8368330E-01
       -2   -1    0    0    0  501  0.00000000000E+00  0.00000000000E+00  0.18506909201E+04  0.18506909201E+04  0.25500000920E-02 0. -1.
        2   -1    0    0  501    0  0.00000000000E+00  0.00000000000E+00 -0.91290636689E+03  0.91290636690E+03  0.25500000920E-02 0.  1.
    10030    2    1    2    0    0  0.00000000000E+00  0.00000000000E+00  0.93778455319E+03  0.27635972870E+04  0.25996211448E+04 0.  0.
        4    1    3    3  502    0 -0.68201600622E+03 -0.67329544872E+03  0.14023642201E+04  0.16985580981E+04  0.12699999809E+01 0. -1.
       -4    1    3    3    0  502  0.68201600622E+03  0.67329544872E+03 -0.46457966690E+03  0.10650391889E+04  0.12699999809E+01 0.  1.
</event>
<event>
 5   0  0.1085255E-05  0.2613293E+04  0.7818609E-02  0.8363700E-01
        2   -1    0    0  501    0  0.00000000000E+00  0.00000000000E+00  0.20566188953E+04  0.20566188953E+04  0.25500000920E-02 0.  1.
       -2   -1    0    0    0  501  0.00000000000E+00  0.00000000000E+00 -0.83016101087E+03  0.83016101087E+03  0.25500000920E-02 0. -1.
    10030    2    1    2    0    0  0.00000000000E+00  0.00000000000E+00  0.12264578844E+04  0.28867799062E+04  0.26132928050E+04 0.  0.
        5    1    3    3  502    0  0.37547509473E+03  0.33849644675E+03 -0.71774705329E+03  0.87792044840E+03  0.46999998093E+01 0. -1.
       -5    1    3    3    0  502 -0.37547509473E+03 -0.33849644675E+03  0.19442049377E+04  0.20088594578E+04  0.46999998093E+01 0.  1.
</event>
<event>
 5   0  0.4415080E-06  0.2599632E+04  0.7818609E-02  0.8368326E-01
       -1   -1    0    0    0  501  0.00000000000E+00  0.00000000000E+00  0.77030357168E+03  0.77030357169E+03  0.50400001928E-02 0.  1.
        1   -1    0    0  501    0  0.00000000000E+00  0.00000000000E+00 -0.21933184385E+04  0.21933184385E+04  0.50400001928E-02 0. -1.
    10030    2    1    2    0    0  0.00000000000E+00  0.00000000000E+00 -0.14230148668E+04  0.29636220102E+04  0.25996315331E+04 0.  0.
        2    1    3    3  502    0  0.64882578645E+03  0.27592264426E+03 -0.19563783867E+04  0.20795491335E+04  0.25500000920E-02 0. -1.
       -2    1    3    3    0  502 -0.64882578645E+03 -0.27592264426E+03  0.53336351993E+03  0.88407287662E+03  0.25500000920E-02 0.  1.
</event>
<event>
 5   0  0.4464297E-06  0.2479969E+04  0.7818609E-02  0.8410157E-01
        1   -1    0    0  501    0  0.00000000000E+00  0.00000000000E+00  0.24847926698E+04  0.24847926698E+04  0.50400001928E-02 0.  1.
       -1   -1    0    0    0  501  0.00000000000E+00  0.00000000000E+00 -0.61878866638E+03  0.61878866640E+03  0.50400001928E-02 0. -1.
    10030    2    1    2    0    0  0.00000000000E+00  0.00000000000E+00  0.18660040034E+04  0.31035813362E+04  0.24799689856E+04 0.  0.
        4    1    3    3  502    0  0.43767467799E+03  0.22441715888E+03 -0.49148561310E+03  0.69532863147E+03  0.12699999809E+01 0. -1.
       -4    1    3    3    0  502 -0.43767467799E+03 -0.22441715888E+03  0.23574896165E+04  0.24082527047E+04  0.12699999809E+01 0.  1.
</event>
<event>
 5   0  0.4218590E-06  0.2570677E+04  0.7818609E-02  0.8378230E-01
       -1   -1    0    0    0  501  0.00000000000E+00  0.00000000000E+00  0.12341012504E+04  0.12341012504E+04  0.50400001928E-02 0. -1.
        1   -1    0    0  501    0  0.00000000000E+00  0.00000000000E+00 -0.13387032897E+04  0.13387032897E+04  0.50400001928E-02 0.  1.
    10030    2    1    2    0    0  0.00000000000E+00  0.00000000000E+00 -0.10460203932E+03  0.25728045401E+04  0.25706772677E+04 0.  0.
        1    1    3    3  502    0  0.58905440560E+03  0.34834463593E+03 -0.11412116236E+04  0.13306739075E+04  0.50400001928E-02 0.  1.
       -1    1    3    3    0  502 -0.58905440560E+03 -0.34834463593E+03  0.10366095843E+04  0.12421306326E+04  0.50400001928E-02 0. -1.
</event>
<event>
 5   0  0.4597705E-06  0.2622625E+04  0.7818609E-02  0.8360556E-01
       -1   -1    0    0    0  501  0.00000000000E+00  0.00000000000E+00  0.78684663935E+03  0.78684663936E+03  0.50400001928E-02 0. -1.
        1   -1    0    0  501    0  0.00000000000E+00  0.00000000000E+00 -0.21853572686E+04  0.21853572686E+04  0.50400001928E-02 0.  1.
    10030    2    1    2    0    0  0.00000000000E+00  0.00000000000E+00 -0.13985106293E+04  0.29722039080E+04  0.26226254194E+04 0.  0.
        5    1    3    3  502    0 -0.10961055197E+04 -0.26036495907E+03  0.61218891454E+02  0.11282761475E+04  0.46999998093E+01 0. -1.
       -5    1    3    3    0  502  0.10961055197E+04  0.26036495907E+03 -0.14597295207E+04  0.18439277605E+04  0.46999998093E+01 0.  1.
</event>
<event>
 5   0  0.4361864E-06  0.2610386E+04  0.7818609E-02  0.8364682E-01
       -1   -1    0    0    0  501  0.00000000000E+00  0.00000000000E+00  0.11737402322E+04  0.11737402322E+04  0.50400001928E-02 0. -1.
        1   -1    0    0  501    0  0.00000000000E+00  0.00000000000E+00 -0.14513682069E+04  0.14513682069E+04  0.50400001928E-02 0.  1.
    10030    2    1    2    0    0  0.00000000000E+00  0.00000000000E+00 -0.27762797465E+03  0.26251084391E+04  0.26103863746E+04 0.  0.
        3    1    3    3  502    0  0.74463566890E+03 -0.24078250787E+03  0.91162035259E+03  0.12014616819E+04  0.10100000352E+00 0. -1.
       -3    1    3    3    0  502 -0.74463566890E+03  0.24078250787E+03 -0.11892483272E+04  0.14236467573E+04  0.10100000352E+00 0.  1.
</event>
<event>
 5   0  0.1085061E-05  0.2604242E+04  0.7818609E-02  0.8366762E-01
        2   -1    0    0  501    0  0.00000000000E+00  0.00000000000E+00  0.25049174633E+04  0.25049174633E+04  0.25500000920E-02 0. -1.
       -2   -1    0    0    0  501  0.00000000000E+00  0.00000000000E+00 -0.67687607679E+03  0.67687607679E+03  0.25500000920E-02 0.  1.
    10030    2    1    2    0    0  0.00000000000E+00  0.00000000000E+00  0.18280413865E+04  0.31817935401E+04  0.26042416979E+04 0.  0.
        1    1    3    3  502    0  0.99278768718E+02 -0.14063867573E+03  0.24909527466E+04  0.24968942903E+04  0.50400001928E-02 0. -1.
       -1    1    3    3    0  502 -0.99278768718E+02  0.14063867573E+03 -0.66291136009E+03  0.68489924981E+03  0.50400001928E-02 0.  1.
</event>
<event>
 5   0  0.4597705E-06  0.2350170E+04  0.7818609E-02  0.8458399E-01
        1   -1    0    0  501    0  0.00000000000E+00  0.00000000000E+00  0.63914674834E+03  0.63914674836E+03  0.50400001928E-02 0. -1.
       -1   -1    0    0    0  501  0.00000000000E+00  0.00000000000E+00 -0.21604182223E+04  0.21604182223E+04  0.50400001928E-02 0.  1.
    10030    2    1    2    0    0  0.00000000000E+00  0.00000000000E+00 -0.15212714739E+04  0.27995649707E+04  0.23501695955E+04 0.  0.
        5    1    3    3  502    0  0.76034885633E+03 -0.82801329199E+03 -0.35306184162E+03  0.11783085967E+04  0.46999998093E+01 0. -1.
       -5    1    3    3    0  502 -0.76034885633E+03  0.82801329199E+03 -0.11682096323E+04  0.16212563740E+04  0.46999998093E+01 0.  1.
</event>
<event>
 5   0  0.4218590E-06  0.2610656E+04  0.7818609E-02  0.8364591E-01
       -1   -1    0    0    0  501  0.00000000000E+00  0.00000000000E+00  0.90145784321E+03  0.90145784322E+03  0.50400001928E-02 0. -1.
        1   -1    0    0  501    0  0.00000000000E+00  0.00000000000E+00 -0.18901392224E+04  0.18901392225E+04  0.50400001928E-02 0.  1.
    10030    2    1    2    0    0  0.00000000000E+00  0.00000000000E+00 -0.98868137924E+03  0.27915970657E+04  0.26106557236E+04 0.  0.
        1    1    3    3  502    0 -0.78783920380E+03 -0.66484643755E+03 -0.13505689017E+04  0.16990431880E+04  0.50400001928E-02 0.  1.
       -1    1    3    3    0  502  0.78783920380E+03  0.66484643755E+03  0.36188752247E+03  0.10925538776E+04  0.50400001928E-02 0. -1.
</event>
<event>
 5   0  0.4361864E-06  0.2586230E+04  0.7818609E-02  0.8372894E-01
       -1   -1    0    0    0  501  0.00000000000E+00  0.00000000000E+00  0.12599477500E+04  0.12599477501E+04  0.50400001928E-02 0. -1.
        1   -1    0    0  501    0  0.00000000000E+00  0.00000000000E+00 -0.13271554889E+04  0.13271554889E+04  0.50400001928E-02 0.  1.
    10030    2    1    2    0    0  0.00000000000E+00  0.00000000000E+00 -0.67207738882E+02  0.25871032390E+04  0.25862301307E+04 0.  0.
        3    1    3    3  502    0  0.53297861579E+03  0.65746257106E+03  0.94438836133E+03  0.12681453483E+04  0.10100000352E+00 0. -1.
       -3    1    3    3    0  502 -0.53297861579E+03 -0.65746257106E+03 -0.10115961002E+04  0.13189578907E+04  0.10100000352E+00 0.  1.
</event>
<event>
 5   0  0.4464297E-06  0.2606867E+04  0.7818609E-02  0.8365872E-01
       -1   -1    0    0    0  501  0.00000000000E+00  0.00000000000E+00  0.21517379144E+04  0.21517379144E+04  0.50400001928E-02 0. -1.
        1   -1    0    0  501    0  0.00000000000E+00  0.00000000000E+00 -0.78956573817E+03  0.78956573818E+03  0.50400001928E-02 0.  1.
    10030    2    1    2    0    0  0.00000000000E+00  0.00000000000E+00  0.13621721762E+04  0.29413036526E+04  0.26068667283E+04 0.  0.
        4    1    3    3  502    0 -0.36942706827E+02 -0.80521531134E+03  0.18367998091E+04  0.20058842472E+04  0.12699999809E+01 0. -1.
       -4    1    3    3    0  502  0.36942706827E+02  0.80521531134E+03 -0.47462763292E+03  0.93541940542E+03  0.12699999809E+01 0.  1.
</event>
<event>
 5   0  0.4361864E-06  0.2610430E+04  0.7818609E-02  0.8364667E-01
       -1   -1    0    0    0  501  0.00000000000E+00  0.00000000000E+00  0.61568659825E+03  0.61568659827E+03  0.50400001928E-02 0.  1.
        1   -1    0    0  501    0  0.00000000000E+00  0.00000000000E+00 -0.27669698784E+04  0.27669698784E+04  0.50400001928E-02 0. -1.
    10030    2    1    2    0    0  0.00000000000E+00  0.00000000000E+00 -0.21512832801E+04  0.33826564766E+04  0.26104300580E+04 0.  0.
        3    1    3    3  502    0  0.32437635047E+03  0.76783789686E+03  0.22586527089E+03  0.86360302419E+03  0.10100000352E+00 0.  1.
       -3    1    3    3    0  502 -0.32437635047E+03 -0.76783789686E+03 -0.23771485510E+04  0.25190534524E+04  0.10100000352E+00 0. -1.
</event>
<event>
 5   0  0.1085061E-05  0.2591431E+04  0.7818609E-02  0.8371118E-01
        2   -1    0    0  501    0  0.00000000000E+00  0.00000000000E+00  0.99504311737E+03  0.99504311737E+03  0.25500000920E-02 0. -1.
       -2   -1    0    0    0  501  0.00000000000E+00  0.00000000000E+00 -0.16872414953E+04  0.16872414953E+04  0.25500000920E-02 0.  1.
    10030    2    1    2    0    0  0.00000000000E+00  0.00000000000E+00 -0.69219837795E+03  0.26822846127E+04  0.25914305218E+04 0.  0.
        1    1    3    3  502    0  0.12206382120E+04  0.83939664391E+02  0.95320016955E+02  0.12272283477E+04  0.50400001928E-02 0. -1.
       -1    1    3    3    0  502 -0.12206382120E+04 -0.83939664391E+02 -0.78751839491E+03  0.14550562650E+04  0.50400001928E-02 0.  1.
</event>
<event>
 5   0  0.1136881E-05  0.2578069E+04  0.7818609E-02  0.8375689E-01
       -2   -1    0    0    0  501  0.00000000000E+00  0.00000000000E+00  0.62977378919E+03  0.62977378920E+03  0.25500000920E-02 0.  1.
        2   -1    0    0  501    0  0.00000000000E+00  0.00000000000E+00 -0.26384233316E+04  0.26384233316E+04  0.25500000920E-02 0. -1.
    10030    2    1    2    0    0  0.00000000000E+00  0.00000000000E+00 -0.20086495424E+04  0.32681971208E+04  0.25780689355E+04 0.  0.
        3    1    3    3  502    0  0.76426801421E+03 -0.80982470260E+03 -0.18111703593E+03  0.11281511589E+04  0.10100000352E+00 0.  1.
       -3    1    3    3    0  502 -0.76426801421E+03  0.80982470260E+03 -0.18275325065E+04  0.21400459619E+04  0.10100000352E+00 0. -1.
</event>
<event>
 5   0  0.4361864E-06  0.2602269E+04  0.7818609E-02  0.8367431E-01
       -1   -1    0    0    0  501  0.00000000000E+00  0.00000000000E+00  0.78148455551E+03  0.78148455552E+03  0.50400001928E-02 0. -1.
        1   -1    0    0  501    0  0.00000000000E+00  0.00000000000E+00 -0.21663267065E+04  0.21663267065E+04  0.50400001928E-02 0.  1.
    10030    2    1    2    0    0  0.00000000000E+00  0.00000000000E+00 -0.13848421510E+04  0.29478112621E+04  0.26022689049E+04 0.  0.
        3    1    3    3  502    0 -0.48967639193E+03  0.10691992682E+04 -0.13231095656E+04  0.17701946155E+04  0.10100000352E+00 0.  1.
       -3    1    3    3    0  502  0.48967639193E+03 -0.10691992682E+04 -0.61732585394E+02  0.11776166465E+04  0.10100000352E+00 0. -1.
</event>
<event>
 5   0  0.3705250E-06  0.2598484E+04  0.7818609E-02  0.8368716E-01
       -4   -1    0    0    0  501  0.00000000000E+00  0.00000000000E+00  0.10469496092E+04  0.10469503795E+04  0.12699999809E+01 0.  1.
        4   -1    0    0  501    0  0.00000000000E+00  0.00000000000E+00 -0.16123295805E+04  0.16123300807E+04  0.12699999809E+01 0. -1.
    10030    2    1    2    0    0  0.00000000000E+00  0.00000000000E+00 -0.56537997132E+03  0.26592804602E+04  0.25984837990E+04 0.  0.
        3    1    3    3  502    0 -0.28886859183E+03  0.10779951812E+04 -0.96346887610E+03  0.14743781602E+04  0.10100000352E+00 0. -1.
       -3    1    3    3    0  502  0.28886859183E+03 -0.10779951812E+04  0.39808890478E+03  0.11849022999E+04  0.10100000352E+00 0.  1.
</event>
<event>
 5   0  0.4464297E-06  0.2605150E+04  0.7818609E-02  0.8366454E-01
       -1   -1    0    0    0  501  0.00000000000E+00  0.00000000000E+00  0.79621144728E+03  0.79621144730E+03  0.50400001928E-02 0.  1.
        1   -1    0    0  501    0  0.00000000000E+00  0.00000000000E+00 -0.21309684171E+04  0.21309684171E+04  0.50400001928E-02 0. -1.
    10030    2    1    2    0    0  0.00000000000E+00  0.00000000000E+00 -0.13347569698E+04  0.29271798644E+04  0.26051498594E+04 0.  0.
        4    1    3    3  502    0  0.32254496106E+03  0.10460046672E+04  0.12597400381E+03  0.11018312385E+04  0.12699999809E+01 0.  1.
       -4    1    3    3    0  502 -0.32254496106E+03 -0.10460046672E+04 -0.14607309736E+04  0.18253486259E+04  0.12699999809E+01 0. -1.
</event>
<event>
 5   0  0.4415080E-06  0.2598656E+04  0.7818609E-02  0.8368658E-01
       -1   -1    0    0    0  501  0.00000000000E+00  0.00000000000E+00  0.65238754935E+03  0.65238754937E+03  0.50400001928E-02 0. -1.
        1   -1    0    0  501    0  0.00000000000E+00  0.00000000000E+00 -0.25878064892E+04  0.25878064892E+04  0.50400001928E-02 0.  1.
    10030    2    1    2    0    0  0.00000000000E+00  0.00000000000E+00 -0.19354189398E+04  0.32401940385E+04  0.25986556014E+04 0.  0.
        2    1    3    3  502    0 -0.97596072100E+03 -0.41788959970E+02 -0.20359582829E+04  0.22581788627E+04  0.25500000920E-02 0.  1.
       -2    1    3    3    0  502  0.97596072100E+03  0.41788959970E+02  0.10053934310E+03  0.98201517586E+03  0.25500000920E-02 0. -1.
</event>
<event>
 5   0  0.4218590E-06  0.2490781E+04  0.7818609E-02  0.8406277E-01
       -1   -1    0    0    0  501  0.00000000000E+00  0.00000000000E+00  0.72339601506E+03  0.72339601507E+03  0.50400001928E-02 0.  1.
        1   -1    0    0  501    0  0.00000000000E+00  0.00000000000E+00 -0.21440512323E+04  0.21440512323E+04  0.50400001928E-02 0. -1.
    10030    2    1    2    0    0  0.00000000000E+00  0.00000000000E+00 -0.14206552173E+04  0.28674472474E+04  0.24907814979E+04 0.  0.
        1    1    3    3  502    0  0.26282425519E+03 -0.62294083811E+03 -0.19143703821E+04  0.20302575790E+04  0.50400001928E-02 0. -1.
       -1    1    3    3    0  502 -0.26282425519E+03  0.62294083811E+03  0.49371516487E+03  0.83718966844E+03  0.50400001928E-02 0.  1.
</event>
<event>
 5   0  0.4597705E-06  0.2623900E+04  0.7818609E-02  0.8360128E-01
        1   -1    0    0  501    0  0.00000000000E+00  0.00000000000E+00  0.13548600713E+04  0.13548600713E+04  0.50400001928E-02 0. -1.
       -1   -1    0    0    0  501  0.00000000000E+00  0.00000000000E+00 -0.12703988726E+04  0.12703988726E+04  0.50400001928E-02 0.  1.
    10030    2    1    2    0    0  0.00000000000E+00  0.00000000000E+00  0.84461198751E+02  0.26252589439E+04  0.26238999273E+04 0.  0.
        5    1    3    3  502    0 -0.40607698313E+03  0.17081935631E+03 -0.11941735241E+04  0.12728512342E+04  0.46999998093E+01 0.  1.
       -5    1    3    3    0  502  0.40607698313E+03 -0.17081935631E+03  0.12786347229E+04  0.13524077097E+04  0.46999998093E+01 0. -1.
</event>
<event>
 5   0  0.1085255E-05  0.2604555E+04  0.7818609E-02  0.8366656E-01
       -2   -1    0    0    0  501  0.00000000000E+00  0.00000000000E+00  0.10393456443E+04  0.10393456443E+04  0.25500000920E-02 0. -1.
        2   -1    0    0  501    0  0.00000000000E+00  0.00000000000E+00 -0.16317252524E+04  0.16317252524E+04  0.25500000920E-02 0.  1.
    10030    2    1    2    0    0  0.00000000000E+00  0.00000000000E+00 -0.59237960806E+03  0.26710708967E+04  0.26045548823E+04 0.  0.
        5    1    3    3  502    0  0.40622591205E+03  0.20717753507E+03 -0.15471626527E+04  0.16129712913E+04  0.46999998093E+01 0.  1.
       -5    1    3    3    0  502 -0.40622591205E+03 -0.20717753507E+03  0.95478304461E+03  0.10580996054E+04  0.46999998093E+01 0. -1.
</event>
<event>
 5   0  0.1116310E-05  0.2598473E+04  0.7818609E-02  0.8368720E-01
       -2   -1    0    0    0  501  0.00000000000E+00  0.00000000000E+00  0.81359065510E+03  0.81359065510E+03  0.25500000920E-02 0.  1.
        2   -1    0    0  501    0  0.00000000000E+00  0.00000000000E+00 -0.20747726279E+04  0.20747726279E+04  0.25500000920E-02 0. -1.
    10030    2    1    2    0    0  0.00000000000E+00  0.00000000000E+00 -0.12611819728E+04  0.28883632830E+04  0.25984731067E+04 0.  0.
        4    1    3    3  502    0 -0.55440404616E+03  0.47123176934E+03  0.56587022498E+03  0.92175590654E+03  0.12699999809E+01 0.  1.
       -4    1    3    3    0  502  0.55440404616E+03 -0.47123176934E+03 -0.18270521978E+04  0.19666073764E+04  0.12699999809E+01 0. -1.
</event>
<event>
 5   0  0.4597705E-06  0.2536063E+04  0.7818609E-02  0.8390250E-01
       -1   -1    0    0    0  501  0.00000000000E+00  0.00000000000E+00  0.13850948966E+04  0.13850948966E+04  0.50400001928E-02 0.  1.
        1   -1    0    0  501    0  0.00000000000E+00  0.00000000000E+00 -0.11608615913E+04  0.11608615913E+04  0.50400001928E-02 0. -1.
    10030    2    1    2    0    0  0.00000000000E+00  0.00000000000E+00  0.22423330526E+03  0.25459564879E+04  0.25360626694E+04 0.  0.
        5    1    3    3  502    0 -0.15236188164E+03  0.65802578821E+03 -0.96522856887E+03  0.11780918305E+04  0.46999998093E+01 0. -1.
       -5    1    3    3    0  502  0.15236188164E+03 -0.65802578821E+03  0.11894618741E+04  0.13678646574E+04  0.46999998093E+01 0.  1.
</event>
<event>
 5   0  0.3705250E-06  0.2599094E+04  0.7818609E-02  0.8368509E-01
        3   -1    0    0  501    0  0.00000000000E+00  0.00000000000E+00  0.11401461699E+04  0.11401461743E+04  0.10100000352E+00 0.  1.
       -3   -1    0    0    0  501  0.00000000000E+00  0.00000000000E+00 -0.14812333703E+04  0.14812333737E+04  0.10100000352E+00 0. -1.
    10030    2    1    2    0    0  0.00000000000E+00  0.00000000000E+00 -0.34108720044E+03  0.26213795481E+04  0.25990941223E+04 0.  0.
        3    1    3    3  502    0 -0.50341868979E+03 -0.69519795288E+03 -0.11546620046E+04  0.14387407431E+04  0.10100000352E+00 0. -1.
       -3    1    3    3    0  502  0.50341868979E+03  0.69519795288E+03  0.81357480412E+03  0.11826388050E+04  0.10100000352E+00 0.  1.
</event>
<event>
 5   0  0.1085061E-05  0.2592681E+04  0.7818609E-02  0.8370692E-01
        2   -1    0    0  501    0  0.00000000000E+00  0.00000000000E+00  0.14033210919E+04  0.14033210919E+04  0.25500000920E-02 0.  1.
       -2   -1    0    0    0  501  0.00000000000E+00  0.00000000000E+00 -0.11975154702E+04  0.11975154702E+04  0.25500000920E-02 0. -1.
    10030    2    1    2    0    0  0.00000000000E+00  0.00000000000E+00  0.20580562167E+03  0.26008365621E+04  0.25926810195E+04 0.  0.
        1    1    3    3  502    0  0.95458377471E+03 -0.79620646350E+03 -0.26611817828E+03  0.12712174481E+04  0.50400001928E-02 0. -1.
       -1    1    3    3    0  502 -0.95458377471E+03  0.79620646350E+03  0.47192379995E+03  0.13296191140E+04  0.50400001928E-02 0.  1.
</event>
<event>
 5   0  0.1116310E-05  0.2601586E+04  0.7818609E-02  0.8367663E-01
       -2   -1    0    0    0  501  0.00000000000E+00  0.00000000000E+00  0.81726401601E+03  0.81726401602E+03  0.25500000920E-02 0. -1.
        2   -1    0    0  501    0  0.00000000000E+00  0.00000000000E+00 -0.20703992456E+04  0.20703992456E+04  0.25500000920E-02 0.  1.
    10030    2    1    2    0    0  0.00000000000E+00  0.00000000000E+00 -0.12531352296E+04  0.28876632616E+04  0.26015862870E+04 0.  0.
        4    1    3    3  502    0  0.70407898305E+03 -0.24237637028E+03  0.55729348643E+03  0.93008126643E+03  0.12699999809E+01 0. -1.
       -4    1    3    3    0  502 -0.70407898305E+03  0.24237637028E+03 -0.18104287160E+04  0.19575819952E+04  0.12699999809E+01 0.  1.
</event>
<event>
 5   0  0.1116310E-05  0.2575400E+04  0.7818609E-02  0.8376605E-01
       -2   -1    0    0    0  501  0.00000000000E+00  0.00000000000E+00  0.86681909550E+03  0.86681909550E+03  0.25500000920E-02 0. -1.
        2   -1    0    0  501    0  0.00000000000E+00  0.00000000000E+00 -0.19129384371E+04  0.19129384371E+04  0.25500000920E-02 0.  1.
    10030    2    1    2    0    0  0.00000000000E+00  0.00000000000E+00 -0.10461193416E+04  0.27797575326E+04  0.25754002142E+04 0.  0.
        4    1    3    3  502    0  0.41136307372E+03 -0.29708749556E+03 -0.18004778972E+04  0.18706156285E+04  0.12699999809E+01 0.  1.
       -4    1    3    3    0  502 -0.41136307372E+03  0.29708749556E+03  0.75435855561E+03  0.90914190408E+03  0.12699999809E+01 0. -1.
</event>
<event>
 5   0  0.4218590E-06  0.2616366E+04  0.7818609E-02  0.8362663E-01
        1   -1    0    0  501    0  0.00000000000E+00  0.00000000000E+00  0.18040345297E+04  0.18040345297E+04  0.50400001928E-02 0.  1.
       -1   -1    0    0    0  501  0.00000000000E+00  0.00000000000E+00 -0.94861956597E+03  0.94861956598E+03  0.50400001928E-02 0. -1.
    10030    2    1    2    0    0  0.00000000000E+00  0.00000000000E+00  0.85541496370E+03  0.27526540957E+04  0.26163657639E+04 0.  0.
        1    1    3    3  502    0  0.12619610858E+04  0.21891640285E+03  0.14762149447E+03  0.12892875084E+04  0.50400001928E-02 0.  1.
       -1    1    3    3    0  502 -0.12619610858E+04 -0.21891640285E+03  0.70779346923E+03  0.14633665873E+04  0.50400001928E-02 0. -1.
</event>
<event>
 5   0  0.4361864E-06  0.2528213E+04  0.7818609E-02  0.8393003E-01
        1   -1    0    0  501    0  0.00000000000E+00  0.00000000000E+00  0.17184620871E+04  0.17184620871E+04  0.50400001928E-02 0. -1.
       -1   -1    0    0    0  501  0.00000000000E+00  0.00000000000E+00 -0.92988067303E+03  0.92988067304E+03  0.50400001928E-02 0.  1.
    10030    2    1    2    0    0  0.00000000000E+00  0.00000000000E+00  0.78858141407E+03  0.26483427602E+04  0.25282125561E+04 0.  0.
        3    1    3    3  502    0 -0.10389704050E+04  0.69753817624E+03  0.58151687816E+03  0.13799206135E+04  0.10100000352E+00 0. -1.
       -3    1    3    3    0  502  0.10389704050E+04 -0.69753817624E+03  0.20706453591E+03  0.12684221466E+04  0.10100000352E+00 0.  1.
</event>
<event>
 5   0  0.4361864E-06  0.2577955E+04  0.7818609E-02  0.8375728E-01
       -1   -1    0    0    0  501  0.00000000000E+00  0.00000000000E+00  0.97423908398E+03  0.97423908400E+03  0.50400001928E-02 0.  1.
        1   -1    0    0  501    0  0.00000000000E+00  0.00000000000E+00 -0.17053955474E+04  0.17053955474E+04  0.50400001928E-02 0. -1.
    10030    2    1    2    0    0  0.00000000000E+00  0.00000000000E+00 -0.73115646342E+03  0.26796346314E+04  0.25779550004E+04 0.  0.
        3    1    3    3  502    0  0.12901336244E+03 -0.25520791021E+03 -0.16720073004E+04  0.16962853380E+04  0.10100000352E+00 0. -1.
       -3    1    3    3    0  502 -0.12901336244E+03  0.25520791021E+03  0.94085083700E+03  0.98334929339E+03  0.10100000352E+00 0.  1.
</event>
<event>
 5   0  0.1116310E-05  0.2601990E+04  0.7818609E-02  0.8367526E-01
        2   -1    0    0  501    0  0.00000000000E+00  0.00000000000E+00  0.13086673227E+04  0.13086673227E+04  0.25500000920E-02 0. -1.
       -2   -1    0    0    0  501  0.00000000000E+00  0.00000000000E+00 -0.12933677317E+04  0.12933677317E+04  0.25500000920E-02 0.  1.
    10030    2    1    2    0    0  0.00000000000E+00  0.00000000000E+00  0.15299591000E+02  0.26020350545E+04  0.26019900744E+04 0.  0.
        4    1    3    3  502    0  0.10621855408E+04  0.67338781106E+03 -0.32536828343E+03  0.12990594289E+04  0.12699999809E+01 0.  1.
       -4    1    3    3    0  502 -0.10621855408E+04 -0.67338781106E+03  0.34066787443E+03  0.13029756255E+04  0.12699999809E+01 0. -1.
</event>
<event>
 5   0  0.4464297E-06  0.2611242E+04  0.7818609E-02  0.8364393E-01
       -1   -1    0    0    0  501  0.00000000000E+00  0.00000000000E+00  0.10738284902E+04  0.10738284902E+04  0.50400001928E-02 0. -1.
        1   -1    0    0  501    0  0.00000000000E+00  0.00000000000E+00 -0.15874468831E+04  0.15874468831E+04  0.50400001928E-02 0.  1.
    10030    2    1    2    0    0  0.00000000000E+00  0.00000000000E+00 -0.51361839291E+03  0.26612753733E+04  0.26112416125E+04 0.  0.
        4    1    3    3  502    0 -0.10221378473E+04  0.37223039975E+03 -0.99267077561E+03  0.14726568273E+04  0.12699999809E+01 0.  1.
       -4    1    3    3    0  502  0.10221378473E+04 -0.37223039975E+03  0.47905238270E+03  0.11886185459E+04  0.12699999809E+01 0. -1.
</event>
<event>
 5   0  0.1085061E-05  0.2608081E+04  0.7818609E-02  0.8365461E-01
       -2   -1    0    0    0  501  0.00000000000E+00  0.00000000000E+00  0.13057825801E+04  0.13057825801E+04  0.25500000920E-02 0.  1.
        2   -1    0    0  501    0  0.00000000000E+00  0.00000000000E+00 -0.13023009823E+04  0.13023009823E+04  0.25500000920E-02 0. -1.
    10030    2    1    2    0    0  0.00000000000E+00  0.00000000000E+00  0.34815978458E+01  0.26080835624E+04  0.26080812385E+04 0.  0.
        1    1    3    3  502    0 -0.19825259416E+03  0.80738010344E+03 -0.10029268142E+04  0.13027006245E+04  0.50400001928E-02 0. -1.
       -1    1    3    3    0  502  0.19825259416E+03 -0.80738010344E+03  0.10064084120E+04  0.13053829378E+04  0.50400001928E-02 0.  1.
</event>
<event>
 5   0  0.4597705E-06  0.2604857E+04  0.7818609E-02  0.8366553E-01
        1   -1    0    0  501    0  0.00000000000E+00  0.00000000000E+00  0.10425269665E+04  0.10425269665E+04  0.50400001928E-02 0.  1.
       -1   -1    0    0    0  501  0.00000000000E+00  0.00000000000E+00 -0.16271233757E+04  0.16271233757E+04  0.50400001928E-02 0. -1.
    10030    2    1    2    0    0  0.00000000000E+00  0.00000000000E+00 -0.58459640926E+03  0.26696503422E+04  0.26048569995E+04 0.  0.
        5    1    3    3  502    0 -0.59984715291E+03  0.67848138180E+03 -0.12516067660E+04  0.15448932581E+04  0.46999998093E+01 0. -1.
       -5    1    3    3    0  502  0.59984715291E+03 -0.67848138180E+03  0.66701035671E+03  0.11247570841E+04  0.46999998093E+01 0.  1.
</event>
<event>
 5   0  0.1136881E-05  0.2525631E+04  0.7818609E-02  0.8393911E-01
        2   -1    0    0  501    0  0.00000000000E+00  0.00000000000E+00  0.15467255259E+04  0.15467255259E+04  0.25500000920E-02 0.  1.
       -2   -1    0    0    0  501  0.00000000000E+00  0.00000000000E+00 -0.10310189469E+04  0.10310189469E+04  0.25500000920E-02 0. -1.
    10030    2    1    2    0    0  0.00000000000E+00  0.00000000000E+00  0.51570657894E+03  0.25777444728E+04  0.25256312660E+04 0.  0.
        3    1    3    3  502    0 -0.10808125309E+04 -0.62104785883E+03  0.46413026775E+03  0.13301402503E+04  0.10100000352E+00 0. -1.
       -3    1    3    3    0  502  0.10808125309E+04  0.62104785883E+03  0.51576311185E+02  0.12476042225E+04  0.10100000352E+00 0.  1.
</event>
<event>
 5   0  0.1085061E-05  0.2606075E+04  0.7818609E-02  0.8366141E-01
        2   -1    0    0  501    0  0.00000000000E+00  0.00000000000E+00  0.17042599052E+04  0.17042599052E+04  0.25500000920E-02 0.  1.
       -2   -1    0    0    0  501  0.00000000000E+00  0.00000000000E+00 -0.99627179699E+03  0.99627179699E+03  0.25500000920E-02 0. -1.
    10030    2    1    2    0    0  0.00000000000E+00  0.00000000000E+00  0.70798810818E+03  0.27005317022E+04  0.26060745026E+04 0.  0.
        1    1    3    3  502    0  0.35549115623E+03 -0.10392509474E+04  0.10804672784E+04  0.15407225687E+04  0.50400001928E-02 0.  1.
       -1    1    3    3    0  502 -0.35549115623E+03  0.10392509474E+04 -0.37247917019E+03  0.11598091335E+04  0.50400001928E-02 0. -1.
</event>
<event>
 5   0  0.4597705E-06  0.2592035E+04  0.7818609E-02  0.8370912E-01
        1   -1    0    0  501    0  0.00000000000E+00  0.00000000000E+00  0.19486304998E+04  0.19486304998E+04  0.50400001928E-02 0. -1.
       -1   -1    0    0    0  501  0.00000000000E+00  0.00000000000E+00 -0.86197040792E+03  0.86197040793E+03  0.50400001928E-02 0.  1.
    10030    2    1    2    0    0  0.00000000000E+00  0.00000000000E+00  0.10866600919E+04  0.28106009077E+04  0.25920353600E+04 0.  0.
        5    1    3    3  502    0 -0.18480393081E+03  0.12046122528E+04  0.65247869405E+02  0.12204599735E+04  0.46999998093E+01 0.  1.
       -5    1    3    3    0  502  0.18480393081E+03 -0.12046122528E+04  0.10214122225E+04  0.15901409342E+04  0.46999998093E+01 0. -1.
</event>
<event>
 5   0  0.4415080E-06  0.2587121E+04  0.7818609E-02  0.8372589E-01
       -1   -1    0    0    0  501  0.00000000000E+00  0.00000000000E+00  0.93804074786E+03  0.93804074787E+03  0.50400001928E-02 0.  1.
        1   -1    0    0  501    0  0.00000000000E+00  0.00000000000E+00 -0.17838236181E+04  0.17838236181E+04  0.50400001928E-02 0. -1.
    10030    2    1    2    0    0  0.00000000000E+00  0.00000000000E+00 -0.84578287023E+03  0.27218643660E+04  0.25871213661E+04 0.  0.
        2    1    3    3  502    0  0.33489050417E+03 -0.40217800384E+03 -0.16674653118E+04  0.17476668340E+04  0.25500000920E-02 0. -1.
       -2    1    3    3    0  502 -0.33489050417E+03  0.40217800384E+03  0.82168244156E+03  0.97419753199E+03  0.25500000920E-02 0.  1.
</event>
<event>
 5   0  0.1086507E-05  0.2570494E+04  0.7818609E-02  0.8378293E-01
        2   -1    0    0  501    0  0.00000000000E+00  0.00000000000E+00  0.16953796769E+04  0.16953796769E+04  0.25500000920E-02 0.  1.
       -2   -1    0    0    0  501  0.00000000000E+00  0.00000000000E+00 -0.97433046589E+03  0.97433046590E+03  0.25500000920E-02 0. -1.
    10030    2    1    2    0    0  0.00000000000E+00  0.00000000000E+00  0.72104921105E+03  0.26697101428E+04  0.25704941708E+04 0.  0.
        2    1    3    3  502    0 -0.72274625457E+03  0.63846550380E+03  0.12429416602E+04  0.15731828625E+04  0.25500000920E-02 0.  1.
       -2    1    3    3    0  502  0.72274625457E+03 -0.63846550380E+03 -0.52189244920E+03  0.10965272804E+04  0.25500000920E-02 0. -1.
</event>
<event>
 5   0  0.1086507E-05  0.2588085E+04  0.7818609E-02  0.8372260E-01
       -2   -1    0    0    0  501  0.00000000000E+00  0.00000000000E+00  0.72259972342E+03  0.72259972342E+03  0.25500000920E-02 0. -1.
        2   -1    0    0  501    0  0.00000000000E+00  0.00000000000E+00 -0.23173901932E+04  0.23173901932E+04  0.25500000920E-02 0.  1.
    10030    2    1    2    0    0  0.00000000000E+00  0.00000000000E+00 -0.15947904698E+04  0.30399899167E+04  0.25880846297E+04 0.  0.
        2    1    3    3  502    0  0.99018653238E+03  0.33639296713E+03  0.97867086913E+02  0.10503368812E+04  0.25500000920E-02 0. -1.
       -2    1    3    3    0  502 -0.99018653238E+03 -0.33639296713E+03 -0.16926575567E+04  0.19896530355E+04  0.25500000920E-02 0.  1.
</event>
<event>
 5   0  0.4361864E-06  0.2595892E+04  0.7818609E-02  0.8369598E-01
       -1   -1    0    0    0  501  0.00000000000E+00  0.00000000000E+00  0.51639866059E+03  0.51639866061E+03  0.50400001928E-02 0. -1.
        1   -1    0    0  501    0  0.00000000000E+00  0.00000000000E+00 -0.32623321437E+04  0.32623321437E+04  0.50400001928E-02 0.  1.
    10030    2    1    2    0    0  0.00000000000E+00  0.00000000000E+00 -0.27459334831E+04  0.37787308043E+04  0.25958921006E+04 0.  0.
        3    1    3    3  502    0 -0.12222200140E+04 -0.43067034364E+03 -0.14795903940E+04  0.19668468298E+04  0.10100000352E+00 0.  1.
       -3    1    3    3    0  502  0.12222200140E+04  0.43067034364E+03 -0.12663430891E+04  0.18118839745E+04  0.10100000352E+00 0. -1.
</event>
<event>
 5   0  0.4415080E-06  0.2591566E+04  0.7818609E-02  0.8371072E-01
       -1   -1    0    0    0  501  0.00000000000E+00  0.00000000000E+00  0.10521574321E+04  0.10521574321E+04  0.50400001928E-02 0. -1.
        1   -1    0    0  501    0  0.00000000000E+00  0.00000000000E+00 -0.15958198929E+04  0.15958198929E+04  0.50400001928E-02 0.  1.
    10030    2    1    2    0    0  0.00000000000E+00  0.00000000000E+00 -0.54366246073E+03  0.26479773250E+04  0.25915661370E+04 0.  0.
        2    1    3    3  502    0 -0.19352915571E+02 -0.12620794383E+04  0.27521659191E+02  0.12625278158E+04  0.25500000920E-02 0. -1.
       -2    1    3    3    0  502  0.19352915571E+02  0.12620794383E+04 -0.57118411992E+03  0.13854495093E+04  0.25500000920E-02 0.  1.
</event>
<event>
 5   0  0.1085061E-05  0.2605465E+04  0.7818609E-02  0.8366347E-01
       -2   -1    0    0    0  501  0.00000000000E+00  0.00000000000E+00  0.10337713441E+04  0.10337713441E+04  0.25500000920E-02 0. -1.
        2   -1    0    0  501    0  0.00000000000E+00  0.00000000000E+00 -0.16416703146E+04  0.16416703146E+04  0.25500000920E-02 0.  1.
    10030    2    1    2    0    0  0.00000000000E+00  0.00000000000E+00 -0.60789897058E+03  0.26754416587E+04  0.26054648166E+04 0.  0.
        1    1    3    3  502    0 -0.16531465048E+03  0.58379372245E+03 -0.14877199017E+04  0.16066905582E+04  0.50400001928E-02 0.  1.
       -1    1    3    3    0  502  0.16531465048E+03 -0.58379372245E+03  0.87982093108E+03  0.10687511005E+04  0.50400001928E-02 0. -1.
</event>
<event>
 5   0  0.4464297E-06  0.2595484E+04  0.7818609E-02  0.8369737E-01
       -1   -1    0    0    0  501  0.00000000000E+00  0.00000000000E+00  0.22816100739E+04  0.22816100739E+04  0.50400001928E-02 0. -1.
        1   -1    0    0  501    0  0.00000000000E+00  0.00000000000E+00 -0.73813441806E+03  0.73813441808E+03  0.50400001928E-02 0.  1.
    10030    2    1    2    0    0  0.00000000000E+00  0.00000000000E+00  0.15434756559E+04  0.30197444920E+04  0.25954844821E+04 0.  0.
        4    1    3    3  502    0 -0.63386806164E+03 -0.10660659413E+04  0.32741154765E+03  0.12827646882E+04  0.12699999809E+01 0. -1.
       -4    1    3    3    0  502  0.63386806164E+03  0.10660659413E+04  0.12160641082E+04  0.17369798038E+04  0.12699999809E+01 0.  1.
</event>
<event>
 5   0  0.1085061E-05  0.2613460E+04  0.7818609E-02  0.8363643E-01
        2   -1    0    0  501    0  0.00000000000E+00  0.00000000000E+00  0.16578874933E+04  0.16578874933E+04  0.25500000920E-02 0. -1.
       -2   -1    0    0    0  501  0.00000000000E+00  0.00000000000E+00 -0.10299514779E+04  0.10299514779E+04  0.25500000920E-02 0.  1.
    10030    2    1    2    0    0  0.00000000000E+00  0.00000000000E+00  0.62793601542E+03  0.26878389713E+04  0.26134602917E+04 0.  0.
        1    1    3    3  502    0  0.12484674637E+03  0.57342189578E+03 -0.88679764188E+03  0.10633952409E+04  0.50400001928E-02 0.  1.
       -1    1    3    3    0  502 -0.12484674637E+03 -0.57342189578E+03  0.15147336573E+04  0.16244437304E+04  0.50400001928E-02 0. -1.
</event>
<event>
 5   0  0.4218590E-06  0.2595458E+04  0.7818609E-02  0.8369746E-01
        1   -1    0    0  501    0  0.00000000000E+00  0.00000000000E+00  0.20524841687E+04  0.20524841687E+04  0.50400001928E-02 0. -1.
       -1   -1    0    0    0  501  0.00000000000E+00  0.00000000000E+00 -0.82051814227E+03  0.82051814229E+03  0.50400001928E-02 0.  1.
    10030    2    1    2    0    0  0.00000000000E+00  0.00000000000E+00  0.12319660264E+04  0.28730023110E+04  0.25954579536E+04 0.  0.
        1    1    3    3  502    0 -0.12759004151E+04  0.33436856182E+02  0.87572518396E+03  0.15478806447E+04  0.50400001928E-02 0.  1.
       -1    1    3    3    0  502  0.12759004151E+04 -0.33436856182E+02  0.35624084246E+03  0.13251216662E+04  0.50400001928E-02 0. -1.
</event>
<event>
 5   0  0.1116310E-05  0.2593138E+04  0.7818609E-02  0.8370536E-01
       -2   -1    0    0    0  501  0.00000000000E+00  0.00000000000E+00  0.11026175633E+04  0.11026175633E+04  0.25500000920E-02 0. -1.
        2   -1    0    0  501    0  0.00000000000E+00  0.00000000000E+00 -0.15246371589E+04  0.15246371589E+04  0.25500000920E-02 0.  1.
    10030    2    1    2    0    0  0.00000000000E+00  0.00000000000E+00 -0.42201959559E+03  0.26272547223E+04  0.25931384145E+04 0.  0.
        4    1    3    3  502    0 -0.46806355860E+03 -0.55314483330E+03  0.87832762571E+03  0.11386455693E+04  0.12699999809E+01 0. -1.
       -4    1    3    3    0  502  0.46806355860E+03  0.55314483330E+03 -0.13003472213E+04  0.14886091530E+04  0.12699999809E+01 0.  1.
</event>
<event>
 5   0  0.3705250E-06  0.2599233E+04  0.7818609E-02  0.8368462E-01
       -3   -1    0    0    0  501  0.00000000000E+00  0.00000000000E+00  0.19520754989E+04  0.19520755015E+04  0.10100000352E+00 0.  1.
        3   -1    0    0  501    0  0.00000000000E+00  0.00000000000E+00 -0.86523440322E+03  0.86523440911E+03  0.10100000352E+00 0. -1.
    10030    2    1    2    0    0  0.00000000000E+00  0.00000000000E+00  0.10868410957E+04  0.28173099106E+04  0.25992328801E+04 0.  0.
        1    1    3    3  502    0 -0.67697188963E+03  0.42629125910E+03 -0.56671147823E+03  0.98039638745E+03  0.50400001928E-02 0.  1.
       -1    1    3    3    0  502  0.67697188963E+03 -0.42629125910E+03  0.16535525739E+04  0.18369135232E+04  0.50400001928E-02 0. -1.
</event>
<event>
 5   0  0.1136881E-05  0.2600454E+04  0.7818609E-02  0.8368047E-01
        2   -1    0    0  501    0  0.00000000000E+00  0.00000000000E+00  0.25175625182E+04  0.25175625182E+04  0.25500000920E-02 0.  1.
       -2   -1    0    0    0  501  0.00000000000E+00  0.00000000000E+00 -0.67151877866E+03  0.67151877866E+03  0.25500000920E-02 0. -1.
    10030    2    1    2    0    0  0.00000000000E+00  0.00000000000E+00  0.18460437396E+04  0.31890812969E+04  0.26004541968E+04 0.  0.
        3    1    3    3  502    0 -0.87373676642E+03  0.93060467859E+03  0.12262802494E+04  0.17700859485E+04  0.10100000352E+00 0.  1.
       -3    1    3    3    0  502  0.87373676642E+03 -0.93060467859E+03  0.61976349018E+03  0.14189953484E+04  0.10100000352E+00 0. -1.
</event>
<event>
 5   0  0.1086507E-05  0.2579702E+04  0.7818609E-02  0.8375129E-01
        2   -1    0    0  501    0  0.00000000000E+00  0.00000000000E+00  0.10969532982E+04  0.10969532983E+04  0.25500000920E-02 0. -1.
       -2   -1    0    0    0  501  0.00000000000E+00  0.00000000000E+00 -0.15166691463E+04  0.15166691463E+04  0.25500000920E-02 0.  1.
    10030    2    1    2    0    0  0.00000000000E+00  0.00000000000E+00 -0.41971584804E+03  0.26136224445E+04  0.25797017055E+04 0.  0.
        2    1    3    3  502    0 -0.49748802997E+03 -0.76091894604E+03  0.71717252215E+03  0.11579414532E+04  0.25500000920E-02 0. -1.
       -2    1    3    3    0  502  0.49748802997E+03  0.76091894604E+03 -0.11368883702E+04  0.14556809914E+04  0.25500000920E-02 0.  1.
</event>
<event>
 5   0  0.1085061E-05  0.2598400E+04  0.7818609E-02  0.8368745E-01
        2   -1    0    0  501    0  0.00000000000E+00  0.00000000000E+00  0.20851659614E+04  0.20851659614E+04  0.25500000920E-02 0. -1.
       -2   -1    0    0    0  501  0.00000000000E+00  0.00000000000E+00 -0.80948996564E+03  0.80948996565E+03  0.25500000920E-02 0.  1.
    10030    2    1    2    0    0  0.00000000000E+00  0.00000000000E+00  0.12756759958E+04  0.28946559271E+04  0.25984002174E+04 0.  0.
        1    1    3    3  502    0 -0.39621771660E+03 -0.47802785723E+03  0.19091927045E+04  0.20076144785E+04  0.50400001928E-02 0. -1.
       -1    1    3    3    0  502  0.39621771660E+03  0.47802785723E+03 -0.63351670873E+03  0.88704144859E+03  0.50400001928E-02 0.  1.
</event>
<event>
 5   0  0.4464297E-06  0.2648739E+04  0.7818609E-02  0.8351832E-01
       -1   -1    0    0    0  501  0.00000000000E+00  0.00000000000E+00  0.10234947330E+04  0.10234947330E+04  0.50400001928E-02 0. -1.
        1   -1    0    0  501    0  0.00000000000E+00  0.00000000000E+00 -0.17136913455E+04  0.17136913455E+04  0.50400001928E-02 0.  1.
    10030    2    1    2    0    0  0.00000000000E+00  0.00000000000E+00 -0.69019661255E+03  0.27371860785E+04  0.26487386176E+04 0.  0.
        4    1    3    3  502    0 -0.66460558967E+03 -0.10677607217E+04  0.83652289513E+02  0.12604812046E+04  0.12699999809E+01 0.  1.
       -4    1    3    3    0  502  0.66460558967E+03  0.10677607217E+04 -0.77384890207E+03  0.14767048739E+04  0.12699999809E+01 0. -1.
</event>
<event>
 5   0  0.1086507E-05  0.2511624E+04  0.7818609E-02  0.8398856E-01
        2   -1    0    0  501    0  0.00000000000E+00  0.00000000000E+00  0.10963815757E+04  0.10963815757E+04  0.25500000920E-02 0. -1.
       -2   -1    0    0    0  501  0.00000000000E+00  0.00000000000E+00 -0.14384265602E+04  0.14384265602E+04  0.25500000920E-02 0.  1.
    10030    2    1    2    0    0  0.00000000000E+00  0.00000000000E+00 -0.34204498455E+03  0.25348081359E+04  0.25116244772E+04 0.  0.
        2    1    3    3  502    0 -0.45831799185E+03 -0.97750764046E+03 -0.81841679398E+03  0.13547629377E+04  0.25500000920E-02 0.  1.
       -2    1    3    3    0  502  0.45831799185E+03  0.97750764046E+03  0.47637180943E+03  0.11800451981E+04  0.25500000920E-02 0. -1.
</event>
<event>
 5   0  0.4361864E-06  0.2577238E+04  0.7818609E-02  0.8375974E-01
        1   -1    0    0  501    0  0.00000000000E+00  0.00000000000E+00  0.34286052703E+04  0.34286052703E+04  0.50400001928E-02 0.  1.
       -1   -1    0    0    0  501  0.00000000000E+00  0.00000000000E+00 -0.48431897894E+03  0.48431897897E+03  0.50400001928E-02 0. -1.
    10030    2    1    2    0    0  0.00000000000E+00  0.00000000000E+00  0.29442862914E+04  0.39129242493E+04  0.25772377490E+04 0.  0.
        3    1    3    3  502    0  0.39137549586E+02  0.51039010568E+03 -0.32333265494E+03  0.60545340342E+03  0.10100000352E+00 0. -1.
       -3    1    3    3    0  502 -0.39137549586E+02 -0.51039010568E+03  0.32676189463E+04  0.33074708459E+04  0.10100000352E+00 0.  1.
</event>
<event>
 5   0  0.4464297E-06  0.2644260E+04  0.7818609E-02  0.8353321E-01
        1   -1    0    0  501    0  0.00000000000E+00  0.00000000000E+00  0.12586779419E+04  0.12586779419E+04  0.50400001928E-02 0.  1.
       -1   -1    0    0    0  501  0.00000000000E+00  0.00000000000E+00 -0.13887807746E+04  0.13887807746E+04  0.50400001928E-02 0. -1.
    10030    2    1    2    0    0  0.00000000000E+00  0.00000000000E+00 -0.13010283273E+03  0.26474587165E+04  0.26442599926E+04 0.  0.
        4    1    3    3  502    0  0.50945483287E+03 -0.35634223705E+03 -0.12332971395E+04  0.13811399146E+04  0.12699999809E+01 0. -1.
       -4    1    3    3    0  502 -0.50945483287E+03  0.35634223705E+03  0.11031943068E+04  0.12663188019E+04  0.12699999809E+01 0.  1.
</event>
<event>
 5   0  0.4415080E-06  0.2595358E+04  0.7818609E-02  0.8369780E-01
       -1   -1    0    0    0  501  0.00000000000E+00  0.00000000000E+00  0.34692985112E+04  0.34692985112E+04  0.50400001928E-02 0.  1.
        1   -1    0    0  501    0  0.00000000000E+00  0.00000000000E+00 -0.48539213627E+03  0.48539213630E+03  0.50400001928E-02 0. -1.
    10030    2    1    2    0    0  0.00000000000E+00  0.00000000000E+00  0.29839063749E+04  0.39546906475E+04  0.25953575598E+04 0.  0.
        2    1    3    3  502    0  0.62823236821E+03 -0.64083145119E+03  0.29202490348E+04  0.30550278694E+04  0.25500000920E-02 0.  1.
       -2    1    3    3    0  502 -0.62823236821E+03  0.64083145119E+03  0.63657340051E+02  0.89966277807E+03  0.25500000920E-02 0. -1.
</event>
<event>
 5   0  0.4597705E-06  0.2613844E+04  0.7818609E-02  0.8363514E-01
        1   -1    0    0  501    0  0.00000000000E+00  0.00000000000E+00  0.96040115156E+03  0.96040115158E+03  0.50400001928E-02 0.  1.
       -1   -1    0    0    0  501  0.00000000000E+00  0.00000000000E+00 -0.17784704653E+04  0.17784704653E+04  0.50400001928E-02 0. -1.
    10030    2    1    2    0    0  0.00000000000E+00  0.00000000000E+00 -0.81806931373E+03  0.27388716169E+04  0.26138439762E+04 0.  0.
        5    1    3    3  502    0 -0.36591759887E+03 -0.94377136963E+03 -0.12752717571E+04  0.16281708239E+04  0.46999998093E+01 0. -1.
       -5    1    3    3    0  502  0.36591759887E+03  0.94377136963E+03  0.45720244339E+03  0.11107007930E+04  0.46999998093E+01 0.  1.
</event>
<event>
 5   0  0.1136881E-05  0.2567658E+04  0.7818609E-02  0.8379271E-01
        2   -1    0    0  501    0  0.00000000000E+00  0.00000000000E+00  0.14067467957E+04  0.14067467957E+04  0.25500000920E-02 0. -1.
       -2   -1    0    0    0  501  0.00000000000E+00  0.00000000000E+00 -0.11716510950E+04  0.11716510950E+04  0.25500000920E-02 0.  1.
    10030    2    1    2    0    0  0.00000000000E+00  0.00000000000E+00  0.23509570066E+03  0.25783978907E+04  0.25676576279E+04 0.  0.
        3    1    3    3  502    0  0.28453377996E+03 -0.37573954019E+03  0.13167275584E+04  0.13985389331E+04  0.10100000352E+00 0. -1.
       -3    1    3    3    0  502 -0.28453377996E+03  0.37573954019E+03 -0.10816318577E+04  0.11798589576E+04  0.10100000352E+00 0.  1.
</event>
<event>
 5   0  0.1116310E-05  0.2606286E+04  0.7818609E-02  0.8366069E-01
        2   -1    0    0  501    0  0.00000000000E+00  0.00000000000E+00  0.18362065194E+04  0.18362065194E+04  0.25500000920E-02 0. -1.
       -2   -1    0    0    0  501  0.00000000000E+00  0.00000000000E+00 -0.92483132021E+03  0.92483132021E+03  0.25500000920E-02 0.  1.
    10030    2    1    2    0    0  0.00000000000E+00  0.00000000000E+00  0.91137519923E+03  0.27610378397E+04  0.26062857092E+04 0.  0.
        4    1    3    3  502    0  0.34208681186E+01 -0.94728217470E+03  0.14037108799E+04  0.16934465058E+04  0.12699999809E+01 0. -1.
       -4    1    3    3    0  502 -0.34208681186E+01  0.94728217470E+03 -0.49233568062E+03  0.10675913339E+04  0.12699999809E+01 0.  1.
</event>
<event>
 5   0  0.1085255E-05  0.2599763E+04  0.7818609E-02  0.8368282E-01
       -2   -1    0    0    0  501  0.00000000000E+00  0.00000000000E+00  0.14979758552E+04  0.14979758552E+04  0.25500000920E-02 0. -1.
        2   -1    0    0  501    0  0.00000000000E+00  0.00000000000E+00 -0.11279831714E+04  0.11279831714E+04  0.25500000920E-02 0.  1.
    10030    2    1    2    0    0  0.00000000000E+00  0.00000000000E+00  0.36999268380E+03  0.26259590266E+04  0.25997627245E+04 0.  0.
        5    1    3    3  502    0  0.11263511519E+04 -0.53617583412E+03  0.55407945918E+03  0.13649826298E+04  0.46999998093E+01 0. -1.
       -5    1    3    3    0  502 -0.11263511519E+04  0.53617583412E+03 -0.18408677537E+03  0.12609763968E+04  0.46999998093E+01 0.  1.
</event>
<event>
 5   0  0.4415080E-06  0.2605890E+04  0.7818609E-02  0.8366203E-01
       -1   -1    0    0    0  501  0.00000000000E+00  0.00000000000E+00  0.10855085277E+04  0.10855085277E+04  0.50400001928E-02 0. -1.
        1   -1    0    0  501    0  0.00000000000E+00  0.00000000000E+00 -0.15639354177E+04  0.15639354177E+04  0.50400001928E-02 0.  1.
    10030    2    1    2    0    0  0.00000000000E+00  0.00000000000E+00 -0.47842689002E+03  0.26494439454E+04  0.26058896620E+04 0.  0.
        2    1    3    3  502    0 -0.10156416201E+04 -0.73688073011E+03 -0.59599759722E+03  0.13891487490E+04  0.25500000920E-02 0. -1.
       -2    1    3    3    0  502  0.10156416201E+04  0.73688073011E+03  0.11757070719E+03  0.12602951964E+04  0.25500000920E-02 0.  1.
</event>
<event>
 5   0  0.4415080E-06  0.2651482E+04  0.7818609E-02  0.8350921E-01
       -1   -1    0    0    0  501  0.00000000000E+00  0.00000000000E+00  0.10044646395E+04  0.10044646395E+04  0.50400001928E-02 0. -1.
        1   -1    0    0  501    0  0.00000000000E+00  0.00000000000E+00 -0.17497768386E+04  0.17497768386E+04  0.50400001928E-02 0.  1.
    10030    2    1    2    0    0  0.00000000000E+00  0.00000000000E+00 -0.74531219910E+03  0.27542414782E+04  0.26514818208E+04 0.  0.
        2    1    3    3  502    0  0.90546011132E+03 -0.92072061412E+03 -0.61021643318E+02  0.12927908197E+04  0.25500000920E-02 0.  1.
       -2    1    3    3    0  502 -0.90546011132E+03  0.92072061412E+03 -0.68429055578E+03  0.14614506585E+04  0.25500000920E-02 0. -1.
</event>
<event>
 5   0  0.3705250E-06  0.2615730E+04  0.7818609E-02  0.8362878E-01
       -3   -1    0    0    0  501  0.00000000000E+00  0.00000000000E+00  0.12387607981E+04  0.12387608022E+04  0.10100000352E+00 0.  1.
        3   -1    0    0  501    0  0.00000000000E+00  0.00000000000E+00 -0.13808244279E+04  0.13808244316E+04  0.10100000352E+00 0. -1.
    10030    2    1    2    0    0  0.00000000000E+00  0.00000000000E+00 -0.14206362981E+03  0.26195852338E+04  0.26157302465E+04 0.  0.
        5    1    3    3  502    0  0.66288609454E+03  0.10652865702E+03  0.10529960243E+04  0.12488350757E+04  0.46999998093E+01 0.  1.
       -5    1    3    3    0  502 -0.66288609454E+03 -0.10652865702E+03 -0.11950596541E+04  0.13707501581E+04  0.46999998093E+01 0. -1.
</event>
<event>
 5   0  0.3705250E-06  0.2590854E+04  0.7818609E-02  0.8371314E-01
       -3   -1    0    0    0  501  0.00000000000E+00  0.00000000000E+00  0.11118007119E+04  0.11118007165E+04  0.10100000352E+00 0.  1.
        3   -1    0    0  501    0  0.00000000000E+00  0.00000000000E+00 -0.15093814453E+04  0.15093814486E+04  0.10100000352E+00 0. -1.
    10030    2    1    2    0    0  0.00000000000E+00  0.00000000000E+00 -0.39758073339E+03  0.26211821651E+04  0.25908542033E+04 0.  0.
        1    1    3    3  502    0 -0.81825252743E+03 -0.99475724139E+03 -0.59144886262E+02  0.12894096655E+04  0.50400001928E-02 0.  1.
       -1    1    3    3    0  502  0.81825252743E+03  0.99475724139E+03 -0.33843584713E+03  0.13317724996E+04  0.50400001928E-02 0. -1.
</event>
<event>
 5   0  0.4464297E-06  0.2575052E+04  0.7818609E-02  0.8376725E-01
        1   -1    0    0  501    0  0.00000000000E+00  0.00000000000E+00  0.12445986840E+04  0.12445986840E+04  0.50400001928E-02 0. -1.
       -1   -1    0    0    0  501  0.00000000000E+00  0.00000000000E+00 -0.13319339684E+04  0.13319339684E+04  0.50400001928E-02 0.  1.
    10030    2    1    2    0    0  0.00000000000E+00  0.00000000000E+00 -0.87335284395E+02  0.25765326523E+04  0.25750520493E+04 0.  0.
        4    1    3    3  502    0 -0.81185330491E+03  0.45687053688E+03 -0.93293350366E+03  0.13184092731E+04  0.12699999809E+01 0.  1.
       -4    1    3    3    0  502  0.81185330491E+03 -0.45687053688E+03  0.84559821926E+03  0.12581233793E+04  0.12699999809E+01 0. -1.
</event>
<event>
 5   0  0.4218590E-06  0.2571450E+04  0.7818609E-02  0.8377964E-01
       -1   -1    0    0    0  501  0.00000000000E+00  0.00000000000E+00  0.98054841596E+03  0.98054841598E+03  0.50400001928E-02 0.  1.
        1   -1    0    0  501    0  0.00000000000E+00  0.00000000000E+00 -0.16858814313E+04  0.16858814313E+04  0.50400001928E-02 0. -1.
    10030    2    1    2    0    0  0.00000000000E+00  0.00000000000E+00 -0.70533301535E+03  0.26664298473E+04  0.25714496822E+04 0.  0.
        1    1    3    3  502    0 -0.10908741768E+04  0.48763460925E+03 -0.84485030860E+03  0.14634090425E+04  0.50400001928E-02 0. -1.
       -1    1    3    3    0  502  0.10908741768E+04 -0.48763460925E+03  0.13951729324E+03  0.12030208048E+04  0.50400001928E-02 0.  1.
</event>
<event>
 5   0  0.1116310E-05  0.2592194E+04  0.7818609E-02  0.8370858E-01
        2   -1    0    0  501    0  0.00000000000E+00  0.00000000000E+00  0.18567701754E+04  0.18567701754E+04  0.25500000920E-02 0.  1.
       -2   -1    0    0    0  501  0.00000000000E+00  0.00000000000E+00 -0.90472536989E+03  0.90472536990E+03  0.25500000920E-02 0. -1.
    10030    2    1    2    0    0  0.00000000000E+00  0.00000000000E+00  0.95204480553E+03  0.27614955453E+04  0.25921937302E+04 0.  0.
        4    1    3    3  502    0 -0.56472480198E+03  0.11050679858E+04  0.77737930906E+02  0.12434364295E+04  0.12699999809E+01 0. -1.
       -4    1    3    3    0  502  0.56472480198E+03 -0.11050679858E+04  0.87430687462E+03  0.15180591159E+04  0.12699999809E+01 0.  1.
</event>
<event>
 5   0  0.1085255E-05  0.2600515E+04  0.7818609E-02  0.8368026E-01
        2   -1    0    0  501    0  0.00000000000E+00  0.00000000000E+00  0.20392146887E+04  0.20392146887E+04  0.25500000920E-02 0.  1.
       -2   -1    0    0    0  501  0.00000000000E+00  0.00000000000E+00 -0.82907892431E+03  0.82907892432E+03  0.25500000920E-02 0. -1.
    10030    2    1    2    0    0  0.00000000000E+00  0.00000000000E+00  0.12101357643E+04  0.28682936130E+04  0.26005152724E+04 0.  0.
        5    1    3    3  502    0  0.46821594027E+03 -0.81337801778E+03 -0.38750689828E+03  0.10153785761E+04  0.46999998093E+01 0. -1.
       -5    1    3    3    0  502 -0.46821594027E+03  0.81337801778E+03  0.15976426626E+04  0.18529150369E+04  0.46999998093E+01 0.  1.
</event>
<event>
 5   0  0.4597705E-06  0.2502342E+04  0.7818609E-02  0.8402152E-01
       -1   -1    0    0    0  501  0.00000000000E+00  0.00000000000E+00  0.11557676990E+04  0.11557676990E+04  0.50400001928E-02 0.  1.
        1   -1    0    0  501    0  0.00000000000E+00  0.00000000000E+00 -0.13544496430E+04  0.13544496430E+04  0.50400001928E-02 0. -1.
    10030    2    1    2    0    0  0.00000000000E+00  0.00000000000E+00 -0.19868194408E+03  0.25102173420E+04  0.25023422206E+04 0.  0.
        5    1    3    3  502    0  0.15584613441E+03  0.11448455825E+04 -0.58090135033E+03  0.12932238376E+04  0.46999998093E+01 0. -1.
       -5    1    3    3    0  502 -0.15584613441E+03 -0.11448455825E+04  0.38221940625E+03  0.12169935044E+04  0.46999998093E+01 0.  1.
</event>
<event>
 5   0  0.1085061E-05  0.2571523E+04  0.7818609E-02  0.8377939E-01
        2   -1    0    0  501    0  0.00000000000E+00  0.00000000000E+00  0.15930666180E+04  0.15930666180E+04  0.25500000920E-02 0. -1.
       -2   -1    0    0    0  501  0.00000000000E+00  0.00000000000E+00 -0.10377360692E+04  0.10377360692E+04  0.25500000920E-02 0.  1.
    10030    2    1    2    0    0  0.00000000000E+00  0.00000000000E+00  0.55533054876E+03  0.26308026873E+04  0.25715230430E+04 0.  0.
        1    1    3    3  502    0  0.16907898946E+03  0.95757771787E+03  0.11382705670E+04  0.14970646861E+04  0.50400001928E-02 0. -1.
       -1    1    3    3    0  502 -0.16907898946E+03 -0.95757771787E+03 -0.58294001828E+03  0.11337380012E+04  0.50400001928E-02 0.  1.
</event>
<event>
 5   0  0.1086507E-05  0.2616855E+04  0.7818609E-02  0.8362498E-01
       -2   -1    0    0    0  501  0.00000000000E+00  0.00000000000E+00  0.11762413939E+04  0.11762413939E+04  0.25500000920E-02 0.  1.
        2   -1    0    0  501    0  0.00000000000E+00  0.00000000000E+00 -0.14554686310E+04  0.14554686310E+04  0.25500000920E-02 0. -1.
    10030    2    1    2    0    0  0.00000000000E+00  0.00000000000E+00 -0.27922723708E+03  0.26317100249E+04  0.26168549454E+04 0.  0.
        2    1    3    3  502    0  0.59653924042E+03 -0.66824194651E+03 -0.10987445608E+04  0.14176198271E+04  0.25500000920E-02 0. -1.
       -2    1    3    3    0  502 -0.59653924042E+03  0.66824194651E+03  0.81951732368E+03  0.12140901977E+04  0.25500000920E-02 0.  1.
</event>
<event>
 5   0  0.1086507E-05  0.2596782E+04  0.7818609E-02  0.8369295E-01
        2   -1    0    0  501    0  0.00000000000E+00  0.00000000000E+00  0.19950501791E+04  0.19950501791E+04  0.25500000920E-02 0. -1.
       -2   -1    0    0    0  501  0.00000000000E+00  0.00000000000E+00 -0.84500098280E+03  0.84500098280E+03  0.25500000920E-02 0.  1.
    10030    2    1    2    0    0  0.00000000000E+00  0.00000000000E+00  0.11500491963E+04  0.28400511619E+04  0.25967821334E+04 0.  0.
        2    1    3    3  502    0 -0.18836922177E+03 -0.12820173574E+04  0.48505051822E+03  0.13835915125E+04  0.25500000920E-02 0.  1.
       -2    1    3    3    0  502  0.18836922177E+03  0.12820173574E+04  0.66499867810E+03  0.14564596494E+04  0.25500000920E-02 0. -1.
</event>
<event>
 5   0  0.4464297E-06  0.2603490E+04  0.7818609E-02  0.8367017E-01
       -1   -1    0    0    0  501  0.00000000000E+00  0.00000000000E+00  0.27439037017E+04  0.27439037018E+04  0.50400001928E-02 0. -1.
        1   -1    0    0  501    0  0.00000000000E+00  0.00000000000E+00 -0.61756525704E+03  0.61756525706E+03  0.50400001928E-02 0.  1.
    10030    2    1    2    0    0  0.00000000000E+00  0.00000000000E+00  0.21263384447E+04  0.33614689588E+04  0.26034896542E+04 0.  0.
        4    1    3    3  502    0 -0.23667257619E+03 -0.12609045712E+04  0.77840415636E+03  0.15006028420E+04  0.12699999809E+01 0. -1.
       -4    1    3    3    0  502  0.23667257619E+03  0.12609045712E+04  0.13479342883E+04  0.18608661168E+04  0.12699999809E+01 0.  1.
</event>
<event>
 5   0  0.4218590E-06  0.2601875E+04  0.7818609E-02  0.8367565E-01
       -1   -1    0    0    0  501  0.00000000000E+00  0.00000000000E+00  0.12735696421E+04  0.12735696421E+04  0.50400001928E-02 0.  1.
        1   -1    0    0  501    0  0.00000000000E+00  0.00000000000E+00 -0.13288931307E+04  0.13288931308E+04  0.50400001928E-02 0. -1.
    10030    2    1    2    0    0  0.00000000000E+00  0.00000000000E+00 -0.55323488638E+02  0.26024627729E+04  0.26018746695E+04 0.  0.
        1    1    3    3  502    0  0.10763376405E+04 -0.15085590650E+03 -0.74279029064E+03  0.13164336811E+04  0.50400001928E-02 0. -1.
       -1    1    3    3    0  502 -0.10763376405E+04  0.15085590650E+03  0.68746680200E+03  0.12860290917E+04  0.50400001928E-02 0.  1.
</event>
<event>
 5   0  0.1085255E-05  0.2384225E+04  0.7818609E-02  0.8445433E-01
       -2   -1    0    0    0  501  0.00000000000E+00  0.00000000000E+00  0.10985422537E+04  0.10985422537E+04  0.25500000920E-02 0. -1.
        2   -1    0    0  501    0  0.00000000000E+00  0.00000000000E+00 -0.12936526237E+04  0.12936526237E+04  0.25500000920E-02 0.  1.
    10030    2    1    2    0    0  0.00000000000E+00  0.00000000000E+00 -0.19511037007E+03  0.23921948774E+04  0.23842248793E+04 0.  0.
        5    1    3    3  502    0  0.73407076865E+03 -0.81052951508E+03 -0.57379117936E+03  0.12349398349E+04  0.46999998093E+01 0.  1.
       -5    1    3    3    0  502 -0.73407076865E+03  0.81052951508E+03  0.37868080928E+03  0.11572550426E+04  0.46999998093E+01 0. -1.
</event>
<event>
 5   0  0.4597705E-06  0.2603097E+04  0.7818609E-02  0.8367150E-01
        1   -1    0    0  501    0  0.00000000000E+00  0.00000000000E+00  0.16314573898E+04  0.16314573898E+04  0.50400001928E-02 0.  1.
       -1   -1    0    0    0  501  0.00000000000E+00  0.00000000000E+00 -0.10383527965E+04  0.10383527965E+04  0.50400001928E-02 0. -1.
    10030    2    1    2    0    0  0.00000000000E+00  0.00000000000E+00  0.59310459330E+03  0.26698101863E+04  0.26030968810E+04 0.  0.
        5    1    3    3  502    0 -0.11031960845E+04  0.14928952907E+03  0.98813111720E+03  0.14885409498E+04  0.46999998093E+01 0.  1.
       -5    1    3    3    0  502  0.11031960845E+04 -0.14928952907E+03 -0.39502652390E+03  0.11812692365E+04  0.46999998093E+01 0. -1.
</event>
<event>
 5   0  0.1086507E-05  0.2625467E+04  0.7818609E-02  0.8359602E-01
       -2   -1    0    0    0  501  0.00000000000E+00  0.00000000000E+00  0.84984116678E+03  0.84984116678E+03  0.25500000920E-02 0.  1.
        2   -1    0    0  501    0  0.00000000000E+00  0.00000000000E+00 -0.20277546885E+04  0.20277546885E+04  0.25500000920E-02 0. -1.
    10030    2    1    2    0    0  0.00000000000E+00  0.00000000000E+00 -0.11779135218E+04  0.28775958553E+04  0.26254671283E+04 0.  0.
        2    1    3    3  502    0 -0.50447097499E+03  0.39529951608E+02  0.73865232497E+03  0.89535514679E+03  0.25500000920E-02 0.  1.
       -2    1    3    3    0  502  0.50447097499E+03 -0.39529951608E+02 -0.19165658467E+04  0.19822407085E+04  0.25500000920E-02 0. -1.
</event>
<event>
 5   0  0.1116310E-05  0.2591980E+04  0.7818609E-02  0.8370931E-01
       -2   -1    0    0    0  501  0.00000000000E+00  0.00000000000E+00  0.60326097025E+03  0.60326097025E+03  0.25500000920E-02 0.  1.
        2   -1    0    0  501    0  0.00000000000E+00  0.00000000000E+00 -0.27841849155E+04  0.27841849155E+04  0.25500000920E-02 0. -1.
    10030    2    1    2    0    0  0.00000000000E+00  0.00000000000E+00 -0.21809239453E+04  0.33874458858E+04  0.25919800103E+04 0.  0.
        4    1    3    3  502    0 -0.22247273226E+02 -0.31969321562E+03 -0.27315859415E+04  0.27503203563E+04  0.12699999809E+01 0. -1.
       -4    1    3    3    0  502  0.22247273226E+02  0.31969321562E+03  0.55066199627E+03  0.63712552948E+03  0.12699999809E+01 0.  1.
</event>
<event>
 5   0  0.4464297E-06  0.2595871E+04  0.7818609E-02  0.8369605E-01
        1   -1    0    0  501    0  0.00000000000E+00  0.00000000000E+00  0.14279003089E+04  0.14279003089E+04  0.50400001928E-02 0.  1.
       -1   -1    0    0    0  501  0.00000000000E+00  0.00000000000E+00 -0.11797996091E+04  0.11797996091E+04  0.50400001928E-02 0. -1.
    10030    2    1    2    0    0  0.00000000000E+00  0.00000000000E+00  0.24810069989E+03  0.26076999180E+04  0.25958707412E+04 0.  0.
        4    1    3    3  502    0 -0.10172522436E+04 -0.18427641735E+02 -0.68553335208E+03  0.12268248835E+04  0.12699999809E+01 0. -1.
       -4    1    3    3    0  502  0.10172522436E+04  0.18427641735E+02  0.93363405197E+03  0.13808750345E+04  0.12699999809E+01 0.  1.
</event>
<event>
 5   0  0.1085255E-05  0.2588252E+04  0.7818609E-02  0.8372203E-01
        2   -1    0    0  501    0  0.00000000000E+00  0.00000000000E+00  0.19498711337E+04  0.19498711337E+04  0.25500000920E-02 0.  1.
       -2   -1    0    0    0  501  0.00000000000E+00  0.00000000000E+00 -0.85890918314E+03  0.85890918315E+03  0.25500000920E-02 0. -1.
    10030    2    1    2    0    0  0.00000000000E+00  0.00000000000E+00  0.10909619506E+04  0.28087803169E+04  0.25882520918E+04 0.  0.
        5    1    3    3  502    0  0.94871490782E+03 -0.80597973054E+03  0.92927625837E+03  0.15534605746E+04  0.46999998093E+01 0.  1.
       -5    1    3    3    0  502 -0.94871490782E+03  0.80597973054E+03  0.16168569221E+03  0.12553197423E+04  0.46999998093E+01 0. -1.
</event>
<event>
 5   0  0.1136881E-05  0.2594518E+04  0.7818609E-02  0.8370066E-01
        2   -1    0    0  501    0  0.00000000000E+00  0.00000000000E+00  0.11599076679E+04  0.11599076679E+04  0.25500000920E-02 0.  1.
       -2   -1    0    0    0  501  0.00000000000E+00  0.00000000000E+00 -0.14508752272E+04  0.14508752272E+04  0.25500000920E-02 0. -1.
    10030    2    1    2    0    0  0.00000000000E+00  0.00000000000E+00 -0.29096755928E+03  0.26107828951E+04  0.25945182992E+04 0.  0.
        3    1    3    3  502    0  0.73735527448E+03 -0.92214397936E+03  0.39532273629E+03  0.12451194302E+04  0.10100000352E+00 0.  1.
       -3    1    3    3    0  502 -0.73735527448E+03  0.92214397936E+03 -0.68629029556E+03  0.13656634649E+04  0.10100000352E+00 0. -1.
</event>
<event>
 5   0  0.1116310E-05  0.2615298E+04  0.7818609E-02  0.8363023E-01
        2   -1    0    0  501    0  0.00000000000E+00  0.00000000000E+00  0.12112685448E+04  0.12112685448E+04  0.25500000920E-02 0.  1.
       -2   -1    0    0    0  501  0.00000000000E+00  0.00000000000E+00 -0.14116980342E+04  0.14116980342E+04  0.25500000920E-02 0. -1.
    10030    2    1    2    0    0  0.00000000000E+00  0.00000000000E+00 -0.20042948932E+03  0.26229665790E+04  0.26152976302E+04 0.  0.
        4    1    3    3  502    0 -0.21198344161E+03  0.44186896159E+03 -0.13161057603E+04  0.14043935146E+04  0.12699999809E+01 0. -1.
       -4    1    3    3    0  502  0.21198344161E+03 -0.44186896159E+03  0.11156762710E+04  0.12185730644E+04  0.12699999809E+01 0.  1.
</event>
<event>
 5   0  0.4415080E-06  0.2460969E+04  0.7818609E-02  0.8417024E-01
        1   -1    0    0  501    0  0.00000000000E+00  0.00000000000E+00  0.99072158193E+03  0.99072158194E+03  0.50400001928E-02 0.  1.
       -1   -1    0    0    0  501  0.00000000000E+00  0.00000000000E+00 -0.15282724026E+04  0.15282724027E+04  0.50400001928E-02 0. -1.
    10030    2    1    2    0    0  0.00000000000E+00  0.00000000000E+00 -0.53755082072E+03  0.25189939846E+04  0.24609692825E+04 0.  0.
        2    1    3    3  502    0  0.93413719759E+03 -0.61708363543E+03 -0.79138984848E+03  0.13710223956E+04  0.25500000920E-02 0. -1.
       -2    1    3    3    0  502 -0.93413719759E+03  0.61708363543E+03  0.25383902776E+03  0.11479715890E+04  0.25500000920E-02 0.  1.
</event>
<event>
 5   0  0.1085255E-05  0.2627285E+04  0.7818609E-02  0.8358992E-01
        2   -1    0    0  501    0  0.00000000000E+00  0.00000000000E+00  0.14773189491E+04  0.14773189491E+04  0.25500000920E-02 0.  1.
       -2   -1    0    0    0  501  0.00000000000E+00  0.00000000000E+00 -0.11680998321E+04  0.11680998321E+04  0.25500000920E-02 0. -1.
    10030    2    1    2    0    0  0.00000000000E+00  0.00000000000E+00  0.30921911704E+03  0.26454187812E+04  0.26272845422E+04 0.  0.
        5    1    3    3  502    0 -0.11071930203E+04 -0.67135515422E+03 -0.68368260360E+02  0.12966458408E+04  0.46999998093E+01 0. -1.
       -5    1    3    3    0  502  0.11071930203E+04  0.67135515422E+03  0.37758737740E+03  0.13487729405E+04  0.46999998093E+01 0.  1.
</event>
<event>
 5   0  0.4597705E-06  0.2512097E+04  0.7818609E-02  0.8398689E-01
       -1   -1    0    0    0  501  0.00000000000E+00  0.00000000000E+00  0.11838113644E+04  0.11838113644E+04  0.50400001928E-02 0. -1.
        1   -1    0    0  501    0  0.00000000000E+00  0.00000000000E+00 -0.13326936535E+04  0.13326936535E+04  0.50400001928E-02 0.  1.
    10030    2    1    2    0    0  0.00000000000E+00  0.00000000000E+00 -0.14888228910E+03  0.25165050180E+04  0.25120970462E+04 0.  0.
        5    1    3    3  502    0  0.83256608048E+03 -0.14710709011E+03 -0.10049569657E+04  0.13133039889E+04  0.46999998093E+01 0.  1.
       -5    1    3    3    0  502 -0.83256608048E+03  0.14710709011E+03  0.85607467664E+03  0.12032010290E+04  0.46999998093E+01 0. -1.
</event>
<event>
 5   0  0.1116310E-05  0.2629068E+04  0.7818609E-02  0.8358394E-01
       -2   -1    0    0    0  501  0.00000000000E+00  0.00000000000E+00  0.12384377426E+04  0.12384377426E+04  0.25500000920E-02 0. -1.
        2   -1    0    0  501    0  0.00000000000E+00  0.00000000000E+00 -0.13953063977E+04  0.13953063977E+04  0.25500000920E-02 0.  1.
    10030    2    1    2    0    0  0.00000000000E+00  0.00000000000E+00 -0.15686865509E+03  0.26337441403E+04  0.26290683562E+04 0.  0.
        4    1    3    3  502    0  0.10425612842E+03 -0.29057506448E+03  0.12016078312E+04  0.12406313720E+04  0.12699999809E+01 0. -1.
       -4    1    3    3    0  502 -0.10425612842E+03  0.29057506448E+03 -0.13584764863E+04  0.13931127682E+04  0.12699999809E+01 0.  1.
</event>
<event>
 5   0  0.4218590E-06  0.2601646E+04  0.7818609E-02  0.8367642E-01
       -1   -1    0    0    0  501  0.00000000000E+00  0.00000000000E+00  0.16198762317E+04  0.16198762317E+04  0.50400001928E-02 0. -1.
        1   -1    0    0  501    0  0.00000000000E+00  0.00000000000E+00 -0.10446110697E+04  0.10446110698E+04  0.50400001928E-02 0.  1.
    10030    2    1    2    0    0  0.00000000000E+00  0.00000000000E+00  0.57526516193E+03  0.26644873014E+04  0.26016461276E+04 0.  0.
        1    1    3    3  502    0 -0.11694919237E+04 -0.35482617979E+03 -0.16869419107E+03  0.12337222976E+04  0.50400001928E-02 0.  1.
       -1    1    3    3    0  502  0.11694919237E+04  0.35482617979E+03  0.74395935300E+03  0.14307650039E+04  0.50400001928E-02 0. -1.
</event>
<event>
 5   0  0.1085255E-05  0.2603722E+04  0.7818609E-02  0.8366938E-01
       -2   -1    0    0    0  501  0.00000000000E+00  0.00000000000E+00  0.12746775117E+04  0.12746775117E+04  0.25500000920E-02 0.  1.
        2   -1    0    0  501    0  0.00000000000E+00  0.00000000000E+00 -0.13296246068E+04  0.13296246068E+04  0.25500000920E-02 0. -1.
    10030    2    1    2    0    0  0.00000000000E+00  0.00000000000E+00 -0.54947095083E+02  0.26043021185E+04  0.26037224010E+04 0.  0.
        5    1    3    3  502    0 -0.11804258059E+04 -0.53564883832E+02  0.51904193479E+03  0.12906203548E+04  0.46999998093E+01 0. -1.
       -5    1    3    3    0  502  0.11804258059E+04  0.53564883832E+02 -0.57398902987E+03  0.13136817638E+04  0.46999998093E+01 0.  1.
</event>
<event>
 5   0  0.4597705E-06  0.2645785E+04  0.7818609E-02  0.8352813E-01
        1   -1    0    0  501    0  0.00000000000E+00  0.00000000000E+00  0.62510086975E+03  0.62510086977E+03  0.50400001928E-02 0. -1.
       -1   -1    0    0    0  501  0.00000000000E+00  0.00000000000E+00 -0.27996195294E+04  0.27996195294E+04  0.50400001928E-02 0.  1.
    10030    2    1    2    0    0  0.00000000000E+00  0.00000000000E+00 -0.21745186597E+04  0.34247203992E+04  0.26457850275E+04 0.  0.
        5    1    3    3  502    0  0.12119672389E+04  0.39316201733E+03 -0.62673161052E+03  0.14199491405E+04  0.46999998093E+01 0.  1.
       -5    1    3    3    0  502 -0.12119672389E+04 -0.39316201733E+03 -0.15477870492E+04  0.20047712587E+04  0.46999998093E+01 0. -1.
</event>
<event>
 5   0  0.4597705E-06  0.2592881E+04  0.7818609E-02  0.8370623E-01
       -1   -1    0    0    0  501  0.00000000000E+00  0.00000000000E+00  0.12385349580E+04  0.12385349580E+04  0.50400001928E-02 0.  1.
        1   -1    0    0  501    0  0.00000000000E+00  0.00000000000E+00 -0.13570529537E+04  0.13570529537E+04  0.50400001928E-02 0. -1.
    10030    2    1    2    0    0  0.00000000000E+00  0.00000000000E+00 -0.11851799567E+03  0.25955879117E+04  0.25928806552E+04 0.  0.
        5    1    3    3  502    0  0.73841037154E+03 -0.10652148118E+04 -0.30892846862E+02  0.12964987197E+04  0.46999998093E+01 0.  1.
       -5    1    3    3    0  502 -0.73841037154E+03  0.10652148118E+04 -0.87625148805E+02  0.12990891920E+04  0.46999998093E+01 0. -1.
</event>
<event>
 5   0  0.1085255E-05  0.2605735E+04  0.7818609E-02  0.8366256E-01
       -2   -1    0    0    0  501  0.00000000000E+00  0.00000000000E+00  0.11412887041E+04  0.11412887041E+04  0.25500000920E-02 0. -1.
        2   -1    0    0  501    0  0.00000000000E+00  0.00000000000E+00 -0.14873214183E+04  0.14873214183E+04  0.25500000920E-02 0.  1.
    10030    2    1    2    0    0  0.00000000000E+00  0.00000000000E+00 -0.34603271423E+03  0.26286101224E+04  0.26057345483E+04 0.  0.
        5    1    3    3  502    0 -0.11222198862E+03  0.74249344646E+03  0.90101383349E+03  0.11729187145E+04  0.46999998093E+01 0. -1.
       -5    1    3    3    0  502  0.11222198862E+03 -0.74249344646E+03 -0.12470465477E+04  0.14556914079E+04  0.46999998093E+01 0.  1.
</event>
<event>
 5   0  0.4464297E-06  0.2579942E+04  0.7818609E-02  0.8375047E-01
       -1   -1    0    0    0  501  0.00000000000E+00  0.00000000000E+00  0.12056532220E+04  0.12056532220E+04  0.50400001928E-02 0. -1.
        1   -1    0    0  501    0  0.00000000000E+00  0.00000000000E+00 -0.13801851045E+04  0.13801851046E+04  0.50400001928E-02 0.  1.
    10030    2    1    2    0    0  0.00000000000E+00  0.00000000000E+00 -0.17453188252E+03  0.25858383266E+04  0.25799415639E+04 0.  0.
        4    1    3    3  502    0  0.11887003512E+04  0.37990888907E+03 -0.41463721423E+03  0.13150151791E+04  0.12699999809E+01 0. -1.
       -4    1    3    3    0  502 -0.11887003512E+04 -0.37990888907E+03  0.24010533170E+03  0.12708231475E+04  0.12699999809E+01 0.  1.
</event>
<event>
 5   0  0.4464297E-06  0.2578884E+04  0.7818609E-02  0.8375409E-01
        1   -1    0    0  501    0  0.00000000000E+00  0.00000000000E+00  0.20164903326E+04  0.20164903326E+04  0.50400001928E-02 0. -1.
       -1   -1    0    0    0  501  0.00000000000E+00  0.00000000000E+00 -0.82453217735E+03  0.82453217736E+03  0.50400001928E-02 0.  1.
    10030    2    1    2    0    0  0.00000000000E+00  0.00000000000E+00  0.11919581553E+04  0.28410225100E+04  0.25788843825E+04 0.  0.
        4    1    3    3  502    0 -0.80334164533E+03 -0.89100466367E+03  0.11166897516E+04  0.16389767308E+04  0.12699999809E+01 0. -1.
       -4    1    3    3    0  502  0.80334164533E+03  0.89100466367E+03  0.75268403644E+02  0.12020457792E+04  0.12699999809E+01 0.  1.
</event>
<event>
 5   0  0.4597705E-06  0.2636588E+04  0.7818609E-02  0.8355878E-01
        1   -1    0    0  501    0  0.00000000000E+00  0.00000000000E+00  0.22197981635E+04  0.22197981635E+04  0.50400001928E-02 0.  1.
       -1   -1    0    0    0  501  0.00000000000E+00  0.00000000000E+00 -0.78290881955E+03  0.78290881957E+03  0.50400001928E-02 0. -1.
    10030    2    1    2    0    0  0.00000000000E+00  0.00000000000E+00  0.14368893439E+04  0.30027069830E+04  0.26365883712E+04 0.  0.
        5    1    3    3  502    0 -0.10630622549E+04  0.70524288799E+01  0.16062641406E+04  0.19262029161E+04  0.46999998093E+01 0.  1.
       -5    1    3    3    0  502  0.10630622549E+04 -0.70524288799E+01 -0.16937479671E+03  0.10765040670E+04  0.46999998093E+01 0. -1.
</event>
<event>
 5   0  0.4464297E-06  0.2598797E+04  0.7818609E-02  0.8368610E-01
       -1   -1    0    0    0  501  0.00000000000E+00  0.00000000000E+00  0.15775748563E+04  0.15775748563E+04  0.50400001928E-02 0. -1.
        1   -1    0    0  501    0  0.00000000000E+00  0.00000000000E+00 -0.10702731915E+04  0.10702731915E+04  0.50400001928E-02 0.  1.
    10030    2    1    2    0    0  0.00000000000E+00  0.00000000000E+00  0.50730166478E+03  0.26478480477E+04  0.25987967033E+04 0.  0.
        4    1    3    3  502    0  0.34589183051E+03 -0.12054597906E+04  0.60015809506E+03  0.13903114102E+04  0.12699999809E+01 0.  1.
       -4    1    3    3    0  502 -0.34589183051E+03  0.12054597906E+04 -0.92856430277E+02  0.12575366376E+04  0.12699999809E+01 0. -1.
</event>
<event>
 5   0  0.4464297E-06  0.2584630E+04  0.7818609E-02  0.8373441E-01
       -1   -1    0    0    0  501  0.00000000000E+00  0.00000000000E+00  0.73098635678E+03  0.73098635680E+03  0.50400001928E-02 0.  1.
        1   -1    0    0  501    0  0.00000000000E+00  0.00000000000E+00 -0.22846910176E+04  0.22846910176E+04  0.50400001928E-02 0. -1.
    10030    2    1    2    0    0  0.00000000000E+00  0.00000000000E+00 -0.15537046608E+04  0.30156773744E+04  0.25846299258E+04 0.  0.
        4    1    3    3  502    0 -0.67592024500E+03 -0.55876946491E+03 -0.18843562077E+04  0.20784348493E+04  0.12699999809E+01 0. -1.
       -4    1    3    3    0  502  0.67592024500E+03  0.55876946491E+03  0.33065154686E+03  0.93724252510E+03  0.12699999809E+01 0.  1.
</event>
<event>
 5   0  0.4464297E-06  0.2712213E+04  0.7818609E-02  0.8331053E-01
        1   -1    0    0  501    0  0.00000000000E+00  0.00000000000E+00  0.20351114146E+04  0.20351114146E+04  0.50400001928E-02 0. -1.
       -1   -1    0    0    0  501  0.00000000000E+00  0.00000000000E+00 -0.90364804823E+03  0.90364804824E+03  0.50400001928E-02 0.  1.
    10030    2    1    2    0    0  0.00000000000E+00  0.00000000000E+00  0.11314633664E+04  0.29387594628E+04  0.27122127186E+04 0.  0.
        4    1    3    3  502    0 -0.23747955353E+03  0.85696504106E+03 -0.54362213251E+03  0.10422630454E+04  0.12699999809E+01 0.  1.
       -4    1    3    3    0  502  0.23747955353E+03 -0.85696504106E+03  0.16750854989E+04  0.18964964174E+04  0.12699999809E+01 0. -1.
</event>
<event>
 5   0  0.4218590E-06  0.2599637E+04  0.7818609E-02  0.8368325E-01
       -1   -1    0    0    0  501  0.00000000000E+00  0.00000000000E+00  0.13519816615E+04  0.13519816615E+04  0.50400001928E-02 0. -1.
        1   -1    0    0  501    0  0.00000000000E+00  0.00000000000E+00 -0.12496677548E+04  0.12496677548E+04  0.50400001928E-02 0.  1.
    10030    2    1    2    0    0  0.00000000000E+00  0.00000000000E+00  0.10231390670E+03  0.26016494162E+04  0.25996368111E+04 0.  0.
        1    1    3    3  502    0  0.15384980510E+03  0.55014013956E+03  0.12196241195E+04  0.13467764954E+04  0.50400001928E-02 0. -1.
       -1    1    3    3    0  502 -0.15384980510E+03 -0.55014013956E+03 -0.11173102128E+04  0.12548729208E+04  0.50400001928E-02 0.  1.
</event>
<event>
 5   0  0.1086507E-05  0.2597696E+04  0.7818609E-02  0.8368984E-01
       -2   -1    0    0    0  501  0.00000000000E+00  0.00000000000E+00  0.10002698203E+04  0.10002698203E+04  0.25500000920E-02 0. -1.
        2   -1    0    0  501    0  0.00000000000E+00  0.00000000000E+00 -0.16865511599E+04  0.16865511599E+04  0.25500000920E-02 0.  1.
    10030    2    1    2    0    0  0.00000000000E+00  0.00000000000E+00 -0.68628133959E+03  0.26868209802E+04  0.25976960759E+04 0.  0.
        2    1    3    3  502    0  0.16787305464E+02 -0.23877725063E+03  0.97725939200E+03  0.10061472598E+04  0.25500000920E-02 0. -1.
       -2    1    3    3    0  502 -0.16787305464E+02  0.23877725063E+03 -0.16635407316E+04  0.16806737205E+04  0.25500000920E-02 0.  1.
</event>
<event>
 5   0  0.4218590E-06  0.2575852E+04  0.7818609E-02  0.8376450E-01
       -1   -1    0    0    0  501  0.00000000000E+00  0.00000000000E+00  0.17903940540E+04  0.17903940540E+04  0.50400001928E-02 0.  1.
        1   -1    0    0  501    0  0.00000000000E+00  0.00000000000E+00 -0.92647371054E+03  0.92647371056E+03  0.50400001928E-02 0. -1.
    10030    2    1    2    0    0  0.00000000000E+00  0.00000000000E+00  0.86392034346E+03  0.27168677646E+04  0.25758517213E+04 0.  0.
        1    1    3    3  502    0  0.11343088876E+04 -0.43067716380E+03 -0.23677086261E+02  0.12135485472E+04  0.50400001928E-02 0. -1.
       -1    1    3    3    0  502 -0.11343088876E+04  0.43067716380E+03  0.88759742972E+03  0.15033192174E+04  0.50400001928E-02 0.  1.
</event>
<event>
 5   0  0.4218590E-06  0.2592572E+04  0.7818609E-02  0.8370729E-01
        1   -1    0    0  501    0  0.00000000000E+00  0.00000000000E+00  0.25230806116E+04  0.25230806116E+04  0.50400001928E-02 0.  1.
       -1   -1    0    0    0  501  0.00000000000E+00  0.00000000000E+00 -0.66599455699E+03  0.66599455701E+03  0.50400001928E-02 0. -1.
    10030    2    1    2    0    0  0.00000000000E+00  0.00000000000E+00  0.18570860546E+04  0.31890751686E+04  0.25925724323E+04 0.  0.
        1    1    3    3  502    0 -0.11617122890E+04 -0.57448073980E+03  0.96232866938E+03  0.16142118916E+04  0.50400001928E-02 0.  1.
       -1    1    3    3    0  502  0.11617122890E+04  0.57448073980E+03  0.89475738520E+03  0.15748632770E+04  0.50400001928E-02 0. -1.
</event>
<event>
 5   0  0.1085255E-05  0.2603242E+04  0.7818609E-02  0.8367101E-01
        2   -1    0    0  501    0  0.00000000000E+00  0.00000000000E+00  0.20021243095E+04  0.20021243095E+04  0.25500000920E-02 0. -1.
       -2   -1    0    0    0  501  0.00000000000E+00  0.00000000000E+00 -0.84620977145E+03  0.84620977145E+03  0.25500000920E-02 0.  1.
    10030    2    1    2    0    0  0.00000000000E+00  0.00000000000E+00  0.11559145381E+04  0.28483340810E+04  0.26032419437E+04 0.  0.
        5    1    3    3  502    0  0.87912772986E+03  0.81264042785E+03  0.11368788919E+04  0.16509893202E+04  0.46999998093E+01 0. -1.
       -5    1    3    3    0  502 -0.87912772986E+03 -0.81264042785E+03  0.19035646131E+02  0.11973447608E+04  0.46999998093E+01 0.  1.
</event>
<event>
 5   0  0.3705250E-06  0.2579962E+04  0.7818609E-02  0.8375040E-01
       -4   -1    0    0    0  501  0.00000000000E+00  0.00000000000E+00  0.15421568925E+04  0.15421574155E+04  0.12699999809E+01 0. -1.
        4   -1    0    0  501    0  0.00000000000E+00  0.00000000000E+00 -0.10790399270E+04  0.10790406744E+04  0.12699999809E+01 0.  1.
    10030    2    1    2    0    0  0.00000000000E+00  0.00000000000E+00  0.46311696549E+03  0.26211980899E+04  0.25799616475E+04 0.  0.
        5    1    3    3  502    0  0.12044063703E+04  0.37039331657E+03 -0.48975333285E+02  0.12610339357E+04  0.46999998093E+01 0.  1.
       -5    1    3    3    0  502 -0.12044063703E+04 -0.37039331657E+03  0.51209229877E+03  0.13601641542E+04  0.46999998093E+01 0. -1.
</event>
<event>
 5   0  0.4361864E-06  0.2597708E+04  0.7818609E-02  0.8368980E-01
       -1   -1    0    0    0  501  0.00000000000E+00  0.00000000000E+00  0.11875530592E+04  0.11875530592E+04  0.50400001928E-02 0.  1.
        1   -1    0    0  501    0  0.00000000000E+00  0.00000000000E+00 -0.14205864604E+04  0.14205864605E+04  0.50400001928E-02 0. -1.
    10030    2    1    2    0    0  0.00000000000E+00  0.00000000000E+00 -0.23303340126E+03  0.26081395197E+04  0.25977080644E+04 0.  0.
        3    1    3    3  502    0  0.47573175414E+03 -0.11677263728E+04  0.19636943882E+03  0.12761138469E+04  0.10100000352E+00 0.  1.
       -3    1    3    3    0  502 -0.47573175414E+03  0.11677263728E+04 -0.42940284009E+03  0.13320256727E+04  0.10100000352E+00 0. -1.
</event>
<event>
 5   0  0.4464297E-06  0.2565941E+04  0.7818609E-02  0.8379863E-01
       -1   -1    0    0    0  501  0.00000000000E+00  0.00000000000E+00  0.97524360547E+03  0.97524360548E+03  0.50400001928E-02 0. -1.
        1   -1    0    0  501    0  0.00000000000E+00  0.00000000000E+00 -0.16877965469E+04  0.16877965469E+04  0.50400001928E-02 0.  1.
    10030    2    1    2    0    0  0.00000000000E+00  0.00000000000E+00 -0.71255294145E+03  0.26630401524E+04  0.25659405993E+04 0.  0.
        4    1    3    3  502    0  0.54336157992E+03 -0.59458254890E+03  0.68013251799E+03  0.10542068435E+04  0.12699999809E+01 0. -1.
       -4    1    3    3    0  502 -0.54336157992E+03  0.59458254890E+03 -0.13926854594E+04  0.16088333089E+04  0.12699999809E+01 0.  1.
</event>
<event>
 5   0  0.4464297E-06  0.2604573E+04  0.7818609E-02  0.8366650E-01
       -1   -1    0    0    0  501  0.00000000000E+00  0.00000000000E+00  0.59013632011E+03  0.59013632013E+03  0.50400001928E-02 0.  1.
        1   -1    0    0  501    0  0.00000000000E+00  0.00000000000E+00 -0.28738266514E+04  0.28738266514E+04  0.50400001928E-02 0. -1.
    10030    2    1    2    0    0  0.00000000000E+00  0.00000000000E+00 -0.22836903313E+04  0.34639629715E+04  0.26045725060E+04 0.  0.
        4    1    3    3  502    0  0.70598561721E+03 -0.10943175860E+04 -0.11403875557E+04  0.17310205258E+04  0.12699999809E+01 0. -1.
       -4    1    3    3    0  502 -0.70598561721E+03  0.10943175860E+04 -0.11433027756E+04  0.17329424457E+04  0.12699999809E+01 0.  1.
</event>
<event>
 5   0  0.1116310E-05  0.2611016E+04  0.7818609E-02  0.8364469E-01
       -2   -1    0    0    0  501  0.00000000000E+00  0.00000000000E+00  0.92239623559E+03  0.92239623560E+03  0.25500000920E-02 0.  1.
        2   -1    0    0  501    0  0.00000000000E+00  0.00000000000E+00 -0.18477434165E+04  0.18477434166E+04  0.25500000920E-02 0. -1.
    10030    2    1    2    0    0  0.00000000000E+00  0.00000000000E+00 -0.92534718096E+03  0.27701396521E+04  0.26110163322E+04 0.  0.
        4    1    3    3  502    0 -0.46950202369E+03 -0.68557169059E+03  0.60562245664E+03  0.10282124615E+04  0.12699999809E+01 0.  1.
       -4    1    3    3    0  502  0.46950202369E+03  0.68557169059E+03 -0.15309696376E+04  0.17419271906E+04  0.12699999809E+01 0. -1.
</event>
<event>
 5   0  0.3705250E-06  0.2609099E+04  0.7818609E-02  0.8365117E-01
       -3   -1    0    0    0  501  0.00000000000E+00  0.00000000000E+00  0.14145092757E+04  0.14145092793E+04  0.10100000352E+00 0. -1.
        3   -1    0    0  501    0  0.00000000000E+00  0.00000000000E+00 -0.12031377669E+04  0.12031377712E+04  0.10100000352E+00 0.  1.
    10030    2    1    2    0    0  0.00000000000E+00  0.00000000000E+00  0.21137150876E+03  0.26176470504E+04  0.26090991100E+04 0.  0.
        5    1    3    3  502    0  0.40091173737E+03 -0.28586805599E+03 -0.11063186928E+04  0.12109557823E+04  0.46999998093E+01 0.  1.
       -5    1    3    3    0  502 -0.40091173737E+03  0.28586805599E+03  0.13176902016E+04  0.14066912681E+04  0.46999998093E+01 0. -1.
</event>
<event>
 5   0  0.4361864E-06  0.2605558E+04  0.7818609E-02  0.8366316E-01
        1   -1    0    0  501    0  0.00000000000E+00  0.00000000000E+00  0.21378165245E+04  0.21378165245E+04  0.50400001928E-02 0. -1.
       -1   -1    0    0    0  501  0.00000000000E+00  0.00000000000E+00 -0.79390984153E+03  0.79390984155E+03  0.50400001928E-02 0.  1.
    10030    2    1    2    0    0  0.00000000000E+00  0.00000000000E+00  0.13439066830E+04  0.29317263661E+04  0.26055583496E+04 0.  0.
        3    1    3    3  502    0 -0.90433591618E+03  0.71134550825E+03  0.13595099188E+04  0.17810398960E+04  0.10100000352E+00 0. -1.
       -3    1    3    3    0  502  0.90433591618E+03 -0.71134550825E+03 -0.15603235814E+02  0.11506864701E+04  0.10100000352E+00 0.  1.
</event>
<event>
 5   0  0.1086507E-05  0.2607081E+04  0.7818609E-02  0.8365800E-01
        2   -1    0    0  501    0  0.00000000000E+00  0.00000000000E+00  0.11070705703E+04  0.11070705703E+04  0.25500000920E-02 0.  1.
       -2   -1    0    0    0  501  0.00000000000E+00  0.00000000000E+00 -0.15348774643E+04  0.15348774643E+04  0.25500000920E-02 0. -1.
    10030    2    1    2    0    0  0.00000000000E+00  0.00000000000E+00 -0.42780689396E+03  0.26419480346E+04  0.26070808731E+04 0.  0.
        2    1    3    3  502    0  0.10377152340E+04 -0.48676043070E+03 -0.84303575423E+03  0.14228485185E+04  0.25500000920E-02 0. -1.
       -2    1    3    3    0  502 -0.10377152340E+04  0.48676043070E+03  0.41522886027E+03  0.12190995161E+04  0.25500000920E-02 0.  1.
</event>
<event>
 5   0  0.1085255E-05  0.2597565E+04  0.7818609E-02  0.8369029E-01
       -2   -1    0    0    0  501  0.00000000000E+00  0.00000000000E+00  0.10447232487E+04  0.10447232487E+04  0.25500000920E-02 0.  1.
        2   -1    0    0  501    0  0.00000000000E+00  0.00000000000E+00 -0.16146251547E+04  0.16146251547E+04  0.25500000920E-02 0. -1.
    10030    2    1    2    0    0  0.00000000000E+00  0.00000000000E+00 -0.56990190596E+03  0.26593484034E+04  0.25975653502E+04 0.  0.
        5    1    3    3  502    0 -0.22182301335E+03  0.12099981117E+04 -0.71140805392E+03  0.14210645266E+04  0.46999998093E+01 0. -1.
       -5    1    3    3    0  502  0.22182301335E+03 -0.12099981117E+04  0.14150614796E+03  0.12382838768E+04  0.46999998093E+01 0.  1.
</event>
<event>
 5   0  0.1136881E-05  0.2631093E+04  0.7818609E-02  0.8357716E-01
       -2   -1    0    0    0  501  0.00000000000E+00  0.00000000000E+00  0.95689735371E+03  0.95689735371E+03  0.25500000920E-02 0.  1.
        2   -1    0    0  501    0  0.00000000000E+00  0.00000000000E+00 -0.18086186015E+04  0.18086186015E+04  0.25500000920E-02 0. -1.
    10030    2    1    2    0    0  0.00000000000E+00  0.00000000000E+00 -0.85172124776E+03  0.27655159552E+04  0.26310928175E+04 0.  0.
        3    1    3    3  502    0 -0.95616751561E+03  0.90025789040E+03 -0.34483965809E+03  0.13578052096E+04  0.10100000352E+00 0. -1.
       -3    1    3    3    0  502  0.95616751561E+03 -0.90025789040E+03 -0.50688158967E+03  0.14077107456E+04  0.10100000352E+00 0.  1.
</event>
<event>
 5   0  0.4415080E-06  0.2592041E+04  0.7818609E-02  0.8370910E-01
        1   -1    0    0  501    0  0.00000000000E+00  0.00000000000E+00  0.17524532753E+04  0.17524532753E+04  0.50400001928E-02 0.  1.
       -1   -1    0    0    0  501  0.00000000000E+00  0.00000000000E+00 -0.95846722084E+03  0.95846722085E+03  0.50400001928E-02 0. -1.
    10030    2    1    2    0    0  0.00000000000E+00  0.00000000000E+00  0.79398605448E+03  0.27109204962E+04  0.25920409105E+04 0.  0.
        2    1    3    3  502    0 -0.12467360230E+04  0.32884567076E+03  0.25991376052E+03  0.13153118829E+04  0.25500000920E-02 0. -1.
       -2    1    3    3    0  502  0.12467360230E+04 -0.32884567076E+03  0.53407229396E+03  0.13956086133E+04  0.25500000920E-02 0.  1.
</event>
<event>
 5   0  0.1136881E-05  0.2643412E+04  0.7818609E-02  0.8353603E-01
        2   -1    0    0  501    0  0.00000000000E+00  0.00000000000E+00  0.18543303349E+04  0.18543303349E+04  0.25500000920E-02 0. -1.
       -2   -1    0    0    0  501  0.00000000000E+00  0.00000000000E+00 -0.94206889925E+03  0.94206889926E+03  0.25500000920E-02 0.  1.
    10030    2    1    2    0    0  0.00000000000E+00  0.00000000000E+00  0.91226143568E+03  0.27963992342E+04  0.26434121415E+04 0.  0.
        3    1    3    3  502    0 -0.11592928364E+04  0.44052954218E+02 -0.21376921981E+03  0.11796600497E+04  0.10100000352E+00 0.  1.
       -3    1    3    3    0  502  0.11592928364E+04 -0.44052954218E+02  0.11260306555E+04  0.16167391845E+04  0.10100000352E+00 0. -1.
</event>
<event>
 5   0  0.4597705E-06  0.2621588E+04  0.7818609E-02  0.8360905E-01
       -1   -1    0    0    0  501  0.00000000000E+00  0.00000000000E+00  0.84252461932E+03  0.84252461933E+03  0.50400001928E-02 0.  1.
        1   -1    0    0  501    0  0.00000000000E+00  0.00000000000E+00 -0.20393235365E+04  0.20393235365E+04  0.50400001928E-02 0. -1.
    10030    2    1    2    0    0  0.00000000000E+00  0.00000000000E+00 -0.11967989172E+04  0.28818481558E+04  0.26215875238E+04 0.  0.
        5    1    3    3  502    0  0.47366817053E+03 -0.15413239238E+03  0.73441989034E+03  0.88741928955E+03  0.46999998093E+01 0.  1.
       -5    1    3    3    0  502 -0.47366817053E+03  0.15413239238E+03 -0.19312188075E+04  0.19944288663E+04  0.46999998093E+01 0. -1.
</event>
<event>
 5   0  0.4361864E-06  0.2646900E+04  0.7818609E-02  0.8352443E-01
        1   -1    0    0  501    0  0.00000000000E+00  0.00000000000E+00  0.10567705461E+04  0.10567705461E+04  0.50400001928E-02 0. -1.
       -1   -1    0    0    0  501  0.00000000000E+00  0.00000000000E+00 -0.16574263598E+04  0.16574263598E+04  0.50400001928E-02 0.  1.
    10030    2    1    2    0    0  0.00000000000E+00  0.00000000000E+00 -0.60065581363E+03  0.27141969059E+04  0.26468995896E+04 0.  0.
        3    1    3    3  502    0 -0.40543207738E+03 -0.12256013423E+04 -0.59936814464E+03  0.14232765025E+04  0.10100000352E+00 0. -1.
       -3    1    3    3    0  502  0.40543207738E+03  0.12256013423E+04 -0.12876689934E+01  0.12909204034E+04  0.10100000352E+00 0.  1.
</event>
<event>
 5   0  0.4218590E-06  0.2599827E+04  0.7818609E-02  0.8368260E-01
        1   -1    0    0  501    0  0.00000000000E+00  0.00000000000E+00  0.12508936622E+04  0.12508936622E+04  0.50400001928E-02 0. -1.
       -1   -1    0    0    0  501  0.00000000000E+00  0.00000000000E+00 -0.13508546808E+04  0.13508546808E+04  0.50400001928E-02 0.  1.
    10030    2    1    2    0    0  0.00000000000E+00  0.00000000000E+00 -0.99961018524E+02  0.26017483430E+04  0.25998273472E+04 0.  0.
        1    1    3    3  502    0  0.29963639873E+03  0.11478590645E+04 -0.58179876396E+03  0.13213070064E+04  0.50400001928E-02 0.  1.
       -1    1    3    3    0  502 -0.29963639873E+03 -0.11478590645E+04  0.48183774543E+03  0.12804413366E+04  0.50400001928E-02 0. -1.
</event>
<event>
 5   0  0.1116310E-05  0.2503515E+04  0.7818609E-02  0.8401734E-01
       -2   -1    0    0    0  501  0.00000000000E+00  0.00000000000E+00  0.14306869249E+04  0.14306869249E+04  0.25500000920E-02 0.  1.
        2   -1    0    0  501    0  0.00000000000E+00  0.00000000000E+00 -0.10952062168E+04  0.10952062168E+04  0.25500000920E-02 0. -1.
    10030    2    1    2    0    0  0.00000000000E+00  0.00000000000E+00  0.33548070805E+03  0.25258931417E+04  0.25035153001E+04 0.  0.
        4    1    3    3  502    0  0.61238350651E+03 -0.10877762531E+04  0.26144063484E+03  0.12753915298E+04  0.12699999809E+01 0.  1.
       -4    1    3    3    0  502 -0.61238350651E+03  0.10877762531E+04  0.74040073209E+02  0.12505016119E+04  0.12699999809E+01 0. -1.
</event>
<event>
 5   0  0.4464297E-06  0.2610964E+04  0.7818609E-02  0.8364487E-01
        1   -1    0    0  501    0  0.00000000000E+00  0.00000000000E+00  0.21980601597E+04  0.21980601597E+04  0.50400001928E-02 0. -1.
       -1   -1    0    0    0  501  0.00000000000E+00  0.00000000000E+00 -0.77535766102E+03  0.77535766104E+03  0.50400001928E-02 0.  1.
    10030    2    1    2    0    0  0.00000000000E+00  0.00000000000E+00  0.14227024987E+04  0.29734178208E+04  0.26109636415E+04 0.  0.
        4    1    3    3  502    0  0.17332224375E+03 -0.95427903626E+02 -0.75818303081E+03  0.78357527148E+03  0.12699999809E+01 0.  1.
       -4    1    3    3    0  502 -0.17332224375E+03  0.95427903626E+02  0.21808855295E+04  0.21898425493E+04  0.12699999809E+01 0. -1.
</event>
<event>
 5   0  0.3705250E-06  0.2609788E+04  0.7818609E-02  0.8364884E-01
       -4   -1    0    0    0  501  0.00000000000E+00  0.00000000000E+00  0.12117980070E+04  0.12117986725E+04  0.12699999809E+01 0. -1.
        4   -1    0    0  501    0  0.00000000000E+00  0.00000000000E+00 -0.14051402358E+04  0.14051408098E+04  0.12699999809E+01 0.  1.
    10030    2    1    2    0    0  0.00000000000E+00  0.00000000000E+00 -0.19334222885E+03  0.26169394823E+04  0.26097875462E+04 0.  0.
        2    1    3    3  502    0 -0.49239385582E+03 -0.11691428016E+04 -0.40312466575E+03  0.13311108504E+04  0.25500000920E-02 0.  1.
       -2    1    3    3    0  502  0.49239385582E+03  0.11691428016E+04  0.20978243690E+03  0.12858286319E+04  0.25500000920E-02 0. -1.
</event>
<event>
 5   0  0.4361864E-06  0.2600197E+04  0.7818609E-02  0.8368134E-01
       -1   -1    0    0    0  501  0.00000000000E+00  0.00000000000E+00  0.68496928365E+03  0.68496928367E+03  0.50400001928E-02 0.  1.
        1   -1    0    0  501    0  0.00000000000E+00  0.00000000000E+00 -0.24676382631E+04  0.24676382631E+04  0.50400001928E-02 0. -1.
    10030    2    1    2    0    0  0.00000000000E+00  0.00000000000E+00 -0.17826689794E+04  0.31526075468E+04  0.26001972336E+04 0.  0.
        3    1    3    3  502    0  0.53796554412E+03 -0.87921051873E+03  0.69364945964E+02  0.10330680369E+04  0.10100000352E+00 0.  1.
       -3    1    3    3    0  502 -0.53796554412E+03  0.87921051873E+03 -0.18520339254E+04  0.21195395099E+04  0.10100000352E+00 0. -1.
</event>
<event>
 5   0  0.1086507E-05  0.2560886E+04  0.7818609E-02  0.8381610E-01
       -2   -1    0    0    0  501  0.00000000000E+00  0.00000000000E+00  0.15391323254E+04  0.15391323254E+04  0.25500000920E-02 0. -1.
        2   -1    0    0  501    0  0.00000000000E+00  0.00000000000E+00 -0.10652326302E+04  0.10652326302E+04  0.25500000920E-02 0.  1.
    10030    2    1    2    0    0  0.00000000000E+00  0.00000000000E+00  0.47389969514E+03  0.26043649556E+04  0.25608857649E+04 0.  0.
        2    1    3    3  502    0  0.56384817724E+03  0.11137838036E+04  0.52655632183E+03  0.13548803224E+04  0.25500000920E-02 0. -1.
       -2    1    3    3    0  502 -0.56384817724E+03 -0.11137838036E+04 -0.52656626693E+02  0.12494846331E+04  0.25500000920E-02 0.  1.
</event>
<event>
 5   0  0.1116310E-05  0.2543654E+04  0.7818609E-02  0.8387596E-01
        2   -1    0    0  501    0  0.00000000000E+00  0.00000000000E+00  0.24676507249E+04  0.24676507249E+04  0.25500000920E-02 0. -1.
       -2   -1    0    0    0  501  0.00000000000E+00  0.00000000000E+00 -0.65549974639E+03  0.65549974639E+03  0.25500000920E-02 0.  1.
    10030    2    1    2    0    0  0.00000000000E+00  0.00000000000E+00  0.18121509785E+04  0.31231504713E+04  0.25436543982E+04 0.  0.
        4    1    3    3  502    0  0.43492457617E+03  0.23523957769E+03  0.23447989023E+04  0.23963682002E+04  0.12699999809E+01 0. -1.
       -4    1    3    3    0  502 -0.43492457617E+03 -0.23523957769E+03 -0.53264792381E+03  0.72678227105E+03  0.12699999809E+01 0.  1.
</event>
<event>
 5   0  0.1086507E-05  0.2595979E+04  0.7818609E-02  0.8369568E-01
        2   -1    0    0  501    0  0.00000000000E+00  0.00000000000E+00  0.19554663498E+04  0.19554663498E+04  0.25500000920E-02 0.  1.
       -2   -1    0    0    0  501  0.00000000000E+00  0.00000000000E+00 -0.86157286908E+03  0.86157286909E+03  0.25500000920E-02 0. -1.
    10030    2    1    2    0    0  0.00000000000E+00  0.00000000000E+00  0.10938934807E+04  0.28170392189E+04  0.25959790087E+04 0.  0.
        2    1    3    3  502    0  0.53035904334E+03 -0.21307284289E+03  0.18115577321E+04  0.18995847356E+04  0.25500000920E-02 0.  1.
       -2    1    3    3    0  502 -0.53035904334E+03  0.21307284289E+03 -0.71766425133E+03  0.91745448327E+03  0.25500000920E-02 0. -1.
</event>
<event>
 5   0  0.4464297E-06  0.2576561E+04  0.7818609E-02  0.8376207E-01
       -1   -1    0    0    0  501  0.00000000000E+00  0.00000000000E+00  0.87816593502E+03  0.87816593503E+03  0.50400001928E-02 0.  1.
        1   -1    0    0  501    0  0.00000000000E+00  0.00000000000E+00 -0.18899232823E+04  0.18899232823E+04  0.50400001928E-02 0. -1.
    10030    2    1    2    0    0  0.00000000000E+00  0.00000000000E+00 -0.10117573472E+04  0.27680892173E+04  0.25765606892E+04 0.  0.
        4    1    3    3  502    0  0.10502006058E+04 -0.62362280652E+03 -0.94601249898E+03  0.15449168193E+04  0.12699999809E+01 0. -1.
       -4    1    3    3    0  502 -0.10502006058E+04  0.62362280652E+03 -0.65744848249E+02  0.12231723980E+04  0.12699999809E+01 0.  1.
</event>
<event>
 5   0  0.1085255E-05  0.2561147E+04  0.7818609E-02  0.8381520E-01
       -2   -1    0    0    0  501  0.00000000000E+00  0.00000000000E+00  0.12587096863E+04  0.12587096863E+04  0.25500000920E-02 0.  1.
        2   -1    0    0  501    0  0.00000000000E+00  0.00000000000E+00 -0.13028174084E+04  0.13028174084E+04  0.25500000920E-02 0. -1.
    10030    2    1    2    0    0  0.00000000000E+00  0.00000000000E+00 -0.44107722154E+02  0.25615270947E+04  0.25611473144E+04 0.  0.
        5    1    3    3  502    0 -0.11171179528E+03 -0.55046345742E+03  0.11289240070E+04  0.12609445058E+04  0.46999998093E+01 0.  1.
       -5    1    3    3    0  502  0.11171179528E+03  0.55046345742E+03 -0.11730317291E+04  0.13005825890E+04  0.46999998093E+01 0. -1.
</event>
<event>
 5   0  0.4415080E-06  0.2531238E+04  0.7818609E-02  0.8391941E-01
        1   -1    0    0  501    0  0.00000000000E+00  0.00000000000E+00  0.19118044755E+04  0.19118044755E+04  0.50400001928E-02 0.  1.
       -1   -1    0    0    0  501  0.00000000000E+00  0.00000000000E+00 -0.83784240505E+03  0.83784240506E+03  0.50400001928E-02 0. -1.
    10030    2    1    2    0    0  0.00000000000E+00  0.00000000000E+00  0.10739620704E+04  0.27496468806E+04  0.25312375311E+04 0.  0.
        2    1    3    3  502    0 -0.82310040145E+02 -0.75065607214E+03  0.16402597619E+04  0.18057440483E+04  0.25500000920E-02 0.  1.
       -2    1    3    3    0  502  0.82310040145E+02  0.75065607214E+03 -0.56629769149E+03  0.94390283226E+03  0.25500000920E-02 0. -1.
</event>
<event>
 5   0  0.4218590E-06  0.2589314E+04  0.7818609E-02  0.8371840E-01
       -1   -1    0    0    0  501  0.00000000000E+00  0.00000000000E+00  0.75664642430E+03  0.75664642432E+03  0.50400001928E-02 0.  1.
        1   -1    0    0  501    0  0.00000000000E+00  0.00000000000E+00 -0.22152180962E+04  0.22152180962E+04  0.50400001928E-02 0. -1.
    10030    2    1    2    0    0  0.00000000000E+00  0.00000000000E+00 -0.14585716719E+04  0.29718645205E+04  0.25893140803E+04 0.  0.
        1    1    3    3  502    0  0.22088367273E+03 -0.45283926655E+03 -0.20980776967E+04  0.21577263542E+04  0.50400001928E-02 0. -1.
       -1    1    3    3    0  502 -0.22088367273E+03  0.45283926655E+03  0.63950602475E+03  0.81413816636E+03  0.50400001928E-02 0.  1.
</event>
<event>
 5   0  0.4597705E-06  0.2618361E+04  0.7818609E-02  0.8361991E-01
        1   -1    0    0  501    0  0.00000000000E+00  0.00000000000E+00  0.96617301302E+03  0.96617301304E+03  0.50400001928E-02 0.  1.
       -1   -1    0    0    0  501  0.00000000000E+00  0.00000000000E+00 -0.17739610011E+04  0.17739610011E+04  0.50400001928E-02 0. -1.
    10030    2    1    2    0    0  0.00000000000E+00  0.00000000000E+00 -0.80778798810E+03  0.27401340142E+04  0.26183607433E+04 0.  0.
        5    1    3    3  502    0 -0.41747907554E+03  0.22043139836E+03 -0.16817701664E+04  0.17467832615E+04  0.46999998093E+01 0. -1.
       -5    1    3    3    0  502  0.41747907554E+03 -0.22043139836E+03  0.87398217831E+03  0.99335075270E+03  0.46999998093E+01 0.  1.
</event>
<event>
 5   0  0.4464297E-06  0.2609315E+04  0.7818609E-02  0.8365044E-01
        1   -1    0    0  501    0  0.00000000000E+00  0.00000000000E+00  0.14238360487E+04  0.14238360487E+04  0.50400001928E-02 0. -1.
       -1   -1    0    0    0  501  0.00000000000E+00  0.00000000000E+00 -0.11954541748E+04  0.11954541748E+04  0.50400001928E-02 0.  1.
    10030    2    1    2    0    0  0.00000000000E+00  0.00000000000E+00  0.22838187389E+03  0.26192902235E+04  0.26093146600E+04 0.  0.
        4    1    3    3  502    0  0.52661252273E+03 -0.19261990588E+03  0.12967038561E+04  0.14127511036E+04  0.12699999809E+01 0. -1.
       -4    1    3    3    0  502 -0.52661252273E+03  0.19261990588E+03 -0.10683219823E+04  0.12065391199E+04  0.12699999809E+01 0.  1.
</event>
<event>
 5   0  0.1085061E-05  0.2607696E+04  0.7818609E-02  0.8365592E-01
       -2   -1    0    0    0  501  0.00000000000E+00  0.00000000000E+00  0.15938766340E+04  0.15938766340E+04  0.25500000920E-02 0. -1.
        2   -1    0    0  501    0  0.00000000000E+00  0.00000000000E+00 -0.10665944446E+04  0.10665944446E+04  0.25500000920E-02 0.  1.
    10030    2    1    2    0    0  0.00000000000E+00  0.00000000000E+00  0.52728218938E+03  0.26604710786E+04  0.26076962731E+04 0.  0.
        1    1    3    3  502    0  0.46523160664E+03  0.25380773698E+03 -0.95175375706E+03  0.10893548684E+04  0.50400001928E-02 0.  1.
       -1    1    3    3    0  502 -0.46523160664E+03 -0.25380773698E+03  0.14790359464E+04  0.15711162102E+04  0.50400001928E-02 0. -1.
</event>
<event>
 5   0  0.4218590E-06  0.2601316E+04  0.7818609E-02  0.8367754E-01
        1   -1    0    0  501    0  0.00000000000E+00  0.00000000000E+00  0.26056805487E+04  0.26056805487E+04  0.50400001928E-02 0. -1.
       -1   -1    0    0    0  501  0.00000000000E+00  0.00000000000E+00 -0.64923952982E+03  0.64923952984E+03  0.50400001928E-02 0.  1.
    10030    2    1    2    0    0  0.00000000000E+00  0.00000000000E+00  0.19564410189E+04  0.32549200785E+04  0.26013156781E+04 0.  0.
        1    1    3    3  502    0  0.23102598264E+03 -0.62671932979E+03 -0.41824340537E+03  0.78808481089E+03  0.50400001928E-02 0.  1.
       -1    1    3    3    0  502 -0.23102598264E+03  0.62671932979E+03  0.23746844242E+04  0.24668352676E+04  0.50400001928E-02 0. -1.
</event>
<event>
 5   0  0.1136881E-05  0.2498709E+04  0.7818609E-02  0.8403446E-01
       -2   -1    0    0    0  501  0.00000000000E+00  0.00000000000E+00  0.11159583989E+04  0.11159583989E+04  0.25500000920E-02 0. -1.
        2   -1    0    0  501    0  0.00000000000E+00  0.00000000000E+00 -0.13986963252E+04  0.13986963252E+04  0.25500000920E-02 0.  1.
    10030    2    1    2    0    0  0.00000000000E+00  0.00000000000E+00 -0.28273792635E+03  0.25146547241E+04  0.24987091961E+04 0.  0.
        3    1    3    3  502    0  0.61732677460E+03 -0.20885956672E+03  0.93134697564E+03  0.11367153841E+04  0.10100000352E+00 0. -1.
       -3    1    3    3    0  502 -0.61732677460E+03  0.20885956672E+03 -0.12140849020E+04  0.13779393400E+04  0.10100000352E+00 0.  1.
</event>
<event>
 5   0  0.1085061E-05  0.2607921E+04  0.7818609E-02  0.8365516E-01
        2   -1    0    0  501    0  0.00000000000E+00  0.00000000000E+00  0.19949646573E+04  0.19949646573E+04  0.25500000920E-02 0.  1.
       -2   -1    0    0    0  501  0.00000000000E+00  0.00000000000E+00 -0.85230215502E+03  0.85230215502E+03  0.25500000920E-02 0. -1.
    10030    2    1    2    0    0  0.00000000000E+00  0.00000000000E+00  0.11426625023E+04  0.28472668124E+04  0.26079207631E+04 0.  0.
        1    1    3    3  502    0  0.51907509862E+03 -0.11903017620E+04  0.44189500626E+03  0.13716881712E+04  0.50400001928E-02 0.  1.
       -1    1    3    3    0  502 -0.51907509862E+03  0.11903017620E+04  0.70076749606E+03  0.14755786411E+04  0.50400001928E-02 0. -1.
</event>
<event>
 5   0  0.1085061E-05  0.2535192E+04  0.7818609E-02  0.8390554E-01
        2   -1    0    0  501    0  0.00000000000E+00  0.00000000000E+00  0.11044681191E+04  0.11044681191E+04  0.25500000920E-02 0. -1.
       -2   -1    0    0    0  501  0.00000000000E+00  0.00000000000E+00 -0.14548181234E+04  0.14548181234E+04  0.25500000920E-02 0.  1.
    10030    2    1    2    0    0  0.00000000000E+00  0.00000000000E+00 -0.35035000430E+03  0.25592862424E+04  0.25351924868E+04 0.  0.
        1    1    3    3  502    0 -0.63099871717E+03  0.68816965246E+03 -0.10406814706E+04  0.13981254504E+04  0.50400001928E-02 0.  1.
       -1    1    3    3    0  502  0.63099871717E+03 -0.68816965246E+03  0.69033146632E+03  0.11611607921E+04  0.50400001928E-02 0. -1.
</event>
<event>
 5   0  0.1085255E-05  0.2604646E+04  0.7818609E-02  0.8366625E-01
        2   -1    0    0  501    0  0.00000000000E+00  0.00000000000E+00  0.29115364156E+04  0.29115364156E+04  0.25500000920E-02 0. -1.
       -2   -1    0    0    0  501  0.00000000000E+00  0.00000000000E+00 -0.58252562771E+03  0.58252562771E+03  0.25500000920E-02 0.  1.
    10030    2    1    2    0    0  0.00000000000E+00  0.00000000000E+00  0.23290107879E+04  0.34940620433E+04  0.26046455253E+04 0.  0.
        5    1    3    3  502    0  0.11437253014E+04  0.14816273825E+03  0.19760276076E+04  0.22879613105E+04  0.46999998093E+01 0. -1.
       -5    1    3    3    0  502 -0.11437253014E+04 -0.14816273825E+03  0.35298318026E+03  0.12061007328E+04  0.46999998093E+01 0.  1.
</event>
<event>
 5   0  0.4597705E-06  0.2619422E+04  0.7818609E-02  0.8361634E-01
       -1   -1    0    0    0  501  0.00000000000E+00  0.00000000000E+00  0.81303058209E+03  0.81303058211E+03  0.50400001928E-02 0. -1.
        1   -1    0    0  501    0  0.00000000000E+00  0.00000000000E+00 -0.21098127141E+04  0.21098127141E+04  0.50400001928E-02 0.  1.
    10030    2    1    2    0    0  0.00000000000E+00  0.00000000000E+00 -0.12967821320E+04  0.29228432962E+04  0.26194215080E+04 0.  0.
        5    1    3    3  502    0  0.12024593961E+04 -0.38072634858E+03 -0.25473828244E+03  0.12867691457E+04  0.46999998093E+01 0. -1.
       -5    1    3    3    0  502 -0.12024593961E+04  0.38072634858E+03 -0.10420438496E+04  0.16360741506E+04  0.46999998093E+01 0.  1.
</event>
<event>
 5   0  0.1136881E-05  0.2600215E+04  0.7818609E-02  0.8368128E-01
       -2   -1    0    0    0  501  0.00000000000E+00  0.00000000000E+00  0.98263030400E+03  0.98263030400E+03  0.25500000920E-02 0. -1.
        2   -1    0    0  501    0  0.00000000000E+00  0.00000000000E+00 -0.17201581878E+04  0.17201581878E+04  0.25500000920E-02 0.  1.
    10030    2    1    2    0    0  0.00000000000E+00  0.00000000000E+00 -0.73752788376E+03  0.27027884918E+04  0.26002150396E+04 0.  0.
        3    1    3    3  502    0 -0.46237447606E+03  0.97410449471E+03 -0.11237852951E+04  0.15574219475E+04  0.10100000352E+00 0.  1.
       -3    1    3    3    0  502  0.46237447606E+03 -0.97410449471E+03  0.38625741137E+03  0.11453665443E+04  0.10100000352E+00 0. -1.
</event>
<event>
 5   0  0.4415080E-06  0.2663143E+04  0.7818609E-02  0.8347064E-01
        1   -1    0    0  501    0  0.00000000000E+00  0.00000000000E+00  0.71996497031E+03  0.71996497033E+03  0.50400001928E-02 0.  1.
       -1   -1    0    0    0  501  0.00000000000E+00  0.00000000000E+00 -0.24627344738E+04  0.24627344738E+04  0.50400001928E-02 0. -1.
    10030    2    1    2    0    0  0.00000000000E+00  0.00000000000E+00 -0.17427695035E+04  0.31826994442E+04  0.26631429195E+04 0.  0.
        2    1    3    3  502    0  0.45745439474E+03 -0.12257169664E+04 -0.11676034262E+04  0.17535519285E+04  0.25500000920E-02 0. -1.
       -2    1    3    3    0  502 -0.45745439474E+03  0.12257169664E+04 -0.57516607737E+03  0.14291475157E+04  0.25500000920E-02 0.  1.
</event>
<event>
 5   0  0.4218590E-06  0.2591150E+04  0.7818609E-02  0.8371214E-01
       -1   -1    0    0    0  501  0.00000000000E+00  0.00000000000E+00  0.14920077661E+04  0.14920077661E+04  0.50400001928E-02 0. -1.
        1   -1    0    0  501    0  0.00000000000E+00  0.00000000000E+00 -0.11250036382E+04  0.11250036382E+04  0.50400001928E-02 0.  1.
    10030    2    1    2    0    0  0.00000000000E+00  0.00000000000E+00  0.36700412794E+03  0.26170114043E+04  0.25911496792E+04 0.  0.
        1    1    3    3  502    0  0.11005386440E+04 -0.53168634856E+03 -0.25048244526E+03  0.12476446352E+04  0.50400001928E-02 0. -1.
       -1    1    3    3    0  502 -0.11005386440E+04  0.53168634856E+03  0.61748657319E+03  0.13693667691E+04  0.50400001928E-02 0.  1.
</event>
<event>
 5   0  0.4361864E-06  0.2611033E+04  0.7818609E-02  0.8364463E-01
       -1   -1    0    0    0  501  0.00000000000E+00  0.00000000000E+00  0.81088774752E+03  0.81088774753E+03  0.50400001928E-02 0.  1.
        1   -1    0    0  501    0  0.00000000000E+00  0.00000000000E+00 -0.21018614132E+04  0.21018614133E+04  0.50400001928E-02 0. -1.
    10030    2    1    2    0    0  0.00000000000E+00  0.00000000000E+00 -0.12909736657E+04  0.29127491608E+04  0.26110332568E+04 0.  0.
        3    1    3    3  502    0  0.52543618908E+03 -0.68926911784E+03  0.44364980861E+03  0.97365305344E+03  0.10100000352E+00 0.  1.
       -3    1    3    3    0  502 -0.52543618908E+03  0.68926911784E+03 -0.17346234743E+04  0.19390961073E+04  0.10100000352E+00 0. -1.
</event>
<event>
 5   0  0.4361864E-06  0.2642692E+04  0.7818609E-02  0.8353843E-01
       -1   -1    0    0    0  501  0.00000000000E+00  0.00000000000E+00  0.10332560801E+04  0.10332560801E+04  0.50400001928E-02 0.  1.
        1   -1    0    0  501    0  0.00000000000E+00  0.00000000000E+00 -0.16897602320E+04  0.16897602320E+04  0.50400001928E-02 0. -1.
    10030    2    1    2    0    0  0.00000000000E+00  0.00000000000E+00 -0.65650415194E+03  0.27230163122E+04  0.26426918350E+04 0.  0.
        3    1    3    3  502    0  0.59852609338E+03  0.80451777176E+03 -0.12149143779E+04  0.15752775265E+04  0.10100000352E+00 0. -1.
       -3    1    3    3    0  502 -0.59852609338E+03 -0.80451777176E+03  0.55841022595E+03  0.11477387857E+04  0.10100000352E+00 0.  1.
</event>
<event>
 5   0  0.1086507E-05  0.2597531E+04  0.7818609E-02  0.8369040E-01
       -2   -1    0    0    0  501  0.00000000000E+00  0.00000000000E+00  0.15438618872E+04  0.15438618872E+04  0.25500000920E-02 0.  1.
        2   -1    0    0  501    0  0.00000000000E+00  0.00000000000E+00 -0.10925795666E+04  0.10925795666E+04  0.25500000920E-02 0. -1.
    10030    2    1    2    0    0  0.00000000000E+00  0.00000000000E+00  0.45128232062E+03  0.26364414538E+04  0.25975310983E+04 0.  0.
        2    1    3    3  502    0  0.15204300648E+02  0.94240362919E+03 -0.68129659165E+03  0.11629792848E+04  0.25500000920E-02 0. -1.
       -2    1    3    3    0  502 -0.15204300648E+02 -0.94240362919E+03  0.11325789123E+04  0.14734621690E+04  0.25500000920E-02 0.  1.
</event>
<event>
 5   0  0.4597705E-06  0.2597536E+04  0.7818609E-02  0.8369039E-01
        1   -1    0    0  501    0  0.00000000000E+00  0.00000000000E+00  0.20022515717E+04  0.20022515717E+04  0.50400001928E-02 0. -1.
       -1   -1    0    0    0  501  0.00000000000E+00  0.00000000000E+00 -0.84245046058E+03  0.84245046060E+03  0.50400001928E-02 0.  1.
    10030    2    1    2    0    0  0.00000000000E+00  0.00000000000E+00  0.11598011111E+04  0.28447020323E+04  0.25975355696E+04 0.  0.
        5    1    3    3  502    0  0.73978210818E+03 -0.33604768919E+03  0.16895085446E+04  0.18747444704E+04  0.46999998093E+01 0. -1.
       -5    1    3    3    0  502 -0.73978210818E+03  0.33604768919E+03 -0.52970743343E+03  0.96995756197E+03  0.46999998093E+01 0.  1.
</event>
<event>
 5   0  0.1085255E-05  0.2655699E+04  0.7818609E-02  0.8349524E-01
       -2   -1    0    0    0  501  0.00000000000E+00  0.00000000000E+00  0.15965419626E+04  0.15965419626E+04  0.25500000920E-02 0.  1.
        2   -1    0    0  501    0  0.00000000000E+00  0.00000000000E+00 -0.11043771659E+04  0.11043771659E+04  0.25500000920E-02 0. -1.
    10030    2    1    2    0    0  0.00000000000E+00  0.00000000000E+00  0.49216479668E+03  0.27009191285E+04  0.26556991455E+04 0.  0.
        5    1    3    3  502    0 -0.77999960585E+03 -0.89848446746E+03  0.84560151248E+03  0.14597046726E+04  0.46999998093E+01 0.  1.
       -5    1    3    3    0  502  0.77999960585E+03  0.89848446746E+03 -0.35343671580E+03  0.12412144559E+04  0.46999998093E+01 0. -1.
</event>
<event>
 5   0  0.4415080E-06  0.2588233E+04  0.7818609E-02  0.8372209E-01
        1   -1    0    0  501    0  0.00000000000E+00  0.00000000000E+00  0.12774454428E+04  0.12774454428E+04  0.50400001928E-02 0.  1.
       -1   -1    0    0    0  501  0.00000000000E+00  0.00000000000E+00 -0.13110051892E+04  0.13110051893E+04  0.50400001928E-02 0. -1.
    10030    2    1    2    0    0  0.00000000000E+00  0.00000000000E+00 -0.33559746420E+02  0.25884506321E+04  0.25882330688E+04 0.  0.
        2    1    3    3  502    0 -0.12558149895E+04 -0.22879460543E+03 -0.22968117555E+03  0.12969856212E+04  0.25500000920E-02 0.  1.
       -2    1    3    3    0  502  0.12558149895E+04  0.22879460543E+03  0.19612142913E+03  0.12914650109E+04  0.25500000920E-02 0. -1.
</event>
<event>
 5   0  0.4415080E-06  0.2816712E+04  0.7818609E-02  0.8298099E-01
       -1   -1    0    0    0  501  0.00000000000E+00  0.00000000000E+00  0.11834862434E+04  0.11834862434E+04  0.50400001928E-02 0. -1.
        1   -1    0    0  501    0  0.00000000000E+00  0.00000000000E+00 -0.16759526234E+04  0.16759526234E+04  0.50400001928E-02 0.  1.
    10030    2    1    2    0    0  0.00000000000E+00  0.00000000000E+00 -0.49246637995E+03  0.28594388668E+04  0.28167121787E+04 0.  0.
        2    1    3    3  502    0  0.61051294892E+03  0.76918772722E+03  0.77858031293E+03  0.12532210995E+04  0.25500000920E-02 0. -1.
       -2    1    3    3    0  502 -0.61051294892E+03 -0.76918772722E+03 -0.12710466929E+04  0.16062177673E+04  0.25500000920E-02 0.  1.
</event>
<event>
 5   0  0.4218590E-06  0.2584187E+04  0.7818609E-02  0.8373592E-01
        1   -1    0    0  501    0  0.00000000000E+00  0.00000000000E+00  0.13598662981E+04  0.13598662981E+04  0.50400001928E-02 0. -1.
       -1   -1    0    0    0  501  0.00000000000E+00  0.00000000000E+00 -0.12276985419E+04  0.12276985419E+04  0.50400001928E-02 0.  1.
    10030    2    1    2    0    0  0.00000000000E+00  0.00000000000E+00  0.13216775629E+03  0.25875648400E+04  0.25841872002E+04 0.  0.
        1    1    3    3  502    0 -0.33739987469E+03  0.72919699684E+03 -0.94713739397E+03  0.12420290571E+04  0.50400001928E-02 0.  1.
       -1    1    3    3    0  502  0.33739987469E+03 -0.72919699684E+03  0.10793051503E+04  0.13455357829E+04  0.50400001928E-02 0. -1.
</event>
<event>
 5   0  0.4415080E-06  0.2599215E+04  0.7818609E-02  0.8368468E-01
        1   -1    0    0  501    0  0.00000000000E+00  0.00000000000E+00  0.21198634400E+04  0.21198634400E+04  0.50400001928E-02 0. -1.
       -1   -1    0    0    0  501  0.00000000000E+00  0.00000000000E+00 -0.79673998316E+03  0.79673998317E+03  0.50400001928E-02 0.  1.
    10030    2    1    2    0    0  0.00000000000E+00  0.00000000000E+00  0.13231234568E+04  0.29166034231E+04  0.25992152366E+04 0.  0.
        2    1    3    3  502    0  0.95867670864E+03  0.30604052778E+03  0.15843273052E+04  0.18769163131E+04  0.25500000920E-02 0.  1.
       -2    1    3    3    0  502 -0.95867670864E+03 -0.30604052778E+03 -0.26120384842E+03  0.10396871100E+04  0.25500000920E-02 0. -1.
</event>
<event>
 5   0  0.1085061E-05  0.2587049E+04  0.7818609E-02  0.8372614E-01
       -2   -1    0    0    0  501  0.00000000000E+00  0.00000000000E+00  0.12609850182E+04  0.12609850182E+04  0.25500000920E-02 0. -1.
        2   -1    0    0  501    0  0.00000000000E+00  0.00000000000E+00 -0.13269036529E+04  0.13269036530E+04  0.25500000920E-02 0.  1.
    10030    2    1    2    0    0  0.00000000000E+00  0.00000000000E+00 -0.65918634777E+02  0.25878886711E+04  0.25870489960E+04 0.  0.
        1    1    3    3  502    0 -0.21425190534E+03  0.32117539234E+03 -0.12679239555E+04  0.13254013236E+04  0.50400001928E-02 0.  1.
       -1    1    3    3    0  502  0.21425190534E+03 -0.32117539234E+03  0.12020053207E+04  0.12624873475E+04  0.50400001928E-02 0. -1.
</event>
<event>
 5   0  0.1085061E-05  0.2595406E+04  0.7818609E-02  0.8369764E-01
        2   -1    0    0  501    0  0.00000000000E+00  0.00000000000E+00  0.10567559648E+04  0.10567559648E+04  0.25500000920E-02 0.  1.
       -2   -1    0    0    0  501  0.00000000000E+00  0.00000000000E+00 -0.15935868866E+04  0.15935868866E+04  0.25500000920E-02 0. -1.
    10030    2    1    2    0    0  0.00000000000E+00  0.00000000000E+00 -0.53683092181E+03  0.26503428515E+04  0.25954055159E+04 0.  0.
        1    1    3    3  502    0 -0.34705214603E+03  0.12229021156E+04 -0.19364755102E+01  0.12711957074E+04  0.50400001928E-02 0.  1.
       -1    1    3    3    0  502  0.34705214603E+03 -0.12229021156E+04 -0.53489444630E+03  0.13791471441E+04  0.50400001928E-02 0. -1.
</event>
<event>
 5   0  0.3705250E-06  0.2607196E+04  0.7818609E-02  0.8365761E-01
       -3   -1    0    0    0  501  0.00000000000E+00  0.00000000000E+00  0.70011573787E+03  0.70011574515E+03  0.10100000352E+00 0. -1.
        3   -1    0    0  501    0  0.00000000000E+00  0.00000000000E+00 -0.24272672033E+04  0.24272672054E+04  0.10100000352E+00 0.  1.
    10030    2    1    2    0    0  0.00000000000E+00  0.00000000000E+00 -0.17271514655E+04  0.31273829506E+04  0.26071961827E+04 0.  0.
        5    1    3    3  502    0  0.27439379088E+03  0.12743837493E+04 -0.86361211435E+03  0.15637115677E+04  0.46999998093E+01 0. -1.
       -5    1    3    3    0  502 -0.27439379088E+03 -0.12743837493E+04 -0.86353935113E+03  0.15636713829E+04  0.46999998093E+01 0.  1.
</event>
<event>
 5   0  0.4464297E-06  0.2589624E+04  0.7818609E-02  0.8371734E-01
        1   -1    0    0  501    0  0.00000000000E+00  0.00000000000E+00  0.18691933174E+04  0.18691933175E+04  0.50400001928E-02 0. -1.
       -1   -1    0    0    0  501  0.00000000000E+00  0.00000000000E+00 -0.89693106954E+03  0.89693106955E+03  0.50400001928E-02 0.  1.
    10030    2    1    2    0    0  0.00000000000E+00  0.00000000000E+00  0.97226224791E+03  0.27661243870E+04  0.25896235722E+04 0.  0.
        4    1    3    3  502    0 -0.11764174258E+04 -0.32151568312E+03  0.21506608155E+02  0.12197517949E+04  0.12699999809E+01 0.  1.
       -4    1    3    3    0  502  0.11764174258E+04  0.32151568312E+03  0.95075563975E+03  0.15463725921E+04  0.12699999809E+01 0. -1.
</event>
<event>
 5   0  0.1085255E-05  0.2596926E+04  0.7818609E-02  0.8369246E-01
       -2   -1    0    0    0  501  0.00000000000E+00  0.00000000000E+00  0.10368229015E+04  0.10368229015E+04  0.25500000920E-02 0. -1.
        2   -1    0    0  501    0  0.00000000000E+00  0.00000000000E+00 -0.16261278990E+04  0.16261278990E+04  0.25500000920E-02 0.  1.
    10030    2    1    2    0    0  0.00000000000E+00  0.00000000000E+00 -0.58930499749E+03  0.26629508004E+04  0.25969263728E+04 0.  0.
        5    1    3    3  502    0  0.23669331475E+03  0.69968754147E+03 -0.13896969849E+04  0.15738062717E+04  0.46999998093E+01 0.  1.
       -5    1    3    3    0  502 -0.23669331475E+03 -0.69968754147E+03  0.80039198743E+03  0.10891445287E+04  0.46999998093E+01 0. -1.
</event>
<event>
 5   0  0.4597705E-06  0.2588780E+04  0.7818609E-02  0.8372022E-01
        1   -1    0    0  501    0  0.00000000000E+00  0.00000000000E+00  0.16749613670E+04  0.16749613670E+04  0.50400001928E-02 0.  1.
       -1   -1    0    0    0  501  0.00000000000E+00  0.00000000000E+00 -0.10002893692E+04  0.10002893692E+04  0.50400001928E-02 0. -1.
    10030    2    1    2    0    0  0.00000000000E+00  0.00000000000E+00  0.67467199776E+03  0.26752507362E+04  0.25887804458E+04 0.  0.
        5    1    3    3  502    0  0.66510448747E+03  0.40085784071E+03  0.14074799533E+04  0.16075051778E+04  0.46999998093E+01 0.  1.
       -5    1    3    3    0  502 -0.66510448747E+03 -0.40085784071E+03 -0.73280795554E+03  0.10677455584E+04  0.46999998093E+01 0. -1.
</event>
<event>
 5   0  0.4415080E-06  0.2594472E+04  0.7818609E-02  0.8370081E-01
       -1   -1    0    0    0  501  0.00000000000E+00  0.00000000000E+00  0.13467792431E+04  0.13467792431E+04  0.50400001928E-02 0.  1.
        1   -1    0    0  501    0  0.00000000000E+00  0.00000000000E+00 -0.12495149983E+04  0.12495149983E+04  0.50400001928E-02 0. -1.
    10030    2    1    2    0    0  0.00000000000E+00  0.00000000000E+00  0.97264244797E+02  0.25962942413E+04  0.25944717100E+04 0.  0.
        2    1    3    3  502    0  0.37397741938E+03 -0.47639809880E+03 -0.10993470399E+04  0.12551406985E+04  0.25500000920E-02 0. -1.
       -2    1    3    3    0  502 -0.37397741938E+03  0.47639809880E+03  0.11966112847E+04  0.13411535429E+04  0.25500000920E-02 0.  1.
</event>
<event>
 5   0  0.1085255E-05  0.2602660E+04  0.7818609E-02  0.8367298E-01
       -2   -1    0    0    0  501  0.00000000000E+00  0.00000000000E+00  0.69423040261E+03  0.69423040262E+03  0.25500000920E-02 0.  1.
        2   -1    0    0  501    0  0.00000000000E+00  0.00000000000E+00 -0.24393341609E+04  0.24393341609E+04  0.25500000920E-02 0. -1.
    10030    2    1    2    0    0  0.00000000000E+00  0.00000000000E+00 -0.17451037583E+04  0.31335645635E+04  0.26026601289E+04 0.  0.
        5    1    3    3  502    0  0.49265246099E+03  0.12011261604E+04 -0.76468026393E+03  0.15067078339E+04  0.46999998093E+01 0. -1.
       -5    1    3    3    0  502 -0.49265246099E+03 -0.12011261604E+04 -0.98042349438E+03  0.16268567297E+04  0.46999998093E+01 0.  1.
</event>
<event>
 5   0  0.1085061E-05  0.2684820E+04  0.7818609E-02  0.8339947E-01
        2   -1    0    0  501    0  0.00000000000E+00  0.00000000000E+00  0.14032875664E+04  0.14032875664E+04  0.25500000920E-02 0. -1.
       -2   -1    0    0    0  501  0.00000000000E+00  0.00000000000E+00 -0.12841737576E+04  0.12841737576E+04  0.25500000920E-02 0.  1.
    10030    2    1    2    0    0  0.00000000000E+00  0.00000000000E+00  0.11911380887E+03  0.26874613240E+04  0.26848203419E+04 0.  0.
        1    1    3    3  502    0  0.55425722330E+03 -0.27897266815E+03  0.12511220181E+04  0.13965432766E+04  0.50400001928E-02 0. -1.
       -1    1    3    3    0  502 -0.55425722330E+03  0.27897266815E+03 -0.11320082093E+04  0.12909180474E+04  0.50400001928E-02 0.  1.
</event>
<event>
 5   0  0.4415080E-06  0.2586871E+04  0.7818609E-02  0.8372675E-01
        1   -1    0    0  501    0  0.00000000000E+00  0.00000000000E+00  0.10444072163E+04  0.10444072163E+04  0.50400001928E-02 0. -1.
       -1   -1    0    0    0  501  0.00000000000E+00  0.00000000000E+00 -0.16018417712E+04  0.16018417712E+04  0.50400001928E-02 0.  1.
    10030    2    1    2    0    0  0.00000000000E+00  0.00000000000E+00 -0.55743455495E+03  0.26462489875E+04  0.25868707778E+04 0.  0.
        2    1    3    3  502    0 -0.67084827653E+03 -0.10068265197E+04 -0.74664233924E+03  0.14216932980E+04  0.25500000920E-02 0.  1.
       -2    1    3    3    0  502  0.67084827653E+03  0.10068265197E+04  0.18920778429E+03  0.12245556895E+04  0.25500000920E-02 0. -1.
</event>
<event>
 5   0  0.4597705E-06  0.2601921E+04  0.7818609E-02  0.8367549E-01
       -1   -1    0    0    0  501  0.00000000000E+00  0.00000000000E+00  0.87598133514E+03  0.87598133516E+03  0.50400001928E-02 0.  1.
        1   -1    0    0  501    0  0.00000000000E+00  0.00000000000E+00 -0.19321174205E+04  0.19321174205E+04  0.50400001928E-02 0. -1.
    10030    2    1    2    0    0  0.00000000000E+00  0.00000000000E+00 -0.10561360853E+04  0.28080987556E+04  0.26019214421E+04 0.  0.
        5    1    3    3  502    0 -0.21338329911E+03  0.84335022432E+03  0.51590094232E+03  0.10114088716E+04  0.46999998093E+01 0.  1.
       -5    1    3    3    0  502  0.21338329911E+03 -0.84335022432E+03 -0.15720370276E+04  0.17966898841E+04  0.46999998093E+01 0. -1.
</event>
<event>
 5   0  0.4361864E-06  0.2628777E+04  0.7818609E-02  0.8358492E-01
        1   -1    0    0  501    0  0.00000000000E+00  0.00000000000E+00  0.98107166416E+03  0.98107166417E+03  0.50400001928E-02 0.  1.
       -1   -1    0    0    0  501  0.00000000000E+00  0.00000000000E+00 -0.17609489765E+04  0.17609489765E+04  0.50400001928E-02 0. -1.
    10030    2    1    2    0    0  0.00000000000E+00  0.00000000000E+00 -0.77987731231E+03  0.27420206407E+04  0.26287770106E+04 0.  0.
        3    1    3    3  502    0  0.22624372444E+03 -0.98176748959E+03  0.49056012616E+03  0.11205814892E+04  0.10100000352E+00 0.  1.
       -3    1    3    3    0  502 -0.22624372444E+03  0.98176748959E+03 -0.12704374385E+04  0.16214391514E+04  0.10100000352E+00 0. -1.
</event>
<event>
 5   0  0.4361864E-06  0.2525400E+04  0.7818609E-02  0.8393992E-01
        1   -1    0    0  501    0  0.00000000000E+00  0.00000000000E+00  0.19387989083E+04  0.19387989083E+04  0.50400001928E-02 0. -1.
       -1   -1    0    0    0  501  0.00000000000E+00  0.00000000000E+00 -0.82237047686E+03  0.82237047688E+03  0.50400001928E-02 0.  1.
    10030    2    1    2    0    0  0.00000000000E+00  0.00000000000E+00  0.11164284314E+04  0.27611693852E+04  0.25253997567E+04 0.  0.
        3    1    3    3  502    0 -0.20402965042E+03  0.12450829827E+04  0.50298884692E+03  0.13582553229E+04  0.10100000352E+00 0.  1.
       -3    1    3    3    0  502  0.20402965042E+03 -0.12450829827E+04  0.61343958450E+03  0.14029140622E+04  0.10100000352E+00 0. -1.
</event>
<event>
 5   0  0.4597705E-06  0.2606447E+04  0.7818609E-02  0.8366015E-01
       -1   -1    0    0    0  501  0.00000000000E+00  0.00000000000E+00  0.17392872551E+04  0.17392872551E+04  0.50400001928E-02 0. -1.
        1   -1    0    0  501    0  0.00000000000E+00  0.00000000000E+00 -0.97648686359E+03  0.97648686360E+03  0.50400001928E-02 0.  1.
    10030    2    1    2    0    0  0.00000000000E+00  0.00000000000E+00  0.76280039155E+03  0.27157741187E+04  0.26064467435E+04 0.  0.
        5    1    3    3  502    0  0.95890322021E+03  0.35440157523E+03 -0.46075515443E+03  0.11213444005E+04  0.46999998093E+01 0.  1.
       -5    1    3    3    0  502 -0.95890322021E+03 -0.35440157523E+03  0.12235555460E+04  0.15944297182E+04  0.46999998093E+01 0. -1.
</event>
<event>
 5   0  0.4464297E-06  0.2572513E+04  0.7818609E-02  0.8377598E-01
        1   -1    0    0  501    0  0.00000000000E+00  0.00000000000E+00  0.11680585412E+04  0.11680585412E+04  0.50400001928E-02 0. -1.
       -1   -1    0    0    0  501  0.00000000000E+00  0.00000000000E+00 -0.14164154886E+04  0.14164154886E+04  0.50400001928E-02 0.  1.
    10030    2    1    2    0    0  0.00000000000E+00  0.00000000000E+00 -0.24835694739E+03  0.25844740297E+04  0.25725133308E+04 0.  0.
        4    1    3    3  502    0 -0.10150960521E+04  0.23639090309E+03 -0.88144289156E+03  0.13650069004E+04  0.12699999809E+01 0.  1.
       -4    1    3    3    0  502  0.10150960521E+04 -0.23639090309E+03  0.63308594417E+03  0.12194671294E+04  0.12699999809E+01 0. -1.
</event>
<event>
 5   0  0.4597705E-06  0.2534074E+04  0.7818609E-02  0.8390946E-01
        1   -1    0    0  501    0  0.00000000000E+00  0.00000000000E+00  0.13414465528E+04  0.13414465529E+04  0.50400001928E-02 0. -1.
       -1   -1    0    0    0  501  0.00000000000E+00  0.00000000000E+00 -0.11967549351E+04  0.11967549351E+04  0.50400001928E-02 0.  1.
    10030    2    1    2    0    0  0.00000000000E+00  0.00000000000E+00  0.14469161772E+03  0.25382014880E+04  0.25340740181E+04 0.  0.
        5    1    3    3  502    0  0.60172169386E+03  0.11141845905E+04  0.11582611925E+03  0.12715793638E+04  0.46999998093E+01 0.  1.
       -5    1    3    3    0  502 -0.60172169386E+03 -0.11141845905E+04  0.28865498464E+02  0.12666221242E+04  0.46999998093E+01 0. -1.
</event>
<event>
 5   0  0.1116310E-05  0.2617370E+04  0.7818609E-02  0.8362325E-01
       -2   -1    0    0    0  501  0.00000000000E+00  0.00000000000E+00  0.16075239993E+04  0.16075239993E+04  0.25500000920E-02 0. -1.
        2   -1    0    0  501    0  0.00000000000E+00  0.00000000000E+00 -0.10653998438E+04  0.10653998438E+04  0.25500000920E-02 0.  1.
    10030    2    1    2    0    0  0.00000000000E+00  0.00000000000E+00  0.54212415545E+03  0.26729238431E+04  0.26173695327E+04 0.  0.
        4    1    3    3  502    0  0.29798575959E+03 -0.87310879354E+02  0.15693585093E+04  0.15997832497E+04  0.12699999809E+01 0. -1.
       -4    1    3    3    0  502 -0.29798575959E+03  0.87310879354E+02 -0.10272343538E+04  0.10731405934E+04  0.12699999809E+01 0.  1.
</event>
<event>
 5   0  0.4597705E-06  0.2647686E+04  0.7818609E-02  0.8352181E-01
        1   -1    0    0  501    0  0.00000000000E+00  0.00000000000E+00  0.13019611118E+04  0.13019611118E+04  0.50400001928E-02 0. -1.
       -1   -1    0    0    0  501  0.00000000000E+00  0.00000000000E+00 -0.13460927697E+04  0.13460927697E+04  0.50400001928E-02 0.  1.
    10030    2    1    2    0    0  0.00000000000E+00  0.00000000000E+00 -0.44131657939E+02  0.26480538815E+04  0.26476861136E+04 0.  0.
        5    1    3    3  502    0 -0.11764802872E+04  0.28217268539E+03 -0.55955191873E+03  0.13329845199E+04  0.46999998093E+01 0.  1.
       -5    1    3    3    0  502  0.11764802872E+04 -0.28217268539E+03  0.51542026079E+03  0.13150693616E+04  0.46999998093E+01 0. -1.
</event>
<event>
 5   0  0.1136881E-05  0.2601193E+04  0.7818609E-02  0.8367796E-01
        2   -1    0    0  501    0  0.00000000000E+00  0.00000000000E+00  0.10694816605E+04  0.10694816605E+04  0.25500000920E-02 0. -1.
       -2   -1    0    0    0  501  0.00000000000E+00  0.00000000000E+00 -0.15816555639E+04  0.15816555639E+04  0.25500000920E-02 0.  1.
    10030    2    1    2    0    0  0.00000000000E+00  0.00000000000E+00 -0.51217390344E+03  0.26511372244E+04  0.26011932791E+04 0.  0.
        3    1    3    3  502    0  0.61039988375E+03 -0.58033730984E+02 -0.14251038884E+04  0.15514113042E+04  0.10100000352E+00 0.  1.
       -3    1    3    3    0  502 -0.61039988375E+03  0.58033730984E+02  0.91292998492E+03  0.10997259202E+04  0.10100000352E+00 0. -1.
</event>
<event>
 5   0  0.1136881E-05  0.2591003E+04  0.7818609E-02  0.8371264E-01
       -2   -1    0    0    0  501  0.00000000000E+00  0.00000000000E+00  0.11794023547E+04  0.11794023547E+04  0.25500000920E-02 0. -1.
        2   -1    0    0  501    0  0.00000000000E+00  0.00000000000E+00 -0.14230295742E+04  0.14230295742E+04  0.25500000920E-02 0.  1.
    10030    2    1    2    0    0  0.00000000000E+00  0.00000000000E+00 -0.24362721945E+03  0.26024319289E+04  0.25910032270E+04 0.  0.
        3    1    3    3  502    0 -0.17651876225E+03 -0.65167885825E+03 -0.12323488485E+04  0.14051789574E+04  0.10100000352E+00 0.  1.
       -3    1    3    3    0  502  0.17651876225E+03  0.65167885825E+03  0.98872162907E+03  0.11972529715E+04  0.10100000352E+00 0. -1.
</event>
<event>
 5   0  0.4415080E-06  0.2606404E+04  0.7818609E-02  0.8366029E-01
       -1   -1    0    0    0  501  0.00000000000E+00  0.00000000000E+00  0.11011798014E+04  0.11011798014E+04  0.50400001928E-02 0.  1.
        1   -1    0    0  501    0  0.00000000000E+00  0.00000000000E+00 -0.15422870529E+04  0.15422870529E+04  0.50400001928E-02 0. -1.
    10030    2    1    2    0    0  0.00000000000E+00  0.00000000000E+00 -0.44110725150E+03  0.26434668544E+04  0.26064039217E+04 0.  0.
        2    1    3    3  502    0  0.24362284485E+03 -0.12748951517E+04 -0.33894230163E+03  0.13414885844E+04  0.25500000920E-02 0.  1.
       -2    1    3    3    0  502 -0.24362284485E+03  0.12748951517E+04 -0.10216494987E+03  0.13019782699E+04  0.25500000920E-02 0. -1.
</event>
<event>
 5   0  0.1085255E-05  0.2611165E+04  0.7818609E-02  0.8364418E-01
        2   -1    0    0  501    0  0.00000000000E+00  0.00000000000E+00  0.19258333690E+04  0.19258333690E+04  0.25500000920E-02 0.  1.
       -2   -1    0    0    0  501  0.00000000000E+00  0.00000000000E+00 -0.88509532530E+03  0.88509532530E+03  0.25500000920E-02 0. -1.
    10030    2    1    2    0    0  0.00000000000E+00  0.00000000000E+00  0.10407380437E+04  0.28109286943E+04  0.26111653431E+04 0.  0.
        5    1    3    3  502    0 -0.12055093224E+04 -0.29596505311E+03  0.84849190606E+02  0.12442144164E+04  0.46999998093E+01 0.  1.
       -5    1    3    3    0  502  0.12055093224E+04  0.29596505311E+03  0.95588885310E+03  0.15667142779E+04  0.46999998093E+01 0. -1.
</event>
<event>
 5   0  0.4597705E-06  0.2586532E+04  0.7818609E-02  0.8372790E-01
       -1   -1    0    0    0  501  0.00000000000E+00  0.00000000000E+00  0.17113155704E+04  0.17113155705E+04  0.50400001928E-02 0.  1.
        1   -1    0    0  501    0  0.00000000000E+00  0.00000000000E+00 -0.97733991416E+03  0.97733991418E+03  0.50400001928E-02 0. -1.
    10030    2    1    2    0    0  0.00000000000E+00  0.00000000000E+00  0.73397565628E+03  0.26886554846E+04  0.25865320510E+04 0.  0.
        5    1    3    3  502    0 -0.81074448850E+03 -0.67365779060E+03 -0.41185706027E+03  0.11317109934E+04  0.46999998093E+01 0. -1.
       -5    1    3    3    0  502  0.81074448850E+03  0.67365779060E+03  0.11458327166E+04  0.15569444912E+04  0.46999998093E+01 0.  1.
</event>
<event>
 5   0  0.4415080E-06  0.2555275E+04  0.7818609E-02  0.8383554E-01
        1   -1    0    0  501    0  0.00000000000E+00  0.00000000000E+00  0.16552588363E+04  0.16552588363E+04  0.50400001928E-02 0. -1.
       -1   -1    0    0    0  501  0.00000000000E+00  0.00000000000E+00 -0.98616420088E+03  0.98616420089E+03  0.50400001928E-02 0.  1.
    10030    2    1    2    0    0  0.00000000000E+00  0.00000000000E+00  0.66909463543E+03  0.26414230372E+04  0.25552745509E+04 0.  0.
        2    1    3    3  502    0 -0.12351030540E+04  0.25300454209E+03  0.12052569240E+03  0.12664980438E+04  0.25500000920E-02 0. -1.
       -2    1    3    3    0  502  0.12351030540E+04 -0.25300454209E+03  0.54856894304E+03  0.13749249934E+04  0.25500000920E-02 0.  1.
</event>
<event>
 5   0  0.1085255E-05  0.2602487E+04  0.7818609E-02  0.8367357E-01
        2   -1    0    0  501    0  0.00000000000E+00  0.00000000000E+00  0.16818608983E+04  0.16818608983E+04  0.25500000920E-02 0. -1.
       -2   -1    0    0    0  501  0.00000000000E+00  0.00000000000E+00 -0.10067626992E+04  0.10067626992E+04  0.25500000920E-02 0.  1.
    10030    2    1    2    0    0  0.00000000000E+00  0.00000000000E+00  0.67509819914E+03  0.26886235976E+04  0.26024871317E+04 0.  0.
        5    1    3    3  502    0  0.38253136326E+03 -0.31434582440E+03 -0.90563678786E+03  0.10321548444E+04  0.46999998093E+01 0.  1.
       -5    1    3    3    0  502 -0.38253136326E+03  0.31434582440E+03  0.15807349870E+04  0.16564687532E+04  0.46999998093E+01 0. -1.
</event>
<event>
 5   0  0.1085061E-05  0.2596851E+04  0.7818609E-02  0.8369272E-01
       -2   -1    0    0    0  501  0.00000000000E+00  0.00000000000E+00  0.14170646975E+04  0.14170646975E+04  0.25500000920E-02 0.  1.
        2   -1    0    0  501    0  0.00000000000E+00  0.00000000000E+00 -0.11897187050E+04  0.11897187050E+04  0.25500000920E-02 0. -1.
    10030    2    1    2    0    0  0.00000000000E+00  0.00000000000E+00  0.22734599242E+03  0.26067834025E+04  0.25968506902E+04 0.  0.
        1    1    3    3  502    0  0.99187120943E+03 -0.56976389489E+03  0.73040800787E+03  0.13571791518E+04  0.50400001928E-02 0.  1.
       -1    1    3    3    0  502 -0.99187120943E+03  0.56976389489E+03 -0.50306201544E+03  0.12496042507E+04  0.50400001928E-02 0. -1.
</event>
<event>
 5   0  0.4415080E-06  0.2605649E+04  0.7818609E-02  0.8366285E-01
        1   -1    0    0  501    0  0.00000000000E+00  0.00000000000E+00  0.24449474981E+04  0.24449474981E+04  0.50400001928E-02 0.  1.
       -1   -1    0    0    0  501  0.00000000000E+00  0.00000000000E+00 -0.69422834156E+03  0.69422834157E+03  0.50400001928E-02 0. -1.
    10030    2    1    2    0    0  0.00000000000E+00  0.00000000000E+00  0.17507191565E+04  0.31391758397E+04  0.26056491297E+04 0.  0.
        2    1    3    3  502    0  0.28090468858E+03 -0.60769403573E+03  0.22218628581E+04  0.23205331382E+04  0.25500000920E-02 0.  1.
       -2    1    3    3    0  502 -0.28090468858E+03  0.60769403573E+03 -0.47114370159E+03  0.81864270148E+03  0.25500000920E-02 0. -1.
</event>
<event>
 5   0  0.1085061E-05  0.2595708E+04  0.7818609E-02  0.8369661E-01
        2   -1    0    0  501    0  0.00000000000E+00  0.00000000000E+00  0.12713632836E+04  0.12713632836E+04  0.25500000920E-02 0.  1.
       -2   -1    0    0    0  501  0.00000000000E+00  0.00000000000E+00 -0.13248964000E+04  0.13248964000E+04  0.25500000920E-02 0. -1.
    10030    2    1    2    0    0  0.00000000000E+00  0.00000000000E+00 -0.53533116415E+02  0.25962596836E+04  0.25957077166E+04 0.  0.
        1    1    3    3  502    0  0.84353820045E+03  0.76363341977E+03 -0.65118445481E+03  0.13110049159E+04  0.50400001928E-02 0. -1.
       -1    1    3    3    0  502 -0.84353820045E+03 -0.76363341977E+03  0.59765133840E+03  0.12852547676E+04  0.50400001928E-02 0.  1.
</event>
<event>
 5   0  0.4464297E-06  0.2574518E+04  0.7818609E-02  0.8376909E-01
       -1   -1    0    0    0  501  0.00000000000E+00  0.00000000000E+00  0.10182525629E+04  0.10182525630E+04  0.50400001928E-02 0.  1.
        1   -1    0    0  501    0  0.00000000000E+00  0.00000000000E+00 -0.16273330195E+04  0.16273330195E+04  0.50400001928E-02 0. -1.
    10030    2    1    2    0    0  0.00000000000E+00  0.00000000000E+00 -0.60908045651E+03  0.26455855824E+04  0.25745182212E+04 0.  0.
        4    1    3    3  502    0  0.70627734999E+03  0.16021949308E+03 -0.13981236917E+04  0.15745632573E+04  0.12699999809E+01 0. -1.
       -4    1    3    3    0  502 -0.70627734999E+03 -0.16021949308E+03  0.78904323517E+03  0.10710223251E+04  0.12699999809E+01 0.  1.
</event>
<event>
 5   0  0.1136881E-05  0.2474631E+04  0.7818609E-02  0.8412080E-01
        2   -1    0    0  501    0  0.00000000000E+00  0.00000000000E+00  0.14949450517E+04  0.14949450517E+04  0.25500000920E-02 0.  1.
       -2   -1    0    0    0  501  0.00000000000E+00  0.00000000000E+00 -0.10240840887E+04  0.10240840887E+04  0.25500000920E-02 0. -1.
    10030    2    1    2    0    0  0.00000000000E+00  0.00000000000E+00  0.47086096302E+03  0.25190291403E+04  0.24746308338E+04 0.  0.
        3    1    3    3  502    0  0.48340794278E+03  0.11019518318E+04 -0.57779670486E+02  0.12047072588E+04  0.10100000352E+00 0. -1.
       -3    1    3    3    0  502 -0.48340794278E+03 -0.11019518318E+04  0.52864063351E+03  0.13143218816E+04  0.10100000352E+00 0.  1.
</event>
<event>
 5   0  0.4464297E-06  0.2595030E+04  0.7818609E-02  0.8369891E-01
        1   -1    0    0  501    0  0.00000000000E+00  0.00000000000E+00  0.14845159953E+04  0.14845159953E+04  0.50400001928E-02 0.  1.
       -1   -1    0    0    0  501  0.00000000000E+00  0.00000000000E+00 -0.11340703800E+04  0.11340703800E+04  0.50400001928E-02 0. -1.
    10030    2    1    2    0    0  0.00000000000E+00  0.00000000000E+00  0.35044561530E+03  0.26185863752E+04  0.25950303419E+04 0.  0.
        4    1    3    3  502    0  0.41590802847E+02 -0.12619049742E+04 -0.12650659006E+03  0.12689127192E+04  0.12699999809E+01 0. -1.
       -4    1    3    3    0  502 -0.41590802847E+02  0.12619049742E+04  0.47695220536E+03  0.13496736560E+04  0.12699999809E+01 0.  1.
</event>
<event>
 5   0  0.1136881E-05  0.2592275E+04  0.7818609E-02  0.8370830E-01
       -2   -1    0    0    0  501  0.00000000000E+00  0.00000000000E+00  0.10996962840E+04  0.10996962840E+04  0.25500000920E-02 0. -1.
        2   -1    0    0  501    0  0.00000000000E+00  0.00000000000E+00 -0.15276695389E+04  0.15276695389E+04  0.25500000920E-02 0.  1.
    10030    2    1    2    0    0  0.00000000000E+00  0.00000000000E+00 -0.42797325481E+03  0.26273658229E+04  0.25922750742E+04 0.  0.
        3    1    3    3  502    0 -0.11906379407E+03 -0.18347986910E+03 -0.15088293782E+04  0.15246006534E+04  0.10100000352E+00 0.  1.
       -3    1    3    3    0  502  0.11906379407E+03  0.18347986910E+03  0.10808561234E+04  0.11027651695E+04  0.10100000352E+00 0. -1.
</event>
<event>
 5   0  0.1116310E-05  0.2531735E+04  0.7818609E-02  0.8391766E-01
        2   -1    0    0  501    0  0.00000000000E+00  0.00000000000E+00  0.11297405916E+04  0.11297405916E+04  0.25500000920E-02 0.  1.
       -2   -1    0    0    0  501  0.00000000000E+00  0.00000000000E+00 -0.14183966399E+04  0.14183966399E+04  0.25500000920E-02 0. -1.
    10030    2    1    2    0    0  0.00000000000E+00  0.00000000000E+00 -0.28865604830E+03  0.25481372315E+04  0.25317347879E+04 0.  0.
        4    1    3    3  502    0  0.81416757820E+03  0.85731818028E+02  0.82743220325E+03  0.11639864492E+04  0.12699999809E+01 0.  1.
       -4    1    3    3    0  502 -0.81416757820E+03 -0.85731818028E+02 -0.11160882515E+04  0.13841507823E+04  0.12699999809E+01 0. -1.
</event>
<event>
 5   0  0.1086507E-05  0.2734430E+04  0.7818609E-02  0.8323919E-01
        2   -1    0    0  501    0  0.00000000000E+00  0.00000000000E+00  0.15177162182E+04  0.15177162182E+04  0.25500000920E-02 0.  1.
       -2   -1    0    0    0  501  0.00000000000E+00  0.00000000000E+00 -0.12316380862E+04  0.12316380862E+04  0.25500000920E-02 0. -1.
    10030    2    1    2    0    0  0.00000000000E+00  0.00000000000E+00  0.28607813198E+03  0.27493543043E+04  0.27344301771E+04 0.  0.
        2    1    3    3  502    0 -0.64720373926E+03 -0.11504544133E+04 -0.21507767071E+03  0.13374140876E+04  0.25500000920E-02 0. -1.
       -2    1    3    3    0  502  0.64720373926E+03  0.11504544133E+04  0.50115580269E+03  0.14119402168E+04  0.25500000920E-02 0.  1.
</event>
<event>
 5   0  0.1086507E-05  0.2591623E+04  0.7818609E-02  0.8371052E-01
       -2   -1    0    0    0  501  0.00000000000E+00  0.00000000000E+00  0.11766596074E+04  0.11766596074E+04  0.25500000920E-02 0.  1.
        2   -1    0    0  501    0  0.00000000000E+00  0.00000000000E+00 -0.14270286519E+04  0.14270286519E+04  0.25500000920E-02 0. -1.
    10030    2    1    2    0    0  0.00000000000E+00  0.00000000000E+00 -0.25036904451E+03  0.26036882593E+04  0.25916226371E+04 0.  0.
        2    1    3    3  502    0 -0.11530436021E+04  0.15312940426E+02  0.46865358976E+03  0.12447410259E+04  0.25500000920E-02 0.  1.
       -2    1    3    3    0  502  0.11530436021E+04 -0.15312940426E+02 -0.71902263427E+03  0.13589472334E+04  0.25500000920E-02 0. -1.
</event>
<event>
 5   0  0.4464297E-06  0.2608898E+04  0.7818609E-02  0.8365185E-01
        1   -1    0    0  501    0  0.00000000000E+00  0.00000000000E+00  0.12251192977E+04  0.12251192977E+04  0.50400001928E-02 0. -1.
       -1   -1    0    0    0  501  0.00000000000E+00  0.00000000000E+00 -0.13889151534E+04  0.13889151534E+04  0.50400001928E-02 0.  1.
    10030    2    1    2    0    0  0.00000000000E+00  0.00000000000E+00 -0.16379585569E+03  0.26140344512E+04  0.26088976656E+04 0.  0.
        4    1    3    3  502    0  0.61442532894E+02  0.82581228956E+03  0.92797743559E+03  0.12437382588E+04  0.12699999809E+01 0. -1.
       -4    1    3    3    0  502 -0.61442532894E+02 -0.82581228956E+03 -0.10917732913E+04  0.13702961924E+04  0.12699999809E+01 0.  1.
</event>
<event>
 5   0  0.1086507E-05  0.2610610E+04  0.7818609E-02  0.8364606E-01
       -2   -1    0    0    0  501  0.00000000000E+00  0.00000000000E+00  0.13437976016E+04  0.13437976016E+04  0.25500000920E-02 0. -1.
        2   -1    0    0  501    0  0.00000000000E+00  0.00000000000E+00 -0.12679152290E+04  0.12679152290E+04  0.25500000920E-02 0.  1.
    10030    2    1    2    0    0  0.00000000000E+00  0.00000000000E+00  0.75882372565E+02  0.26117128306E+04  0.26106102304E+04 0.  0.
        2    1    3    3  502    0  0.10599351918E+04  0.75249901654E+03  0.15675187380E+03  0.13093084169E+04  0.25500000920E-02 0. -1.
       -2    1    3    3    0  502 -0.10599351918E+04 -0.75249901654E+03 -0.80869501233E+02  0.13024044137E+04  0.25500000920E-02 0.  1.
</event>
<event>
 5   0  0.1085255E-05  0.2610838E+04  0.7818609E-02  0.8364529E-01
        2   -1    0    0  501    0  0.00000000000E+00  0.00000000000E+00  0.98354856053E+03  0.98354856054E+03  0.25500000920E-02 0. -1.
       -2   -1    0    0    0  501  0.00000000000E+00  0.00000000000E+00 -0.17326229093E+04  0.17326229093E+04  0.25500000920E-02 0.  1.
    10030    2    1    2    0    0  0.00000000000E+00  0.00000000000E+00 -0.74907434880E+03  0.27161714699E+04  0.26108380022E+04 0.  0.
        5    1    3    3  502    0  0.63442061217E+03  0.11403471264E+04 -0.33826513269E+03  0.13480825167E+04  0.46999998093E+01 0.  1.
       -5    1    3    3    0  502 -0.63442061217E+03 -0.11403471264E+04 -0.41080921610E+03  0.13680889532E+04  0.46999998093E+01 0. -1.
</event>
<event>
 5   0  0.1085255E-05  0.2592601E+04  0.7818609E-02  0.8370719E-01
       -2   -1    0    0    0  501  0.00000000000E+00  0.00000000000E+00  0.13106397280E+04  0.13106397280E+04  0.25500000920E-02 0.  1.
        2   -1    0    0  501    0  0.00000000000E+00  0.00000000000E+00 -0.12821181066E+04  0.12821181066E+04  0.25500000920E-02 0. -1.
    10030    2    1    2    0    0  0.00000000000E+00  0.00000000000E+00  0.28521621406E+02  0.25927578346E+04  0.25926009538E+04 0.  0.
        5    1    3    3  502    0 -0.66123353084E+03  0.42373170950E+03 -0.10171087713E+04  0.12850333406E+04  0.46999998093E+01 0. -1.
       -5    1    3    3    0  502  0.66123353084E+03 -0.42373170950E+03  0.10456303927E+04  0.13077244939E+04  0.46999998093E+01 0.  1.
</event>
<event>
 5   0  0.1136881E-05  0.2597706E+04  0.7818609E-02  0.8368981E-01
       -2   -1    0    0    0  501  0.00000000000E+00  0.00000000000E+00  0.11056001583E+04  0.11056001583E+04  0.25500000920E-02 0. -1.
        2   -1    0    0  501    0  0.00000000000E+00  0.00000000000E+00 -0.15258853689E+04  0.15258853689E+04  0.25500000920E-02 0.  1.
    10030    2    1    2    0    0  0.00000000000E+00  0.00000000000E+00 -0.42028521062E+03  0.26314855273E+04  0.25977059922E+04 0.  0.
        3    1    3    3  502    0 -0.10019672984E+04 -0.82039955749E+03 -0.31157049448E+03  0.13319422226E+04  0.10100000352E+00 0.  1.
       -3    1    3    3    0  502  0.10019672984E+04  0.82039955749E+03 -0.10871471614E+03  0.12995433047E+04  0.10100000352E+00 0. -1.
</event>
<event>
 5   0  0.4597705E-06  0.2613884E+04  0.7818609E-02  0.8363500E-01
       -1   -1    0    0    0  501  0.00000000000E+00  0.00000000000E+00  0.16497416988E+04  0.16497416989E+04  0.50400001928E-02 0. -1.
        1   -1    0    0  501    0  0.00000000000E+00  0.00000000000E+00 -0.10353730151E+04  0.10353730151E+04  0.50400001928E-02 0.  1.
    10030    2    1    2    0    0  0.00000000000E+00  0.00000000000E+00  0.61436868374E+03  0.26851147140E+04  0.26138844939E+04 0.  0.
        5    1    3    3  502    0  0.10372354829E+04  0.52435784297E+03  0.92119105264E+03  0.14830453938E+04  0.46999998093E+01 0. -1.
       -5    1    3    3    0  502 -0.10372354829E+04 -0.52435784297E+03 -0.30682236890E+03  0.12020693202E+04  0.46999998093E+01 0.  1.
</event>
<event>
 5   0  0.4218590E-06  0.2657132E+04  0.7818609E-02  0.8349050E-01
        1   -1    0    0  501    0  0.00000000000E+00  0.00000000000E+00  0.15258415822E+04  0.15258415822E+04  0.50400001928E-02 0.  1.
       -1   -1    0    0    0  501  0.00000000000E+00  0.00000000000E+00 -0.11567963560E+04  0.11567963560E+04  0.50400001928E-02 0. -1.
    10030    2    1    2    0    0  0.00000000000E+00  0.00000000000E+00  0.36904522625E+03  0.26826379382E+04  0.26571322753E+04 0.  0.
        1    1    3    3  502    0  0.13407638664E+03 -0.55606378256E+03  0.13951595498E+04  0.15078639120E+04  0.50400001928E-02 0.  1.
       -1    1    3    3    0  502 -0.13407638664E+03  0.55606378256E+03 -0.10261143235E+04  0.11747740262E+04  0.50400001928E-02 0. -1.
</event>
<event>
 5   0  0.1136881E-05  0.2534048E+04  0.7818609E-02  0.8390955E-01
       -2   -1    0    0    0  501  0.00000000000E+00  0.00000000000E+00  0.84663768069E+03  0.84663768069E+03  0.25500000920E-02 0. -1.
        2   -1    0    0  501    0  0.00000000000E+00  0.00000000000E+00 -0.18961477525E+04  0.18961477525E+04  0.25500000920E-02 0.  1.
    10030    2    1    2    0    0  0.00000000000E+00  0.00000000000E+00 -0.10495100718E+04  0.27427854332E+04  0.25340482517E+04 0.  0.
        3    1    3    3  502    0 -0.12531471246E+04 -0.13747705865E+03 -0.66197529446E+03  0.14238992093E+04  0.10100000352E+00 0.  1.
       -3    1    3    3    0  502  0.12531471246E+04  0.13747705865E+03 -0.38753477739E+03  0.13188862239E+04  0.10100000352E+00 0. -1.
</event>
<event>
 5   0  0.4415080E-06  0.2705912E+04  0.7818609E-02  0.8333089E-01
       -1   -1    0    0    0  501  0.00000000000E+00  0.00000000000E+00  0.16174276755E+04  0.16174276755E+04  0.50400001928E-02 0.  1.
        1   -1    0    0  501    0  0.00000000000E+00  0.00000000000E+00 -0.11317288095E+04  0.11317288095E+04  0.50400001928E-02 0. -1.
    10030    2    1    2    0    0  0.00000000000E+00  0.00000000000E+00  0.48569886602E+03  0.27491564849E+04  0.27059116745E+04 0.  0.
        2    1    3    3  502    0  0.47728782569E+03  0.98797861026E+03 -0.56137178660E+03  0.12324949029E+04  0.25500000920E-02 0. -1.
       -2    1    3    3    0  502 -0.47728782569E+03 -0.98797861026E+03  0.10470706526E+04  0.15166615820E+04  0.25500000920E-02 0.  1.
</event>
<event>
 5   0  0.1116310E-05  0.2591954E+04  0.7818609E-02  0.8370939E-01
        2   -1    0    0  501    0  0.00000000000E+00  0.00000000000E+00  0.18721724607E+04  0.18721724607E+04  0.25500000920E-02 0. -1.
       -2   -1    0    0    0  501  0.00000000000E+00  0.00000000000E+00 -0.89711654986E+03  0.89711654986E+03  0.25500000920E-02 0.  1.
    10030    2    1    2    0    0  0.00000000000E+00  0.00000000000E+00  0.97505591087E+03  0.27692890106E+04  0.25919543968E+04 0.  0.
        4    1    3    3  502    0 -0.65512555264E+03  0.11001821296E+04  0.27393778735E+03  0.13094402362E+04  0.12699999809E+01 0.  1.
       -4    1    3    3    0  502  0.65512555264E+03 -0.11001821296E+04  0.70111812353E+03  0.14598487744E+04  0.12699999809E+01 0. -1.
</event>
<event>
 5   0  0.4464297E-06  0.2593885E+04  0.7818609E-02  0.8370281E-01
        1   -1    0    0  501    0  0.00000000000E+00  0.00000000000E+00  0.10509450956E+04  0.10509450956E+04  0.50400001928E-02 0. -1.
       -1   -1    0    0    0  501  0.00000000000E+00  0.00000000000E+00 -0.16005208153E+04  0.16005208153E+04  0.50400001928E-02 0.  1.
    10030    2    1    2    0    0  0.00000000000E+00  0.00000000000E+00 -0.54957571970E+03  0.26514659108E+04  0.25938847323E+04 0.  0.
        4    1    3    3  502    0  0.57148436641E+03 -0.22307513216E+03 -0.14428265864E+04  0.15678351530E+04  0.12699999809E+01 0.  1.
       -4    1    3    3    0  502 -0.57148436641E+03  0.22307513216E+03  0.89325086669E+03  0.10836307579E+04  0.12699999809E+01 0. -1.
</event>
<event>
 5   0  0.1116310E-05  0.2609449E+04  0.7818609E-02  0.8364999E-01
       -2   -1    0    0    0  501  0.00000000000E+00  0.00000000000E+00  0.83134544408E+03  0.83134544408E+03  0.25500000920E-02 0. -1.
        2   -1    0    0  501    0  0.00000000000E+00  0.00000000000E+00 -0.20476516802E+04  0.20476516802E+04  0.25500000920E-02 0.  1.
    10030    2    1    2    0    0  0.00000000000E+00  0.00000000000E+00 -0.12163062361E+04  0.28789971243E+04  0.26094489038E+04 0.  0.
        4    1    3    3  502    0 -0.64348767045E+03  0.11207045647E+04 -0.41002242147E+03  0.13557931635E+04  0.12699999809E+01 0.  1.
       -4    1    3    3    0  502  0.64348767045E+03 -0.11207045647E+04 -0.80628381462E+03  0.15232039607E+04  0.12699999809E+01 0. -1.
</event>
<event>
 5   0  0.1085061E-05  0.2578315E+04  0.7818609E-02  0.8375604E-01
       -2   -1    0    0    0  501  0.00000000000E+00  0.00000000000E+00  0.16296281545E+04  0.16296281545E+04  0.25500000920E-02 0.  1.
        2   -1    0    0  501    0  0.00000000000E+00  0.00000000000E+00 -0.10198201390E+04  0.10198201390E+04  0.25500000920E-02 0. -1.
    10030    2    1    2    0    0  0.00000000000E+00  0.00000000000E+00  0.60980801546E+03  0.26494482935E+04  0.25783154276E+04 0.  0.
        1    1    3    3  502    0  0.11256210592E+04  0.61802414471E+03  0.42184614617E+03  0.13516400347E+04  0.50400001928E-02 0. -1.
       -1    1    3    3    0  502 -0.11256210592E+04 -0.61802414471E+03  0.18796186929E+03  0.12978082588E+04  0.50400001928E-02 0.  1.
</event>
<event>
 5   0  0.1086507E-05  0.2593286E+04  0.7818609E-02  0.8370485E-01
       -2   -1    0    0    0  501  0.00000000000E+00  0.00000000000E+00  0.10668098223E+04  0.10668098223E+04  0.25500000920E-02 0.  1.
        2   -1    0    0  501    0  0.00000000000E+00  0.00000000000E+00 -0.15759910782E+04  0.15759910782E+04  0.25500000920E-02 0. -1.
    10030    2    1    2    0    0  0.00000000000E+00  0.00000000000E+00 -0.50918125587E+03  0.26428009005E+04  0.25932857630E+04 0.  0.
        2    1    3    3  502    0  0.44487871683E+03 -0.87569573155E+03  0.60804827458E+03  0.11551981610E+04  0.25500000920E-02 0. -1.
       -2    1    3    3    0  502 -0.44487871683E+03  0.87569573155E+03 -0.11172295305E+04  0.14876027395E+04  0.25500000920E-02 0.  1.
</event>
<event>
 5   0  0.4361864E-06  0.2602114E+04  0.7818609E-02  0.8367484E-01
       -1   -1    0    0    0  501  0.00000000000E+00  0.00000000000E+00  0.13974294191E+04  0.13974294191E+04  0.50400001928E-02 0. -1.
        1   -1    0    0  501    0  0.00000000000E+00  0.00000000000E+00 -0.12113304919E+04  0.12113304919E+04  0.50400001928E-02 0.  1.
    10030    2    1    2    0    0  0.00000000000E+00  0.00000000000E+00  0.18609892719E+03  0.26087599110E+04  0.26021136529E+04 0.  0.
        3    1    3    3  502    0 -0.39420779810E+03 -0.11165930029E+04  0.63347092757E+03  0.13429315502E+04  0.10100000352E+00 0. -1.
       -3    1    3    3    0  502  0.39420779810E+03  0.11165930029E+04 -0.44737200038E+03  0.12658283609E+04  0.10100000352E+00 0.  1.
</event>
<event>
 5   0  0.4218590E-06  0.2601121E+04  0.7818609E-02  0.8367821E-01
       -1   -1    0    0    0  501  0.00000000000E+00  0.00000000000E+00  0.10823613778E+04  0.10823613778E+04  0.50400001928E-02 0.  1.
        1   -1    0    0  501    0  0.00000000000E+00  0.00000000000E+00 -0.15627474074E+04  0.15627474074E+04  0.50400001928E-02 0. -1.
    10030    2    1    2    0    0  0.00000000000E+00  0.00000000000E+00 -0.48038602958E+03  0.26451087852E+04  0.26011208638E+04 0.  0.
        1    1    3    3  502    0 -0.31303576414E+03  0.10802041371E+04  0.42401818050E+03  0.12019250330E+04  0.50400001928E-02 0.  1.
       -1    1    3    3    0  502  0.31303576414E+03 -0.10802041371E+04 -0.90440421008E+03  0.14431837522E+04  0.50400001928E-02 0. -1.
</event>
<event>
 5   0  0.4415080E-06  0.2614025E+04  0.7818609E-02  0.8363453E-01
       -1   -1    0    0    0  501  0.00000000000E+00  0.00000000000E+00  0.12180763285E+04  0.12180763285E+04  0.50400001928E-02 0.  1.
        1   -1    0    0  501    0  0.00000000000E+00  0.00000000000E+00 -0.14024426277E+04  0.14024426277E+04  0.50400001928E-02 0. -1.
    10030    2    1    2    0    0  0.00000000000E+00  0.00000000000E+00 -0.18436629918E+03  0.26205189563E+04  0.26140253763E+04 0.  0.
        2    1    3    3  502    0 -0.33661726354E+03 -0.11463223535E+04  0.43914861534E+03  0.12728776951E+04  0.25500000920E-02 0.  1.
       -2    1    3    3    0  502  0.33661726354E+03  0.11463223535E+04 -0.62351491452E+03  0.13476412612E+04  0.25500000920E-02 0. -1.
</event>
<event>
 5   0  0.1086507E-05  0.2592386E+04  0.7818609E-02  0.8370792E-01
       -2   -1    0    0    0  501  0.00000000000E+00  0.00000000000E+00  0.61324209963E+03  0.61324209963E+03  0.25500000920E-02 0.  1.
        2   -1    0    0  501    0  0.00000000000E+00  0.00000000000E+00 -0.27397282343E+04  0.27397282343E+04  0.25500000920E-02 0. -1.
    10030    2    1    2    0    0  0.00000000000E+00  0.00000000000E+00 -0.21264861347E+04  0.33529703339E+04  0.25923863098E+04 0.  0.
        2    1    3    3  502    0  0.59123279740E+03  0.55335639565E+03 -0.23722914492E+04  0.25066962802E+04  0.25500000920E-02 0. -1.
       -2    1    3    3    0  502 -0.59123279740E+03 -0.55335639565E+03  0.24580531453E+03  0.84627405371E+03  0.25500000920E-02 0.  1.
</event>
<event>
 5   0  0.1085255E-05  0.2586735E+04  0.7818609E-02  0.8372721E-01
        2   -1    0    0  501    0  0.00000000000E+00  0.00000000000E+00  0.68370819782E+03  0.68370819782E+03  0.25500000920E-02 0.  1.
       -2   -1    0    0    0  501  0.00000000000E+00  0.00000000000E+00 -0.24466565118E+04  0.24466565118E+04  0.25500000920E-02 0. -1.
    10030    2    1    2    0    0  0.00000000000E+00  0.00000000000E+00 -0.17629483139E+04  0.31303647096E+04  0.25867347095E+04 0.  0.
        5    1    3    3  502    0 -0.83372441882E+03  0.59295708642E+02 -0.20759001017E+04  0.22378551583E+04  0.46999998093E+01 0. -1.
       -5    1    3    3    0  502  0.83372441882E+03 -0.59295708642E+02  0.31295178773E+03  0.89250955123E+03  0.46999998093E+01 0.  1.
</event>
<event>
 5   0  0.4218590E-06  0.2606729E+04  0.7818609E-02  0.8365919E-01
       -1   -1    0    0    0  501  0.00000000000E+00  0.00000000000E+00  0.88436269116E+03  0.88436269118E+03  0.50400001928E-02 0.  1.
        1   -1    0    0  501    0  0.00000000000E+00  0.00000000000E+00 -0.19208853408E+04  0.19208853408E+04  0.50400001928E-02 0. -1.
    10030    2    1    2    0    0  0.00000000000E+00  0.00000000000E+00 -0.10365226496E+04  0.28052480320E+04  0.26067292375E+04 0.  0.
        1    1    3    3  502    0  0.97425231829E+03 -0.67822150150E+03  0.60874097631E+02  0.11886368834E+04  0.50400001928E-02 0.  1.
       -1    1    3    3    0  502 -0.97425231829E+03  0.67822150150E+03 -0.10973967473E+04  0.16166111486E+04  0.50400001928E-02 0. -1.
</event>
<event>
 5   0  0.1085061E-05  0.2485470E+04  0.7818609E-02  0.8408180E-01
        2   -1    0    0  501    0  0.00000000000E+00  0.00000000000E+00  0.21365432686E+04  0.21365432686E+04  0.25500000920E-02 0.  1.
       -2   -1    0    0    0  501  0.00000000000E+00  0.00000000000E+00 -0.72284517887E+03  0.72284517888E+03  0.25500000920E-02 0. -1.
    10030    2    1    2    0    0  0.00000000000E+00  0.00000000000E+00  0.14136980897E+04  0.28593884474E+04  0.24854697754E+04 0.  0.
        1    1    3    3  502    0  0.39401392064E+03 -0.90810644310E+03  0.15712020607E+04  0.18570353247E+04  0.50400001928E-02 0.  1.
       -1    1    3    3    0  502 -0.39401392064E+03  0.90810644310E+03 -0.15750397105E+03  0.10023531227E+04  0.50400001928E-02 0. -1.
</event>
<event>
 5   0  0.4218590E-06  0.2601112E+04  0.7818609E-02  0.8367824E-01
        1   -1    0    0  501    0  0.00000000000E+00  0.00000000000E+00  0.62601125844E+03  0.62601125846E+03  0.50400001928E-02 0.  1.
       -1   -1    0    0    0  501  0.00000000000E+00  0.00000000000E+00 -0.27019411524E+04  0.27019411525E+04  0.50400001928E-02 0. -1.
    10030    2    1    2    0    0  0.00000000000E+00  0.00000000000E+00 -0.20759298940E+04  0.33279524109E+04  0.26011117478E+04 0.  0.
        1    1    3    3  502    0  0.58141764338E+03 -0.20367147390E+03 -0.25034158828E+04  0.25781038822E+04  0.50400001928E-02 0. -1.
       -1    1    3    3    0  502 -0.58141764338E+03  0.20367147390E+03  0.42748598879E+03  0.74984852867E+03  0.50400001928E-02 0.  1.
</event>
<event>
 5   0  0.1085255E-05  0.2615700E+04  0.7818609E-02  0.8362888E-01
       -2   -1    0    0    0  501  0.00000000000E+00  0.00000000000E+00  0.11250179479E+04  0.11250179479E+04  0.25500000920E-02 0. -1.
        2   -1    0    0  501    0  0.00000000000E+00  0.00000000000E+00 -0.15203948693E+04  0.15203948693E+04  0.25500000920E-02 0.  1.
    10030    2    1    2    0    0  0.00000000000E+00  0.00000000000E+00 -0.39537692134E+03  0.26454128172E+04  0.26156999185E+04 0.  0.
        5    1    3    3  502    0 -0.29909905118E+03 -0.57008389346E+03  0.95366044518E+03  0.11506286207E+04  0.46999998093E+01 0. -1.
       -5    1    3    3    0  502  0.29909905118E+03  0.57008389346E+03 -0.13490373665E+04  0.14947841966E+04  0.46999998093E+01 0.  1.
</event>
<event>
 5   0  0.1085061E-05  0.2618050E+04  0.7818609E-02  0.8362096E-01
        2   -1    0    0  501    0  0.00000000000E+00  0.00000000000E+00  0.13288040247E+04  0.13288040247E+04  0.25500000920E-02 0.  1.
       -2   -1    0    0    0  501  0.00000000000E+00  0.00000000000E+00 -0.12895403655E+04  0.12895403655E+04  0.25500000920E-02 0. -1.
    10030    2    1    2    0    0  0.00000000000E+00  0.00000000000E+00  0.39263659205E+02  0.26183443902E+04  0.26180499825E+04 0.  0.
        1    1    3    3  502    0 -0.55820681006E+03 -0.10328135705E+04 -0.55943907878E+03  0.13004886763E+04  0.50400001928E-02 0.  1.
       -1    1    3    3    0  502  0.55820681006E+03  0.10328135705E+04  0.59870273799E+03  0.13178557139E+04  0.50400001928E-02 0. -1.
</event>
<event>
 5   0  0.1085255E-05  0.2608931E+04  0.7818609E-02  0.8365174E-01
        2   -1    0    0  501    0  0.00000000000E+00  0.00000000000E+00  0.10406595108E+04  0.10406595108E+04  0.25500000920E-02 0.  1.
       -2   -1    0    0    0  501  0.00000000000E+00  0.00000000000E+00 -0.16351462680E+04  0.16351462680E+04  0.25500000920E-02 0. -1.
    10030    2    1    2    0    0  0.00000000000E+00  0.00000000000E+00 -0.59448675721E+03  0.26758057788E+04  0.26089312106E+04 0.  0.
        5    1    3    3  502    0  0.12773982765E+04  0.15590212178E+03 -0.78332372840E+02  0.12892671869E+04  0.46999998093E+01 0. -1.
       -5    1    3    3    0  502 -0.12773982765E+04 -0.15590212178E+03 -0.51615438437E+03  0.13865385920E+04  0.46999998093E+01 0.  1.
</event>
<event>
 5   0  0.1085255E-05  0.2593037E+04  0.7818609E-02  0.8370570E-01
       -2   -1    0    0    0  501  0.00000000000E+00  0.00000000000E+00  0.66001442234E+03  0.66001442234E+03  0.25500000920E-02 0.  1.
        2   -1    0    0  501    0  0.00000000000E+00  0.00000000000E+00 -0.25468538332E+04  0.25468538332E+04  0.25500000920E-02 0. -1.
    10030    2    1    2    0    0  0.00000000000E+00  0.00000000000E+00 -0.18868394109E+04  0.32068682555E+04  0.25930370314E+04 0.  0.
        5    1    3    3  502    0 -0.20365442157E+03  0.10868395224E+04 -0.10623695326E+03  0.11108571695E+04  0.46999998093E+01 0.  1.
       -5    1    3    3    0  502  0.20365442157E+03 -0.10868395224E+04 -0.17806024576E+04  0.20960110860E+04  0.46999998093E+01 0. -1.
</event>
<event>
 5   0  0.4415080E-06  0.2616470E+04  0.7818609E-02  0.8362628E-01
       -1   -1    0    0    0  501  0.00000000000E+00  0.00000000000E+00  0.84577081708E+03  0.84577081709E+03  0.50400001928E-02 0. -1.
        1   -1    0    0  501    0  0.00000000000E+00  0.00000000000E+00 -0.20235721648E+04  0.20235721648E+04  0.50400001928E-02 0.  1.
    10030    2    1    2    0    0  0.00000000000E+00  0.00000000000E+00 -0.11778013477E+04  0.28693429819E+04  0.26164695934E+04 0.  0.
        2    1    3    3  502    0  0.11638602599E+04 -0.99879789153E+02 -0.12348355073E+04  0.16998133447E+04  0.25500000920E-02 0.  1.
       -2    1    3    3    0  502 -0.11638602599E+04  0.99879789153E+02  0.57034159599E+02  0.11695296372E+04  0.25500000920E-02 0. -1.
</event>
<event>
 5   0  0.1085061E-05  0.2588365E+04  0.7818609E-02  0.8372164E-01
        2   -1    0    0  501    0  0.00000000000E+00  0.00000000000E+00  0.18665440274E+04  0.18665440274E+04  0.25500000920E-02 0.  1.
       -2   -1    0    0    0  501  0.00000000000E+00  0.00000000000E+00 -0.89733115310E+03  0.89733115310E+03  0.25500000920E-02 0. -1.
    10030    2    1    2    0    0  0.00000000000E+00  0.00000000000E+00  0.96921287434E+03  0.27638751806E+04  0.25883648155E+04 0.  0.
        1    1    3    3  502    0 -0.74377652353E+03 -0.63594814285E+03 -0.41974169981E+03  0.10648082700E+04  0.50400001928E-02 0. -1.
       -1    1    3    3    0  502  0.74377652353E+03  0.63594814285E+03  0.13889545742E+04  0.16990669105E+04  0.50400001928E-02 0.  1.
</event>
<event>
 5   0  0.4415080E-06  0.2596129E+04  0.7818609E-02  0.8369517E-01
       -1   -1    0    0    0  501  0.00000000000E+00  0.00000000000E+00  0.79034668949E+03  0.79034668951E+03  0.50400001928E-02 0. -1.
        1   -1    0    0  501    0  0.00000000000E+00  0.00000000000E+00 -0.21319401132E+04  0.21319401132E+04  0.50400001928E-02 0.  1.
    10030    2    1    2    0    0  0.00000000000E+00  0.00000000000E+00 -0.13415934237E+04  0.29222868027E+04  0.25961292808E+04 0.  0.
        2    1    3    3  502    0  0.41138280182E+03  0.87760795339E+03 -0.16427202004E+04  0.19073440137E+04  0.25500000920E-02 0.  1.
       -2    1    3    3    0  502 -0.41138280182E+03 -0.87760795339E+03  0.30112677670E+03  0.10149427891E+04  0.25500000920E-02 0. -1.
</event>
<event>
 5   0  0.1116310E-05  0.2598617E+04  0.7818609E-02  0.8368671E-01
        2   -1    0    0  501    0  0.00000000000E+00  0.00000000000E+00  0.12619528714E+04  0.12619528714E+04  0.25500000920E-02 0.  1.
       -2   -1    0    0    0  501  0.00000000000E+00  0.00000000000E+00 -0.13377694173E+04  0.13377694173E+04  0.25500000920E-02 0. -1.
    10030    2    1    2    0    0  0.00000000000E+00  0.00000000000E+00 -0.75816545894E+02  0.25997222887E+04  0.25986165223E+04 0.  0.
        4    1    3    3  502    0 -0.92583401297E+03 -0.18305174633E+02 -0.94972171552E+03  0.13264526561E+04  0.12699999809E+01 0. -1.
       -4    1    3    3    0  502  0.92583401297E+03  0.18305174633E+02  0.87390516963E+03  0.12732696326E+04  0.12699999809E+01 0.  1.
</event>
<event>
 5   0  0.4361864E-06  0.2589019E+04  0.7818609E-02  0.8371941E-01
        1   -1    0    0  501    0  0.00000000000E+00  0.00000000000E+00  0.10437455292E+04  0.10437455292E+04  0.50400001928E-02 0.  1.
       -1   -1    0    0    0  501  0.00000000000E+00  0.00000000000E+00 -0.16055201900E+04  0.16055201900E+04  0.50400001928E-02 0. -1.
    10030    2    1    2    0    0  0.00000000000E+00  0.00000000000E+00 -0.56177466086E+03  0.26492657192E+04  0.25890187487E+04 0.  0.
        3    1    3    3  502    0  0.78058754004E+03 -0.94540075157E+03 -0.70607428503E+03  0.14147934107E+04  0.10100000352E+00 0.  1.
       -3    1    3    3    0  502 -0.78058754004E+03  0.94540075157E+03  0.14429962417E+03  0.12344723085E+04  0.10100000352E+00 0. -1.
</event>
<event>
 5   0  0.1136881E-05  0.2576960E+04  0.7818609E-02  0.8376070E-01
       -2   -1    0    0    0  501  0.00000000000E+00  0.00000000000E+00  0.91706992226E+03  0.91706992227E+03  0.25500000920E-02 0. -1.
        2   -1    0    0  501    0  0.00000000000E+00  0.00000000000E+00 -0.18103099788E+04  0.18103099788E+04  0.25500000920E-02 0.  1.
    10030    2    1    2    0    0  0.00000000000E+00  0.00000000000E+00 -0.89324005651E+03  0.27273799010E+04  0.25769600940E+04 0.  0.
        3    1    3    3  502    0 -0.23244236058E+03 -0.18188862320E+03 -0.17740501759E+04  0.17984345857E+04  0.10100000352E+00 0.  1.
       -3    1    3    3    0  502  0.23244236058E+03  0.18188862320E+03  0.88081011940E+03  0.92894531533E+03  0.10100000352E+00 0. -1.
</event>
<event>
 5   0  0.4464297E-06  0.2607184E+04  0.7818609E-02  0.8365765E-01
       -1   -1    0    0    0  501  0.00000000000E+00  0.00000000000E+00  0.10489234212E+04  0.10489234212E+04  0.50400001928E-02 0.  1.
        1   -1    0    0  501    0  0.00000000000E+00  0.00000000000E+00 -0.16200913438E+04  0.16200913438E+04  0.50400001928E-02 0. -1.
    10030    2    1    2    0    0  0.00000000000E+00  0.00000000000E+00 -0.57116792266E+03  0.26690147650E+04  0.26071837335E+04 0.  0.
        4    1    3    3  502    0  0.25391719952E+03 -0.12390416589E+04  0.37579516012E+02  0.12653505482E+04  0.12699999809E+01 0.  1.
       -4    1    3    3    0  502 -0.25391719952E+03  0.12390416589E+04 -0.60874743867E+03  0.14036642169E+04  0.12699999809E+01 0. -1.
</event>
<event>
 5   0  0.1085061E-05  0.2585942E+04  0.7818609E-02  0.8372992E-01
       -2   -1    0    0    0  501  0.00000000000E+00  0.00000000000E+00  0.16782703137E+04  0.16782703137E+04  0.25500000920E-02 0. -1.
        2   -1    0    0  501    0  0.00000000000E+00  0.00000000000E+00 -0.99612927589E+03  0.99612927589E+03  0.25500000920E-02 0.  1.
    10030    2    1    2    0    0  0.00000000000E+00  0.00000000000E+00  0.68214103786E+03  0.26743995896E+04  0.25859421435E+04 0.  0.
        1    1    3    3  502    0 -0.74507594287E+03  0.56185902951E+03  0.12666427602E+04  0.15732792542E+04  0.50400001928E-02 0. -1.
       -1    1    3    3    0  502  0.74507594287E+03 -0.56185902951E+03 -0.58450172233E+03  0.11011203354E+04  0.50400001928E-02 0.  1.
</event>
<event>
 5   0  0.4597705E-06  0.2552544E+04  0.7818609E-02  0.8384502E-01
       -1   -1    0    0    0  501  0.00000000000E+00  0.00000000000E+00  0.48477300647E+03  0.48477300650E+03  0.50400001928E-02 0.  1.
        1   -1    0    0  501    0  0.00000000000E+00  0.00000000000E+00 -0.33600681645E+04  0.33600681645E+04  0.50400001928E-02 0. -1.
    10030    2    1    2    0    0  0.00000000000E+00  0.00000000000E+00 -0.28752951580E+04  0.38448411710E+04  0.25525441004E+04 0.  0.
        5    1    3    3  502    0 -0.50117555757E+03  0.86959621291E+02  0.32547604031E+03  0.60390037097E+03  0.46999998093E+01 0.  1.
       -5    1    3    3    0  502  0.50117555757E+03 -0.86959621291E+02 -0.32007711983E+04  0.32409408000E+04  0.46999998093E+01 0. -1.
</event>
<event>
 5   0  0.4464297E-06  0.2604822E+04  0.7818609E-02  0.8366565E-01
        1   -1    0    0  501    0  0.00000000000E+00  0.00000000000E+00  0.18408978337E+04  0.18408978337E+04  0.50400001928E-02 0.  1.
       -1   -1    0    0    0  501  0.00000000000E+00  0.00000000000E+00 -0.92143864970E+03  0.92143864971E+03  0.50400001928E-02 0. -1.
    10030    2    1    2    0    0  0.00000000000E+00  0.00000000000E+00  0.91945918401E+03  0.27623364834E+04  0.26048220009E+04 0.  0.
        4    1    3    3  502    0 -0.36854200557E+03 -0.13107776551E+03 -0.85767518292E+03  0.94266267708E+03  0.12699999809E+01 0. -1.
       -4    1    3    3    0  502  0.36854200557E+03  0.13107776551E+03  0.17771343669E+04  0.18196738063E+04  0.12699999809E+01 0.  1.
</event>
<event>
 5   0  0.1136881E-05  0.2561562E+04  0.7818609E-02  0.8381376E-01
       -2   -1    0    0    0  501  0.00000000000E+00  0.00000000000E+00  0.11234302214E+04  0.11234302214E+04  0.25500000920E-02 0.  1.
        2   -1    0    0  501    0  0.00000000000E+00  0.00000000000E+00 -0.14601707270E+04  0.14601707270E+04  0.25500000920E-02 0. -1.
    10030    2    1    2    0    0  0.00000000000E+00  0.00000000000E+00 -0.33674050559E+03  0.25836009483E+04  0.25615619634E+04 0.  0.
        3    1    3    3  502    0 -0.10743144886E+04 -0.33586627379E+03 -0.78472710734E+03  0.13721349852E+04  0.10100000352E+00 0. -1.
       -3    1    3    3    0  502  0.10743144886E+04  0.33586627379E+03  0.44798660175E+03  0.12114659632E+04  0.10100000352E+00 0.  1.
</event>
<event>
 5   0  0.4597705E-06  0.2697306E+04  0.7818609E-02  0.8335880E-01
       -1   -1    0    0    0  501  0.00000000000E+00  0.00000000000E+00  0.20548283647E+04  0.20548283647E+04  0.50400001928E-02 0. -1.
        1   -1    0    0  501    0  0.00000000000E+00  0.00000000000E+00 -0.88516650904E+03  0.88516650906E+03  0.50400001928E-02 0.  1.
    10030    2    1    2    0    0  0.00000000000E+00  0.00000000000E+00  0.11696618556E+04  0.29399948737E+04  0.26973062490E+04 0.  0.
        5    1    3    3  502    0 -0.85076745706E+03 -0.10355581094E+04  0.74889759542E+03  0.15352705176E+04  0.46999998093E+01 0.  1.
       -5    1    3    3    0  502  0.85076745706E+03  0.10355581094E+04  0.42076426019E+03  0.14047243561E+04  0.46999998093E+01 0. -1.
</event>
<event>
 5   0  0.4361864E-06  0.2600879E+04  0.7818609E-02  0.8367903E-01
        1   -1    0    0  501    0  0.00000000000E+00  0.00000000000E+00  0.22420701375E+04  0.22420701375E+04  0.50400001928E-02 0.  1.
       -1   -1    0    0    0  501  0.00000000000E+00  0.00000000000E+00 -0.75427762890E+03  0.75427762892E+03  0.50400001928E-02 0. -1.
    10030    2    1    2    0    0  0.00000000000E+00  0.00000000000E+00  0.14877925086E+04  0.29963477664E+04  0.26008793491E+04 0.  0.
        3    1    3    3  502    0 -0.10477901821E+04  0.48717500021E+03  0.56574389860E+02  0.11568942987E+04  0.10100000352E+00 0. -1.
       -3    1    3    3    0  502  0.10477901821E+04 -0.48717500021E+03  0.14312181187E+04  0.18394534678E+04  0.10100000352E+00 0.  1.
</event>
<event>
 5   0  0.4415080E-06  0.2790983E+04  0.7818609E-02  0.8306073E-01
        1   -1    0    0  501    0  0.00000000000E+00  0.00000000000E+00  0.16841244341E+04  0.16841244341E+04  0.50400001928E-02 0. -1.
       -1   -1    0    0    0  501  0.00000000000E+00  0.00000000000E+00 -0.11563260511E+04  0.11563260511E+04  0.50400001928E-02 0.  1.
    10030    2    1    2    0    0  0.00000000000E+00  0.00000000000E+00  0.52779838304E+03  0.28404504852E+04  0.27909833080E+04 0.  0.
        2    1    3    3  502    0 -0.10441078685E+04 -0.87781870444E+03  0.56351482881E+03  0.14758983303E+04  0.25500000920E-02 0. -1.
       -2    1    3    3    0  502  0.10441078685E+04  0.87781870444E+03 -0.35716445774E+02  0.13645521549E+04  0.25500000920E-02 0.  1.
</event>
<event>
 5   0  0.1086507E-05  0.2597417E+04  0.7818609E-02  0.8369079E-01
        2   -1    0    0  501    0  0.00000000000E+00  0.00000000000E+00  0.14086552515E+04  0.14086552515E+04  0.25500000920E-02 0.  1.
       -2   -1    0    0    0  501  0.00000000000E+00  0.00000000000E+00 -0.11973433969E+04  0.11973433969E+04  0.25500000920E-02 0. -1.
    10030    2    1    2    0    0  0.00000000000E+00  0.00000000000E+00  0.21131185459E+03  0.26059986484E+04  0.25974172278E+04 0.  0.
        2    1    3    3  502    0 -0.35304163444E+02 -0.11073188057E+04  0.78556935812E+03  0.13581312668E+04  0.25500000920E-02 0.  1.
       -2    1    3    3    0  502  0.35304163444E+02  0.11073188057E+04 -0.57425750353E+03  0.12478673815E+04  0.25500000920E-02 0. -1.
</event>
<event>
 5   0  0.4464297E-06  0.2562413E+04  0.7818609E-02  0.8381082E-01
       -1   -1    0    0    0  501  0.00000000000E+00  0.00000000000E+00  0.29117536645E+04  0.29117536645E+04  0.50400001928E-02 0.  1.
        1   -1    0    0  501    0  0.00000000000E+00  0.00000000000E+00 -0.56374617089E+03  0.56374617091E+03  0.50400001928E-02 0. -1.
    10030    2    1    2    0    0  0.00000000000E+00  0.00000000000E+00  0.23480074936E+04  0.34754998354E+04  0.25624129089E+04 0.  0.
        4    1    3    3  502    0  0.64088167309E+03 -0.10374329979E+04  0.64088874170E+03  0.13775835859E+04  0.12699999809E+01 0. -1.
       -4    1    3    3    0  502 -0.64088167309E+03  0.10374329979E+04  0.17071187519E+04  0.20979162495E+04  0.12699999809E+01 0.  1.
</event>
<event>
 5   0  0.4415080E-06  0.2609296E+04  0.7818609E-02  0.8365050E-01
       -1   -1    0    0    0  501  0.00000000000E+00  0.00000000000E+00  0.11897317369E+04  0.11897317369E+04  0.50400001928E-02 0.  1.
        1   -1    0    0  501    0  0.00000000000E+00  0.00000000000E+00 -0.14306641038E+04  0.14306641039E+04  0.50400001928E-02 0. -1.
    10030    2    1    2    0    0  0.00000000000E+00  0.00000000000E+00 -0.24093236692E+03  0.26203958408E+04  0.26092960654E+04 0.  0.
        2    1    3    3  502    0 -0.57261242471E+03 -0.10714740602E+04  0.35712476307E+03  0.12662858078E+04  0.25500000920E-02 0.  1.
       -2    1    3    3    0  502  0.57261242471E+03  0.10714740602E+04 -0.59805712999E+03  0.13541100330E+04  0.25500000920E-02 0. -1.
</event>
<event>
 5   0  0.4361864E-06  0.2371820E+04  0.7818609E-02  0.8450130E-01
        1   -1    0    0  501    0  0.00000000000E+00  0.00000000000E+00  0.15877662678E+04  0.15877662678E+04  0.50400001928E-02 0. -1.
       -1   -1    0    0    0  501  0.00000000000E+00  0.00000000000E+00 -0.88576158928E+03  0.88576158929E+03  0.50400001928E-02 0.  1.
    10030    2    1    2    0    0  0.00000000000E+00  0.00000000000E+00  0.70200467850E+03  0.24735278571E+04  0.23718198690E+04 0.  0.
        3    1    3    3  502    0 -0.63332317401E+03  0.42410308391E+03 -0.59648361221E+03  0.96786072260E+03  0.10100000352E+00 0.  1.
       -3    1    3    3    0  502  0.63332317401E+03 -0.42410308391E+03  0.12984882907E+04  0.15056671345E+04  0.10100000352E+00 0. -1.
</event>
<event>
 5   0  0.1085061E-05  0.2586798E+04  0.7818609E-02  0.8372700E-01
        2   -1    0    0  501    0  0.00000000000E+00  0.00000000000E+00  0.19163523261E+04  0.19163523261E+04  0.25500000920E-02 0.  1.
       -2   -1    0    0    0  501  0.00000000000E+00  0.00000000000E+00 -0.87295038045E+03  0.87295038045E+03  0.25500000920E-02 0. -1.
    10030    2    1    2    0    0  0.00000000000E+00  0.00000000000E+00  0.10434019456E+04  0.27893027065E+04  0.25867976280E+04 0.  0.
        1    1    3    3  502    0  0.10062754607E+03  0.18791484270E+02 -0.86857542892E+03  0.87458693030E+03  0.50400001928E-02 0. -1.
       -1    1    3    3    0  502 -0.10062754607E+03 -0.18791484270E+02  0.19119773745E+04  0.19147157762E+04  0.50400001928E-02 0.  1.
</event>
<event>
 5   0  0.1116310E-05  0.2599200E+04  0.7818609E-02  0.8368473E-01
       -2   -1    0    0    0  501  0.00000000000E+00  0.00000000000E+00  0.70344694017E+03  0.70344694017E+03  0.25500000920E-02 0. -1.
        2   -1    0    0  501    0  0.00000000000E+00  0.00000000000E+00 -0.24009778960E+04  0.24009778960E+04  0.25500000920E-02 0.  1.
    10030    2    1    2    0    0  0.00000000000E+00  0.00000000000E+00 -0.16975309558E+04  0.31044248361E+04  0.25992003034E+04 0.  0.
        4    1    3    3  502    0 -0.11521443397E+03 -0.15096682915E+03 -0.23843150743E+04  0.23918664963E+04  0.12699999809E+01 0.  1.
       -4    1    3    3    0  502  0.11521443397E+03  0.15096682915E+03  0.68678411856E+03  0.71255833986E+03  0.12699999809E+01 0. -1.
</event>
<event>
 5   0  0.4218590E-06  0.2599204E+04  0.7818609E-02  0.8368472E-01
        1   -1    0    0  501    0  0.00000000000E+00  0.00000000000E+00  0.20304746635E+04  0.20304746635E+04  0.50400001928E-02 0.  1.
       -1   -1    0    0    0  501  0.00000000000E+00  0.00000000000E+00 -0.83180793414E+03  0.83180793416E+03  0.50400001928E-02 0. -1.
    10030    2    1    2    0    0  0.00000000000E+00  0.00000000000E+00  0.11986667294E+04  0.28622825977E+04  0.25992036744E+04 0.  0.
        1    1    3    3  502    0  0.40995243903E+03  0.11966696144E+04  0.92764653850E+03  0.15686322924E+04  0.50400001928E-02 0.  1.
       -1    1    3    3    0  502 -0.40995243903E+03 -0.11966696144E+04  0.27102019087E+03  0.12936503053E+04  0.50400001928E-02 0. -1.
</event>
<event>
 5   0  0.1085061E-05  0.2619908E+04  0.7818609E-02  0.8361470E-01
       -2   -1    0    0    0  501  0.00000000000E+00  0.00000000000E+00  0.14191290960E+04  0.14191290960E+04  0.25500000920E-02 0. -1.
        2   -1    0    0  501    0  0.00000000000E+00  0.00000000000E+00 -0.12091778194E+04  0.12091778194E+04  0.25500000920E-02 0.  1.
    10030    2    1    2    0    0  0.00000000000E+00  0.00000000000E+00  0.20995127663E+03  0.26283069154E+04  0.26199079569E+04 0.  0.
        1    1    3    3  502    0  0.82414612900E+02  0.70332787206E+03 -0.10006086846E+04  0.12258384901E+04  0.50400001928E-02 0.  1.
       -1    1    3    3    0  502 -0.82414612900E+02 -0.70332787206E+03  0.12105599613E+04  0.14024684253E+04  0.50400001928E-02 0. -1.
</event>
<event>
 5   0  0.1116310E-05  0.2643021E+04  0.7818609E-02  0.8353733E-01
        2   -1    0    0  501    0  0.00000000000E+00  0.00000000000E+00  0.22946379241E+04  0.22946379241E+04  0.25500000920E-02 0. -1.
       -2   -1    0    0    0  501  0.00000000000E+00  0.00000000000E+00 -0.76107430741E+03  0.76107430742E+03  0.25500000920E-02 0.  1.
    10030    2    1    2    0    0  0.00000000000E+00  0.00000000000E+00  0.15335636167E+04  0.30557122316E+04  0.26430209752E+04 0.  0.
        4    1    3    3  502    0  0.56254665869E+03 -0.10921821945E+04  0.20386008880E+03  0.12453438231E+04  0.12699999809E+01 0. -1.
       -4    1    3    3    0  502 -0.56254665869E+03  0.10921821945E+04  0.13297035279E+04  0.18103684084E+04  0.12699999809E+01 0.  1.
</event>
<event>
 5   0  0.1085255E-05  0.2604183E+04  0.7818609E-02  0.8366782E-01
       -2   -1    0    0    0  501  0.00000000000E+00  0.00000000000E+00  0.58580351888E+03  0.58580351889E+03  0.25500000920E-02 0.  1.
        2   -1    0    0  501    0  0.00000000000E+00  0.00000000000E+00 -0.28942174228E+04  0.28942174228E+04  0.25500000920E-02 0. -1.
    10030    2    1    2    0    0  0.00000000000E+00  0.00000000000E+00 -0.23084139039E+04  0.34800209417E+04  0.26041833658E+04 0.  0.
        5    1    3    3  502    0 -0.48830111846E+03 -0.11882804266E+04 -0.87081802516E+03  0.15520291484E+04  0.46999998093E+01 0.  1.
       -5    1    3    3    0  502  0.48830111846E+03  0.11882804266E+04 -0.14375958787E+04  0.19279917933E+04  0.46999998093E+01 0. -1.
</event>
<event>
 5   0  0.1085061E-05  0.2588268E+04  0.7818609E-02  0.8372197E-01
       -2   -1    0    0    0  501  0.00000000000E+00  0.00000000000E+00  0.11511472887E+04  0.11511472887E+04  0.25500000920E-02 0. -1.
        2   -1    0    0  501    0  0.00000000000E+00  0.00000000000E+00 -0.14548808695E+04  0.14548808695E+04  0.25500000920E-02 0.  1.
    10030    2    1    2    0    0  0.00000000000E+00  0.00000000000E+00 -0.30373358083E+03  0.26060281582E+04  0.25882675042E+04 0.  0.
        1    1    3    3  502    0  0.76409189823E+03 -0.95494283761E+03 -0.57788949824E+03  0.13526671890E+04  0.50400001928E-02 0. -1.
       -1    1    3    3    0  502 -0.76409189823E+03  0.95494283761E+03  0.27415591740E+03  0.12533609692E+04  0.50400001928E-02 0.  1.
</event>
<event>
 5   0  0.1085255E-05  0.2600666E+04  0.7818609E-02  0.8367975E-01
       -2   -1    0    0    0  501  0.00000000000E+00  0.00000000000E+00  0.10255403840E+04  0.10255403841E+04  0.25500000920E-02 0.  1.
        2   -1    0    0  501    0  0.00000000000E+00  0.00000000000E+00 -0.16487559031E+04  0.16487559031E+04  0.25500000920E-02 0. -1.
    10030    2    1    2    0    0  0.00000000000E+00  0.00000000000E+00 -0.62321551909E+03  0.26742962872E+04  0.26006658856E+04 0.  0.
        5    1    3    3  502    0 -0.10322172270E+03 -0.33778029597E+03  0.97525962224E+03  0.10372577660E+04  0.46999998093E+01 0.  1.
       -5    1    3    3    0  502  0.10322172270E+03  0.33778029597E+03 -0.15984751413E+04  0.16370385212E+04  0.46999998093E+01 0. -1.
</event>
<event>
 5   0  0.1085061E-05  0.2593872E+04  0.7818609E-02  0.8370286E-01
       -2   -1    0    0    0  501  0.00000000000E+00  0.00000000000E+00  0.12135097785E+04  0.12135097785E+04  0.25500000920E-02 0. -1.
        2   -1    0    0  501    0  0.00000000000E+00  0.00000000000E+00 -0.13860975593E+04  0.13860975593E+04  0.25500000920E-02 0.  1.
    10030    2    1    2    0    0  0.00000000000E+00  0.00000000000E+00 -0.17258778077E+03  0.25996073378E+04  0.25938719646E+04 0.  0.
        1    1    3    3  502    0 -0.69262674343E+03  0.10948144618E+04 -0.25394155982E+02  0.12957605391E+04  0.50400001928E-02 0. -1.
       -1    1    3    3    0  502  0.69262674343E+03 -0.10948144618E+04 -0.14719362478E+03  0.13038467987E+04  0.50400001928E-02 0.  1.
</event>
<event>
 5   0  0.4464297E-06  0.2582919E+04  0.7818609E-02  0.8374026E-01
       -1   -1    0    0    0  501  0.00000000000E+00  0.00000000000E+00  0.98935603783E+03  0.98935603784E+03  0.50400001928E-02 0. -1.
        1   -1    0    0  501    0  0.00000000000E+00  0.00000000000E+00 -0.16858112534E+04  0.16858112534E+04  0.50400001928E-02 0.  1.
    10030    2    1    2    0    0  0.00000000000E+00  0.00000000000E+00 -0.69645521554E+03  0.26751672912E+04  0.25829189242E+04 0.  0.
        4    1    3    3  502    0 -0.11647398774E+04  0.49193316548E+03 -0.75677719112E+02  0.12666277872E+04  0.12699999809E+01 0. -1.
       -4    1    3    3    0  502  0.11647398774E+04 -0.49193316548E+03 -0.62077749642E+03  0.14085395040E+04  0.12699999809E+01 0.  1.
</event>
<event>
 5   0  0.4361864E-06  0.2597114E+04  0.7818609E-02  0.8369182E-01
        1   -1    0    0  501    0  0.00000000000E+00  0.00000000000E+00  0.13468265732E+04  0.13468265732E+04  0.50400001928E-02 0. -1.
       -1   -1    0    0    0  501  0.00000000000E+00  0.00000000000E+00 -0.12520169110E+04  0.12520169110E+04  0.50400001928E-02 0.  1.
    10030    2    1    2    0    0  0.00000000000E+00  0.00000000000E+00  0.94809662190E+02  0.25988434842E+04  0.25971135099E+04 0.  0.
        3    1    3    3  502    0  0.31628142770E+03 -0.88134859294E+03 -0.85288349521E+03  0.12665778896E+04  0.10100000352E+00 0.  1.
       -3    1    3    3    0  502 -0.31628142770E+03  0.88134859294E+03  0.94769315740E+03  0.13322655946E+04  0.10100000352E+00 0. -1.
</event>
<event>
 5   0  0.1085061E-05  0.2664250E+04  0.7818609E-02  0.8346699E-01
       -2   -1    0    0    0  501  0.00000000000E+00  0.00000000000E+00  0.14313408903E+04  0.14313408903E+04  0.25500000920E-02 0.  1.
        2   -1    0    0  501    0  0.00000000000E+00  0.00000000000E+00 -0.12397860107E+04  0.12397860107E+04  0.25500000920E-02 0. -1.
    10030    2    1    2    0    0  0.00000000000E+00  0.00000000000E+00  0.19155487961E+03  0.26711269009E+04  0.26642495471E+04 0.  0.
        1    1    3    3  502    0  0.37961084849E+03  0.91821894529E+03 -0.79382694113E+03  0.12717671329E+04  0.50400001928E-02 0. -1.
       -1    1    3    3    0  502 -0.37961084849E+03 -0.91821894529E+03  0.98538182074E+03  0.13993597681E+04  0.50400001928E-02 0.  1.
</event>
<event>
 5   0  0.4415080E-06  0.2583536E+04  0.7818609E-02  0.8373815E-01
       -1   -1    0    0    0  501  0.00000000000E+00  0.00000000000E+00  0.12857145500E+04  0.12857145500E+04  0.50400001928E-02 0.  1.
        1   -1    0    0  501    0  0.00000000000E+00  0.00000000000E+00 -0.12978502793E+04  0.12978502793E+04  0.50400001928E-02 0. -1.
    10030    2    1    2    0    0  0.00000000000E+00  0.00000000000E+00 -0.12135729343E+02  0.25835648293E+04  0.25835363267E+04 0.  0.
        2    1    3    3  502    0 -0.12159048936E+04 -0.34806325969E+03  0.25678907243E+03  0.12905477018E+04  0.25500000920E-02 0. -1.
       -2    1    3    3    0  502  0.12159048936E+04  0.34806325969E+03 -0.26892480178E+03  0.12930171275E+04  0.25500000920E-02 0.  1.
</event>
<event>
 5   0  0.1086507E-05  0.2541350E+04  0.7818609E-02  0.8388401E-01
        2   -1    0    0  501    0  0.00000000000E+00  0.00000000000E+00  0.18106221875E+04  0.18106221875E+04  0.25500000920E-02 0.  1.
       -2   -1    0    0    0  501  0.00000000000E+00  0.00000000000E+00 -0.89174576837E+03  0.89174576837E+03  0.25500000920E-02 0. -1.
    10030    2    1    2    0    0  0.00000000000E+00  0.00000000000E+00  0.91887641910E+03  0.27023679558E+04  0.25413497782E+04 0.  0.
        2    1    3    3  502    0  0.74248343128E+03 -0.67225358563E+03  0.12909064194E+04  0.16339051113E+04  0.25500000920E-02 0.  1.
       -2    1    3    3    0  502 -0.74248343128E+03  0.67225358563E+03 -0.37203000026E+03  0.10684628446E+04  0.25500000920E-02 0. -1.
</event>
<event>
 5   0  0.4464297E-06  0.2588128E+04  0.7818609E-02  0.8372245E-01
       -1   -1    0    0    0  501  0.00000000000E+00  0.00000000000E+00  0.98287032402E+03  0.98287032403E+03  0.50400001928E-02 0. -1.
        1   -1    0    0  501    0  0.00000000000E+00  0.00000000000E+00 -0.17037870513E+04  0.17037870513E+04  0.50400001928E-02 0.  1.
    10030    2    1    2    0    0  0.00000000000E+00  0.00000000000E+00 -0.72091672731E+03  0.26866573754E+04  0.25881280735E+04 0.  0.
        4    1    3    3  502    0  0.34527975470E+03 -0.69926091603E+02 -0.16530499825E+04  0.16901726612E+04  0.12699999809E+01 0.  1.
       -4    1    3    3    0  502 -0.34527975470E+03  0.69926091603E+02  0.93213325515E+03  0.99648471416E+03  0.12699999809E+01 0. -1.
</event>
<event>
 5   0  0.1085255E-05  0.2620139E+04  0.7818609E-02  0.8361393E-01
        2   -1    0    0  501    0  0.00000000000E+00  0.00000000000E+00  0.15431465870E+04  0.15431465870E+04  0.25500000920E-02 0. -1.
       -2   -1    0    0    0  501  0.00000000000E+00  0.00000000000E+00 -0.11121961824E+04  0.11121961824E+04  0.25500000920E-02 0.  1.
    10030    2    1    2    0    0  0.00000000000E+00  0.00000000000E+00  0.43095040460E+03  0.26553427695E+04  0.26201387315E+04 0.  0.
        5    1    3    3  502    0 -0.92559770804E+03 -0.19491041997E+03 -0.70309056130E+03  0.11785922180E+04  0.46999998093E+01 0.  1.
       -5    1    3    3    0  502  0.92559770804E+03  0.19491041997E+03  0.11340409659E+04  0.14767505515E+04  0.46999998093E+01 0. -1.
</event>
<event>
 5   0  0.4218590E-06  0.2620572E+04  0.7818609E-02  0.8361247E-01
        1   -1    0    0  501    0  0.00000000000E+00  0.00000000000E+00  0.15112196840E+04  0.15112196840E+04  0.50400001928E-02 0. -1.
       -1   -1    0    0    0  501  0.00000000000E+00  0.00000000000E+00 -0.11360684000E+04  0.11360684000E+04  0.50400001928E-02 0.  1.
    10030    2    1    2    0    0  0.00000000000E+00  0.00000000000E+00  0.37515128405E+03  0.26472880840E+04  0.26205716387E+04 0.  0.
        1    1    3    3  502    0 -0.93780578182E+03 -0.88838748793E+03  0.40921367972E+03  0.13550527107E+04  0.50400001928E-02 0.  1.
       -1    1    3    3    0  502  0.93780578182E+03  0.88838748793E+03 -0.34062395672E+02  0.12922353733E+04  0.50400001928E-02 0. -1.
</event>
<event>
 5   0  0.1085061E-05  0.2588118E+04  0.7818609E-02  0.8372248E-01
       -2   -1    0    0    0  501  0.00000000000E+00  0.00000000000E+00  0.84012035778E+03  0.84012035779E+03  0.25500000920E-02 0.  1.
        2   -1    0    0  501    0  0.00000000000E+00  0.00000000000E+00 -0.19932725231E+04  0.19932725231E+04  0.25500000920E-02 0. -1.
    10030    2    1    2    0    0  0.00000000000E+00  0.00000000000E+00 -0.11531521653E+04  0.28333928809E+04  0.25881181003E+04 0.  0.
        1    1    3    3  502    0  0.10136532381E+04 -0.75454808028E+03 -0.88184434612E+03  0.15409364501E+04  0.50400001928E-02 0.  1.
       -1    1    3    3    0  502 -0.10136532381E+04  0.75454808028E+03 -0.27130781918E+03  0.12924564307E+04  0.50400001928E-02 0. -1.
</event>
<event>
 5   0  0.4415080E-06  0.2572906E+04  0.7818609E-02  0.8377463E-01
       -1   -1    0    0    0  501  0.00000000000E+00  0.00000000000E+00  0.15667767467E+04  0.15667767467E+04  0.50400001928E-02 0.  1.
        1   -1    0    0  501    0  0.00000000000E+00  0.00000000000E+00 -0.10562844117E+04  0.10562844117E+04  0.50400001928E-02 0. -1.
    10030    2    1    2    0    0  0.00000000000E+00  0.00000000000E+00  0.51049233506E+03  0.26230611584E+04  0.25729064143E+04 0.  0.
        2    1    3    3  502    0  0.83066364988E+03 -0.91598803118E+03 -0.10653135646E+03  0.12411225171E+04  0.25500000920E-02 0. -1.
       -2    1    3    3    0  502 -0.83066364988E+03  0.91598803118E+03  0.61702369153E+03  0.13819386413E+04  0.25500000920E-02 0.  1.
</event>
<event>
 5   0  0.4415080E-06  0.2485516E+04  0.7818609E-02  0.8408164E-01
       -1   -1    0    0    0  501  0.00000000000E+00  0.00000000000E+00  0.96487538624E+03  0.96487538625E+03  0.50400001928E-02 0.  1.
        1   -1    0    0  501    0  0.00000000000E+00  0.00000000000E+00 -0.16006698523E+04  0.16006698523E+04  0.50400001928E-02 0. -1.
    10030    2    1    2    0    0  0.00000000000E+00  0.00000000000E+00 -0.63579446601E+03  0.25655452385E+04  0.24855155940E+04 0.  0.
        2    1    3    3  502    0  0.12154267633E+04 -0.14177058708E+03 -0.93917728252E+02  0.12272659272E+04  0.25500000920E-02 0.  1.
       -2    1    3    3    0  502 -0.12154267633E+04  0.14177058708E+03 -0.54187673776E+03  0.13382793114E+04  0.25500000920E-02 0. -1.
</event>
<event>
 5   0  0.4361864E-06  0.2610239E+04  0.7818609E-02  0.8364731E-01
       -1   -1    0    0    0  501  0.00000000000E+00  0.00000000000E+00  0.17872761534E+04  0.17872761534E+04  0.50400001928E-02 0. -1.
        1   -1    0    0  501    0  0.00000000000E+00  0.00000000000E+00 -0.95303531064E+03  0.95303531065E+03  0.50400001928E-02 0.  1.
    10030    2    1    2    0    0  0.00000000000E+00  0.00000000000E+00  0.83424084272E+03  0.27403114640E+04  0.26102392871E+04 0.  0.
        3    1    3    3  502    0  0.85852114209E+03  0.13580676274E+03 -0.60496226735E+03  0.10590001810E+04  0.10100000352E+00 0.  1.
       -3    1    3    3    0  502 -0.85852114209E+03 -0.13580676274E+03  0.14392031101E+04  0.16813112830E+04  0.10100000352E+00 0. -1.
</event>
<event>
 5   0  0.4597705E-06  0.2588961E+04  0.7818609E-02  0.8371960E-01
        1   -1    0    0  501    0  0.00000000000E+00  0.00000000000E+00  0.15164171427E+04  0.15164171428E+04  0.50400001928E-02 0. -1.
       -1   -1    0    0    0  501  0.00000000000E+00  0.00000000000E+00 -0.11050258859E+04  0.11050258859E+04  0.50400001928E-02 0.  1.
    10030    2    1    2    0    0  0.00000000000E+00  0.00000000000E+00  0.41139125684E+03  0.26214430287E+04  0.25889613335E+04 0.  0.
        5    1    3    3  502    0 -0.23947053563E+03  0.26390742007E+03 -0.10543712009E+04  0.11129752841E+04  0.46999998093E+01 0.  1.
       -5    1    3    3    0  502  0.23947053563E+03 -0.26390742007E+03  0.14657624577E+04  0.15084677445E+04  0.46999998093E+01 0. -1.
</event>
<event>
 5   0  0.4464297E-06  0.2633906E+04  0.7818609E-02  0.8356774E-01
        1   -1    0    0  501    0  0.00000000000E+00  0.00000000000E+00  0.14217137381E+04  0.14217137381E+04  0.50400001928E-02 0. -1.
       -1   -1    0    0    0  501  0.00000000000E+00  0.00000000000E+00 -0.12199117884E+04  0.12199117884E+04  0.50400001928E-02 0.  1.
    10030    2    1    2    0    0  0.00000000000E+00  0.00000000000E+00  0.20180194964E+03  0.26416255265E+04  0.26339061098E+04 0.  0.
        4    1    3    3  502    0 -0.35914253670E+03 -0.10777296474E+04 -0.56729422449E+03  0.12697672640E+04  0.12699999809E+01 0.  1.
       -4    1    3    3    0  502  0.35914253670E+03  0.10777296474E+04  0.76909617413E+03  0.13718582626E+04  0.12699999809E+01 0. -1.
</event>
<event>
 5   0  0.1116310E-05  0.2603712E+04  0.7818609E-02  0.8366941E-01
        2   -1    0    0  501    0  0.00000000000E+00  0.00000000000E+00  0.10338758929E+04  0.10338758929E+04  0.25500000920E-02 0. -1.
       -2   -1    0    0    0  501  0.00000000000E+00  0.00000000000E+00 -0.16392969474E+04  0.16392969474E+04  0.25500000920E-02 0.  1.
    10030    2    1    2    0    0  0.00000000000E+00  0.00000000000E+00 -0.60542105454E+03  0.26731728404E+04  0.26037124229E+04 0.  0.
        4    1    3    3  502    0 -0.11584205878E+04  0.54535223264E+03 -0.54453756697E+03  0.13913554868E+04  0.12699999809E+01 0. -1.
       -4    1    3    3    0  502  0.11584205878E+04 -0.54535223264E+03 -0.60883487563E+02  0.12818173536E+04  0.12699999809E+01 0.  1.
</event>
<event>
 5   0  0.1085061E-05  0.2603532E+04  0.7818609E-02  0.8367002E-01
        2   -1    0    0  501    0  0.00000000000E+00  0.00000000000E+00  0.18954571239E+04  0.18954571239E+04  0.25500000920E-02 0. -1.
       -2   -1    0    0    0  501  0.00000000000E+00  0.00000000000E+00 -0.89402990731E+03  0.89402990732E+03  0.25500000920E-02 0.  1.
    10030    2    1    2    0    0  0.00000000000E+00  0.00000000000E+00  0.10014272166E+04  0.27894870313E+04  0.26035324902E+04 0.  0.
        1    1    3    3  502    0  0.12606969998E+04 -0.27327792481E+03  0.31342083597E+03  0.13275053182E+04  0.50400001928E-02 0. -1.
       -1    1    3    3    0  502 -0.12606969998E+04  0.27327792481E+03  0.68800638065E+03  0.14619817130E+04  0.50400001928E-02 0.  1.
</event>
<event>
 5   0  0.1085255E-05  0.2584520E+04  0.7818609E-02  0.8373478E-01
       -2   -1    0    0    0  501  0.00000000000E+00  0.00000000000E+00  0.21251001206E+04  0.21251001206E+04  0.25500000920E-02 0.  1.
        2   -1    0    0  501    0  0.00000000000E+00  0.00000000000E+00 -0.78581539213E+03  0.78581539213E+03  0.25500000920E-02 0. -1.
    10030    2    1    2    0    0  0.00000000000E+00  0.00000000000E+00  0.13392847285E+04  0.29109155127E+04  0.25845203691E+04 0.  0.
        5    1    3    3  502    0  0.79001909100E+03 -0.82133604749E+03  0.13558388557E+04  0.17711702797E+04  0.46999998093E+01 0.  1.
       -5    1    3    3    0  502 -0.79001909100E+03  0.82133604749E+03 -0.16554127257E+02  0.11397452330E+04  0.46999998093E+01 0. -1.
</event>
<event>
 5   0  0.1086507E-05  0.2615159E+04  0.7818609E-02  0.8363070E-01
       -2   -1    0    0    0  501  0.00000000000E+00  0.00000000000E+00  0.15346095360E+04  0.15346095360E+04  0.25500000920E-02 0. -1.
        2   -1    0    0  501    0  0.00000000000E+00  0.00000000000E+00 -0.11141363464E+04  0.11141363464E+04  0.25500000920E-02 0.  1.
    10030    2    1    2    0    0  0.00000000000E+00  0.00000000000E+00  0.42047318964E+03  0.26487458824E+04  0.26151590862E+04 0.  0.
        2    1    3    3  502    0 -0.96692977134E+03 -0.50874510099E+03  0.93778620770E+03  0.14398672619E+04  0.25500000920E-02 0. -1.
       -2    1    3    3    0  502  0.96692977134E+03  0.50874510099E+03 -0.51731301805E+03  0.12088786205E+04  0.25500000920E-02 0.  1.
</event>
<event>
 5   0  0.4415080E-06  0.2604614E+04  0.7818609E-02  0.8366636E-01
        1   -1    0    0  501    0  0.00000000000E+00  0.00000000000E+00  0.24678206788E+04  0.24678206788E+04  0.50400001928E-02 0.  1.
       -1   -1    0    0    0  501  0.00000000000E+00  0.00000000000E+00 -0.68724721802E+03  0.68724721804E+03  0.50400001928E-02 0. -1.
    10030    2    1    2    0    0  0.00000000000E+00  0.00000000000E+00  0.17805734608E+04  0.31550678969E+04  0.26046135192E+04 0.  0.
        2    1    3    3  502    0  0.17397752933E+03  0.10212016594E+04  0.18463095749E+04  0.21170687415E+04  0.25500000920E-02 0.  1.
       -2    1    3    3    0  502 -0.17397752933E+03 -0.10212016594E+04 -0.65736114125E+02  0.10379991554E+04  0.25500000920E-02 0. -1.
</event>
<event>
 5   0  0.4218590E-06  0.2590071E+04  0.7818609E-02  0.8371582E-01
       -1   -1    0    0    0  501  0.00000000000E+00  0.00000000000E+00  0.10055765155E+04  0.10055765155E+04  0.50400001928E-02 0. -1.
        1   -1    0    0  501    0  0.00000000000E+00  0.00000000000E+00 -0.16678161950E+04  0.16678161950E+04  0.50400001928E-02 0.  1.
    10030    2    1    2    0    0  0.00000000000E+00  0.00000000000E+00 -0.66223967950E+03  0.26733927106E+04  0.25900708855E+04 0.  0.
        1    1    3    3  502    0  0.62580009132E+03 -0.82861590558E+03  0.46765330025E+03  0.11388282059E+04  0.50400001928E-02 0. -1.
       -1    1    3    3    0  502 -0.62580009132E+03  0.82861590558E+03 -0.11298929798E+04  0.15345645047E+04  0.50400001928E-02 0.  1.
</event>
<event>
 5   0  0.1085255E-05  0.2605241E+04  0.7818609E-02  0.8366423E-01
        2   -1    0    0  501    0  0.00000000000E+00  0.00000000000E+00  0.15536274925E+04  0.15536274925E+04  0.25500000920E-02 0.  1.
       -2   -1    0    0    0  501  0.00000000000E+00  0.00000000000E+00 -0.10921663332E+04  0.10921663332E+04  0.25500000920E-02 0. -1.
    10030    2    1    2    0    0  0.00000000000E+00  0.00000000000E+00  0.46146115927E+03  0.26457938256E+04  0.26052405966E+04 0.  0.
        5    1    3    3  502    0 -0.11177854714E+04 -0.48174352726E+03 -0.24047056611E+03  0.12407132503E+04  0.46999998093E+01 0. -1.
       -5    1    3    3    0  502  0.11177854714E+04  0.48174352726E+03  0.70193172538E+03  0.14050805754E+04  0.46999998093E+01 0.  1.
</event>
<event>
 5   0  0.1085061E-05  0.2606446E+04  0.7818609E-02  0.8366015E-01
        2   -1    0    0  501    0  0.00000000000E+00  0.00000000000E+00  0.10263529326E+04  0.10263529326E+04  0.25500000920E-02 0. -1.
       -2   -1    0    0    0  501  0.00000000000E+00  0.00000000000E+00 -0.16547812330E+04  0.16547812330E+04  0.25500000920E-02 0.  1.
    10030    2    1    2    0    0  0.00000000000E+00  0.00000000000E+00 -0.62842830033E+03  0.26811341656E+04  0.26064455270E+04 0.  0.
        1    1    3    3  502    0  0.18701964492E+03  0.48168229604E+03  0.91647876652E+03  0.10521062263E+04  0.50400001928E-02 0. -1.
       -1    1    3    3    0  502 -0.18701964492E+03 -0.48168229604E+03 -0.15449070668E+04  0.16290279393E+04  0.50400001928E-02 0.  1.
</event>
<event>
 5   0  0.4597705E-06  0.2569855E+04  0.7818609E-02  0.8378513E-01
        1   -1    0    0  501    0  0.00000000000E+00  0.00000000000E+00  0.32058649954E+04  0.32058649954E+04  0.50400001928E-02 0. -1.
       -1   -1    0    0    0  501  0.00000000000E+00  0.00000000000E+00 -0.51500576836E+03  0.51500576839E+03  0.50400001928E-02 0.  1.
    10030    2    1    2    0    0  0.00000000000E+00  0.00000000000E+00  0.26908592270E+04  0.37208707637E+04  0.25698552218E+04 0.  0.
        5    1    3    3  502    0 -0.29289945277E+03  0.11624498991E+04  0.20151274530E+04  0.23447474489E+04  0.46999998093E+01 0. -1.
       -5    1    3    3    0  502  0.29289945277E+03 -0.11624498991E+04  0.67573177397E+03  0.13761233148E+04  0.46999998093E+01 0.  1.
</event>
<event>
 5   0  0.4361864E-06  0.2535293E+04  0.7818609E-02  0.8390519E-01
        1   -1    0    0  501    0  0.00000000000E+00  0.00000000000E+00  0.16414871311E+04  0.16414871311E+04  0.50400001928E-02 0.  1.
       -1   -1    0    0    0  501  0.00000000000E+00  0.00000000000E+00 -0.97894648663E+03  0.97894648664E+03  0.50400001928E-02 0. -1.
    10030    2    1    2    0    0  0.00000000000E+00  0.00000000000E+00  0.66254064450E+03  0.26204336178E+04  0.25352933242E+04 0.  0.
        3    1    3    3  502    0 -0.57556170973E+03 -0.10886656243E+04  0.20397564154E+02  0.12316169023E+04  0.10100000352E+00 0. -1.
       -3    1    3    3    0  502  0.57556170973E+03  0.10886656243E+04  0.64214308035E+03  0.13888167155E+04  0.10100000352E+00 0.  1.
</event>
<event>
 5   0  0.1085255E-05  0.2595410E+04  0.7818609E-02  0.8369762E-01
       -2   -1    0    0    0  501  0.00000000000E+00  0.00000000000E+00  0.13573359015E+04  0.13573359015E+04  0.25500000920E-02 0. -1.
        2   -1    0    0  501    0  0.00000000000E+00  0.00000000000E+00 -0.12406936625E+04  0.12406936625E+04  0.25500000920E-02 0.  1.
    10030    2    1    2    0    0  0.00000000000E+00  0.00000000000E+00  0.11664223905E+03  0.25980295640E+04  0.25954098334E+04 0.  0.
        5    1    3    3  502    0  0.60825995872E+03 -0.11391554429E+04  0.18635902434E+03  0.13047632262E+04  0.46999998093E+01 0. -1.
       -5    1    3    3    0  502 -0.60825995872E+03  0.11391554429E+04 -0.69716785293E+02  0.12932663378E+04  0.46999998093E+01 0.  1.
</event>
<event>
 5   0  0.4361864E-06  0.2561172E+04  0.7818609E-02  0.8381511E-01
       -1   -1    0    0    0  501  0.00000000000E+00  0.00000000000E+00  0.17181227668E+04  0.17181227669E+04  0.50400001928E-02 0.  1.
        1   -1    0    0  501    0  0.00000000000E+00  0.00000000000E+00 -0.95447232370E+03  0.95447232371E+03  0.50400001928E-02 0. -1.
    10030    2    1    2    0    0  0.00000000000E+00  0.00000000000E+00  0.76365044315E+03  0.26725950906E+04  0.25611720986E+04 0.  0.
        3    1    3    3  502    0  0.97287345797E+03 -0.67324311009E+03 -0.12955762984E+03  0.11901782388E+04  0.10100000352E+00 0. -1.
       -3    1    3    3    0  502 -0.97287345797E+03  0.67324311009E+03  0.89320807298E+03  0.14824168517E+04  0.10100000352E+00 0.  1.
</event>
<event>
 5   0  0.1085255E-05  0.2608219E+04  0.7818609E-02  0.8365415E-01
       -2   -1    0    0    0  501  0.00000000000E+00  0.00000000000E+00  0.88253974439E+03  0.88253974439E+03  0.25500000920E-02 0. -1.
        2   -1    0    0  501    0  0.00000000000E+00  0.00000000000E+00 -0.19270532352E+04  0.19270532352E+04  0.25500000920E-02 0.  1.
    10030    2    1    2    0    0  0.00000000000E+00  0.00000000000E+00 -0.10445134908E+04  0.28095929796E+04  0.26082186025E+04 0.  0.
        5    1    3    3  502    0  0.53236784039E+03  0.51401574236E+03 -0.16789647256E+04  0.18348221551E+04  0.46999998093E+01 0.  1.
       -5    1    3    3    0  502 -0.53236784039E+03 -0.51401574236E+03  0.63445123485E+03  0.97477082448E+03  0.46999998093E+01 0. -1.
</event>
<event>
 5   0  0.4415080E-06  0.2607897E+04  0.7818609E-02  0.8365524E-01
        1   -1    0    0  501    0  0.00000000000E+00  0.00000000000E+00  0.12381998579E+04  0.12381998579E+04  0.50400001928E-02 0. -1.
       -1   -1    0    0    0  501  0.00000000000E+00  0.00000000000E+00 -0.13731883668E+04  0.13731883668E+04  0.50400001928E-02 0.  1.
    10030    2    1    2    0    0  0.00000000000E+00  0.00000000000E+00 -0.13498850897E+03  0.26113882247E+04  0.26078969616E+04 0.  0.
        2    1    3    3  502    0  0.16072910795E+03  0.47348041555E+03 -0.12733755530E+04  0.13680288188E+04  0.25500000920E-02 0.  1.
       -2    1    3    3    0  502 -0.16072910795E+03 -0.47348041555E+03  0.11383870441E+04  0.12433594059E+04  0.25500000920E-02 0. -1.
</event>
<event>
 5   0  0.1085061E-05  0.2604355E+04  0.7818609E-02  0.8366723E-01
        2   -1    0    0  501    0  0.00000000000E+00  0.00000000000E+00  0.15595684773E+04  0.15595684773E+04  0.25500000920E-02 0. -1.
       -2   -1    0    0    0  501  0.00000000000E+00  0.00000000000E+00 -0.10872666383E+04  0.10872666383E+04  0.25500000920E-02 0.  1.
    10030    2    1    2    0    0  0.00000000000E+00  0.00000000000E+00  0.47230183901E+03  0.26468351156E+04  0.26043554101E+04 0.  0.
        1    1    3    3  502    0 -0.73893755799E+03  0.51069867319E+03  0.11943036674E+04  0.14943905445E+04  0.50400001928E-02 0. -1.
       -1    1    3    3    0  502  0.73893755799E+03 -0.51069867319E+03 -0.72200182839E+03  0.11524445712E+04  0.50400001928E-02 0.  1.
</event>
<event>
 5   0  0.4415080E-06  0.2517981E+04  0.7818609E-02  0.8396608E-01
       -1   -1    0    0    0  501  0.00000000000E+00  0.00000000000E+00  0.66445580221E+03  0.66445580223E+03  0.50400001928E-02 0.  1.
        1   -1    0    0  501    0  0.00000000000E+00  0.00000000000E+00 -0.23854968849E+04  0.23854968849E+04  0.50400001928E-02 0. -1.
    10030    2    1    2    0    0  0.00000000000E+00  0.00000000000E+00 -0.17210410827E+04  0.30499526872E+04  0.25179811329E+04 0.  0.
        2    1    3    3  502    0 -0.85527259510E+03  0.76115961114E+03 -0.22624786379E+03  0.11670660913E+04  0.25500000920E-02 0.  1.
       -2    1    3    3    0  502  0.85527259510E+03 -0.76115961114E+03 -0.14947932189E+04  0.18828865959E+04  0.25500000920E-02 0. -1.
</event>
<event>
 5   0  0.1116310E-05  0.2572155E+04  0.7818609E-02  0.8377721E-01
        2   -1    0    0  501    0  0.00000000000E+00  0.00000000000E+00  0.13887198117E+04  0.13887198117E+04  0.25500000920E-02 0. -1.
       -2   -1    0    0    0  501  0.00000000000E+00  0.00000000000E+00 -0.11910218811E+04  0.11910218811E+04  0.25500000920E-02 0.  1.
    10030    2    1    2    0    0  0.00000000000E+00  0.00000000000E+00  0.19769793069E+03  0.25797416928E+04  0.25721552694E+04 0.  0.
        4    1    3    3  502    0  0.56506190607E+03  0.10280305033E+04 -0.42982279717E+03  0.12493562035E+04  0.12699999809E+01 0.  1.
       -4    1    3    3    0  502 -0.56506190607E+03 -0.10280305033E+04  0.62752072786E+03  0.13303854893E+04  0.12699999809E+01 0. -1.
</event>
<event>
 5   0  0.4464297E-06  0.2592977E+04  0.7818609E-02  0.8370590E-01
       -1   -1    0    0    0  501  0.00000000000E+00  0.00000000000E+00  0.94614095342E+03  0.94614095343E+03  0.50400001928E-02 0. -1.
        1   -1    0    0  501    0  0.00000000000E+00  0.00000000000E+00 -0.17765672639E+04  0.17765672639E+04  0.50400001928E-02 0.  1.
    10030    2    1    2    0    0  0.00000000000E+00  0.00000000000E+00 -0.83042631046E+03  0.27227082173E+04  0.25929774738E+04 0.  0.
        4    1    3    3  502    0 -0.19733494734E+03  0.41918322929E+03  0.85624708068E+03  0.97355859466E+03  0.12699999809E+01 0. -1.
       -4    1    3    3    0  502  0.19733494734E+03 -0.41918322929E+03 -0.16866733911E+04  0.17491496227E+04  0.12699999809E+01 0.  1.
</event>
<event>
 5   0  0.4415080E-06  0.2635409E+04  0.7818609E-02  0.8356272E-01
        1   -1    0    0  501    0  0.00000000000E+00  0.00000000000E+00  0.19126882432E+04  0.19126882433E+04  0.50400001928E-02 0. -1.
       -1   -1    0    0    0  501  0.00000000000E+00  0.00000000000E+00 -0.90780370309E+03  0.90780370311E+03  0.50400001928E-02 0.  1.
    10030    2    1    2    0    0  0.00000000000E+00  0.00000000000E+00  0.10048845402E+04  0.28204919464E+04  0.26354092434E+04 0.  0.
        2    1    3    3  502    0 -0.12428673754E+04 -0.29748942807E+03  0.15875669771E+03  0.12877977177E+04  0.25500000920E-02 0. -1.
       -2    1    3    3    0  502  0.12428673754E+04  0.29748942807E+03  0.84612784244E+03  0.15326942286E+04  0.25500000920E-02 0.  1.
</event>
<event>
 5   0  0.4597705E-06  0.2584104E+04  0.7818609E-02  0.8373621E-01
        1   -1    0    0  501    0  0.00000000000E+00  0.00000000000E+00  0.15091934856E+04  0.15091934856E+04  0.50400001928E-02 0.  1.
       -1   -1    0    0    0  501  0.00000000000E+00  0.00000000000E+00 -0.11061529744E+04  0.11061529744E+04  0.50400001928E-02 0. -1.
    10030    2    1    2    0    0  0.00000000000E+00  0.00000000000E+00  0.40304051119E+03  0.26153464601E+04  0.25841043811E+04 0.  0.
        5    1    3    3  502    0  0.16008766798E+03 -0.50173442270E+03 -0.99257934720E+03  0.11236553488E+04  0.46999998093E+01 0. -1.
       -5    1    3    3    0  502 -0.16008766798E+03  0.50173442270E+03  0.13956198584E+04  0.14916911113E+04  0.46999998093E+01 0.  1.
</event>
<event>
 5   0  0.4415080E-06  0.2612675E+04  0.7818609E-02  0.8363909E-01
        1   -1    0    0  501    0  0.00000000000E+00  0.00000000000E+00  0.19295987957E+04  0.19295987958E+04  0.50400001928E-02 0. -1.
       -1   -1    0    0    0  501  0.00000000000E+00  0.00000000000E+00 -0.88438956178E+03  0.88438956180E+03  0.50400001928E-02 0.  1.
    10030    2    1    2    0    0  0.00000000000E+00  0.00000000000E+00  0.10452092340E+04  0.28139883576E+04  0.26126745174E+04 0.  0.
        2    1    3    3  502    0  0.49662248112E+03 -0.57205112427E+03 -0.62365517875E+03  0.98123501748E+03  0.25500000920E-02 0.  1.
       -2    1    3    3    0  502 -0.49662248112E+03  0.57205112427E+03  0.16688644127E+04  0.18327533401E+04  0.25500000920E-02 0. -1.
</event>
<event>
 5   0  0.4361864E-06  0.2597518E+04  0.7818609E-02  0.8369045E-01
        1   -1    0    0  501    0  0.00000000000E+00  0.00000000000E+00  0.13148471766E+04  0.13148471766E+04  0.50400001928E-02 0. -1.
       -1   -1    0    0    0  501  0.00000000000E+00  0.00000000000E+00 -0.12828681538E+04  0.12828681538E+04  0.50400001928E-02 0.  1.
    10030    2    1    2    0    0  0.00000000000E+00  0.00000000000E+00  0.31979022759E+02  0.25977153304E+04  0.25975184850E+04 0.  0.
        3    1    3    3  502    0  0.50275161747E+03 -0.46804393029E+03 -0.10863422900E+04  0.12852874740E+04  0.10100000352E+00 0.  1.
       -3    1    3    3    0  502 -0.50275161747E+03  0.46804393029E+03  0.11183213128E+04  0.13124278564E+04  0.10100000352E+00 0. -1.
</event>
<event>
 5   0  0.4597705E-06  0.2596861E+04  0.7818609E-02  0.8369268E-01
       -1   -1    0    0    0  501  0.00000000000E+00  0.00000000000E+00  0.91891743723E+03  0.91891743725E+03  0.50400001928E-02 0.  1.
        1   -1    0    0  501    0  0.00000000000E+00  0.00000000000E+00 -0.18346821898E+04  0.18346821898E+04  0.50400001928E-02 0. -1.
    10030    2    1    2    0    0  0.00000000000E+00  0.00000000000E+00 -0.91576475254E+03  0.27535996270E+04  0.25968607633E+04 0.  0.
        5    1    3    3  502    0 -0.20401386640E+03 -0.12792406491E+04 -0.36410777795E+03  0.13456131911E+04  0.46999998093E+01 0. -1.
       -5    1    3    3    0  502  0.20401386640E+03  0.12792406491E+04 -0.55165697460E+03  0.14079864359E+04  0.46999998093E+01 0.  1.
</event>
<event>
 5   0  0.4597705E-06  0.2608345E+04  0.7818609E-02  0.8365372E-01
       -1   -1    0    0    0  501  0.00000000000E+00  0.00000000000E+00  0.77984414499E+03  0.77984414501E+03  0.50400001928E-02 0. -1.
        1   -1    0    0  501    0  0.00000000000E+00  0.00000000000E+00 -0.21810328877E+04  0.21810328877E+04  0.50400001928E-02 0.  1.
    10030    2    1    2    0    0  0.00000000000E+00  0.00000000000E+00 -0.14011887427E+04  0.29608770327E+04  0.26083448603E+04 0.  0.
        5    1    3    3  502    0  0.45328354045E+02  0.12469334406E+04 -0.26991395948E+03  0.12766257480E+04  0.46999998093E+01 0. -1.
       -5    1    3    3    0  502 -0.45328354045E+02 -0.12469334406E+04 -0.11312747832E+04  0.16842512847E+04  0.46999998093E+01 0.  1.
</event>
<event>
 5   0  0.4597705E-06  0.2602889E+04  0.7818609E-02  0.8367221E-01
        1   -1    0    0  501    0  0.00000000000E+00  0.00000000000E+00  0.24101348529E+04  0.24101348529E+04  0.50400001928E-02 0.  1.
       -1   -1    0    0    0  501  0.00000000000E+00  0.00000000000E+00 -0.70276472464E+03  0.70276472466E+03  0.50400001928E-02 0. -1.
    10030    2    1    2    0    0  0.00000000000E+00  0.00000000000E+00  0.17073701283E+04  0.31128995776E+04  0.26028889767E+04 0.  0.
        5    1    3    3  502    0 -0.37448988654E+03 -0.34328242772E+03 -0.57927398412E+03  0.77049720245E+03  0.46999998093E+01 0. -1.
       -5    1    3    3    0  502  0.37448988654E+03  0.34328242772E+03  0.22866441124E+04  0.23424023751E+04  0.46999998093E+01 0.  1.
</event>
<event>
 5   0  0.1116310E-05  0.2610306E+04  0.7818609E-02  0.8364709E-01
        2   -1    0    0  501    0  0.00000000000E+00  0.00000000000E+00  0.27228686830E+04  0.27228686830E+04  0.25500000920E-02 0.  1.
       -2   -1    0    0    0  501  0.00000000000E+00  0.00000000000E+00 -0.62559930947E+03  0.62559930948E+03  0.25500000920E-02 0. -1.
    10030    2    1    2    0    0  0.00000000000E+00  0.00000000000E+00  0.20972693735E+04  0.33484679925E+04  0.26103063176E+04 0.  0.
        4    1    3    3  502    0 -0.87782463612E+03 -0.27218940834E+03 -0.14011544583E+03  0.92967581277E+03  0.12699999809E+01 0. -1.
       -4    1    3    3    0  502  0.87782463612E+03  0.27218940834E+03  0.22373848194E+04  0.24187921797E+04  0.12699999809E+01 0.  1.
</event>
<event>
 5   0  0.4464297E-06  0.2604357E+04  0.7818609E-02  0.8366723E-01
       -1   -1    0    0    0  501  0.00000000000E+00  0.00000000000E+00  0.26396550588E+04  0.26396550588E+04  0.50400001928E-02 0.  1.
        1   -1    0    0  501    0  0.00000000000E+00  0.00000000000E+00 -0.64238253403E+03  0.64238253405E+03  0.50400001928E-02 0. -1.
    10030    2    1    2    0    0  0.00000000000E+00  0.00000000000E+00  0.19972725248E+04  0.32820375929E+04  0.26043565852E+04 0.  0.
        4    1    3    3  502    0  0.10659404668E+04 -0.64901114967E+03  0.14671603387E+04  0.19261374882E+04  0.12699999809E+01 0.  1.
       -4    1    3    3    0  502 -0.10659404668E+04  0.64901114967E+03  0.53011218613E+03  0.13559001047E+04  0.12699999809E+01 0. -1.
</event>
<event>
 5   0  0.1136881E-05  0.2597026E+04  0.7818609E-02  0.8369212E-01
       -2   -1    0    0    0  501  0.00000000000E+00  0.00000000000E+00  0.16460680839E+04  0.16460680839E+04  0.25500000920E-02 0. -1.
        2   -1    0    0  501    0  0.00000000000E+00  0.00000000000E+00 -0.10243415626E+04  0.10243415626E+04  0.25500000920E-02 0.  1.
    10030    2    1    2    0    0  0.00000000000E+00  0.00000000000E+00  0.62172652127E+03  0.26704096465E+04  0.25970259554E+04 0.  0.
        3    1    3    3  502    0 -0.12087638664E+04  0.26195042622E+03 -0.95796168728E+02  0.12405261088E+04  0.10100000352E+00 0.  1.
       -3    1    3    3    0  502  0.12087638664E+04 -0.26195042622E+03  0.71752268999E+03  0.14298835377E+04  0.10100000352E+00 0. -1.
</event>
<event>
 5   0  0.1085061E-05  0.2585421E+04  0.7818609E-02  0.8373170E-01
       -2   -1    0    0    0  501  0.00000000000E+00  0.00000000000E+00  0.97836272515E+03  0.97836272515E+03  0.25500000920E-02 0.  1.
        2   -1    0    0  501    0  0.00000000000E+00  0.00000000000E+00 -0.17080581882E+04  0.17080581882E+04  0.25500000920E-02 0. -1.
    10030    2    1    2    0    0  0.00000000000E+00  0.00000000000E+00 -0.72969546307E+03  0.26864209134E+04  0.25854210208E+04 0.  0.
        1    1    3    3  502    0 -0.88660930037E+03  0.30535005884E+03 -0.12894322686E+04  0.15943494865E+04  0.50400001928E-02 0. -1.
       -1    1    3    3    0  502  0.88660930037E+03 -0.30535005884E+03  0.55973680549E+03  0.10920714269E+04  0.50400001928E-02 0.  1.
</event>
<event>
 5   0  0.4464297E-06  0.2616541E+04  0.7818609E-02  0.8362604E-01
        1   -1    0    0  501    0  0.00000000000E+00  0.00000000000E+00  0.12754437337E+04  0.12754437337E+04  0.50400001928E-02 0.  1.
       -1   -1    0    0    0  501  0.00000000000E+00  0.00000000000E+00 -0.13419416859E+04  0.13419416859E+04  0.50400001928E-02 0. -1.
    10030    2    1    2    0    0  0.00000000000E+00  0.00000000000E+00 -0.66497952130E+02  0.26173854196E+04  0.26165405514E+04 0.  0.
        4    1    3    3  502    0 -0.71444036813E+03 -0.37021340591E+03  0.99862978788E+03  0.12824765385E+04  0.12699999809E+01 0.  1.
       -4    1    3    3    0  502  0.71444036813E+03  0.37021340591E+03 -0.10651277400E+04  0.13349088812E+04  0.12699999809E+01 0. -1.
</event>
<event>
 5   0  0.1085061E-05  0.2584640E+04  0.7818609E-02  0.8373437E-01
       -2   -1    0    0    0  501  0.00000000000E+00  0.00000000000E+00  0.16444756440E+04  0.16444756440E+04  0.25500000920E-02 0.  1.
        2   -1    0    0  501    0  0.00000000000E+00  0.00000000000E+00 -0.10155768969E+04  0.10155768969E+04  0.25500000920E-02 0. -1.
    10030    2    1    2    0    0  0.00000000000E+00  0.00000000000E+00  0.62889874704E+03  0.26600525409E+04  0.25846403785E+04 0.  0.
        1    1    3    3  502    0 -0.11754082766E+04  0.53163012051E+03  0.39334282416E+03  0.13486785307E+04  0.50400001928E-02 0.  1.
       -1    1    3    3    0  502  0.11754082766E+04 -0.53163012051E+03  0.23555592288E+03  0.13113740102E+04  0.50400001928E-02 0. -1.
</event>
<event>
 5   0  0.1136881E-05  0.2605884E+04  0.7818609E-02  0.8366205E-01
       -2   -1    0    0    0  501  0.00000000000E+00  0.00000000000E+00  0.11048704131E+04  0.11048704131E+04  0.25500000920E-02 0. -1.
        2   -1    0    0  501    0  0.00000000000E+00  0.00000000000E+00 -0.15365221705E+04  0.15365221705E+04  0.25500000920E-02 0.  1.
    10030    2    1    2    0    0  0.00000000000E+00  0.00000000000E+00 -0.43165175742E+03  0.26413925837E+04  0.26058840230E+04 0.  0.
        3    1    3    3  502    0 -0.65143591648E+03  0.23546918532E+03  0.90277097031E+03  0.11378971507E+04  0.10100000352E+00 0. -1.
       -3    1    3    3    0  502  0.65143591648E+03 -0.23546918532E+03 -0.13344227277E+04  0.15034954330E+04  0.10100000352E+00 0.  1.
</event>
<event>
 5   0  0.4415080E-06  0.2586423E+04  0.7818609E-02  0.8372827E-01
        1   -1    0    0  501    0  0.00000000000E+00  0.00000000000E+00  0.13504273914E+04  0.13504273914E+04  0.50400001928E-02 0. -1.
       -1   -1    0    0    0  501  0.00000000000E+00  0.00000000000E+00 -0.12384202081E+04  0.12384202081E+04  0.50400001928E-02 0.  1.
    10030    2    1    2    0    0  0.00000000000E+00  0.00000000000E+00  0.11200718333E+03  0.25888475995E+04  0.25864234542E+04 0.  0.
        2    1    3    3  502    0  0.81480996418E+03 -0.37595844151E+03 -0.87607085073E+03  0.12540973499E+04  0.25500000920E-02 0. -1.
       -2    1    3    3    0  502 -0.81480996418E+03  0.37595844151E+03  0.98807803406E+03  0.13347502496E+04  0.25500000920E-02 0.  1.
</event>
<event>
 5   0  0.1136881E-05  0.2583282E+04  0.7818609E-02  0.8373902E-01
       -2   -1    0    0    0  501  0.00000000000E+00  0.00000000000E+00  0.21384919589E+04  0.21384919589E+04  0.25500000920E-02 0.  1.
        2   -1    0    0  501    0  0.00000000000E+00  0.00000000000E+00 -0.78014601474E+03  0.78014601475E+03  0.25500000920E-02 0. -1.
    10030    2    1    2    0    0  0.00000000000E+00  0.00000000000E+00  0.13583459441E+04  0.29186379736E+04  0.25832816178E+04 0.  0.
        3    1    3    3  502    0 -0.66011638954E+03  0.10638348339E+04  0.32039969633E+03  0.12923444499E+04  0.10100000352E+00 0. -1.
       -3    1    3    3    0  502  0.66011638954E+03 -0.10638348339E+04  0.10379462478E+04  0.16262935237E+04  0.10100000352E+00 0.  1.
</event>
<event>
 5   0  0.4218590E-06  0.2497409E+04  0.7818609E-02  0.8403909E-01
        1   -1    0    0  501    0  0.00000000000E+00  0.00000000000E+00  0.18366121660E+04  0.18366121660E+04  0.50400001928E-02 0.  1.
       -1   -1    0    0    0  501  0.00000000000E+00  0.00000000000E+00 -0.84898877562E+03  0.84898877564E+03  0.50400001928E-02 0. -1.
    10030    2    1    2    0    0  0.00000000000E+00  0.00000000000E+00  0.98762339036E+03  0.26856009416E+04  0.24974091488E+04 0.  0.
        1    1    3    3  502    0  0.26232437190E+03  0.11137702586E+04  0.10314512993E+04  0.15405161628E+04  0.50400001928E-02 0.  1.
       -1    1    3    3    0  502 -0.26232437190E+03 -0.11137702586E+04 -0.43827908905E+02  0.11450847788E+04  0.50400001928E-02 0. -1.
</event>
<event>
 5   0  0.4415080E-06  0.2592950E+04  0.7818609E-02  0.8370600E-01
        1   -1    0    0  501    0  0.00000000000E+00  0.00000000000E+00  0.12973233283E+04  0.12973233283E+04  0.50400001928E-02 0.  1.
       -1   -1    0    0    0  501  0.00000000000E+00  0.00000000000E+00 -0.12956271708E+04  0.12956271708E+04  0.50400001928E-02 0. -1.
    10030    2    1    2    0    0  0.00000000000E+00  0.00000000000E+00  0.16961574744E+01  0.25929504991E+04  0.25929499443E+04 0.  0.
        2    1    3    3  502    0 -0.55071199951E+02  0.57442807479E+03  0.11618164160E+04  0.12972346875E+04  0.25500000920E-02 0.  1.
       -2    1    3    3    0  502  0.55071199951E+02 -0.57442807479E+03 -0.11601202585E+04  0.12957158116E+04  0.25500000920E-02 0. -1.
</event>
<event>
 5   0  0.4218590E-06  0.2610550E+04  0.7818609E-02  0.8364627E-01
        1   -1    0    0  501    0  0.00000000000E+00  0.00000000000E+00  0.13919888594E+04  0.13919888594E+04  0.50400001928E-02 0.  1.
       -1   -1    0    0    0  501  0.00000000000E+00  0.00000000000E+00 -0.12239625207E+04  0.12239625207E+04  0.50400001928E-02 0. -1.
    10030    2    1    2    0    0  0.00000000000E+00  0.00000000000E+00  0.16802633872E+03  0.26159513801E+04  0.26105495154E+04 0.  0.
        1    1    3    3  502    0 -0.12165329364E+04  0.47147287178E+03  0.45162609746E+02  0.13054802624E+04  0.50400001928E-02 0. -1.
       -1    1    3    3    0  502  0.12165329364E+04 -0.47147287178E+03  0.12286372898E+03  0.13104711176E+04  0.50400001928E-02 0.  1.
</event>
<event>
 5   0  0.1085061E-05  0.2332838E+04  0.7818609E-02  0.8465085E-01
        2   -1    0    0  501    0  0.00000000000E+00  0.00000000000E+00  0.18844773095E+04  0.18844773095E+04  0.25500000920E-02 0. -1.
       -2   -1    0    0    0  501  0.00000000000E+00  0.00000000000E+00 -0.72196869086E+03  0.72196869087E+03  0.25500000920E-02 0.  1.
    10030    2    1    2    0    0  0.00000000000E+00  0.00000000000E+00  0.11625086186E+04  0.26064460003E+04  0.23328382851E+04 0.  0.
        1    1    3    3  502    0 -0.24726946734E+03  0.57160742432E+03  0.16831584560E+04  0.17946864977E+04  0.50400001928E-02 0. -1.
       -1    1    3    3    0  502  0.24726946734E+03 -0.57160742432E+03 -0.52064983736E+03  0.81175950267E+03  0.50400001928E-02 0.  1.
</event>
<event>
 5   0  0.4218590E-06  0.2521345E+04  0.7818609E-02  0.8395420E-01
        1   -1    0    0  501    0  0.00000000000E+00  0.00000000000E+00  0.15467251742E+04  0.15467251742E+04  0.50400001928E-02 0.  1.
       -1   -1    0    0    0  501  0.00000000000E+00  0.00000000000E+00 -0.10275228815E+04  0.10275228815E+04  0.50400001928E-02 0. -1.
    10030    2    1    2    0    0  0.00000000000E+00  0.00000000000E+00  0.51920229271E+03  0.25742480557E+04  0.25213452821E+04 0.  0.
        1    1    3    3  502    0 -0.90585788627E+03 -0.69981178144E+03  0.79886954264E+03  0.13958895321E+04  0.50400001928E-02 0.  1.
       -1    1    3    3    0  502  0.90585788627E+03  0.69981178144E+03 -0.27966724993E+03  0.11783585237E+04  0.50400001928E-02 0. -1.
</event>
<event>
 5   0  0.4464297E-06  0.2634463E+04  0.7818609E-02  0.8356588E-01
       -1   -1    0    0    0  501  0.00000000000E+00  0.00000000000E+00  0.90128924851E+03  0.90128924853E+03  0.50400001928E-02 0. -1.
        1   -1    0    0  501    0  0.00000000000E+00  0.00000000000E+00 -0.19251293246E+04  0.19251293246E+04  0.50400001928E-02 0.  1.
    10030    2    1    2    0    0  0.00000000000E+00  0.00000000000E+00 -0.10238400761E+04  0.28264185731E+04  0.26344626490E+04 0.  0.
        4    1    3    3  502    0 -0.64565865493E+03 -0.60511003226E+03 -0.15587530035E+04  0.17924133978E+04  0.12699999809E+01 0.  1.
       -4    1    3    3    0  502  0.64565865493E+03  0.60511003226E+03  0.53491292740E+03  0.10340051753E+04  0.12699999809E+01 0. -1.
</event>
<event>
 5   0  0.1086507E-05  0.2609626E+04  0.7818609E-02  0.8364939E-01
       -2   -1    0    0    0  501  0.00000000000E+00  0.00000000000E+00  0.74107739782E+03  0.74107739783E+03  0.25500000920E-02 0.  1.
        2   -1    0    0  501    0  0.00000000000E+00  0.00000000000E+00 -0.22973814353E+04  0.22973814353E+04  0.25500000920E-02 0. -1.
    10030    2    1    2    0    0  0.00000000000E+00  0.00000000000E+00 -0.15563040374E+04  0.30384588331E+04  0.26096263762E+04 0.  0.
        2    1    3    3  502    0 -0.74582373813E+03  0.80382355546E+03 -0.16015808541E+04  0.19409911357E+04  0.25500000920E-02 0. -1.
       -2    1    3    3    0  502  0.74582373813E+03 -0.80382355546E+03  0.45276816659E+02  0.10974676974E+04  0.25500000920E-02 0.  1.
</event>
<event>
 5   0  0.1086507E-05  0.2636724E+04  0.7818609E-02  0.8355833E-01
       -2   -1    0    0    0  501  0.00000000000E+00  0.00000000000E+00  0.84188686745E+03  0.84188686746E+03  0.25500000920E-02 0.  1.
        2   -1    0    0  501    0  0.00000000000E+00  0.00000000000E+00 -0.20645030928E+04  0.20645030928E+04  0.25500000920E-02 0. -1.
    10030    2    1    2    0    0  0.00000000000E+00  0.00000000000E+00 -0.12226162253E+04  0.29063899602E+04  0.26367237562E+04 0.  0.
        2    1    3    3  502    0 -0.64624851559E+03 -0.20216374438E+03 -0.18581787537E+04  0.19777096865E+04  0.25500000920E-02 0. -1.
       -2    1    3    3    0  502  0.64624851559E+03  0.20216374438E+03  0.63556252833E+03  0.92868027376E+03  0.25500000920E-02 0.  1.
</event>
<event>
 5   0  0.3705250E-06  0.2626511E+04  0.7818609E-02  0.8359251E-01
       -4   -1    0    0    0  501  0.00000000000E+00  0.00000000000E+00  0.12690776603E+04  0.12690782958E+04  0.12699999809E+01 0. -1.
        4   -1    0    0  501    0  0.00000000000E+00  0.00000000000E+00 -0.13589700764E+04  0.13589706698E+04  0.12699999809E+01 0.  1.
    10030    2    1    2    0    0  0.00000000000E+00  0.00000000000E+00 -0.89892416058E+02  0.26280489656E+04  0.26265111306E+04 0.  0.
        1    1    3    3  502    0 -0.23891203968E+03 -0.10318235781E+04 -0.82186803860E+03  0.13405990944E+04  0.50400001928E-02 0.  1.
       -1    1    3    3    0  502  0.23891203968E+03  0.10318235781E+04  0.73197562255E+03  0.12874498712E+04  0.50400001928E-02 0. -1.
</event>
<event>
 5   0  0.1085061E-05  0.2653907E+04  0.7818609E-02  0.8350117E-01
       -2   -1    0    0    0  501  0.00000000000E+00  0.00000000000E+00  0.97008163718E+03  0.97008163719E+03  0.25500000920E-02 0. -1.
        2   -1    0    0  501    0  0.00000000000E+00  0.00000000000E+00 -0.18151113279E+04  0.18151113279E+04  0.25500000920E-02 0.  1.
    10030    2    1    2    0    0  0.00000000000E+00  0.00000000000E+00 -0.84502969071E+03  0.27851929651E+04  0.26539074352E+04 0.  0.
        1    1    3    3  502    0 -0.78156843396E+03 -0.84145360213E+02  0.69942396547E+03  0.10521993832E+04  0.50400001928E-02 0. -1.
       -1    1    3    3    0  502  0.78156843396E+03  0.84145360213E+02 -0.15444536562E+04  0.17329935818E+04  0.50400001928E-02 0.  1.
</event>
<event>
 5   0  0.4361864E-06  0.2588925E+04  0.7818609E-02  0.8371973E-01
        1   -1    0    0  501    0  0.00000000000E+00  0.00000000000E+00  0.25082902784E+04  0.25082902784E+04  0.50400001928E-02 0.  1.
       -1   -1    0    0    0  501  0.00000000000E+00  0.00000000000E+00 -0.66803783916E+03  0.66803783918E+03  0.50400001928E-02 0. -1.
    10030    2    1    2    0    0  0.00000000000E+00  0.00000000000E+00  0.18402524393E+04  0.31763281176E+04  0.25889247325E+04 0.  0.
        3    1    3    3  502    0  0.10758569261E+04 -0.71537176130E+03  0.10183382415E+04  0.16450646390E+04  0.10100000352E+00 0.  1.
       -3    1    3    3    0  502 -0.10758569261E+04  0.71537176130E+03  0.82191419775E+03  0.15312634786E+04  0.10100000352E+00 0. -1.
</event>
<event>
 5   0  0.1116310E-05  0.2588352E+04  0.7818609E-02  0.8372168E-01
       -2   -1    0    0    0  501  0.00000000000E+00  0.00000000000E+00  0.15936640885E+04  0.15936640885E+04  0.25500000920E-02 0.  1.
        2   -1    0    0  501    0  0.00000000000E+00  0.00000000000E+00 -0.10509692308E+04  0.10509692308E+04  0.25500000920E-02 0. -1.
    10030    2    1    2    0    0  0.00000000000E+00  0.00000000000E+00  0.54269485769E+03  0.26446333192E+04  0.25883523107E+04 0.  0.
        4    1    3    3  502    0 -0.54038635511E+03 -0.85904567729E+03 -0.54917939424E+03  0.11539395601E+04  0.12699999809E+01 0. -1.
       -4    1    3    3    0  502  0.54038635511E+03  0.85904567729E+03  0.10918742519E+04  0.14906937591E+04  0.12699999809E+01 0.  1.
</event>
<event>
 5   0  0.1085255E-05  0.2600597E+04  0.7818609E-02  0.8367998E-01
       -2   -1    0    0    0  501  0.00000000000E+00  0.00000000000E+00  0.10400649564E+04  0.10400649564E+04  0.25500000920E-02 0. -1.
        2   -1    0    0  501    0  0.00000000000E+00  0.00000000000E+00 -0.16256446517E+04  0.16256446517E+04  0.25500000920E-02 0.  1.
    10030    2    1    2    0    0  0.00000000000E+00  0.00000000000E+00 -0.58557969533E+03  0.26657096081E+04  0.26005968806E+04 0.  0.
        5    1    3    3  502    0 -0.44775618983E+03 -0.20876199054E+02 -0.15439373848E+04  0.16076959163E+04  0.46999998093E+01 0.  1.
       -5    1    3    3    0  502  0.44775618983E+03  0.20876199054E+02  0.95835768942E+03  0.10580136918E+04  0.46999998093E+01 0. -1.
</event>
<event>
 5   0  0.1136881E-05  0.2521225E+04  0.7818609E-02  0.8395463E-01
       -2   -1    0    0    0  501  0.00000000000E+00  0.00000000000E+00  0.61305513257E+03  0.61305513257E+03  0.25500000920E-02 0.  1.
        2   -1    0    0  501    0  0.00000000000E+00  0.00000000000E+00 -0.25921706120E+04  0.25921706120E+04  0.25500000920E-02 0. -1.
    10030    2    1    2    0    0  0.00000000000E+00  0.00000000000E+00 -0.19791154794E+04  0.32052257446E+04  0.25212247010E+04 0.  0.
        3    1    3    3  502    0 -0.29687902967E+03 -0.10775077586E+04 -0.17308268447E+04  0.20603207771E+04  0.10100000352E+00 0. -1.
       -3    1    3    3    0  502  0.29687902967E+03  0.10775077586E+04 -0.24828863473E+03  0.11449049674E+04  0.10100000352E+00 0.  1.
</event>
<event>
 5   0  0.4218590E-06  0.2545230E+04  0.7818609E-02  0.8387047E-01
        1   -1    0    0  501    0  0.00000000000E+00  0.00000000000E+00  0.15082488727E+04  0.15082488727E+04  0.50400001928E-02 0. -1.
       -1   -1    0    0    0  501  0.00000000000E+00  0.00000000000E+00 -0.10737945744E+04  0.10737945744E+04  0.50400001928E-02 0.  1.
    10030    2    1    2    0    0  0.00000000000E+00  0.00000000000E+00  0.43445429830E+03  0.25820434471E+04  0.25452304071E+04 0.  0.
        1    1    3    3  502    0  0.10853497305E+03  0.89766275722E+02 -0.10658633643E+04  0.10751290788E+04  0.50400001928E-02 0.  1.
       -1    1    3    3    0  502 -0.10853497305E+03 -0.89766275722E+02  0.15003176626E+04  0.15069143683E+04  0.50400001928E-02 0. -1.
</event>
<event>
 5   0  0.4415080E-06  0.2575164E+04  0.7818609E-02  0.8376687E-01
       -1   -1    0    0    0  501  0.00000000000E+00  0.00000000000E+00  0.88189875400E+03  0.88189875401E+03  0.50400001928E-02 0.  1.
        1   -1    0    0  501    0  0.00000000000E+00  0.00000000000E+00 -0.18798843887E+04  0.18798843887E+04  0.50400001928E-02 0. -1.
    10030    2    1    2    0    0  0.00000000000E+00  0.00000000000E+00 -0.99798563469E+03  0.27617831427E+04  0.25751642278E+04 0.  0.
        2    1    3    3  502    0 -0.24957380549E+03 -0.45010720075E+03 -0.17647713531E+04  0.18382876557E+04  0.25500000920E-02 0. -1.
       -2    1    3    3    0  502  0.24957380549E+03  0.45010720075E+03  0.76678571838E+03  0.92349548698E+03  0.25500000920E-02 0.  1.
</event>
<event>
 5   0  0.4415080E-06  0.2627365E+04  0.7818609E-02  0.8358965E-01
       -1   -1    0    0    0  501  0.00000000000E+00  0.00000000000E+00  0.12320703783E+04  0.12320703783E+04  0.50400001928E-02 0.  1.
        1   -1    0    0  501    0  0.00000000000E+00  0.00000000000E+00 -0.14007008210E+04  0.14007008210E+04  0.50400001928E-02 0. -1.
    10030    2    1    2    0    0  0.00000000000E+00  0.00000000000E+00 -0.16863044276E+03  0.26327711993E+04  0.26273652129E+04 0.  0.
        2    1    3    3  502    0  0.12662541052E+04 -0.28770637904E+03 -0.28369086418E+03  0.13291557192E+04  0.25500000920E-02 0. -1.
       -2    1    3    3    0  502 -0.12662541052E+04  0.28770637904E+03  0.11506042142E+03  0.13036154801E+04  0.25500000920E-02 0.  1.
</event>
<event>
 5   0  0.1086507E-05  0.2592527E+04  0.7818609E-02  0.8370744E-01
       -2   -1    0    0    0  501  0.00000000000E+00  0.00000000000E+00  0.11087131984E+04  0.11087131984E+04  0.25500000920E-02 0.  1.
        2   -1    0    0  501    0  0.00000000000E+00  0.00000000000E+00 -0.15155395140E+04  0.15155395140E+04  0.25500000920E-02 0. -1.
    10030    2    1    2    0    0  0.00000000000E+00  0.00000000000E+00 -0.40682631565E+03  0.26242527124E+04  0.25925266917E+04 0.  0.
        2    1    3    3  502    0 -0.63735502073E+03  0.56528641360E+03  0.78554261649E+03  0.11588129073E+04  0.25500000920E-02 0.  1.
       -2    1    3    3    0  502  0.63735502073E+03 -0.56528641360E+03 -0.11923689321E+04  0.14654398050E+04  0.25500000920E-02 0. -1.
</event>
<event>
 5   0  0.1116310E-05  0.2434094E+04  0.7818609E-02  0.8426848E-01
        2   -1    0    0  501    0  0.00000000000E+00  0.00000000000E+00  0.17000588421E+04  0.17000588421E+04  0.25500000920E-02 0.  1.
       -2   -1    0    0    0  501  0.00000000000E+00  0.00000000000E+00 -0.87126616153E+03  0.87126616153E+03  0.25500000920E-02 0. -1.
    10030    2    1    2    0    0  0.00000000000E+00  0.00000000000E+00  0.82879268060E+03  0.25713250037E+04  0.24340942806E+04 0.  0.
        4    1    3    3  502    0 -0.68881732938E+03 -0.94856229243E+03  0.75988606250E+03  0.13970211798E+04  0.12699999809E+01 0.  1.
       -4    1    3    3    0  502  0.68881732938E+03  0.94856229243E+03  0.68906618103E+02  0.11743038239E+04  0.12699999809E+01 0. -1.
</event>
<event>
 5   0  0.1085255E-05  0.2511243E+04  0.7818609E-02  0.8398991E-01
        2   -1    0    0  501    0  0.00000000000E+00  0.00000000000E+00  0.15748386036E+04  0.15748386036E+04  0.25500000920E-02 0. -1.
       -2   -1    0    0    0  501  0.00000000000E+00  0.00000000000E+00 -0.10011091637E+04  0.10011091637E+04  0.25500000920E-02 0.  1.
    10030    2    1    2    0    0  0.00000000000E+00  0.00000000000E+00  0.57372943990E+03  0.25759477673E+04  0.25112430049E+04 0.  0.
        5    1    3    3  502    0  0.71379815682E+03 -0.38062734695E+03 -0.69817956903E+03  0.10685793309E+04  0.46999998093E+01 0.  1.
       -5    1    3    3    0  502 -0.71379815682E+03  0.38062734695E+03  0.12719090089E+04  0.15073684364E+04  0.46999998093E+01 0. -1.
</event>
<event>
 5   0  0.4218590E-06  0.2605302E+04  0.7818609E-02  0.8366403E-01
        1   -1    0    0  501    0  0.00000000000E+00  0.00000000000E+00  0.12518718335E+04  0.12518718335E+04  0.50400001928E-02 0.  1.
       -1   -1    0    0    0  501  0.00000000000E+00  0.00000000000E+00 -0.13554897443E+04  0.13554897443E+04  0.50400001928E-02 0. -1.
    10030    2    1    2    0    0  0.00000000000E+00  0.00000000000E+00 -0.10361791077E+03  0.26073615778E+04  0.26053018493E+04 0.  0.
        1    1    3    3  502    0  0.46649229569E+03  0.11735513348E+04  0.26791448122E+03  0.12909748126E+04  0.50400001928E-02 0.  1.
       -1    1    3    3    0  502 -0.46649229569E+03 -0.11735513348E+04 -0.37153239198E+03  0.13163867652E+04  0.50400001928E-02 0. -1.
</event>
<event>
 5   0  0.4464297E-06  0.2600453E+04  0.7818609E-02  0.8368047E-01
        1   -1    0    0  501    0  0.00000000000E+00  0.00000000000E+00  0.24665664093E+04  0.24665664093E+04  0.50400001928E-02 0.  1.
       -1   -1    0    0    0  501  0.00000000000E+00  0.00000000000E+00 -0.68540200935E+03  0.68540200937E+03  0.50400001928E-02 0. -1.
    10030    2    1    2    0    0  0.00000000000E+00  0.00000000000E+00  0.17811643999E+04  0.31519684186E+04  0.26004534783E+04 0.  0.
        4    1    3    3  502    0 -0.69757119665E+03 -0.49595564881E+02 -0.43803158035E+03  0.82519002219E+03  0.12699999809E+01 0. -1.
       -4    1    3    3    0  502  0.69757119665E+03  0.49595564881E+02  0.22191959803E+04  0.23267783964E+04  0.12699999809E+01 0.  1.
</event>
<event>
 5   0  0.1086507E-05  0.2620508E+04  0.7818609E-02  0.8361268E-01
        2   -1    0    0  501    0  0.00000000000E+00  0.00000000000E+00  0.21091045631E+04  0.21091045631E+04  0.25500000920E-02 0. -1.
       -2   -1    0    0    0  501  0.00000000000E+00  0.00000000000E+00 -0.81397854191E+03  0.81397854191E+03  0.25500000920E-02 0.  1.
    10030    2    1    2    0    0  0.00000000000E+00  0.00000000000E+00  0.12951260212E+04  0.29230831050E+04  0.26205082385E+04 0.  0.
        2    1    3    3  502    0 -0.28548286286E+03  0.43752291552E+03  0.19879031733E+04  0.20554040462E+04  0.25500000920E-02 0. -1.
       -2    1    3    3    0  502  0.28548286286E+03 -0.43752291552E+03 -0.69277715213E+03  0.86767905882E+03  0.25500000920E-02 0.  1.
</event>
<event>
 5   0  0.1085061E-05  0.2604149E+04  0.7818609E-02  0.8366793E-01
        2   -1    0    0  501    0  0.00000000000E+00  0.00000000000E+00  0.12935171140E+04  0.12935171140E+04  0.25500000920E-02 0.  1.
       -2   -1    0    0    0  501  0.00000000000E+00  0.00000000000E+00 -0.13106887119E+04  0.13106887119E+04  0.25500000920E-02 0. -1.
    10030    2    1    2    0    0  0.00000000000E+00  0.00000000000E+00 -0.17171597826E+02  0.26042058259E+04  0.26041492123E+04 0.  0.
        1    1    3    3  502    0 -0.39312297675E+03 -0.15955992971E+03  0.12224540555E+04  0.12939856892E+04  0.50400001928E-02 0.  1.
       -1    1    3    3    0  502  0.39312297675E+03  0.15955992971E+03 -0.12396256534E+04  0.13102201367E+04  0.50400001928E-02 0. -1.
</event>
<event>
 5   0  0.1085061E-05  0.2598268E+04  0.7818609E-02  0.8368790E-01
        2   -1    0    0  501    0  0.00000000000E+00  0.00000000000E+00  0.12470469973E+04  0.12470469973E+04  0.25500000920E-02 0.  1.
       -2   -1    0    0    0  501  0.00000000000E+00  0.00000000000E+00 -0.13533961042E+04  0.13533961042E+04  0.25500000920E-02 0. -1.
    10030    2    1    2    0    0  0.00000000000E+00  0.00000000000E+00 -0.10634910688E+03  0.26004431015E+04  0.25982675365E+04 0.  0.
        1    1    3    3  502    0 -0.11461947006E+04 -0.24449777209E+03  0.50783658334E+03  0.12772781403E+04  0.50400001928E-02 0.  1.
       -1    1    3    3    0  502  0.11461947006E+04  0.24449777209E+03 -0.61418569022E+03  0.13231649612E+04  0.50400001928E-02 0. -1.
</event>
<event>
 5   0  0.4415080E-06  0.2604214E+04  0.7818609E-02  0.8366771E-01
        1   -1    0    0  501    0  0.00000000000E+00  0.00000000000E+00  0.11036400852E+04  0.11036400852E+04  0.50400001928E-02 0.  1.
       -1   -1    0    0    0  501  0.00000000000E+00  0.00000000000E+00 -0.15362638913E+04  0.15362638913E+04  0.50400001928E-02 0. -1.
    10030    2    1    2    0    0  0.00000000000E+00  0.00000000000E+00 -0.43262380609E+03  0.26399039766E+04  0.26042138253E+04 0.  0.
        2    1    3    3  502    0 -0.31910523459E+03 -0.39465990668E+03 -0.14318693899E+04  0.15191558651E+04  0.25500000920E-02 0. -1.
       -2    1    3    3    0  502  0.31910523459E+03  0.39465990668E+03  0.99924558380E+03  0.11207481115E+04  0.25500000920E-02 0.  1.
</event>
<event>
 5   0  0.1085255E-05  0.2514461E+04  0.7818609E-02  0.8397852E-01
        2   -1    0    0  501    0  0.00000000000E+00  0.00000000000E+00  0.11511847020E+04  0.11511847020E+04  0.25500000920E-02 0. -1.
       -2   -1    0    0    0  501  0.00000000000E+00  0.00000000000E+00 -0.13730450029E+04  0.13730450029E+04  0.25500000920E-02 0.  1.
    10030    2    1    2    0    0  0.00000000000E+00  0.00000000000E+00 -0.22186030087E+03  0.25242297050E+04  0.25144608985E+04 0.  0.
        5    1    3    3  502    0  0.23679649529E+03 -0.51957012341E+02  0.11274889932E+04  0.11532673719E+04  0.46999998093E+01 0. -1.
       -5    1    3    3    0  502 -0.23679649529E+03  0.51957012341E+02 -0.13493492941E+04  0.13709623331E+04  0.46999998093E+01 0.  1.
</event>
<event>
 5   0  0.4464297E-06  0.2621789E+04  0.7818609E-02  0.8360838E-01
       -1   -1    0    0    0  501  0.00000000000E+00  0.00000000000E+00  0.73932210838E+03  0.73932210840E+03  0.50400001928E-02 0. -1.
        1   -1    0    0  501    0  0.00000000000E+00  0.00000000000E+00 -0.23243507801E+04  0.23243507801E+04  0.50400001928E-02 0.  1.
    10030    2    1    2    0    0  0.00000000000E+00  0.00000000000E+00 -0.15850286717E+04  0.30636728885E+04  0.26217886409E+04 0.  0.
        4    1    3    3  502    0  0.69388720404E+02 -0.11985351427E+04 -0.14076843022E+04  0.18501021567E+04  0.12699999809E+01 0.  1.
       -4    1    3    3    0  502 -0.69388720404E+02  0.11985351427E+04 -0.17734436951E+03  0.12135707318E+04  0.12699999809E+01 0. -1.
</event>
<event>
 5   0  0.4218590E-06  0.2602815E+04  0.7818609E-02  0.8367246E-01
       -1   -1    0    0    0  501  0.00000000000E+00  0.00000000000E+00  0.10309049699E+04  0.10309049699E+04  0.50400001928E-02 0. -1.
        1   -1    0    0  501    0  0.00000000000E+00  0.00000000000E+00 -0.16428875821E+04  0.16428875821E+04  0.50400001928E-02 0.  1.
    10030    2    1    2    0    0  0.00000000000E+00  0.00000000000E+00 -0.61198261219E+03  0.26737925520E+04  0.26028146099E+04 0.  0.
        1    1    3    3  502    0  0.10306734855E+04 -0.79422635821E+03 -0.28130193867E+03  0.13312453277E+04  0.50400001928E-02 0.  1.
       -1    1    3    3    0  502 -0.10306734855E+04  0.79422635821E+03 -0.33068067352E+03  0.13425472243E+04  0.50400001928E-02 0. -1.
</event>
<event>
 5   0  0.4218590E-06  0.2502508E+04  0.7818609E-02  0.8402093E-01
        1   -1    0    0  501    0  0.00000000000E+00  0.00000000000E+00  0.15101740290E+04  0.15101740291E+04  0.50400001928E-02 0. -1.
       -1   -1    0    0    0  501  0.00000000000E+00  0.00000000000E+00 -0.10367259384E+04  0.10367259384E+04  0.50400001928E-02 0.  1.
    10030    2    1    2    0    0  0.00000000000E+00  0.00000000000E+00  0.47344809066E+03  0.25468999675E+04  0.25025080119E+04 0.  0.
        1    1    3    3  502    0  0.88355053178E+03 -0.83970517133E+03 -0.50902515733E+02  0.12199825339E+04  0.50400001928E-02 0.  1.
       -1    1    3    3    0  502 -0.88355053178E+03  0.83970517133E+03  0.52435060639E+03  0.13269174335E+04  0.50400001928E-02 0. -1.
</event>
<event>
 5   0  0.4415080E-06  0.2591387E+04  0.7818609E-02  0.8371133E-01
        1   -1    0    0  501    0  0.00000000000E+00  0.00000000000E+00  0.81640415837E+03  0.81640415838E+03  0.50400001928E-02 0.  1.
       -1   -1    0    0    0  501  0.00000000000E+00  0.00000000000E+00 -0.20563607027E+04  0.20563607028E+04  0.50400001928E-02 0. -1.
    10030    2    1    2    0    0  0.00000000000E+00  0.00000000000E+00 -0.12399565444E+04  0.28727648611E+04  0.25913868325E+04 0.  0.
        2    1    3    3  502    0 -0.66527654208E+03  0.45678626555E+03 -0.17437408545E+04  0.19214262248E+04  0.25500000920E-02 0. -1.
       -2    1    3    3    0  502  0.66527654208E+03 -0.45678626555E+03  0.50378431010E+03  0.95133863632E+03  0.25500000920E-02 0.  1.
</event>
<event>
 5   0  0.4361864E-06  0.2581602E+04  0.7818609E-02  0.8374478E-01
       -1   -1    0    0    0  501  0.00000000000E+00  0.00000000000E+00  0.10234183727E+04  0.10234183727E+04  0.50400001928E-02 0.  1.
        1   -1    0    0  501    0  0.00000000000E+00  0.00000000000E+00 -0.16280406821E+04  0.16280406821E+04  0.50400001928E-02 0. -1.
    10030    2    1    2    0    0  0.00000000000E+00  0.00000000000E+00 -0.60462230934E+03  0.26514590548E+04  0.25816016312E+04 0.  0.
        3    1    3    3  502    0  0.11877786771E+04  0.34726512498E+02 -0.82007825173E+03  0.14437979310E+04  0.10100000352E+00 0. -1.
       -3    1    3    3    0  502 -0.11877786771E+04 -0.34726512498E+02  0.21545594239E+03  0.12076611238E+04  0.10100000352E+00 0.  1.
</event>
<event>
 5   0  0.1136881E-05  0.2654727E+04  0.7818609E-02  0.8349846E-01
       -2   -1    0    0    0  501  0.00000000000E+00  0.00000000000E+00  0.14046311113E+04  0.14046311113E+04  0.25500000920E-02 0.  1.
        2   -1    0    0  501    0  0.00000000000E+00  0.00000000000E+00 -0.12543462456E+04  0.12543462456E+04  0.25500000920E-02 0. -1.
    10030    2    1    2    0    0  0.00000000000E+00  0.00000000000E+00  0.15028486570E+03  0.26589773569E+04  0.26547269245E+04 0.  0.
        3    1    3    3  502    0  0.97374808968E+02 -0.35085606079E+03  0.13536311574E+04  0.14017486041E+04  0.10100000352E+00 0.  1.
       -3    1    3    3    0  502 -0.97374808968E+02  0.35085606079E+03 -0.12033462917E+04  0.12572287527E+04  0.10100000352E+00 0. -1.
</event>
<event>
 5   0  0.4361864E-06  0.2591389E+04  0.7818609E-02  0.8371132E-01
        1   -1    0    0  501    0  0.00000000000E+00  0.00000000000E+00  0.20158579541E+04  0.20158579541E+04  0.50400001928E-02 0.  1.
       -1   -1    0    0    0  501  0.00000000000E+00  0.00000000000E+00 -0.83280894686E+03  0.83280894687E+03  0.50400001928E-02 0. -1.
    10030    2    1    2    0    0  0.00000000000E+00  0.00000000000E+00  0.11830490073E+04  0.28486669010E+04  0.25913892334E+04 0.  0.
        3    1    3    3  502    0 -0.10052731599E+04  0.42668917738E+03  0.13580217141E+04  0.17426591079E+04  0.10100000352E+00 0.  1.
       -3    1    3    3    0  502  0.10052731599E+04 -0.42668917738E+03 -0.17497270686E+03  0.11060077931E+04  0.10100000352E+00 0. -1.
</event>
<event>
 5   0  0.1116310E-05  0.2613102E+04  0.7818609E-02  0.8363764E-01
       -2   -1    0    0    0  501  0.00000000000E+00  0.00000000000E+00  0.92274437523E+03  0.92274437523E+03  0.25500000920E-02 0. -1.
        2   -1    0    0  501    0  0.00000000000E+00  0.00000000000E+00 -0.18499986648E+04  0.18499986648E+04  0.25500000920E-02 0.  1.
    10030    2    1    2    0    0  0.00000000000E+00  0.00000000000E+00 -0.92725428958E+03  0.27727430400E+04  0.26131022652E+04 0.  0.
        4    1    3    3  502    0 -0.12699279023E+04 -0.72876102292E+01 -0.78947801093E+03  0.14953418101E+04  0.12699999809E+01 0. -1.
       -4    1    3    3    0  502  0.12699279023E+04  0.72876102292E+01 -0.13777627864E+03  0.12774012299E+04  0.12699999809E+01 0.  1.
</event>
<event>
 5   0  0.1136881E-05  0.2590306E+04  0.7818609E-02  0.8371502E-01
        2   -1    0    0  501    0  0.00000000000E+00  0.00000000000E+00  0.20137686980E+04  0.20137686980E+04  0.25500000920E-02 0. -1.
       -2   -1    0    0    0  501  0.00000000000E+00  0.00000000000E+00 -0.83297588426E+03  0.83297588426E+03  0.25500000920E-02 0.  1.
    10030    2    1    2    0    0  0.00000000000E+00  0.00000000000E+00  0.11807928138E+04  0.28467445823E+04  0.25903055896E+04 0.  0.
        3    1    3    3  502    0 -0.13832867660E+03 -0.44582652601E+03  0.19181063735E+04  0.19740892038E+04  0.10100000352E+00 0. -1.
       -3    1    3    3    0  502  0.13832867660E+03  0.44582652601E+03 -0.73731355976E+03  0.87265537852E+03  0.10100000352E+00 0.  1.
</event>
<event>
 5   0  0.1086507E-05  0.2589081E+04  0.7818609E-02  0.8371920E-01
       -2   -1    0    0    0  501  0.00000000000E+00  0.00000000000E+00  0.10262536261E+04  0.10262536262E+04  0.25500000920E-02 0. -1.
        2   -1    0    0  501    0  0.00000000000E+00  0.00000000000E+00 -0.16329636201E+04  0.16329636201E+04  0.25500000920E-02 0.  1.
    10030    2    1    2    0    0  0.00000000000E+00  0.00000000000E+00 -0.60670999399E+03  0.26592172463E+04  0.25890807917E+04 0.  0.
        2    1    3    3  502    0 -0.35139177237E+03  0.45886390894E+03  0.88638627094E+03  0.10581648671E+04  0.25500000920E-02 0. -1.
       -2    1    3    3    0  502  0.35139177237E+03 -0.45886390894E+03 -0.14930962649E+04  0.16010523792E+04  0.25500000920E-02 0.  1.
</event>
<event>
 5   0  0.4597705E-06  0.2584930E+04  0.7818609E-02  0.8373338E-01
       -1   -1    0    0    0  501  0.00000000000E+00  0.00000000000E+00  0.10899045874E+04  0.10899045874E+04  0.50400001928E-02 0. -1.
        1   -1    0    0  501    0  0.00000000000E+00  0.00000000000E+00 -0.15326714766E+04  0.15326714766E+04  0.50400001928E-02 0.  1.
    10030    2    1    2    0    0  0.00000000000E+00  0.00000000000E+00 -0.44276688919E+03  0.26225760640E+04  0.25849299203E+04 0.  0.
        5    1    3    3  502    0  0.22961811175E+03 -0.10008171947E+04 -0.10177248585E+04  0.14457335550E+04  0.46999998093E+01 0.  1.
       -5    1    3    3    0  502 -0.22961811175E+03  0.10008171947E+04  0.57495796928E+03  0.11768425090E+04  0.46999998093E+01 0. -1.
</event>
<event>
 5   0  0.4218590E-06  0.2584775E+04  0.7818609E-02  0.8373391E-01
        1   -1    0    0  501    0  0.00000000000E+00  0.00000000000E+00  0.14094642935E+04  0.14094642935E+04  0.50400001928E-02 0. -1.
       -1   -1    0    0    0  501  0.00000000000E+00  0.00000000000E+00 -0.11850355559E+04  0.11850355559E+04  0.50400001928E-02 0.  1.
    10030    2    1    2    0    0  0.00000000000E+00  0.00000000000E+00  0.22442873760E+03  0.25944998495E+04  0.25847748859E+04 0.  0.
        1    1    3    3  502    0  0.55267952649E+03  0.51563248025E+03 -0.94003018816E+03  0.12062289453E+04  0.50400001928E-02 0.  1.
       -1    1    3    3    0  502 -0.55267952649E+03 -0.51563248025E+03  0.11644589258E+04  0.13882709042E+04  0.50400001928E-02 0. -1.
</event>
<event>
 5   0  0.1085061E-05  0.2590859E+04  0.7818609E-02  0.8371313E-01
        2   -1    0    0  501    0  0.00000000000E+00  0.00000000000E+00  0.18379279412E+04  0.18379279412E+04  0.25500000920E-02 0. -1.
       -2   -1    0    0    0  501  0.00000000000E+00  0.00000000000E+00 -0.91305980812E+03  0.91305980812E+03  0.25500000920E-02 0.  1.
    10030    2    1    2    0    0  0.00000000000E+00  0.00000000000E+00  0.92486813313E+03  0.27509877494E+04  0.25908594199E+04 0.  0.
        1    1    3    3  502    0 -0.10610415573E+04 -0.52015098383E+03  0.10260634796E+04  0.15649832256E+04  0.50400001928E-02 0. -1.
       -1    1    3    3    0  502  0.10610415573E+04  0.52015098383E+03 -0.10119534646E+03  0.11860045238E+04  0.50400001928E-02 0.  1.
</event>
<event>
 5   0  0.1116310E-05  0.2599224E+04  0.7818609E-02  0.8368465E-01
       -2   -1    0    0    0  501  0.00000000000E+00  0.00000000000E+00  0.14770124294E+04  0.14770124294E+04  0.25500000920E-02 0.  1.
        2   -1    0    0  501    0  0.00000000000E+00  0.00000000000E+00 -0.11435186309E+04  0.11435186309E+04  0.25500000920E-02 0. -1.
    10030    2    1    2    0    0  0.00000000000E+00  0.00000000000E+00  0.33349379859E+03  0.26205310603E+04  0.25992239081E+04 0.  0.
        4    1    3    3  502    0  0.12098942410E+04  0.92296628623E+02  0.63599420423E+03  0.13699828403E+04  0.12699999809E+01 0.  1.
       -4    1    3    3    0  502 -0.12098942410E+04 -0.92296628623E+02 -0.30250040564E+03  0.12505482200E+04  0.12699999809E+01 0. -1.
</event>
<event>
 5   0  0.1085255E-05  0.2651254E+04  0.7818609E-02  0.8350997E-01
       -2   -1    0    0    0  501  0.00000000000E+00  0.00000000000E+00  0.16342150888E+04  0.16342150888E+04  0.25500000920E-02 0.  1.
        2   -1    0    0  501    0  0.00000000000E+00  0.00000000000E+00 -0.10753096903E+04  0.10753096903E+04  0.25500000920E-02 0. -1.
    10030    2    1    2    0    0  0.00000000000E+00  0.00000000000E+00  0.55890539847E+03  0.27095247791E+04  0.26512542850E+04 0.  0.
        5    1    3    3  502    0  0.51392478422E+03  0.80877251668E+03 -0.65666705650E+03  0.11616649176E+04  0.46999998093E+01 0. -1.
       -5    1    3    3    0  502 -0.51392478422E+03 -0.80877251668E+03  0.12155724550E+04  0.15478598615E+04  0.46999998093E+01 0.  1.
</event>
<event>
 5   0  0.1136881E-05  0.2591928E+04  0.7818609E-02  0.8370948E-01
        2   -1    0    0  501    0  0.00000000000E+00  0.00000000000E+00  0.97588407687E+03  0.97588407688E+03  0.25500000920E-02 0.  1.
       -2   -1    0    0    0  501  0.00000000000E+00  0.00000000000E+00 -0.17210262616E+04  0.17210262616E+04  0.25500000920E-02 0. -1.
    10030    2    1    2    0    0  0.00000000000E+00  0.00000000000E+00 -0.74514218474E+03  0.26969103385E+04  0.25919275643E+04 0.  0.
        3    1    3    3  502    0 -0.33489563644E+03 -0.50424457677E+03 -0.15648923357E+04  0.16778872766E+04  0.10100000352E+00 0. -1.
       -3    1    3    3    0  502  0.33489563644E+03  0.50424457677E+03  0.81975015094E+03  0.10190230619E+04  0.10100000352E+00 0.  1.
</event>
<event>
 5   0  0.1116310E-05  0.2613946E+04  0.7818609E-02  0.8363479E-01
        2   -1    0    0  501    0  0.00000000000E+00  0.00000000000E+00  0.12744909582E+04  0.12744909582E+04  0.25500000920E-02 0.  1.
       -2   -1    0    0    0  501  0.00000000000E+00  0.00000000000E+00 -0.13402829700E+04  0.13402829700E+04  0.25500000920E-02 0. -1.
    10030    2    1    2    0    0  0.00000000000E+00  0.00000000000E+00 -0.65792011807E+02  0.26147739283E+04  0.26139460796E+04 0.  0.
        4    1    3    3  502    0 -0.96386618086E+02 -0.54995983907E+03  0.11491849394E+04  0.12776438637E+04  0.12699999809E+01 0.  1.
       -4    1    3    3    0  502  0.96386618086E+02  0.54995983907E+03 -0.12149769512E+04  0.13371300646E+04  0.12699999809E+01 0. -1.
</event>
<event>
 5   0  0.4597705E-06  0.2594627E+04  0.7818609E-02  0.8370029E-01
        1   -1    0    0  501    0  0.00000000000E+00  0.00000000000E+00  0.11798775065E+04  0.11798775065E+04  0.50400001928E-02 0.  1.
       -1   -1    0    0    0  501  0.00000000000E+00  0.00000000000E+00 -0.14264380110E+04  0.14264380110E+04  0.50400001928E-02 0. -1.
    10030    2    1    2    0    0  0.00000000000E+00  0.00000000000E+00 -0.24656050446E+03  0.26063155175E+04  0.25946268507E+04 0.  0.
        5    1    3    3  502    0 -0.93566078973E+03  0.89847307269E+03 -0.10632053542E+03  0.13015533497E+04  0.46999998093E+01 0.  1.
       -5    1    3    3    0  502  0.93566078973E+03 -0.89847307269E+03 -0.14023996903E+03  0.13047621679E+04  0.46999998093E+01 0. -1.
</event>
<event>
 5   0  0.4415080E-06  0.2359465E+04  0.7818609E-02  0.8454837E-01
        1   -1    0    0  501    0  0.00000000000E+00  0.00000000000E+00  0.28143053179E+04  0.28143053179E+04  0.50400001928E-02 0. -1.
       -1   -1    0    0    0  501  0.00000000000E+00  0.00000000000E+00 -0.49453376670E+03  0.49453376672E+03  0.50400001928E-02 0.  1.
    10030    2    1    2    0    0  0.00000000000E+00  0.00000000000E+00  0.23197715512E+04  0.33088390846E+04  0.23594652017E+04 0.  0.
        2    1    3    3  502    0  0.77174541389E+03  0.34387396717E+03  0.52258662300E+01  0.84490685809E+03  0.25500000920E-02 0.  1.
       -2    1    3    3    0  502 -0.77174541389E+03 -0.34387396717E+03  0.23145456850E+04  0.24639322265E+04  0.25500000920E-02 0. -1.
</event>
<event>
 5   0  0.1116310E-05  0.2568172E+04  0.7818609E-02  0.8379094E-01
       -2   -1    0    0    0  501  0.00000000000E+00  0.00000000000E+00  0.61682961219E+03  0.61682961220E+03  0.25500000920E-02 0.  1.
        2   -1    0    0  501    0  0.00000000000E+00  0.00000000000E+00 -0.26731479415E+04  0.26731479415E+04  0.25500000920E-02 0. -1.
    10030    2    1    2    0    0  0.00000000000E+00  0.00000000000E+00 -0.20563183293E+04  0.32899775537E+04  0.25681719632E+04 0.  0.
        4    1    3    3  502    0 -0.11147563345E+04  0.53554618401E+03 -0.14707898561E+04  0.19216440394E+04  0.12699999809E+01 0.  1.
       -4    1    3    3    0  502  0.11147563345E+04 -0.53554618401E+03 -0.58552847322E+03  0.13683335143E+04  0.12699999809E+01 0. -1.
</event>
<event>
 5   0  0.1136881E-05  0.2578380E+04  0.7818609E-02  0.8375582E-01
       -2   -1    0    0    0  501  0.00000000000E+00  0.00000000000E+00  0.64526235580E+03  0.64526235580E+03  0.25500000920E-02 0.  1.
        2   -1    0    0  501    0  0.00000000000E+00  0.00000000000E+00 -0.25757129135E+04  0.25757129135E+04  0.25500000920E-02 0. -1.
    10030    2    1    2    0    0  0.00000000000E+00  0.00000000000E+00 -0.19304505577E+04  0.32209752693E+04  0.25783797877E+04 0.  0.
        3    1    3    3  502    0 -0.99586348450E+03 -0.66450808518E+02  0.54137940962E+02  0.99954525489E+03  0.10100000352E+00 0.  1.
       -3    1    3    3    0  502  0.99586348450E+03  0.66450808518E+02 -0.19845884987E+04  0.22214300144E+04  0.10100000352E+00 0. -1.
</event>
<event>
 5   0  0.3705250E-06  0.2589980E+04  0.7818609E-02  0.8371613E-01
       -3   -1    0    0    0  501  0.00000000000E+00  0.00000000000E+00  0.14325916309E+04  0.14325916345E+04  0.10100000352E+00 0.  1.
        3   -1    0    0  501    0  0.00000000000E+00  0.00000000000E+00 -0.11706052966E+04  0.11706053009E+04  0.10100000352E+00 0. -1.
    10030    2    1    2    0    0  0.00000000000E+00  0.00000000000E+00  0.26198633432E+03  0.26031969354E+04  0.25899802017E+04 0.  0.
        3    1    3    3  502    0 -0.28820021426E+03 -0.12408765757E+04  0.36491523913E+03  0.13251404385E+04  0.10100000352E+00 0.  1.
       -3    1    3    3    0  502  0.28820021426E+03  0.12408765757E+04 -0.10292890481E+03  0.12780564969E+04  0.10100000352E+00 0. -1.
</event>
<event>
 5   0  0.1086507E-05  0.2595501E+04  0.7818609E-02  0.8369731E-01
        2   -1    0    0  501    0  0.00000000000E+00  0.00000000000E+00  0.17346468911E+04  0.17346468911E+04  0.25500000920E-02 0. -1.
       -2   -1    0    0    0  501  0.00000000000E+00  0.00000000000E+00 -0.97089259156E+03  0.97089259156E+03  0.25500000920E-02 0.  1.
    10030    2    1    2    0    0  0.00000000000E+00  0.00000000000E+00  0.76375429951E+03  0.27055394826E+04  0.25955005802E+04 0.  0.
        2    1    3    3  502    0  0.60094100238E+03 -0.14385686853E+03  0.15714565174E+04  0.16885794245E+04  0.25500000920E-02 0. -1.
       -2    1    3    3    0  502 -0.60094100238E+03  0.14385686853E+03 -0.80770221787E+03  0.10169600581E+04  0.25500000920E-02 0.  1.
</event>
<event>
 5   0  0.1116310E-05  0.2642460E+04  0.7818609E-02  0.8353920E-01
       -2   -1    0    0    0  501  0.00000000000E+00  0.00000000000E+00  0.76047457531E+03  0.76047457531E+03  0.25500000920E-02 0. -1.
        2   -1    0    0  501    0  0.00000000000E+00  0.00000000000E+00 -0.22954733467E+04  0.22954733467E+04  0.25500000920E-02 0.  1.
    10030    2    1    2    0    0  0.00000000000E+00  0.00000000000E+00 -0.15349987713E+04  0.30559479220E+04  0.26424603069E+04 0.  0.
        4    1    3    3  502    0  0.67927478206E+03 -0.82759725427E+03  0.12779412098E+03  0.10782691663E+04  0.12699999809E+01 0. -1.
       -4    1    3    3    0  502 -0.67927478206E+03  0.82759725427E+03 -0.16627928923E+04  0.19776787556E+04  0.12699999809E+01 0.  1.
</event>
<event>
 5   0  0.4218590E-06  0.2596397E+04  0.7818609E-02  0.8369426E-01
       -1   -1    0    0    0  501  0.00000000000E+00  0.00000000000E+00  0.10927852481E+04  0.10927852481E+04  0.50400001928E-02 0. -1.
        1   -1    0    0  501    0  0.00000000000E+00  0.00000000000E+00 -0.15422235193E+04  0.15422235193E+04  0.50400001928E-02 0.  1.
    10030    2    1    2    0    0  0.00000000000E+00  0.00000000000E+00 -0.44943827115E+03  0.26350087674E+04  0.25963968196E+04 0.  0.
        1    1    3    3  502    0 -0.45047686742E+03 -0.11212980528E+04  0.25676259839E+03  0.12353808171E+04  0.50400001928E-02 0.  1.
       -1    1    3    3    0  502  0.45047686742E+03  0.11212980528E+04 -0.70620086954E+03  0.13996279504E+04  0.50400001928E-02 0. -1.
</event>
<event>
 5   0  0.1086507E-05  0.2603572E+04  0.7818609E-02  0.8366989E-01
        2   -1    0    0  501    0  0.00000000000E+00  0.00000000000E+00  0.15633400314E+04  0.15633400314E+04  0.25500000920E-02 0.  1.
       -2   -1    0    0    0  501  0.00000000000E+00  0.00000000000E+00 -0.10839915236E+04  0.10839915236E+04  0.25500000920E-02 0. -1.
    10030    2    1    2    0    0  0.00000000000E+00  0.00000000000E+00  0.47934850784E+03  0.26473315550E+04  0.26035724246E+04 0.  0.
        2    1    3    3  502    0  0.85040140425E+03 -0.18000526737E+03 -0.74566552098E+03  0.11452517251E+04  0.25500000920E-02 0. -1.
       -2    1    3    3    0  502 -0.85040140425E+03  0.18000526737E+03  0.12250140288E+04  0.15020798299E+04  0.25500000920E-02 0.  1.
</event>
<event>
 5   0  0.4597705E-06  0.2629664E+04  0.7818609E-02  0.8358194E-01
        1   -1    0    0  501    0  0.00000000000E+00  0.00000000000E+00  0.10963376803E+04  0.10963376804E+04  0.50400001928E-02 0. -1.
       -1   -1    0    0    0  501  0.00000000000E+00  0.00000000000E+00 -0.15768711289E+04  0.15768711289E+04  0.50400001928E-02 0.  1.
    10030    2    1    2    0    0  0.00000000000E+00  0.00000000000E+00 -0.48053344852E+03  0.26732088092E+04  0.26296640361E+04 0.  0.
        5    1    3    3  502    0  0.48834378453E+03 -0.54001830706E+03 -0.13532302585E+04  0.15366696608E+04  0.46999998093E+01 0.  1.
       -5    1    3    3    0  502 -0.48834378453E+03  0.54001830706E+03  0.87269680996E+03  0.11365391485E+04  0.46999998093E+01 0. -1.
</event>
<event>
 5   0  0.4361864E-06  0.2605612E+04  0.7818609E-02  0.8366297E-01
        1   -1    0    0  501    0  0.00000000000E+00  0.00000000000E+00  0.13204188732E+04  0.13204188732E+04  0.50400001928E-02 0.  1.
       -1   -1    0    0    0  501  0.00000000000E+00  0.00000000000E+00 -0.12854282267E+04  0.12854282267E+04  0.50400001928E-02 0. -1.
    10030    2    1    2    0    0  0.00000000000E+00  0.00000000000E+00  0.34990646570E+02  0.26058470999E+04  0.26056121666E+04 0.  0.
        3    1    3    3  502    0 -0.21981257065E+03  0.12649467817E+04 -0.20364845672E+03  0.12999540880E+04  0.10100000352E+00 0.  1.
       -3    1    3    3    0  502  0.21981257065E+03 -0.12649467817E+04  0.23863910329E+03  0.13058930119E+04  0.10100000352E+00 0. -1.
</event>
<event>
 5   0  0.1085255E-05  0.2602843E+04  0.7818609E-02  0.8367236E-01
        2   -1    0    0  501    0  0.00000000000E+00  0.00000000000E+00  0.75652661927E+03  0.75652661927E+03  0.25500000920E-02 0. -1.
       -2   -1    0    0    0  501  0.00000000000E+00  0.00000000000E+00 -0.22387818683E+04  0.22387818683E+04  0.25500000920E-02 0.  1.
    10030    2    1    2    0    0  0.00000000000E+00  0.00000000000E+00 -0.14822552490E+04  0.29953084876E+04  0.26028431210E+04 0.  0.
        5    1    3    3  502    0 -0.43390298993E+03  0.10187289330E+04  0.45789046864E+02  0.11082414766E+04  0.46999998093E+01 0. -1.
       -5    1    3    3    0  502  0.43390298993E+03 -0.10187289330E+04 -0.15280442959E+04  0.18870670109E+04  0.46999998093E+01 0.  1.
</event>
<event>
 5   0  0.4597705E-06  0.2608687E+04  0.7818609E-02  0.8365256E-01
       -1   -1    0    0    0  501  0.00000000000E+00  0.00000000000E+00  0.67463983129E+03  0.67463983131E+03  0.50400001928E-02 0. -1.
        1   -1    0    0  501    0  0.00000000000E+00  0.00000000000E+00 -0.25218076325E+04  0.25218076325E+04  0.50400001928E-02 0.  1.
    10030    2    1    2    0    0  0.00000000000E+00  0.00000000000E+00 -0.18471678012E+04  0.31964474638E+04  0.26086869308E+04 0.  0.
        5    1    3    3  502    0 -0.33066596892E+03  0.42727673413E+03  0.53107221702E+03  0.75760489717E+03  0.46999998093E+01 0. -1.
       -5    1    3    3    0  502  0.33066596892E+03 -0.42727673413E+03 -0.23782400182E+04  0.24388425666E+04  0.46999998093E+01 0.  1.
</event>
<event>
 5   0  0.1136881E-05  0.2575883E+04  0.7818609E-02  0.8376440E-01
        2   -1    0    0  501    0  0.00000000000E+00  0.00000000000E+00  0.11376064906E+04  0.11376064906E+04  0.25500000920E-02 0. -1.
       -2   -1    0    0    0  501  0.00000000000E+00  0.00000000000E+00 -0.14581429050E+04  0.14581429050E+04  0.25500000920E-02 0.  1.
    10030    2    1    2    0    0  0.00000000000E+00  0.00000000000E+00 -0.32053641448E+03  0.25957493956E+04  0.25758826316E+04 0.  0.
        3    1    3    3  502    0 -0.10530958973E+04 -0.21316840394E+03  0.55537880937E+03  0.12095029431E+04  0.10100000352E+00 0. -1.
       -3    1    3    3    0  502  0.10530958973E+04  0.21316840394E+03 -0.87591522386E+03  0.13862464525E+04  0.10100000352E+00 0.  1.
</event>
<event>
 5   0  0.4218590E-06  0.2593515E+04  0.7818609E-02  0.8370407E-01
       -1   -1    0    0    0  501  0.00000000000E+00  0.00000000000E+00  0.93353711370E+03  0.93353711372E+03  0.50400001928E-02 0.  1.
        1   -1    0    0  501    0  0.00000000000E+00  0.00000000000E+00 -0.18012992075E+04  0.18012992075E+04  0.50400001928E-02 0. -1.
    10030    2    1    2    0    0  0.00000000000E+00  0.00000000000E+00 -0.86776209377E+03  0.27348363212E+04  0.25935147295E+04 0.  0.
        1    1    3    3  502    0 -0.63778384722E+03  0.56205040844E+03 -0.14664800881E+04  0.16950612810E+04  0.50400001928E-02 0. -1.
       -1    1    3    3    0  502  0.63778384722E+03 -0.56205040844E+03  0.59871799437E+03  0.10397750402E+04  0.50400001928E-02 0.  1.
</event>
<event>
 5   0  0.4597705E-06  0.2687587E+04  0.7818609E-02  0.8339044E-01
       -1   -1    0    0    0  501  0.00000000000E+00  0.00000000000E+00  0.84806959151E+03  0.84806959152E+03  0.50400001928E-02 0. -1.
        1   -1    0    0  501    0  0.00000000000E+00  0.00000000000E+00 -0.21292843120E+04  0.21292843120E+04  0.50400001928E-02 0.  1.
    10030    2    1    2    0    0  0.00000000000E+00  0.00000000000E+00 -0.12812147205E+04  0.29773539035E+04  0.26875872278E+04 0.  0.
        5    1    3    3  502    0 -0.11439515517E+04  0.13925218136E+03 -0.14063185542E+04  0.18181777384E+04  0.46999998093E+01 0.  1.
       -5    1    3    3    0  502  0.11439515517E+04 -0.13925218136E+03  0.12510383371E+03  0.11591761651E+04  0.46999998093E+01 0. -1.
</event>
<event>
 5   0  0.1136881E-05  0.2599062E+04  0.7818609E-02  0.8368520E-01
        2   -1    0    0  501    0  0.00000000000E+00  0.00000000000E+00  0.23172533450E+04  0.23172533450E+04  0.25500000920E-02 0.  1.
       -2   -1    0    0    0  501  0.00000000000E+00  0.00000000000E+00 -0.72878530685E+03  0.72878530686E+03  0.25500000920E-02 0. -1.
    10030    2    1    2    0    0  0.00000000000E+00  0.00000000000E+00  0.15884680382E+04  0.30460386519E+04  0.25990615153E+04 0.  0.
        3    1    3    3  502    0 -0.47779080139E+03 -0.75665985717E+03 -0.31013963944E+03  0.94710337107E+03  0.10100000352E+00 0. -1.
       -3    1    3    3    0  502  0.47779080139E+03  0.75665985717E+03  0.18986076776E+04  0.20989352808E+04  0.10100000352E+00 0.  1.
</event>
<event>
 5   0  0.1085255E-05  0.2608373E+04  0.7818609E-02  0.8365363E-01
        2   -1    0    0  501    0  0.00000000000E+00  0.00000000000E+00  0.12818909888E+04  0.12818909888E+04  0.25500000920E-02 0. -1.
       -2   -1    0    0    0  501  0.00000000000E+00  0.00000000000E+00 -0.13268701718E+04  0.13268701718E+04  0.25500000920E-02 0.  1.
    10030    2    1    2    0    0  0.00000000000E+00  0.00000000000E+00 -0.44979182949E+02  0.26087611606E+04  0.26083733756E+04 0.  0.
        5    1    3    3  502    0 -0.87763306981E+03  0.79274623736E+03  0.52731426927E+03  0.12949010891E+04  0.46999998093E+01 0. -1.
       -5    1    3    3    0  502  0.87763306981E+03 -0.79274623736E+03 -0.57229345222E+03  0.13138600715E+04  0.46999998093E+01 0.  1.
</event>
<event>
 5   0  0.1085255E-05  0.2596005E+04  0.7818609E-02  0.8369560E-01
        2   -1    0    0  501    0  0.00000000000E+00  0.00000000000E+00  0.16637192549E+04  0.16637192549E+04  0.25500000920E-02 0. -1.
       -2   -1    0    0    0  501  0.00000000000E+00  0.00000000000E+00 -0.10126769888E+04  0.10126769888E+04  0.25500000920E-02 0.  1.
    10030    2    1    2    0    0  0.00000000000E+00  0.00000000000E+00  0.65104226615E+03  0.26763962437E+04  0.25960047806E+04 0.  0.
        5    1    3    3  502    0  0.94165029266E+03 -0.53308110847E+03  0.10645941525E+04  0.15179800859E+04  0.46999998093E+01 0. -1.
       -5    1    3    3    0  502 -0.94165029266E+03  0.53308110847E+03 -0.41355188631E+03  0.11584161578E+04  0.46999998093E+01 0.  1.
</event>
<event>
 5   0  0.4464297E-06  0.2607133E+04  0.7818609E-02  0.8365782E-01
        1   -1    0    0  501    0  0.00000000000E+00  0.00000000000E+00  0.18691985948E+04  0.18691985948E+04  0.50400001928E-02 0.  1.
       -1   -1    0    0    0  501  0.00000000000E+00  0.00000000000E+00 -0.90909832842E+03  0.90909832843E+03  0.50400001928E-02 0. -1.
    10030    2    1    2    0    0  0.00000000000E+00  0.00000000000E+00  0.96010026640E+03  0.27782969233E+04  0.26071327684E+04 0.  0.
        4    1    3    3  502    0 -0.35832714790E+03 -0.41556909176E+03  0.17401305057E+04  0.18245963402E+04  0.12699999809E+01 0.  1.
       -4    1    3    3    0  502  0.35832714790E+03  0.41556909176E+03 -0.78003023931E+03  0.95370058304E+03  0.12699999809E+01 0. -1.
</event>
<event>
 5   0  0.3705250E-06  0.2586304E+04  0.7818609E-02  0.8372868E-01
        3   -1    0    0  501    0  0.00000000000E+00  0.00000000000E+00  0.10769987177E+04  0.10769987225E+04  0.10100000352E+00 0.  1.
       -3   -1    0    0    0  501  0.00000000000E+00  0.00000000000E+00 -0.15526877095E+04  0.15526877128E+04  0.10100000352E+00 0. -1.
    10030    2    1    2    0    0  0.00000000000E+00  0.00000000000E+00 -0.47568899178E+03  0.26296864353E+04  0.25863044544E+04 0.  0.
        4    1    3    3  502    0  0.60223027996E+03 -0.10189128595E+04 -0.76752051699E+03  0.14106573227E+04  0.12699999809E+01 0.  1.
       -4    1    3    3    0  502 -0.60223027996E+03  0.10189128595E+04  0.29183152521E+03  0.12190291126E+04  0.12699999809E+01 0. -1.
</event>
<event>
 5   0  0.4464297E-06  0.2606148E+04  0.7818609E-02  0.8366116E-01
       -1   -1    0    0    0  501  0.00000000000E+00  0.00000000000E+00  0.11493520805E+04  0.11493520805E+04  0.50400001928E-02 0.  1.
        1   -1    0    0  501    0  0.00000000000E+00  0.00000000000E+00 -0.14773551668E+04  0.14773551668E+04  0.50400001928E-02 0. -1.
    10030    2    1    2    0    0  0.00000000000E+00  0.00000000000E+00 -0.32800308631E+03  0.26267072473E+04  0.26061475282E+04 0.  0.
        4    1    3    3  502    0  0.46563138488E+03 -0.50610347978E+03 -0.12795512536E+04  0.14526549289E+04  0.12699999809E+01 0. -1.
       -4    1    3    3    0  502 -0.46563138488E+03  0.50610347978E+03  0.95154816732E+03  0.11740523184E+04  0.12699999809E+01 0.  1.
</event>
<event>
 5   0  0.4361864E-06  0.2580808E+04  0.7818609E-02  0.8374750E-01
       -1   -1    0    0    0  501  0.00000000000E+00  0.00000000000E+00  0.96406836749E+03  0.96406836751E+03  0.50400001928E-02 0.  1.
        1   -1    0    0  501    0  0.00000000000E+00  0.00000000000E+00 -0.17272036740E+04  0.17272036740E+04  0.50400001928E-02 0. -1.
    10030    2    1    2    0    0  0.00000000000E+00  0.00000000000E+00 -0.76313530646E+03  0.26912720415E+04  0.25808079559E+04 0.  0.
        3    1    3    3  502    0 -0.17138224269E+03 -0.40675188597E+03  0.88290182907E+03  0.98708389705E+03  0.10100000352E+00 0.  1.
       -3    1    3    3    0  502  0.17138224269E+03  0.40675188597E+03 -0.16460371355E+04  0.17041881444E+04  0.10100000352E+00 0. -1.
</event>
<event>
 5   0  0.4218590E-06  0.2655810E+04  0.7818609E-02  0.8349487E-01
       -1   -1    0    0    0  501  0.00000000000E+00  0.00000000000E+00  0.82915867900E+03  0.82915867901E+03  0.50400001928E-02 0.  1.
        1   -1    0    0  501    0  0.00000000000E+00  0.00000000000E+00 -0.21266522434E+04  0.21266522434E+04  0.50400001928E-02 0. -1.
    10030    2    1    2    0    0  0.00000000000E+00  0.00000000000E+00 -0.12974935644E+04  0.29558109224E+04  0.26558103583E+04 0.  0.
        1    1    3    3  502    0  0.67841327977E+03 -0.61809682845E+03 -0.17168660611E+04  0.19467710033E+04  0.50400001928E-02 0. -1.
       -1    1    3    3    0  502 -0.67841327977E+03  0.61809682845E+03  0.41937249664E+03  0.10090399192E+04  0.50400001928E-02 0.  1.
</event>
<event>
 5   0  0.1136881E-05  0.2597330E+04  0.7818609E-02  0.8369109E-01
       -2   -1    0    0    0  501  0.00000000000E+00  0.00000000000E+00  0.17172291053E+04  0.17172291053E+04  0.25500000920E-02 0. -1.
        2   -1    0    0  501    0  0.00000000000E+00  0.00000000000E+00 -0.98212355621E+03  0.98212355621E+03  0.25500000920E-02 0.  1.
    10030    2    1    2    0    0  0.00000000000E+00  0.00000000000E+00  0.73510554908E+03  0.26993526615E+04  0.25973302876E+04 0.  0.
        3    1    3    3  502    0  0.42751075763E+03 -0.10686141484E+03 -0.90204823562E+03  0.10039301965E+04  0.10100000352E+00 0.  1.
       -3    1    3    3    0  502 -0.42751075763E+03  0.10686141484E+03  0.16371537847E+04  0.16954224650E+04  0.10100000352E+00 0. -1.
</event>
<event>
 5   0  0.1085255E-05  0.2580612E+04  0.7818609E-02  0.8374817E-01
        2   -1    0    0  501    0  0.00000000000E+00  0.00000000000E+00  0.15708629358E+04  0.15708629358E+04  0.25500000920E-02 0. -1.
       -2   -1    0    0    0  501  0.00000000000E+00  0.00000000000E+00 -0.10598569750E+04  0.10598569750E+04  0.25500000920E-02 0.  1.
    10030    2    1    2    0    0  0.00000000000E+00  0.00000000000E+00  0.51100596085E+03  0.26307199108E+04  0.25806123609E+04 0.  0.
        5    1    3    3  502    0  0.54923954607E+03  0.10310826060E+04 -0.30292215549E+03  0.12068882888E+04  0.46999998093E+01 0.  1.
       -5    1    3    3    0  502 -0.54923954607E+03 -0.10310826060E+04  0.81392811633E+03  0.14238316220E+04  0.46999998093E+01 0. -1.
</event>
<event>
 5   0  0.1085255E-05  0.2639185E+04  0.7818609E-02  0.8355012E-01
        2   -1    0    0  501    0  0.00000000000E+00  0.00000000000E+00  0.13182157076E+04  0.13182157076E+04  0.25500000920E-02 0.  1.
       -2   -1    0    0    0  501  0.00000000000E+00  0.00000000000E+00 -0.13209705157E+04  0.13209705157E+04  0.25500000920E-02 0. -1.
    10030    2    1    2    0    0  0.00000000000E+00  0.00000000000E+00 -0.27548081007E+01  0.26391862232E+04  0.26391847855E+04 0.  0.
        5    1    3    3  502    0  0.89935884320E+03  0.36143564892E+03  0.89406707186E+03  0.13186584380E+04  0.46999998093E+01 0.  1.
       -5    1    3    3    0  502 -0.89935884320E+03 -0.36143564892E+03 -0.89682187996E+03  0.13205277852E+04  0.46999998093E+01 0. -1.
</event>
<event>
 5   0  0.4218590E-06  0.2607477E+04  0.7818609E-02  0.8365666E-01
       -1   -1    0    0    0  501  0.00000000000E+00  0.00000000000E+00  0.10318331639E+04  0.10318331640E+04  0.50400001928E-02 0. -1.
        1   -1    0    0  501    0  0.00000000000E+00  0.00000000000E+00 -0.16472956613E+04  0.16472956613E+04  0.50400001928E-02 0.  1.
    10030    2    1    2    0    0  0.00000000000E+00  0.00000000000E+00 -0.61546249736E+03  0.26791288253E+04  0.26074771671E+04 0.  0.
        1    1    3    3  502    0  0.70378697675E+03  0.56673283233E+03  0.65789819767E+03  0.11177353222E+04  0.50400001928E-02 0. -1.
       -1    1    3    3    0  502 -0.70378697675E+03 -0.56673283233E+03 -0.12733606950E+04  0.15613935031E+04  0.50400001928E-02 0.  1.
</event>
<event>
 5   0  0.1085061E-05  0.2582809E+04  0.7818609E-02  0.8374064E-01
        2   -1    0    0  501    0  0.00000000000E+00  0.00000000000E+00  0.24995393547E+04  0.24995393547E+04  0.25500000920E-02 0.  1.
       -2   -1    0    0    0  501  0.00000000000E+00  0.00000000000E+00 -0.66721305018E+03  0.66721305018E+03  0.25500000920E-02 0. -1.
    10030    2    1    2    0    0  0.00000000000E+00  0.00000000000E+00  0.18323263045E+04  0.31667524049E+04  0.25828087633E+04 0.  0.
        1    1    3    3  502    0  0.11019126741E+04  0.20437214063E+03  0.17029125652E+04  0.20386001859E+04  0.50400001928E-02 0.  1.
       -1    1    3    3    0  502 -0.11019126741E+04 -0.20437214063E+03  0.12941373929E+03  0.11281522190E+04  0.50400001928E-02 0. -1.
</event>
<event>
 5   0  0.1085061E-05  0.2623224E+04  0.7818609E-02  0.8360355E-01
        2   -1    0    0  501    0  0.00000000000E+00  0.00000000000E+00  0.18593024777E+04  0.18593024777E+04  0.25500000920E-02 0.  1.
       -2   -1    0    0    0  501  0.00000000000E+00  0.00000000000E+00 -0.92525374959E+03  0.92525374959E+03  0.25500000920E-02 0. -1.
    10030    2    1    2    0    0  0.00000000000E+00  0.00000000000E+00  0.93404872814E+03  0.27845562273E+04  0.26232244198E+04 0.  0.
        1    1    3    3  502    0 -0.23984193873E+02 -0.51211470700E+02  0.18580078467E+04  0.18588682080E+04  0.50400001928E-02 0.  1.
       -1    1    3    3    0  502  0.23984193873E+02  0.51211470700E+02 -0.92395911857E+03  0.92568801931E+03  0.50400001928E-02 0. -1.
</event>
<event>
 5   0  0.4361864E-06  0.2504594E+04  0.7818609E-02  0.8401351E-01
        1   -1    0    0  501    0  0.00000000000E+00  0.00000000000E+00  0.10721807400E+04  0.10721807400E+04  0.50400001928E-02 0. -1.
       -1   -1    0    0    0  501  0.00000000000E+00  0.00000000000E+00 -0.14626712520E+04  0.14626712520E+04  0.50400001928E-02 0.  1.
    10030    2    1    2    0    0  0.00000000000E+00  0.00000000000E+00 -0.39049051200E+03  0.25348519920E+04  0.25045941350E+04 0.  0.
        3    1    3    3  502    0  0.26117653808E+03  0.61212054359E+03 -0.12688829259E+04  0.14328184231E+04  0.10100000352E+00 0.  1.
       -3    1    3    3    0  502 -0.26117653808E+03 -0.61212054359E+03  0.87839241386E+03  0.11020335688E+04  0.10100000352E+00 0. -1.
</event>
<event>
 5   0  0.1116310E-05  0.2598294E+04  0.7818609E-02  0.8368781E-01
       -2   -1    0    0    0  501  0.00000000000E+00  0.00000000000E+00  0.12544319227E+04  0.12544319228E+04  0.25500000920E-02 0.  1.
        2   -1    0    0  501    0  0.00000000000E+00  0.00000000000E+00 -0.13454559422E+04  0.13454559422E+04  0.25500000920E-02 0. -1.
    10030    2    1    2    0    0  0.00000000000E+00  0.00000000000E+00 -0.91024019465E+02  0.25998878650E+04  0.25982939669E+04 0.  0.
        4    1    3    3  502    0  0.87106001498E+03  0.65383502447E+03 -0.75413814217E+03  0.13247534636E+04  0.12699999809E+01 0. -1.
       -4    1    3    3    0  502 -0.87106001498E+03 -0.65383502447E+03  0.66311412271E+03  0.12751344014E+04  0.12699999809E+01 0.  1.
</event>
<event>
 5   0  0.4415080E-06  0.2588287E+04  0.7818609E-02  0.8372191E-01
        1   -1    0    0  501    0  0.00000000000E+00  0.00000000000E+00  0.10042180815E+04  0.10042180815E+04  0.50400001928E-02 0.  1.
       -1   -1    0    0    0  501  0.00000000000E+00  0.00000000000E+00 -0.16677724421E+04  0.16677724421E+04  0.50400001928E-02 0. -1.
    10030    2    1    2    0    0  0.00000000000E+00  0.00000000000E+00 -0.66355436059E+03  0.26719905236E+04  0.25882868791E+04 0.  0.
        2    1    3    3  502    0  0.10215142892E+04  0.75209148452E+03 -0.67219793573E+02  0.12702958493E+04  0.25500000920E-02 0.  1.
       -2    1    3    3    0  502 -0.10215142892E+04 -0.75209148452E+03 -0.59633456701E+03  0.14016946743E+04  0.25500000920E-02 0. -1.
</event>
<event>
 5   0  0.1086507E-05  0.2594633E+04  0.7818609E-02  0.8370027E-01
        2   -1    0    0  501    0  0.00000000000E+00  0.00000000000E+00  0.10755914073E+04  0.10755914074E+04  0.25500000920E-02 0.  1.
       -2   -1    0    0    0  501  0.00000000000E+00  0.00000000000E+00 -0.15647485726E+04  0.15647485726E+04  0.25500000920E-02 0. -1.
    10030    2    1    2    0    0  0.00000000000E+00  0.00000000000E+00 -0.48915716529E+03  0.26403399800E+04  0.25946330140E+04 0.  0.
        2    1    3    3  502    0  0.11024181644E+04 -0.71649355993E+02 -0.93668513827E+03  0.14483916900E+04  0.25500000920E-02 0. -1.
       -2    1    3    3    0  502 -0.11024181644E+04  0.71649355993E+02  0.44752797298E+03  0.11919482900E+04  0.25500000920E-02 0.  1.
</event>
<event>
 5   0  0.4218590E-06  0.2595022E+04  0.7818609E-02  0.8369894E-01
        1   -1    0    0  501    0  0.00000000000E+00  0.00000000000E+00  0.25904226295E+04  0.25904226295E+04  0.50400001928E-02 0.  1.
       -1   -1    0    0    0  501  0.00000000000E+00  0.00000000000E+00 -0.64990722495E+03  0.64990722497E+03  0.50400001928E-02 0. -1.
    10030    2    1    2    0    0  0.00000000000E+00  0.00000000000E+00  0.19405154045E+04  0.32403298544E+04  0.25950216821E+04 0.  0.
        1    1    3    3  502    0  0.62127832581E+03 -0.58743740623E+03 -0.24837471152E+03  0.89037040703E+03  0.50400001928E-02 0. -1.
       -1    1    3    3    0  502 -0.62127832581E+03  0.58743740623E+03  0.21888901160E+04  0.23499594474E+04  0.50400001928E-02 0.  1.
</event>
<event>
 5   0  0.1086507E-05  0.2299585E+04  0.7818609E-02  0.8478085E-01
        2   -1    0    0  501    0  0.00000000000E+00  0.00000000000E+00  0.10311070374E+04  0.10311070374E+04  0.25500000920E-02 0.  1.
       -2   -1    0    0    0  501  0.00000000000E+00  0.00000000000E+00 -0.12821389483E+04  0.12821389483E+04  0.25500000920E-02 0. -1.
    10030    2    1    2    0    0  0.00000000000E+00  0.00000000000E+00 -0.25103191083E+03  0.23132459857E+04  0.22995847386E+04 0.  0.
        2    1    3    3  502    0  0.59740018337E+03  0.21463503974E+03 -0.10898912137E+04  0.12612763524E+04  0.25500000920E-02 0. -1.
       -2    1    3    3    0  502 -0.59740018337E+03 -0.21463503974E+03  0.83885930287E+03  0.10519696333E+04  0.25500000920E-02 0.  1.
</event>
<event>
 5   0  0.1085255E-05  0.2606943E+04  0.7818609E-02  0.8365847E-01
        2   -1    0    0  501    0  0.00000000000E+00  0.00000000000E+00  0.20920640740E+04  0.20920640740E+04  0.25500000920E-02 0. -1.
       -2   -1    0    0    0  501  0.00000000000E+00  0.00000000000E+00 -0.81213481883E+03  0.81213481883E+03  0.25500000920E-02 0.  1.
    10030    2    1    2    0    0  0.00000000000E+00  0.00000000000E+00  0.12799292552E+04  0.29041988928E+04  0.26069430970E+04 0.  0.
        5    1    3    3  502    0  0.74258007243E+03 -0.86466727287E+03 -0.64554757865E+02  0.11416059143E+04  0.46999998093E+01 0.  1.
       -5    1    3    3    0  502 -0.74258007243E+03  0.86466727287E+03  0.13444840130E+04  0.17625929785E+04  0.46999998093E+01 0. -1.
</event>
<event>
 5   0  0.1085255E-05  0.2632320E+04  0.7818609E-02  0.8357305E-01
       -2   -1    0    0    0  501  0.00000000000E+00  0.00000000000E+00  0.80621018224E+03  0.80621018225E+03  0.25500000920E-02 0.  1.
        2   -1    0    0  501    0  0.00000000000E+00  0.00000000000E+00 -0.21486674007E+04  0.21486674007E+04  0.25500000920E-02 0. -1.
    10030    2    1    2    0    0  0.00000000000E+00  0.00000000000E+00 -0.13424572185E+04  0.29548775830E+04  0.26323202972E+04 0.  0.
        5    1    3    3  502    0  0.76872233872E+03  0.31585365916E+03 -0.18168535635E+04  0.19979180487E+04  0.46999998093E+01 0. -1.
       -5    1    3    3    0  502 -0.76872233872E+03 -0.31585365916E+03  0.47439634504E+03  0.95695953427E+03  0.46999998093E+01 0.  1.
</event>
<event>
 5   0  0.3705250E-06  0.2444101E+04  0.7818609E-02  0.8423175E-01
       -4   -1    0    0    0  501  0.00000000000E+00  0.00000000000E+00  0.92669594981E+03  0.92669682005E+03  0.12699999809E+01 0. -1.
        4   -1    0    0  501    0  0.00000000000E+00  0.00000000000E+00 -0.16115385476E+04  0.16115390480E+04  0.12699999809E+01 0.  1.
    10030    2    1    2    0    0  0.00000000000E+00  0.00000000000E+00 -0.68484259782E+03  0.25382358681E+04  0.24441014583E+04 0.  0.
        4    1    3    3  502    0  0.87188684645E+03  0.52323313175E+02 -0.12300217149E+04  0.15086018143E+04  0.12699999809E+01 0. -1.
       -4    1    3    3    0  502 -0.87188684645E+03 -0.52323313175E+02  0.54517911709E+03  0.10296340538E+04  0.12699999809E+01 0.  1.
</event>
<event>
 5   0  0.4361864E-06  0.2583818E+04  0.7818609E-02  0.8373719E-01
        1   -1    0    0  501    0  0.00000000000E+00  0.00000000000E+00  0.86424719164E+03  0.86424719166E+03  0.50400001928E-02 0.  1.
       -1   -1    0    0    0  501  0.00000000000E+00  0.00000000000E+00 -0.19311934944E+04  0.19311934944E+04  0.50400001928E-02 0. -1.
    10030    2    1    2    0    0  0.00000000000E+00  0.00000000000E+00 -0.10669463028E+04  0.27954406861E+04  0.25838177599E+04 0.  0.
        3    1    3    3  502    0  0.80853862733E+02  0.34193549555E+01  0.86150226060E+03  0.86529485976E+03  0.10100000352E+00 0.  1.
       -3    1    3    3    0  502 -0.80853862733E+02 -0.34193549555E+01 -0.19284485634E+04  0.19301458263E+04  0.10100000352E+00 0. -1.
</event>
<event>
 5   0  0.4361864E-06  0.2421661E+04  0.7818609E-02  0.8431438E-01
        1   -1    0    0  501    0  0.00000000000E+00  0.00000000000E+00  0.14503731266E+04  0.14503731266E+04  0.50400001928E-02 0. -1.
       -1   -1    0    0    0  501  0.00000000000E+00  0.00000000000E+00 -0.10108505337E+04  0.10108505337E+04  0.50400001928E-02 0.  1.
    10030    2    1    2    0    0  0.00000000000E+00  0.00000000000E+00  0.43952259287E+03  0.24612236603E+04  0.24216609581E+04 0.  0.
        3    1    3    3  502    0 -0.10469194055E+04 -0.28984068582E+03 -0.32382470274E+03  0.11335388450E+04  0.10100000352E+00 0.  1.
       -3    1    3    3    0  502  0.10469194055E+04  0.28984068582E+03  0.76334729562E+03  0.13276848153E+04  0.10100000352E+00 0. -1.
</event>
<event>
 5   0  0.4361864E-06  0.2595941E+04  0.7818609E-02  0.8369581E-01
        1   -1    0    0  501    0  0.00000000000E+00  0.00000000000E+00  0.19844792232E+04  0.19844792232E+04  0.50400001928E-02 0.  1.
       -1   -1    0    0    0  501  0.00000000000E+00  0.00000000000E+00 -0.84895213944E+03  0.84895213946E+03  0.50400001928E-02 0. -1.
    10030    2    1    2    0    0  0.00000000000E+00  0.00000000000E+00  0.11355270837E+04  0.28334313626E+04  0.25959413570E+04 0.  0.
        3    1    3    3  502    0 -0.10464494742E+04 -0.65958887071E+03  0.13858097290E+03  0.12447163037E+04  0.10100000352E+00 0. -1.
       -3    1    3    3    0  502  0.10464494742E+04  0.65958887071E+03  0.99694611083E+03  0.15887150589E+04  0.10100000352E+00 0.  1.
</event>
<event>
 5   0  0.1085061E-05  0.2593746E+04  0.7818609E-02  0.8370329E-01
       -2   -1    0    0    0  501  0.00000000000E+00  0.00000000000E+00  0.10078471460E+04  0.10078471460E+04  0.25500000920E-02 0.  1.
        2   -1    0    0  501    0  0.00000000000E+00  0.00000000000E+00 -0.16687840435E+04  0.16687840435E+04  0.25500000920E-02 0. -1.
    10030    2    1    2    0    0  0.00000000000E+00  0.00000000000E+00 -0.66093689751E+03  0.26766311895E+04  0.25937457358E+04 0.  0.
        1    1    3    3  502    0  0.33036856681E+03 -0.12386124413E+04 -0.12778677958E+03  0.12882676860E+04  0.50400001928E-02 0. -1.
       -1    1    3    3    0  502 -0.33036856681E+03  0.12386124413E+04 -0.53315011793E+03  0.13883635035E+04  0.50400001928E-02 0.  1.
</event>
<event>
 5   0  0.4597705E-06  0.2621348E+04  0.7818609E-02  0.8360986E-01
       -1   -1    0    0    0  501  0.00000000000E+00  0.00000000000E+00  0.78277627155E+03  0.78277627157E+03  0.50400001928E-02 0.  1.
        1   -1    0    0  501    0  0.00000000000E+00  0.00000000000E+00 -0.21945820411E+04  0.21945820411E+04  0.50400001928E-02 0. -1.
    10030    2    1    2    0    0  0.00000000000E+00  0.00000000000E+00 -0.14118057696E+04  0.29773583127E+04  0.26213483155E+04 0.  0.
        5    1    3    3  502    0  0.53239657663E+03  0.98411944028E+03  0.69372879781E+02  0.11210583723E+04  0.46999998093E+01 0.  1.
       -5    1    3    3    0  502 -0.53239657663E+03 -0.98411944028E+03 -0.14811786493E+04  0.18562999404E+04  0.46999998093E+01 0. -1.
</event>
<event>
 5   0  0.1085061E-05  0.2600332E+04  0.7818609E-02  0.8368088E-01
        2   -1    0    0  501    0  0.00000000000E+00  0.00000000000E+00  0.17964062012E+04  0.17964062012E+04  0.25500000920E-02 0.  1.
       -2   -1    0    0    0  501  0.00000000000E+00  0.00000000000E+00 -0.94100774320E+03  0.94100774320E+03  0.25500000920E-02 0. -1.
    10030    2    1    2    0    0  0.00000000000E+00  0.00000000000E+00  0.85539845801E+03  0.27374139444E+04  0.26003323982E+04 0.  0.
        1    1    3    3  502    0  0.12871382623E+04 -0.18300949463E+03  0.44312660893E+03  0.13735277838E+04  0.50400001928E-02 0. -1.
       -1    1    3    3    0  502 -0.12871382623E+04  0.18300949463E+03  0.41227184908E+03  0.13638861606E+04  0.50400001928E-02 0.  1.
</event>
<event>
 5   0  0.1136881E-05  0.2572459E+04  0.7818609E-02  0.8377617E-01
       -2   -1    0    0    0  501  0.00000000000E+00  0.00000000000E+00  0.81070055341E+03  0.81070055342E+03  0.25500000920E-02 0.  1.
        2   -1    0    0  501    0  0.00000000000E+00  0.00000000000E+00 -0.20406865232E+04  0.20406865232E+04  0.25500000920E-02 0. -1.
    10030    2    1    2    0    0  0.00000000000E+00  0.00000000000E+00 -0.12299859698E+04  0.28513870767E+04  0.25724585079E+04 0.  0.
        3    1    3    3  502    0 -0.23727021856E+03 -0.35356976572E+03 -0.19602972372E+04  0.20060094726E+04  0.10100000352E+00 0. -1.
       -3    1    3    3    0  502  0.23727021856E+03  0.35356976572E+03  0.73031126741E+03  0.84537760400E+03  0.10100000352E+00 0.  1.
</event>
<event>
 5   0  0.1086507E-05  0.2560951E+04  0.7818609E-02  0.8381588E-01
        2   -1    0    0  501    0  0.00000000000E+00  0.00000000000E+00  0.17739993510E+04  0.17739993510E+04  0.25500000920E-02 0. -1.
       -2   -1    0    0    0  501  0.00000000000E+00  0.00000000000E+00 -0.92424892595E+03  0.92424892595E+03  0.25500000920E-02 0.  1.
    10030    2    1    2    0    0  0.00000000000E+00  0.00000000000E+00  0.84975042500E+03  0.26982482769E+04  0.25609506007E+04 0.  0.
        2    1    3    3  502    0 -0.12337194129E+04  0.21817596120E+03  0.14620996679E+03  0.12613650123E+04  0.25500000920E-02 0. -1.
       -2    1    3    3    0  502  0.12337194129E+04 -0.21817596120E+03  0.70354045821E+03  0.14368832646E+04  0.25500000920E-02 0.  1.
</event>
<event>
 5   0  0.4415080E-06  0.2594867E+04  0.7818609E-02  0.8369947E-01
       -1   -1    0    0    0  501  0.00000000000E+00  0.00000000000E+00  0.13569334186E+04  0.13569334186E+04  0.50400001928E-02 0.  1.
        1   -1    0    0  501    0  0.00000000000E+00  0.00000000000E+00 -0.12405421493E+04  0.12405421493E+04  0.50400001928E-02 0. -1.
    10030    2    1    2    0    0  0.00000000000E+00  0.00000000000E+00  0.11639126929E+03  0.25974755679E+04  0.25948665473E+04 0.  0.
        2    1    3    3  502    0  0.38408181346E+03 -0.93505813722E+02  0.12951852335E+04  0.13541665207E+04  0.25500000920E-02 0.  1.
       -2    1    3    3    0  502 -0.38408181346E+03  0.93505813722E+02 -0.11787939642E+04  0.12433090472E+04  0.25500000920E-02 0. -1.
</event>
<event>
 5   0  0.1085255E-05  0.2605036E+04  0.7818609E-02  0.8366492E-01
        2   -1    0    0  501    0  0.00000000000E+00  0.00000000000E+00  0.14907515374E+04  0.14907515374E+04  0.25500000920E-02 0.  1.
       -2   -1    0    0    0  501  0.00000000000E+00  0.00000000000E+00 -0.11380525665E+04  0.11380525665E+04  0.25500000920E-02 0. -1.
    10030    2    1    2    0    0  0.00000000000E+00  0.00000000000E+00  0.35269897090E+03  0.26288041038E+04  0.26050363629E+04 0.  0.
        5    1    3    3  502    0  0.10431825471E+04  0.64029206670E+03 -0.27305374912E+03  0.12541069321E+04  0.46999998093E+01 0.  1.
       -5    1    3    3    0  502 -0.10431825471E+04 -0.64029206670E+03  0.62575272001E+03  0.13746971717E+04  0.46999998093E+01 0. -1.
</event>
<event>
 5   0  0.1085255E-05  0.2678351E+04  0.7818609E-02  0.8342064E-01
        2   -1    0    0  501    0  0.00000000000E+00  0.00000000000E+00  0.17650514088E+04  0.17650514088E+04  0.25500000920E-02 0. -1.
       -2   -1    0    0    0  501  0.00000000000E+00  0.00000000000E+00 -0.10160556689E+04  0.10160556689E+04  0.25500000920E-02 0.  1.
    10030    2    1    2    0    0  0.00000000000E+00  0.00000000000E+00  0.74899573990E+03  0.27811070778E+04  0.26783506043E+04 0.  0.
        5    1    3    3  502    0 -0.64242800665E+03  0.53995999220E+03 -0.70913890824E+03  0.10987131646E+04  0.46999998093E+01 0.  1.
       -5    1    3    3    0  502  0.64242800665E+03 -0.53995999220E+03  0.14581346481E+04  0.16823939131E+04  0.46999998093E+01 0. -1.
</event>
<event>
 5   0  0.1085061E-05  0.2581029E+04  0.7818609E-02  0.8374674E-01
        2   -1    0    0  501    0  0.00000000000E+00  0.00000000000E+00  0.20361999458E+04  0.20361999458E+04  0.25500000920E-02 0.  1.
       -2   -1    0    0    0  501  0.00000000000E+00  0.00000000000E+00 -0.81790959059E+03  0.81790959059E+03  0.25500000920E-02 0. -1.
    10030    2    1    2    0    0  0.00000000000E+00  0.00000000000E+00  0.12182903552E+04  0.28541095364E+04  0.25810288368E+04 0.  0.
        1    1    3    3  502    0 -0.14312888748E+03  0.29953038729E+03 -0.76988615445E+03  0.83840862482E+03  0.50400001928E-02 0. -1.
       -1    1    3    3    0  502  0.14312888748E+03 -0.29953038729E+03  0.19881765097E+04  0.20157009116E+04  0.50400001928E-02 0.  1.
</event>
<event>
 5   0  0.1116310E-05  0.2588145E+04  0.7818609E-02  0.8372239E-01
        2   -1    0    0  501    0  0.00000000000E+00  0.00000000000E+00  0.16228234385E+04  0.16228234385E+04  0.25500000920E-02 0.  1.
       -2   -1    0    0    0  501  0.00000000000E+00  0.00000000000E+00 -0.10319198123E+04  0.10319198123E+04  0.25500000920E-02 0. -1.
    10030    2    1    2    0    0  0.00000000000E+00  0.00000000000E+00  0.59090362622E+03  0.26547432507E+04  0.25881450176E+04 0.  0.
        4    1    3    3  502    0  0.55069294331E+03  0.10379164290E+03 -0.90100497153E+03  0.10610593737E+04  0.12699999809E+01 0. -1.
       -4    1    3    3    0  502 -0.55069294331E+03 -0.10379164290E+03  0.14919085977E+04  0.15936838770E+04  0.12699999809E+01 0.  1.
</event>
<event>
 5   0  0.4415080E-06  0.2583797E+04  0.7818609E-02  0.8373726E-01
        1   -1    0    0  501    0  0.00000000000E+00  0.00000000000E+00  0.24509613933E+04  0.24509613933E+04  0.50400001928E-02 0. -1.
       -1   -1    0    0    0  501  0.00000000000E+00  0.00000000000E+00 -0.68095806541E+03  0.68095806543E+03  0.50400001928E-02 0.  1.
    10030    2    1    2    0    0  0.00000000000E+00  0.00000000000E+00  0.17700033278E+04  0.31319194587E+04  0.25837971505E+04 0.  0.
        2    1    3    3  502    0 -0.13930885959E+03  0.67884468155E+03  0.22066020327E+04  0.23128617751E+04  0.25500000920E-02 0. -1.
       -2    1    3    3    0  502  0.13930885959E+03 -0.67884468155E+03 -0.43659870482E+03  0.81905768362E+03  0.25500000920E-02 0.  1.
</event>
<event>
 5   0  0.4415080E-06  0.2603935E+04  0.7818609E-02  0.8366866E-01
        1   -1    0    0  501    0  0.00000000000E+00  0.00000000000E+00  0.12492799159E+04  0.12492799159E+04  0.50400001928E-02 0. -1.
       -1   -1    0    0    0  501  0.00000000000E+00  0.00000000000E+00 -0.13568770772E+04  0.13568770772E+04  0.50400001928E-02 0.  1.
    10030    2    1    2    0    0  0.00000000000E+00  0.00000000000E+00 -0.10759716134E+03  0.26061569931E+04  0.26039349307E+04 0.  0.
        2    1    3    3  502    0  0.28771209693E+02 -0.68516202760E+03  0.10538727709E+04  0.12573474475E+04  0.25500000920E-02 0. -1.
       -2    1    3    3    0  502 -0.28771209693E+02  0.68516202760E+03 -0.11614699322E+04  0.13488095455E+04  0.25500000920E-02 0.  1.
</event>
<event>
 5   0  0.1085255E-05  0.2607637E+04  0.7818609E-02  0.8365612E-01
        2   -1    0    0  501    0  0.00000000000E+00  0.00000000000E+00  0.16303939318E+04  0.16303939318E+04  0.25500000920E-02 0.  1.
       -2   -1    0    0    0  501  0.00000000000E+00  0.00000000000E+00 -0.10426573904E+04  0.10426573904E+04  0.25500000920E-02 0. -1.
    10030    2    1    2    0    0  0.00000000000E+00  0.00000000000E+00  0.58773654142E+03  0.26730513221E+04  0.26076366941E+04 0.  0.
        5    1    3    3  502    0 -0.10814588216E+04  0.20845813718E+02 -0.45235789860E+03  0.11724493546E+04  0.46999998093E+01 0. -1.
       -5    1    3    3    0  502  0.10814588216E+04 -0.20845813718E+02  0.10400944400E+04  0.15006019675E+04  0.46999998093E+01 0.  1.
</event>
<event>
 5   0  0.1136881E-05  0.2587225E+04  0.7818609E-02  0.8372553E-01
        2   -1    0    0  501    0  0.00000000000E+00  0.00000000000E+00  0.18939709327E+04  0.18939709327E+04  0.25500000920E-02 0.  1.
       -2   -1    0    0    0  501  0.00000000000E+00  0.00000000000E+00 -0.88355828113E+03  0.88355828114E+03  0.25500000920E-02 0. -1.
    10030    2    1    2    0    0  0.00000000000E+00  0.00000000000E+00  0.10104126516E+04  0.27775292138E+04  0.25872253105E+04 0.  0.
        3    1    3    3  502    0  0.56023063489E+03 -0.10949364538E+04  0.93555267179E+03  0.15453164770E+04  0.10100000352E+00 0.  1.
       -3    1    3    3    0  502 -0.56023063489E+03  0.10949364538E+04  0.74859979773E+02  0.12322127369E+04  0.10100000352E+00 0. -1.
</event>
<event>
 5   0  0.4415080E-06  0.2599220E+04  0.7818609E-02  0.8368466E-01
       -1   -1    0    0    0  501  0.00000000000E+00  0.00000000000E+00  0.11534132883E+04  0.11534132883E+04  0.50400001928E-02 0.  1.
        1   -1    0    0  501    0  0.00000000000E+00  0.00000000000E+00 -0.14643368796E+04  0.14643368796E+04  0.50400001928E-02 0. -1.
    10030    2    1    2    0    0  0.00000000000E+00  0.00000000000E+00 -0.31092359128E+03  0.26177501680E+04  0.25992195871E+04 0.  0.
        2    1    3    3  502    0 -0.86254472968E+03  0.23907088848E+03 -0.11044359139E+04  0.14215895991E+04  0.25500000920E-02 0. -1.
       -2    1    3    3    0  502  0.86254472968E+03 -0.23907088848E+03  0.79351232258E+03  0.11961605689E+04  0.25500000920E-02 0.  1.
</event>
<event>
 5   0  0.1116310E-05  0.2559094E+04  0.7818609E-02  0.8382230E-01
        2   -1    0    0  501    0  0.00000000000E+00  0.00000000000E+00  0.14841555790E+04  0.14841555790E+04  0.25500000920E-02 0.  1.
       -2   -1    0    0    0  501  0.00000000000E+00  0.00000000000E+00 -0.11031461267E+04  0.11031461267E+04  0.25500000920E-02 0. -1.
    10030    2    1    2    0    0  0.00000000000E+00  0.00000000000E+00  0.38100945226E+03  0.25873017057E+04  0.25590939634E+04 0.  0.
        4    1    3    3  502    0 -0.36953446737E+03  0.29484369881E+03 -0.10116135587E+04  0.11166253331E+04  0.12699999809E+01 0. -1.
       -4    1    3    3    0  502  0.36953446737E+03 -0.29484369881E+03  0.13926230110E+04  0.14706763726E+04  0.12699999809E+01 0.  1.
</event>
<event>
 5   0  0.4464297E-06  0.2642176E+04  0.7818609E-02  0.8354015E-01
        1   -1    0    0  501    0  0.00000000000E+00  0.00000000000E+00  0.84989752007E+03  0.84989752009E+03  0.50400001928E-02 0. -1.
       -1   -1    0    0    0  501  0.00000000000E+00  0.00000000000E+00 -0.20535101352E+04  0.20535101352E+04  0.50400001928E-02 0.  1.
    10030    2    1    2    0    0  0.00000000000E+00  0.00000000000E+00 -0.12036126151E+04  0.29034076553E+04  0.26421757484E+04 0.  0.
        4    1    3    3  502    0  0.12322914902E+04  0.25010374028E+03 -0.15655730989E+03  0.12671250932E+04  0.12699999809E+01 0. -1.
       -4    1    3    3    0  502 -0.12322914902E+04 -0.25010374028E+03 -0.10470553052E+04  0.16362825620E+04  0.12699999809E+01 0.  1.
</event>
<event>
 5   0  0.4361864E-06  0.2611150E+04  0.7818609E-02  0.8364424E-01
        1   -1    0    0  501    0  0.00000000000E+00  0.00000000000E+00  0.13501547857E+04  0.13501547857E+04  0.50400001928E-02 0.  1.
       -1   -1    0    0    0  501  0.00000000000E+00  0.00000000000E+00 -0.12624671664E+04  0.12624671664E+04  0.50400001928E-02 0. -1.
    10030    2    1    2    0    0  0.00000000000E+00  0.00000000000E+00  0.87687619329E+02  0.26126219522E+04  0.26111500046E+04 0.  0.
        3    1    3    3  502    0 -0.83571406218E+03 -0.16928918048E+03 -0.94537384820E+03  0.12731097924E+04  0.10100000352E+00 0. -1.
       -3    1    3    3    0  502  0.83571406218E+03  0.16928918048E+03  0.10330614675E+04  0.13395121598E+04  0.10100000352E+00 0.  1.
</event>
<event>
 5   0  0.1085061E-05  0.2578305E+04  0.7818609E-02  0.8375608E-01
       -2   -1    0    0    0  501  0.00000000000E+00  0.00000000000E+00  0.11507251365E+04  0.11507251365E+04  0.25500000920E-02 0.  1.
        2   -1    0    0  501    0  0.00000000000E+00  0.00000000000E+00 -0.14442319974E+04  0.14442319974E+04  0.25500000920E-02 0. -1.
    10030    2    1    2    0    0  0.00000000000E+00  0.00000000000E+00 -0.29350686094E+03  0.25949571339E+04  0.25783049179E+04 0.  0.
        1    1    3    3  502    0  0.12842230475E+04 -0.11072093387E+03 -0.16752897403E+03  0.12998284187E+04  0.50400001928E-02 0. -1.
       -1    1    3    3    0  502 -0.12842230475E+04  0.11072093387E+03 -0.12597788691E+03  0.12951287152E+04  0.50400001928E-02 0.  1.
</event>
<event>
 5   0  0.4415080E-06  0.2587301E+04  0.7818609E-02  0.8372528E-01
       -1   -1    0    0    0  501  0.00000000000E+00  0.00000000000E+00  0.94492832751E+03  0.94492832753E+03  0.50400001928E-02 0. -1.
        1   -1    0    0  501    0  0.00000000000E+00  0.00000000000E+00 -0.17710665863E+04  0.17710665863E+04  0.50400001928E-02 0.  1.
    10030    2    1    2    0    0  0.00000000000E+00  0.00000000000E+00 -0.82613825878E+03  0.27159949138E+04  0.25873005139E+04 0.  0.
        2    1    3    3  502    0 -0.93092105774E+03 -0.86148794015E+03 -0.68019774283E+03  0.14392513527E+04  0.25500000920E-02 0.  1.
       -2    1    3    3    0  502  0.93092105774E+03  0.86148794015E+03 -0.14594051595E+03  0.12767435612E+04  0.25500000920E-02 0. -1.
</event>
<event>
 5   0  0.1085061E-05  0.2601062E+04  0.7818609E-02  0.8367841E-01
        2   -1    0    0  501    0  0.00000000000E+00  0.00000000000E+00  0.13839018811E+04  0.13839018811E+04  0.25500000920E-02 0. -1.
       -2   -1    0    0    0  501  0.00000000000E+00  0.00000000000E+00 -0.12221824610E+04  0.12221824610E+04  0.25500000920E-02 0.  1.
    10030    2    1    2    0    0  0.00000000000E+00  0.00000000000E+00  0.16171942016E+03  0.26060843421E+04  0.26010617884E+04 0.  0.
        1    1    3    3  502    0  0.26535112871E+01 -0.37834207545E+03  0.13275416121E+04  0.13804044694E+04  0.50400001928E-02 0. -1.
       -1    1    3    3    0  502 -0.26535112871E+01  0.37834207545E+03 -0.11658221919E+04  0.12256798727E+04  0.50400001928E-02 0.  1.
</event>
<event>
 5   0  0.1136881E-05  0.2590503E+04  0.7818609E-02  0.8371434E-01
        2   -1    0    0  501    0  0.00000000000E+00  0.00000000000E+00  0.17042465681E+04  0.17042465681E+04  0.25500000920E-02 0. -1.
       -2   -1    0    0    0  501  0.00000000000E+00  0.00000000000E+00 -0.98440943864E+03  0.98440943864E+03  0.25500000920E-02 0.  1.
    10030    2    1    2    0    0  0.00000000000E+00  0.00000000000E+00  0.71983712947E+03  0.26886560068E+04  0.25905029685E+04 0.  0.
        3    1    3    3  502    0  0.37875690379E+02 -0.22732421036E+03 -0.96295934450E+03  0.99015229833E+03  0.10100000352E+00 0.  1.
       -3    1    3    3    0  502 -0.37875690379E+02  0.22732421036E+03  0.16827964740E+04  0.16985037084E+04  0.10100000352E+00 0. -1.
</event>
<event>
 5   0  0.4218590E-06  0.2614848E+04  0.7818609E-02  0.8363175E-01
        1   -1    0    0  501    0  0.00000000000E+00  0.00000000000E+00  0.21937668497E+04  0.21937668497E+04  0.50400001928E-02 0.  1.
       -1   -1    0    0    0  501  0.00000000000E+00  0.00000000000E+00 -0.77918813207E+03  0.77918813208E+03  0.50400001928E-02 0. -1.
    10030    2    1    2    0    0  0.00000000000E+00  0.00000000000E+00  0.14145787177E+04  0.29729549818E+04  0.26148476773E+04 0.  0.
        1    1    3    3  502    0  0.83147700835E+03  0.94625490195E+03  0.11053924653E+04  0.16759012075E+04  0.50400001928E-02 0.  1.
       -1    1    3    3    0  502 -0.83147700835E+03 -0.94625490195E+03  0.30918625241E+03  0.12970537744E+04  0.50400001928E-02 0. -1.
</event>
<event>
 5   0  0.4218590E-06  0.2593242E+04  0.7818609E-02  0.8370500E-01
        1   -1    0    0  501    0  0.00000000000E+00  0.00000000000E+00  0.11716975289E+04  0.11716975289E+04  0.50400001928E-02 0. -1.
       -1   -1    0    0    0  501  0.00000000000E+00  0.00000000000E+00 -0.14348632062E+04  0.14348632062E+04  0.50400001928E-02 0.  1.
    10030    2    1    2    0    0  0.00000000000E+00  0.00000000000E+00 -0.26316567737E+03  0.26065607351E+04  0.25932417342E+04 0.  0.
        1    1    3    3  502    0 -0.61319786242E+03  0.10030130497E+04 -0.68136457705E+03  0.13587878728E+04  0.50400001928E-02 0.  1.
       -1    1    3    3    0  502  0.61319786242E+03 -0.10030130497E+04  0.41819889968E+03  0.12477728623E+04  0.50400001928E-02 0. -1.
</event>
<event>
 5   0  0.1085061E-05  0.2660472E+04  0.7818609E-02  0.8347946E-01
        2   -1    0    0  501    0  0.00000000000E+00  0.00000000000E+00  0.12932251196E+04  0.12932251196E+04  0.25500000920E-02 0. -1.
       -2   -1    0    0    0  501  0.00000000000E+00  0.00000000000E+00 -0.13683061100E+04  0.13683061100E+04  0.25500000920E-02 0.  1.
    10030    2    1    2    0    0  0.00000000000E+00  0.00000000000E+00 -0.75080990474E+02  0.26615312296E+04  0.26604720128E+04 0.  0.
        1    1    3    3  502    0 -0.30811315147E+02  0.65486955842E+03  0.11203849520E+04  0.12981008884E+04  0.50400001928E-02 0. -1.
       -1    1    3    3    0  502  0.30811315147E+02 -0.65486955842E+03 -0.11954659425E+04  0.13634303412E+04  0.50400001928E-02 0.  1.
</event>
<event>
 5   0  0.4415080E-06  0.2579903E+04  0.7818609E-02  0.8375060E-01
       -1   -1    0    0    0  501  0.00000000000E+00  0.00000000000E+00  0.10352374065E+04  0.10352374066E+04  0.50400001928E-02 0. -1.
        1   -1    0    0  501    0  0.00000000000E+00  0.00000000000E+00 -0.16073368118E+04  0.16073368118E+04  0.50400001928E-02 0.  1.
    10030    2    1    2    0    0  0.00000000000E+00  0.00000000000E+00 -0.57209940529E+03  0.26425742184E+04  0.25799032482E+04 0.  0.
        2    1    3    3  502    0  0.77389703893E+03  0.99679250741E+03 -0.55986972080E+03  0.13805672870E+04  0.25500000920E-02 0.  1.
       -2    1    3    3    0  502 -0.77389703893E+03 -0.99679250741E+03 -0.12229684492E+02  0.12620069314E+04  0.25500000920E-02 0. -1.
</event>
<event>
 5   0  0.4218590E-06  0.2554488E+04  0.7818609E-02  0.8383827E-01
       -1   -1    0    0    0  501  0.00000000000E+00  0.00000000000E+00  0.82865918698E+03  0.82865918700E+03  0.50400001928E-02 0. -1.
        1   -1    0    0  501    0  0.00000000000E+00  0.00000000000E+00 -0.19686653187E+04  0.19686653187E+04  0.50400001928E-02 0.  1.
    10030    2    1    2    0    0  0.00000000000E+00  0.00000000000E+00 -0.11400061317E+04  0.27973245057E+04  0.25544882873E+04 0.  0.
        1    1    3    3  502    0 -0.54997754922E+03  0.42069478464E+03  0.60528693351E+03  0.91969107768E+03  0.50400001928E-02 0. -1.
       -1    1    3    3    0  502  0.54997754922E+03 -0.42069478464E+03 -0.17452930652E+04  0.18776334280E+04  0.50400001928E-02 0.  1.
</event>
<event>
 5   0  0.1136881E-05  0.2601281E+04  0.7818609E-02  0.8367766E-01
        2   -1    0    0  501    0  0.00000000000E+00  0.00000000000E+00  0.10093518534E+04  0.10093518534E+04  0.25500000920E-02 0. -1.
       -2   -1    0    0    0  501  0.00000000000E+00  0.00000000000E+00 -0.16759915096E+04  0.16759915096E+04  0.25500000920E-02 0.  1.
    10030    2    1    2    0    0  0.00000000000E+00  0.00000000000E+00 -0.66663965620E+03  0.26853433630E+04  0.26012805588E+04 0.  0.
        3    1    3    3  502    0  0.79963983219E+03  0.10256384993E+04 -0.31523414586E+03  0.13381818895E+04  0.10100000352E+00 0.  1.
       -3    1    3    3    0  502 -0.79963983219E+03 -0.10256384993E+04 -0.35140551034E+03  0.13471614734E+04  0.10100000352E+00 0. -1.
</event>
<event>
 5   0  0.4464297E-06  0.2589033E+04  0.7818609E-02  0.8371936E-01
       -1   -1    0    0    0  501  0.00000000000E+00  0.00000000000E+00  0.73778736256E+03  0.73778736258E+03  0.50400001928E-02 0.  1.
        1   -1    0    0  501    0  0.00000000000E+00  0.00000000000E+00 -0.22713497054E+04  0.22713497054E+04  0.50400001928E-02 0. -1.
    10030    2    1    2    0    0  0.00000000000E+00  0.00000000000E+00 -0.15335623428E+04  0.30091370679E+04  0.25890331080E+04 0.  0.
        4    1    3    3  502    0  0.12586964834E+04  0.22657023753E+03 -0.53397847896E+03  0.13859240740E+04  0.12699999809E+01 0. -1.
       -4    1    3    3    0  502 -0.12586964834E+04 -0.22657023753E+03 -0.99958386384E+03  0.16232129940E+04  0.12699999809E+01 0.  1.
</event>
<event>
 5   0  0.4218590E-06  0.2606620E+04  0.7818609E-02  0.8365956E-01
       -1   -1    0    0    0  501  0.00000000000E+00  0.00000000000E+00  0.13904772187E+04  0.13904772187E+04  0.50400001928E-02 0. -1.
        1   -1    0    0  501    0  0.00000000000E+00  0.00000000000E+00 -0.12216067296E+04  0.12216067296E+04  0.50400001928E-02 0.  1.
    10030    2    1    2    0    0  0.00000000000E+00  0.00000000000E+00  0.16887048914E+03  0.26120839483E+04  0.26066195179E+04 0.  0.
        1    1    3    3  502    0  0.11041418783E+03  0.11036818467E+04  0.77020268263E+03  0.13503766453E+04  0.50400001928E-02 0. -1.
       -1    1    3    3    0  502 -0.11041418783E+03 -0.11036818467E+04 -0.60133219349E+03  0.12617073031E+04  0.50400001928E-02 0.  1.
</event>
<event>
 5   0  0.4218590E-06  0.2600574E+04  0.7818609E-02  0.8368006E-01
       -1   -1    0    0    0  501  0.00000000000E+00  0.00000000000E+00  0.24030842419E+04  0.24030842419E+04  0.50400001928E-02 0.  1.
        1   -1    0    0  501    0  0.00000000000E+00  0.00000000000E+00 -0.70357346131E+03  0.70357346133E+03  0.50400001928E-02 0. -1.
    10030    2    1    2    0    0  0.00000000000E+00  0.00000000000E+00  0.16995107806E+04  0.31066577033E+04  0.26005740120E+04 0.  0.
        1    1    3    3  502    0  0.37018661062E+03 -0.10285883522E+04  0.86704550030E+01  0.10932096330E+04  0.50400001928E-02 0. -1.
       -1    1    3    3    0  502 -0.37018661062E+03  0.10285883522E+04  0.16908403256E+04  0.20134480702E+04  0.50400001928E-02 0.  1.
</event>
<event>
 5   0  0.1086507E-05  0.2579408E+04  0.7818609E-02  0.8375230E-01
        2   -1    0    0  501    0  0.00000000000E+00  0.00000000000E+00  0.12663123140E+04  0.12663123141E+04  0.25500000920E-02 0. -1.
       -2   -1    0    0    0  501  0.00000000000E+00  0.00000000000E+00 -0.13135274263E+04  0.13135274263E+04  0.25500000920E-02 0.  1.
    10030    2    1    2    0    0  0.00000000000E+00  0.00000000000E+00 -0.47215112296E+02  0.25798397404E+04  0.25794076489E+04 0.  0.
        2    1    3    3  502    0 -0.50689520365E+03 -0.75686130434E+03  0.88953726460E+03  0.12732078882E+04  0.25500000920E-02 0. -1.
       -2    1    3    3    0  502  0.50689520365E+03  0.75686130434E+03 -0.93675237690E+03  0.13066318522E+04  0.25500000920E-02 0.  1.
</event>
<event>
 5   0  0.1116310E-05  0.2591378E+04  0.7818609E-02  0.8371136E-01
       -2   -1    0    0    0  501  0.00000000000E+00  0.00000000000E+00  0.10537063811E+04  0.10537063811E+04  0.25500000920E-02 0. -1.
        2   -1    0    0  501    0  0.00000000000E+00  0.00000000000E+00 -0.15932421267E+04  0.15932421267E+04  0.25500000920E-02 0.  1.
    10030    2    1    2    0    0  0.00000000000E+00  0.00000000000E+00 -0.53953574557E+03  0.26469485079E+04  0.25913775453E+04 0.  0.
        4    1    3    3  502    0 -0.11123121448E+04 -0.35999437440E+03 -0.84029154926E+03  0.14397658691E+04  0.12699999809E+01 0.  1.
       -4    1    3    3    0  502  0.11123121448E+04  0.35999437440E+03  0.30075580369E+03  0.12071826388E+04  0.12699999809E+01 0. -1.
</event>
<event>
 5   0  0.1136881E-05  0.2606506E+04  0.7818609E-02  0.8365995E-01
        2   -1    0    0  501    0  0.00000000000E+00  0.00000000000E+00  0.95083821311E+03  0.95083821312E+03  0.25500000920E-02 0.  1.
       -2   -1    0    0    0  501  0.00000000000E+00  0.00000000000E+00 -0.17862854059E+04  0.17862854059E+04  0.25500000920E-02 0. -1.
    10030    2    1    2    0    0  0.00000000000E+00  0.00000000000E+00 -0.83544719283E+03  0.27371236191E+04  0.26065060318E+04 0.  0.
        3    1    3    3  502    0 -0.66824136316E+03  0.11178688579E+04 -0.46798778712E+03  0.13839038557E+04  0.10100000352E+00 0. -1.
       -3    1    3    3    0  502  0.66824136316E+03 -0.11178688579E+04 -0.36745940571E+03  0.13532197633E+04  0.10100000352E+00 0.  1.
</event>
<event>
 5   0  0.4361864E-06  0.2614054E+04  0.7818609E-02  0.8363443E-01
        1   -1    0    0  501    0  0.00000000000E+00  0.00000000000E+00  0.13751090512E+04  0.13751090512E+04  0.50400001928E-02 0. -1.
       -1   -1    0    0    0  501  0.00000000000E+00  0.00000000000E+00 -0.12423155570E+04  0.12423155570E+04  0.50400001928E-02 0.  1.
    10030    2    1    2    0    0  0.00000000000E+00  0.00000000000E+00  0.13279349417E+03  0.26174246082E+04  0.26140538379E+04 0.  0.
        3    1    3    3  502    0 -0.38932056917E+02 -0.84718832464E+03  0.10622019616E+04  0.13592338945E+04  0.10100000352E+00 0. -1.
       -3    1    3    3    0  502  0.38932056917E+02  0.84718832464E+03 -0.92940846748E+03  0.12581907137E+04  0.10100000352E+00 0.  1.
</event>
<event>
 5   0  0.1085255E-05  0.2596141E+04  0.7818609E-02  0.8369513E-01
       -2   -1    0    0    0  501  0.00000000000E+00  0.00000000000E+00  0.15967799180E+04  0.15967799180E+04  0.25500000920E-02 0.  1.
        2   -1    0    0  501    0  0.00000000000E+00  0.00000000000E+00 -0.10552406697E+04  0.10552406697E+04  0.25500000920E-02 0. -1.
    10030    2    1    2    0    0  0.00000000000E+00  0.00000000000E+00  0.54153924826E+03  0.26520205878E+04  0.25961410671E+04 0.  0.
        5    1    3    3  502    0 -0.55685359655E+03 -0.59183500655E+03 -0.76324811069E+03  0.11148651808E+04  0.46999998093E+01 0. -1.
       -5    1    3    3    0  502  0.55685359655E+03  0.59183500655E+03  0.13047873589E+04  0.15371554069E+04  0.46999998093E+01 0.  1.
</event>
<event>
 5   0  0.1086507E-05  0.2611166E+04  0.7818609E-02  0.8364418E-01
       -2   -1    0    0    0  501  0.00000000000E+00  0.00000000000E+00  0.10008432816E+04  0.10008432816E+04  0.25500000920E-02 0.  1.
        2   -1    0    0  501    0  0.00000000000E+00  0.00000000000E+00 -0.17031106682E+04  0.17031106682E+04  0.25500000920E-02 0. -1.
    10030    2    1    2    0    0  0.00000000000E+00  0.00000000000E+00 -0.70226738655E+03  0.27039539498E+04  0.26111659236E+04 0.  0.
        2    1    3    3  502    0 -0.23129593353E+03  0.88619034229E+03 -0.13146353772E+04  0.16022163733E+04  0.25500000920E-02 0. -1.
       -2    1    3    3    0  502  0.23129593353E+03 -0.88619034229E+03  0.61236799069E+03  0.11017375766E+04  0.25500000920E-02 0.  1.
</event>
<event>
 5   0  0.4361864E-06  0.2594188E+04  0.7818609E-02  0.8370178E-01
       -1   -1    0    0    0  501  0.00000000000E+00  0.00000000000E+00  0.13548087250E+04  0.13548087250E+04  0.50400001928E-02 0.  1.
        1   -1    0    0  501    0  0.00000000000E+00  0.00000000000E+00 -0.12418376732E+04  0.12418376732E+04  0.50400001928E-02 0. -1.
    10030    2    1    2    0    0  0.00000000000E+00  0.00000000000E+00  0.11297105176E+03  0.25966463982E+04  0.25941877455E+04 0.  0.
        3    1    3    3  502    0 -0.12724275017E+04  0.14761457807E+03 -0.14764572282E+03  0.12894421586E+04  0.10100000352E+00 0.  1.
       -3    1    3    3    0  502  0.12724275017E+04 -0.14761457807E+03  0.26061677457E+03  0.13072042396E+04  0.10100000352E+00 0. -1.
</event>
<event>
 5   0  0.1085255E-05  0.2572716E+04  0.7818609E-02  0.8377529E-01
        2   -1    0    0  501    0  0.00000000000E+00  0.00000000000E+00  0.13742260966E+04  0.13742260966E+04  0.25500000920E-02 0. -1.
       -2   -1    0    0    0  501  0.00000000000E+00  0.00000000000E+00 -0.12041077884E+04  0.12041077884E+04  0.25500000920E-02 0.  1.
    10030    2    1    2    0    0  0.00000000000E+00  0.00000000000E+00  0.17011830826E+03  0.25783338850E+04  0.25727155660E+04 0.  0.
        5    1    3    3  502    0 -0.12599372986E+03 -0.17635355993E+03 -0.11856685225E+04  0.12053244100E+04  0.46999998093E+01 0.  1.
       -5    1    3    3    0  502  0.12599372986E+03  0.17635355993E+03  0.13557868308E+04  0.13730094750E+04  0.46999998093E+01 0. -1.
</event>
<event>
 5   0  0.3705250E-06  0.2594675E+04  0.7818609E-02  0.8370012E-01
        3   -1    0    0  501    0  0.00000000000E+00  0.00000000000E+00  0.63267669380E+03  0.63267670186E+03  0.10100000352E+00 0.  1.
       -3   -1    0    0    0  501  0.00000000000E+00  0.00000000000E+00 -0.26602606733E+04  0.26602606753E+04  0.10100000352E+00 0. -1.
    10030    2    1    2    0    0  0.00000000000E+00  0.00000000000E+00 -0.20275839796E+04  0.32929373771E+04  0.25946752736E+04 0.  0.
        4    1    3    3  502    0  0.98414888759E+03  0.14340140422E+03 -0.20710254794E+04  0.22974466577E+04  0.12699999809E+01 0. -1.
       -4    1    3    3    0  502 -0.98414888759E+03 -0.14340140422E+03  0.43441499848E+02  0.99549071944E+03  0.12699999809E+01 0.  1.
</event>
<event>
 5   0  0.1085255E-05  0.2596074E+04  0.7818609E-02  0.8369536E-01
        2   -1    0    0  501    0  0.00000000000E+00  0.00000000000E+00  0.13043369296E+04  0.13043369296E+04  0.25500000920E-02 0.  1.
       -2   -1    0    0    0  501  0.00000000000E+00  0.00000000000E+00 -0.12917677048E+04  0.12917677048E+04  0.25500000920E-02 0. -1.
    10030    2    1    2    0    0  0.00000000000E+00  0.00000000000E+00  0.12569224793E+02  0.25961046345E+04  0.25960742069E+04 0.  0.
        5    1    3    3  502    0  0.42177569128E+03 -0.50698363355E+03  0.11243098331E+04  0.13034653157E+04  0.46999998093E+01 0.  1.
       -5    1    3    3    0  502 -0.42177569128E+03  0.50698363355E+03 -0.11117406083E+04  0.12926393188E+04  0.46999998093E+01 0. -1.
</event>
<event>
 5   0  0.1085061E-05  0.2603030E+04  0.7818609E-02  0.8367173E-01
        2   -1    0    0  501    0  0.00000000000E+00  0.00000000000E+00  0.22142873113E+04  0.22142873113E+04  0.25500000920E-02 0. -1.
       -2   -1    0    0    0  501  0.00000000000E+00  0.00000000000E+00 -0.76500521613E+03  0.76500521614E+03  0.25500000920E-02 0.  1.
    10030    2    1    2    0    0  0.00000000000E+00  0.00000000000E+00  0.14492820952E+04  0.29792925274E+04  0.26030300368E+04 0.  0.
        1    1    3    3  502    0  0.58155673958E+03 -0.89232477462E+03 -0.13146975325E+03  0.10731896574E+04  0.50400001928E-02 0.  1.
       -1    1    3    3    0  502 -0.58155673958E+03  0.89232477462E+03  0.15807518484E+04  0.19061028700E+04  0.50400001928E-02 0. -1.
</event>
<event>
 5   0  0.1116310E-05  0.2601246E+04  0.7818609E-02  0.8367778E-01
       -2   -1    0    0    0  501  0.00000000000E+00  0.00000000000E+00  0.16885344559E+04  0.16885344559E+04  0.25500000920E-02 0. -1.
        2   -1    0    0  501    0  0.00000000000E+00  0.00000000000E+00 -0.10018274597E+04  0.10018274597E+04  0.25500000920E-02 0.  1.
    10030    2    1    2    0    0  0.00000000000E+00  0.00000000000E+00  0.68670699624E+03  0.26903619156E+04  0.26012459973E+04 0.  0.
        4    1    3    3  502    0 -0.10871905873E+04  0.46930547660E+03  0.89973056014E+03  0.14871945727E+04  0.12699999809E+01 0. -1.
       -4    1    3    3    0  502  0.10871905873E+04 -0.46930547660E+03 -0.21302356391E+03  0.12031673429E+04  0.12699999809E+01 0.  1.
</event>
<event>
 5   0  0.4361864E-06  0.2612377E+04  0.7818609E-02  0.8364009E-01
        1   -1    0    0  501    0  0.00000000000E+00  0.00000000000E+00  0.14640945656E+04  0.14640945656E+04  0.50400001928E-02 0.  1.
       -1   -1    0    0    0  501  0.00000000000E+00  0.00000000000E+00 -0.11653133887E+04  0.11653133887E+04  0.50400001928E-02 0. -1.
    10030    2    1    2    0    0  0.00000000000E+00  0.00000000000E+00  0.29878117690E+03  0.26294079543E+04  0.26123774610E+04 0.  0.
        3    1    3    3  502    0  0.10565813203E+04  0.41583707098E+03  0.79923448975E+03  0.13885461230E+04  0.10100000352E+00 0.  1.
       -3    1    3    3    0  502 -0.10565813203E+04 -0.41583707098E+03 -0.50045331285E+03  0.12408618313E+04  0.10100000352E+00 0. -1.
</event>
<event>
 5   0  0.4464297E-06  0.2615420E+04  0.7818609E-02  0.8362982E-01
       -1   -1    0    0    0  501  0.00000000000E+00  0.00000000000E+00  0.10424991075E+04  0.10424991075E+04  0.50400001928E-02 0.  1.
        1   -1    0    0  501    0  0.00000000000E+00  0.00000000000E+00 -0.16403908204E+04  0.16403908204E+04  0.50400001928E-02 0. -1.
    10030    2    1    2    0    0  0.00000000000E+00  0.00000000000E+00 -0.59789171295E+03  0.26828899279E+04  0.26154203993E+04 0.  0.
        4    1    3    3  502    0 -0.10995914500E+04  0.38725935172E+03 -0.90671051071E+03  0.14768875128E+04  0.12699999809E+01 0. -1.
       -4    1    3    3    0  502  0.10995914500E+04 -0.38725935172E+03  0.30881879775E+03  0.12060024151E+04  0.12699999809E+01 0.  1.
</event>
<event>
 5   0  0.1085061E-05  0.2501248E+04  0.7818609E-02  0.8402541E-01
       -2   -1    0    0    0  501  0.00000000000E+00  0.00000000000E+00  0.10811531070E+04  0.10811531070E+04  0.25500000920E-02 0. -1.
        2   -1    0    0  501    0  0.00000000000E+00  0.00000000000E+00 -0.14466595828E+04  0.14466595828E+04  0.25500000920E-02 0.  1.
    10030    2    1    2    0    0  0.00000000000E+00  0.00000000000E+00 -0.36550647578E+03  0.25278126897E+04  0.25012480906E+04 0.  0.
        1    1    3    3  502    0  0.10398306934E+04 -0.61716847425E+03  0.13987968184E+03  0.12172555697E+04  0.50400001928E-02 0. -1.
       -1    1    3    3    0  502 -0.10398306934E+04  0.61716847425E+03 -0.50538615762E+03  0.13105571200E+04  0.50400001928E-02 0.  1.
</event>
<event>
 5   0  0.4218590E-06  0.2597955E+04  0.7818609E-02  0.8368896E-01
       -1   -1    0    0    0  501  0.00000000000E+00  0.00000000000E+00  0.10654502329E+04  0.10654502329E+04  0.50400001928E-02 0.  1.
        1   -1    0    0  501    0  0.00000000000E+00  0.00000000000E+00 -0.15836902350E+04  0.15836902351E+04  0.50400001928E-02 0. -1.
    10030    2    1    2    0    0  0.00000000000E+00  0.00000000000E+00 -0.51824000219E+03  0.26491404679E+04  0.25979554498E+04 0.  0.
        1    1    3    3  502    0  0.23652837559E+03 -0.93757125786E+03 -0.11435947566E+04  0.14975962417E+04  0.50400001928E-02 0. -1.
       -1    1    3    3    0  502 -0.23652837559E+03  0.93757125786E+03  0.62535475436E+03  0.11515442262E+04  0.50400001928E-02 0.  1.
</event>
<event>
 5   0  0.1116310E-05  0.2576479E+04  0.7818609E-02  0.8376235E-01
       -2   -1    0    0    0  501  0.00000000000E+00  0.00000000000E+00  0.90860827565E+03  0.90860827565E+03  0.25500000920E-02 0. -1.
        2   -1    0    0  501    0  0.00000000000E+00  0.00000000000E+00 -0.18264870842E+04  0.18264870842E+04  0.25500000920E-02 0.  1.
    10030    2    1    2    0    0  0.00000000000E+00  0.00000000000E+00 -0.91787880855E+03  0.27350953599E+04  0.25764792101E+04 0.  0.
        4    1    3    3  502    0 -0.74296456489E+03  0.79765431566E+03  0.26984585393E+03  0.11229724617E+04  0.12699999809E+01 0. -1.
       -4    1    3    3    0  502  0.74296456489E+03 -0.79765431566E+03 -0.11877246625E+04  0.16121228981E+04  0.12699999809E+01 0.  1.
</event>
<event>
 5   0  0.1085255E-05  0.2584010E+04  0.7818609E-02  0.8373653E-01
       -2   -1    0    0    0  501  0.00000000000E+00  0.00000000000E+00  0.80922624234E+03  0.80922624234E+03  0.25500000920E-02 0.  1.
        2   -1    0    0  501    0  0.00000000000E+00  0.00000000000E+00 -0.20628061678E+04  0.20628061678E+04  0.25500000920E-02 0. -1.
    10030    2    1    2    0    0  0.00000000000E+00  0.00000000000E+00 -0.12535799255E+04  0.28720324102E+04  0.25840099720E+04 0.  0.
        5    1    3    3  502    0 -0.33825606731E+03 -0.11020101510E+04 -0.12752707383E+04  0.17190640145E+04  0.46999998093E+01 0. -1.
       -5    1    3    3    0  502  0.33825606731E+03  0.11020101510E+04  0.21690812827E+02  0.11529683957E+04  0.46999998093E+01 0.  1.
</event>
<event>
 5   0  0.1085255E-05  0.2450912E+04  0.7818609E-02  0.8420685E-01
       -2   -1    0    0    0  501  0.00000000000E+00  0.00000000000E+00  0.10187817477E+04  0.10187817477E+04  0.25500000920E-02 0. -1.
        2   -1    0    0  501    0  0.00000000000E+00  0.00000000000E+00 -0.14740575897E+04  0.14740575897E+04  0.25500000920E-02 0.  1.
    10030    2    1    2    0    0  0.00000000000E+00  0.00000000000E+00 -0.45527584204E+03  0.24928393375E+04  0.24509124566E+04 0.  0.
        5    1    3    3  502    0 -0.19841662020E+03 -0.75686680794E+03  0.73163134452E+03  0.10712250158E+04  0.46999998093E+01 0. -1.
       -5    1    3    3    0  502  0.19841662020E+03  0.75686680794E+03 -0.11869071866E+04  0.14216143217E+04  0.46999998093E+01 0.  1.
</event>
<event>
 5   0  0.4464297E-06  0.2409020E+04  0.7818609E-02  0.8436134E-01
       -1   -1    0    0    0  501  0.00000000000E+00  0.00000000000E+00  0.10479149146E+04  0.10479149147E+04  0.50400001928E-02 0. -1.
        1   -1    0    0  501    0  0.00000000000E+00  0.00000000000E+00 -0.13845058545E+04  0.13845058545E+04  0.50400001928E-02 0.  1.
    10030    2    1    2    0    0  0.00000000000E+00  0.00000000000E+00 -0.33659093984E+03  0.24324207692E+04  0.24090199952E+04 0.  0.
        4    1    3    3  502    0 -0.31928951850E+03 -0.86092808204E+03 -0.95541888442E+03  0.13251301131E+04  0.12699999809E+01 0.  1.
       -4    1    3    3    0  502  0.31928951850E+03  0.86092808204E+03  0.61882794458E+03  0.11072906560E+04  0.12699999809E+01 0. -1.
</event>
<event>
 5   0  0.4464297E-06  0.2601299E+04  0.7818609E-02  0.8367760E-01
       -1   -1    0    0    0  501  0.00000000000E+00  0.00000000000E+00  0.15391348902E+04  0.15391348902E+04  0.50400001928E-02 0.  1.
        1   -1    0    0  501    0  0.00000000000E+00  0.00000000000E+00 -0.10991168039E+04  0.10991168039E+04  0.50400001928E-02 0. -1.
    10030    2    1    2    0    0  0.00000000000E+00  0.00000000000E+00  0.44001808627E+03  0.26382516941E+04  0.26012989227E+04 0.  0.
        4    1    3    3  502    0  0.29111351523E+03  0.12673663504E+04  0.24727709313E+03  0.13236737206E+04  0.12699999809E+01 0.  1.
       -4    1    3    3    0  502 -0.29111351523E+03 -0.12673663504E+04  0.19274099314E+03  0.13145779735E+04  0.12699999809E+01 0. -1.
</event>
<event>
 5   0  0.4218590E-06  0.2592077E+04  0.7818609E-02  0.8370897E-01
        1   -1    0    0  501    0  0.00000000000E+00  0.00000000000E+00  0.17088509925E+04  0.17088509925E+04  0.50400001928E-02 0.  1.
       -1   -1    0    0    0  501  0.00000000000E+00  0.00000000000E+00 -0.98295035654E+03  0.98295035655E+03  0.50400001928E-02 0. -1.
    10030    2    1    2    0    0  0.00000000000E+00  0.00000000000E+00  0.72590063595E+03  0.26918013491E+04  0.25920769220E+04 0.  0.
        1    1    3    3  502    0  0.10428669502E+04  0.67998207359E+03 -0.11142976927E+02  0.12450185791E+04  0.50400001928E-02 0. -1.
       -1    1    3    3    0  502 -0.10428669502E+04 -0.67998207359E+03  0.73704361288E+03  0.14467827700E+04  0.50400001928E-02 0.  1.
</event>
<event>
 5   0  0.1085255E-05  0.2609522E+04  0.7818609E-02  0.8364974E-01
       -2   -1    0    0    0  501  0.00000000000E+00  0.00000000000E+00  0.12822441759E+04  0.12822441759E+04  0.25500000920E-02 0. -1.
        2   -1    0    0  501    0  0.00000000000E+00  0.00000000000E+00 -0.13276733042E+04  0.13276733042E+04  0.25500000920E-02 0.  1.
    10030    2    1    2    0    0  0.00000000000E+00  0.00000000000E+00 -0.45429128304E+02  0.26099174801E+04  0.26095220726E+04 0.  0.
        5    1    3    3  502    0  0.84180839321E+03  0.55669643344E+03  0.80434905566E+03  0.12905625840E+04  0.46999998093E+01 0. -1.
       -5    1    3    3    0  502 -0.84180839321E+03 -0.55669643344E+03 -0.84977818397E+03  0.13193548961E+04  0.46999998093E+01 0.  1.
</event>
<event>
 5   0  0.1085061E-05  0.2576874E+04  0.7818609E-02  0.8376099E-01
       -2   -1    0    0    0  501  0.00000000000E+00  0.00000000000E+00  0.71756946217E+03  0.71756946217E+03  0.25500000920E-02 0. -1.
        2   -1    0    0  501    0  0.00000000000E+00  0.00000000000E+00 -0.23134623204E+04  0.23134623204E+04  0.25500000920E-02 0.  1.
    10030    2    1    2    0    0  0.00000000000E+00  0.00000000000E+00 -0.15958928582E+04  0.30310317826E+04  0.25768740078E+04 0.  0.
        1    1    3    3  502    0  0.95448736552E+03 -0.83821411896E+03 -0.54451880248E+03  0.13820816786E+04  0.50400001928E-02 0. -1.
       -1    1    3    3    0  502 -0.95448736552E+03  0.83821411896E+03 -0.10513740558E+04  0.16489501039E+04  0.50400001928E-02 0.  1.
</event>
<event>
 5   0  0.1085061E-05  0.2586874E+04  0.7818609E-02  0.8372674E-01
        2   -1    0    0  501    0  0.00000000000E+00  0.00000000000E+00  0.12151235317E+04  0.12151235317E+04  0.25500000920E-02 0.  1.
       -2   -1    0    0    0  501  0.00000000000E+00  0.00000000000E+00 -0.13767973323E+04  0.13767973323E+04  0.25500000920E-02 0. -1.
    10030    2    1    2    0    0  0.00000000000E+00  0.00000000000E+00 -0.16167380061E+03  0.25919208639E+04  0.25868736627E+04 0.  0.
        1    1    3    3  502    0  0.70982432510E+03 -0.56763993854E+03 -0.10029112907E+04  0.13534757956E+04  0.50400001928E-02 0. -1.
       -1    1    3    3    0  502 -0.70982432510E+03  0.56763993854E+03  0.84123749011E+03  0.12384450683E+04  0.50400001928E-02 0.  1.
</event>
<event>
 5   0  0.1085061E-05  0.2538669E+04  0.7818609E-02  0.8389338E-01
       -2   -1    0    0    0  501  0.00000000000E+00  0.00000000000E+00  0.11722436410E+04  0.11722436410E+04  0.25500000920E-02 0.  1.
        2   -1    0    0  501    0  0.00000000000E+00  0.00000000000E+00 -0.13744669667E+04  0.13744669667E+04  0.25500000920E-02 0. -1.
    10030    2    1    2    0    0  0.00000000000E+00  0.00000000000E+00 -0.20222332563E+03  0.25467106077E+04  0.25386690698E+04 0.  0.
        1    1    3    3  502    0  0.97042617056E+03  0.79878300318E+03  0.76731942288E+02  0.12592335088E+04  0.50400001928E-02 0.  1.
       -1    1    3    3    0  502 -0.97042617056E+03 -0.79878300318E+03 -0.27895526792E+03  0.12874770989E+04  0.50400001928E-02 0. -1.
</event>
<event>
 5   0  0.4415080E-06  0.2594775E+04  0.7818609E-02  0.8369978E-01
       -1   -1    0    0    0  501  0.00000000000E+00  0.00000000000E+00  0.63273715314E+03  0.63273715316E+03  0.50400001928E-02 0. -1.
        1   -1    0    0  501    0  0.00000000000E+00  0.00000000000E+00 -0.26602103037E+04  0.26602103037E+04  0.50400001928E-02 0.  1.
    10030    2    1    2    0    0  0.00000000000E+00  0.00000000000E+00 -0.20274731506E+04  0.32929474569E+04  0.25947746679E+04 0.  0.
        2    1    3    3  502    0 -0.10160452277E+04  0.67447915828E+03 -0.15754967864E+04  0.19923504119E+04  0.25500000920E-02 0.  1.
       -2    1    3    3    0  502  0.10160452277E+04 -0.67447915828E+03 -0.45197636417E+03  0.13005970450E+04  0.25500000920E-02 0. -1.
</event>
<event>
 5   0  0.4597705E-06  0.2600812E+04  0.7818609E-02  0.8367926E-01
       -1   -1    0    0    0  501  0.00000000000E+00  0.00000000000E+00  0.13139435896E+04  0.13139435896E+04  0.50400001928E-02 0. -1.
        1   -1    0    0  501    0  0.00000000000E+00  0.00000000000E+00 -0.12870074907E+04  0.12870074907E+04  0.50400001928E-02 0.  1.
    10030    2    1    2    0    0  0.00000000000E+00  0.00000000000E+00  0.26936098878E+02  0.26009510804E+04  0.26008115981E+04 0.  0.
        5    1    3    3  502    0 -0.30596433599E+03  0.11227036816E+04  0.59397779408E+03  0.13064874441E+04  0.46999998093E+01 0. -1.
       -5    1    3    3    0  502  0.30596433599E+03 -0.11227036816E+04 -0.56704169520E+03  0.12944636363E+04  0.46999998093E+01 0.  1.
</event>
<event>
 5   0  0.1085255E-05  0.2595195E+04  0.7818609E-02  0.8369835E-01
        2   -1    0    0  501    0  0.00000000000E+00  0.00000000000E+00  0.11071644016E+04  0.11071644016E+04  0.25500000920E-02 0.  1.
       -2   -1    0    0    0  501  0.00000000000E+00  0.00000000000E+00 -0.15207855997E+04  0.15207855997E+04  0.25500000920E-02 0. -1.
    10030    2    1    2    0    0  0.00000000000E+00  0.00000000000E+00 -0.41362119806E+03  0.26279500013E+04  0.25951953133E+04 0.  0.
        5    1    3    3  502    0 -0.18565957755E+03 -0.79678576125E+03 -0.12266969747E+04  0.14744980793E+04  0.46999998093E+01 0. -1.
       -5    1    3    3    0  502  0.18565957755E+03  0.79678576125E+03  0.81307577661E+03  0.11534519221E+04  0.46999998093E+01 0.  1.
</event>
<event>
 5   0  0.4464297E-06  0.2599701E+04  0.7818609E-02  0.8368303E-01
        1   -1    0    0  501    0  0.00000000000E+00  0.00000000000E+00  0.20510912272E+04  0.20510912272E+04  0.50400001928E-02 0.  1.
       -1   -1    0    0    0  501  0.00000000000E+00  0.00000000000E+00 -0.82376209213E+03  0.82376209214E+03  0.50400001928E-02 0. -1.
    10030    2    1    2    0    0  0.00000000000E+00  0.00000000000E+00  0.12273291351E+04  0.28748533194E+04  0.25997009063E+04 0.  0.
        4    1    3    3  502    0 -0.47980032443E+03 -0.10265271481E+04  0.13179755047E+04  0.17381102902E+04  0.12699999809E+01 0.  1.
       -4    1    3    3    0  502  0.47980032443E+03  0.10265271481E+04 -0.90646369600E+02  0.11367430291E+04  0.12699999809E+01 0. -1.
</event>
<event>
 5   0  0.1086507E-05  0.2618103E+04  0.7818609E-02  0.8362078E-01
        2   -1    0    0  501    0  0.00000000000E+00  0.00000000000E+00  0.27058558941E+04  0.27058558941E+04  0.25500000920E-02 0.  1.
       -2   -1    0    0    0  501  0.00000000000E+00  0.00000000000E+00 -0.63329897929E+03  0.63329897929E+03  0.25500000920E-02 0. -1.
    10030    2    1    2    0    0  0.00000000000E+00  0.00000000000E+00  0.20725569148E+04  0.33391548734E+04  0.26181029589E+04 0.  0.
        2    1    3    3  502    0  0.88370911158E+03  0.96123944412E+03  0.11551909578E+04  0.17433844131E+04  0.25500000920E-02 0.  1.
       -2    1    3    3    0  502 -0.88370911158E+03 -0.96123944412E+03  0.91736595692E+03  0.15957704602E+04  0.25500000920E-02 0. -1.
</event>
<event>
 5   0  0.4218590E-06  0.2569914E+04  0.7818609E-02  0.8378493E-01
        1   -1    0    0  501    0  0.00000000000E+00  0.00000000000E+00  0.77421296491E+03  0.77421296492E+03  0.50400001928E-02 0.  1.
       -1   -1    0    0    0  501  0.00000000000E+00  0.00000000000E+00 -0.21326365398E+04  0.21326365398E+04  0.50400001928E-02 0. -1.
    10030    2    1    2    0    0  0.00000000000E+00  0.00000000000E+00 -0.13584235749E+04  0.29068495047E+04  0.25699142854E+04 0.  0.
        1    1    3    3  502    0 -0.13443907843E+03  0.63437991191E+03 -0.19339782872E+04  0.20397999298E+04  0.50400001928E-02 0. -1.
       -1    1    3    3    0  502  0.13443907843E+03 -0.63437991191E+03  0.57555471229E+03  0.86704957489E+03  0.50400001928E-02 0.  1.
</event>
<event>
 5   0  0.1136881E-05  0.2342092E+04  0.7818609E-02  0.8461508E-01
       -2   -1    0    0    0  501  0.00000000000E+00  0.00000000000E+00  0.16001092765E+04  0.16001092765E+04  0.25500000920E-02 0.  1.
        2   -1    0    0  501    0  0.00000000000E+00  0.00000000000E+00 -0.85703406199E+03  0.85703406200E+03  0.25500000920E-02 0. -1.
    10030    2    1    2    0    0  0.00000000000E+00  0.00000000000E+00  0.74307521455E+03  0.24571433385E+04  0.23420915037E+04 0.  0.
        3    1    3    3  502    0 -0.29986976850E+03  0.80337851061E+03  0.12082155959E+04  0.14815950343E+04  0.10100000352E+00 0.  1.
       -3    1    3    3    0  502  0.29986976850E+03 -0.80337851061E+03 -0.46514038132E+03  0.97554830424E+03  0.10100000352E+00 0. -1.
</event>
<event>
 5   0  0.1085255E-05  0.2571812E+04  0.7818609E-02  0.8377839E-01
        2   -1    0    0  501    0  0.00000000000E+00  0.00000000000E+00  0.90611174497E+03  0.90611174497E+03  0.25500000920E-02 0. -1.
       -2   -1    0    0    0  501  0.00000000000E+00  0.00000000000E+00 -0.18248904389E+04  0.18248904389E+04  0.25500000920E-02 0.  1.
    10030    2    1    2    0    0  0.00000000000E+00  0.00000000000E+00 -0.91877869388E+03  0.27310021838E+04  0.25718123259E+04 0.  0.
        5    1    3    3  502    0 -0.29889120329E+03 -0.62257315476E+03 -0.16112423639E+04  0.17530137848E+04  0.46999998093E+01 0.  1.
       -5    1    3    3    0  502  0.29889120329E+03  0.62257315476E+03  0.69246367000E+03  0.97798839906E+03  0.46999998093E+01 0. -1.
</event>
<event>
 5   0  0.4218590E-06  0.2699171E+04  0.7818609E-02  0.8335274E-01
        1   -1    0    0  501    0  0.00000000000E+00  0.00000000000E+00  0.15002359715E+04  0.15002359715E+04  0.50400001928E-02 0.  1.
       -1   -1    0    0    0  501  0.00000000000E+00  0.00000000000E+00 -0.12140630675E+04  0.12140630675E+04  0.50400001928E-02 0. -1.
    10030    2    1    2    0    0  0.00000000000E+00  0.00000000000E+00  0.28617290395E+03  0.27142990390E+04  0.26991710473E+04 0.  0.
        1    1    3    3  502    0 -0.49680163429E+03 -0.29650445122E+03 -0.10830315999E+04  0.12278779255E+04  0.50400001928E-02 0. -1.
       -1    1    3    3    0  502  0.49680163429E+03  0.29650445122E+03  0.13692045039E+04  0.14864211136E+04  0.50400001928E-02 0.  1.
</event>
<event>
 5   0  0.4464297E-06  0.2551846E+04  0.7818609E-02  0.8384744E-01
        1   -1    0    0  501    0  0.00000000000E+00  0.00000000000E+00  0.19619425164E+04  0.19619425164E+04  0.50400001928E-02 0.  1.
       -1   -1    0    0    0  501  0.00000000000E+00  0.00000000000E+00 -0.82977968101E+03  0.82977968103E+03  0.50400001928E-02 0. -1.
    10030    2    1    2    0    0  0.00000000000E+00  0.00000000000E+00  0.11321628354E+04  0.27917221975E+04  0.25518464182E+04 0.  0.
        4    1    3    3  502    0  0.41579039801E+03  0.98519001988E+03  0.13275699872E+04  0.17046773050E+04  0.12699999809E+01 0.  1.
       -4    1    3    3    0  502 -0.41579039801E+03 -0.98519001988E+03 -0.19540715180E+03  0.10870448925E+04  0.12699999809E+01 0. -1.
</event>
<event>
 5   0  0.3705250E-06  0.2600115E+04  0.7818609E-02  0.8368162E-01
        3   -1    0    0  501    0  0.00000000000E+00  0.00000000000E+00  0.67020470149E+03  0.67020470910E+03  0.10100000352E+00 0.  1.
       -3   -1    0    0    0  501  0.00000000000E+00  0.00000000000E+00 -0.25218413221E+04  0.25218413241E+04  0.10100000352E+00 0. -1.
    10030    2    1    2    0    0  0.00000000000E+00  0.00000000000E+00 -0.18516366206E+04  0.31920460332E+04  0.26001153250E+04 0.  0.
        4    1    3    3  502    0  0.10955310180E+03  0.92995605200E+03  0.18133928219E+03  0.95378492803E+03  0.12699999809E+01 0.  1.
       -4    1    3    3    0  502 -0.10955310180E+03 -0.92995605200E+03 -0.20329759028E+04  0.22382611052E+04  0.12699999809E+01 0. -1.
</event>
<event>
 5   0  0.4597705E-06  0.2591035E+04  0.7818609E-02  0.8371253E-01
        1   -1    0    0  501    0  0.00000000000E+00  0.00000000000E+00  0.13542948566E+04  0.13542948566E+04  0.50400001928E-02 0. -1.
       -1   -1    0    0    0  501  0.00000000000E+00  0.00000000000E+00 -0.12392913572E+04  0.12392913573E+04  0.50400001928E-02 0.  1.
    10030    2    1    2    0    0  0.00000000000E+00  0.00000000000E+00  0.11500349939E+03  0.25935862139E+04  0.25910352456E+04 0.  0.
        5    1    3    3  502    0 -0.74186996756E+02  0.45536786170E+03 -0.11542603056E+04  0.12430617615E+04  0.46999998093E+01 0.  1.
       -5    1    3    3    0  502  0.74186996756E+02 -0.45536786170E+03  0.12692638049E+04  0.13505244524E+04  0.46999998093E+01 0. -1.
</event>
<event>
 5   0  0.1085255E-05  0.2633476E+04  0.7818609E-02  0.8356918E-01
       -2   -1    0    0    0  501  0.00000000000E+00  0.00000000000E+00  0.14180203172E+04  0.14180203172E+04  0.25500000920E-02 0.  1.
        2   -1    0    0  501    0  0.00000000000E+00  0.00000000000E+00 -0.12226899701E+04  0.12226899701E+04  0.25500000920E-02 0. -1.
    10030    2    1    2    0    0  0.00000000000E+00  0.00000000000E+00  0.19533034703E+03  0.26407102873E+04  0.26334761964E+04 0.  0.
        5    1    3    3  502    0 -0.72993946341E+03 -0.47106843230E+03  0.10898578635E+04  0.13937465124E+04  0.46999998093E+01 0.  1.
       -5    1    3    3    0  502  0.72993946341E+03  0.47106843230E+03 -0.89452751650E+03  0.12469637749E+04  0.46999998093E+01 0. -1.
</event>
<event>
 5   0  0.1085255E-05  0.2619883E+04  0.7818609E-02  0.8361478E-01
       -2   -1    0    0    0  501  0.00000000000E+00  0.00000000000E+00  0.12801129077E+04  0.12801129077E+04  0.25500000920E-02 0.  1.
        2   -1    0    0  501    0  0.00000000000E+00  0.00000000000E+00 -0.13404655113E+04  0.13404655113E+04  0.25500000920E-02 0. -1.
    10030    2    1    2    0    0  0.00000000000E+00  0.00000000000E+00 -0.60352603629E+02  0.26205784190E+04  0.26198833587E+04 0.  0.
        5    1    3    3  502    0 -0.24852809929E+03  0.11230196091E+04  0.59687585089E+03  0.12958480351E+04  0.46999998093E+01 0.  1.
       -5    1    3    3    0  502  0.24852809929E+03 -0.11230196091E+04 -0.65722845452E+03  0.13247303839E+04  0.46999998093E+01 0. -1.
</event>
<event>
 5   0  0.1136881E-05  0.2655237E+04  0.7818609E-02  0.8349677E-01
       -2   -1    0    0    0  501  0.00000000000E+00  0.00000000000E+00  0.15738990089E+04  0.15738990089E+04  0.25500000920E-02 0. -1.
        2   -1    0    0  501    0  0.00000000000E+00  0.00000000000E+00 -0.11198755416E+04  0.11198755416E+04  0.25500000920E-02 0.  1.
    10030    2    1    2    0    0  0.00000000000E+00  0.00000000000E+00  0.45402346729E+03  0.26937745504E+04  0.26552370930E+04 0.  0.
        3    1    3    3  502    0  0.70978099905E+03 -0.49004714154E+03 -0.79691148526E+03  0.11743096666E+04  0.10100000352E+00 0.  1.
       -3    1    3    3    0  502 -0.70978099905E+03  0.49004714154E+03  0.12509349525E+04  0.15194648838E+04  0.10100000352E+00 0. -1.
</event>
<event>
 5   0  0.1085255E-05  0.2598032E+04  0.7818609E-02  0.8368870E-01
       -2   -1    0    0    0  501  0.00000000000E+00  0.00000000000E+00  0.11690502600E+04  0.11690502600E+04  0.25500000920E-02 0.  1.
        2   -1    0    0  501    0  0.00000000000E+00  0.00000000000E+00 -0.14434305638E+04  0.14434305638E+04  0.25500000920E-02 0. -1.
    10030    2    1    2    0    0  0.00000000000E+00  0.00000000000E+00 -0.27438030381E+03  0.26124808239E+04  0.25980322369E+04 0.  0.
        5    1    3    3  502    0  0.28323461856E+03  0.42854000367E+03 -0.13369527115E+04  0.14322475438E+04  0.46999998093E+01 0. -1.
       -5    1    3    3    0  502 -0.28323461856E+03 -0.42854000367E+03  0.10625724077E+04  0.11802332801E+04  0.46999998093E+01 0.  1.
</event>
<event>
 5   0  0.4415080E-06  0.2598649E+04  0.7818609E-02  0.8368660E-01
        1   -1    0    0  501    0  0.00000000000E+00  0.00000000000E+00  0.16352630235E+04  0.16352630235E+04  0.50400001928E-02 0.  1.
       -1   -1    0    0    0  501  0.00000000000E+00  0.00000000000E+00 -0.10323989466E+04  0.10323989466E+04  0.50400001928E-02 0. -1.
    10030    2    1    2    0    0  0.00000000000E+00  0.00000000000E+00  0.60286407693E+03  0.26676619701E+04  0.25986487434E+04 0.  0.
        2    1    3    3  502    0  0.14331528012E+03 -0.11860348123E+04  0.82590738973E+03  0.14523570023E+04  0.25500000920E-02 0.  1.
       -2    1    3    3    0  502 -0.14331528012E+03  0.11860348123E+04 -0.22304331280E+03  0.12153049679E+04  0.25500000920E-02 0. -1.
</event>
<event>
 5   0  0.1136881E-05  0.2591521E+04  0.7818609E-02  0.8371087E-01
        2   -1    0    0  501    0  0.00000000000E+00  0.00000000000E+00  0.10287420551E+04  0.10287420551E+04  0.25500000920E-02 0.  1.
       -2   -1    0    0    0  501  0.00000000000E+00  0.00000000000E+00 -0.16320856435E+04  0.16320856435E+04  0.25500000920E-02 0. -1.
    10030    2    1    2    0    0  0.00000000000E+00  0.00000000000E+00 -0.60334358835E+03  0.26608276986E+04  0.25915208963E+04 0.  0.
        3    1    3    3  502    0  0.11684931984E+04  0.30372673553E+03 -0.78475316120E+03  0.14399527141E+04  0.10100000352E+00 0. -1.
       -3    1    3    3    0  502 -0.11684931984E+04 -0.30372673553E+03  0.18140957286E+03  0.12208749845E+04  0.10100000352E+00 0.  1.
</event>
<event>
 5   0  0.1116310E-05  0.2633639E+04  0.7818609E-02  0.8356864E-01
       -2   -1    0    0    0  501  0.00000000000E+00  0.00000000000E+00  0.12103934471E+04  0.12103934471E+04  0.25500000920E-02 0.  1.
        2   -1    0    0  501    0  0.00000000000E+00  0.00000000000E+00 -0.14326029997E+04  0.14326029997E+04  0.25500000920E-02 0. -1.
    10030    2    1    2    0    0  0.00000000000E+00  0.00000000000E+00 -0.22220955258E+03  0.26429964468E+04  0.26336387627E+04 0.  0.
        4    1    3    3  502    0  0.95107684813E+03  0.72287120758E+03  0.44486884010E+03  0.12747548202E+04  0.12699999809E+01 0.  1.
       -4    1    3    3    0  502 -0.95107684813E+03 -0.72287120758E+03 -0.66707839268E+03  0.13682416266E+04  0.12699999809E+01 0. -1.
</event>
<event>
 5   0  0.1136881E-05  0.2602786E+04  0.7818609E-02  0.8367255E-01
        2   -1    0    0  501    0  0.00000000000E+00  0.00000000000E+00  0.19419345315E+04  0.19419345315E+04  0.25500000920E-02 0. -1.
       -2   -1    0    0    0  501  0.00000000000E+00  0.00000000000E+00 -0.87213244823E+03  0.87213244824E+03  0.25500000920E-02 0.  1.
    10030    2    1    2    0    0  0.00000000000E+00  0.00000000000E+00  0.10698020833E+04  0.28140669798E+04  0.26027862896E+04 0.  0.
        3    1    3    3  502    0 -0.52945165210E+03  0.13307170736E+03  0.18121510955E+04  0.18925957663E+04  0.10100000352E+00 0. -1.
       -3    1    3    3    0  502  0.52945165210E+03 -0.13307170736E+03 -0.74234901222E+03  0.92147121353E+03  0.10100000352E+00 0.  1.
</event>
<event>
 5   0  0.4415080E-06  0.2587878E+04  0.7818609E-02  0.8372330E-01
        1   -1    0    0  501    0  0.00000000000E+00  0.00000000000E+00  0.13483755234E+04  0.13483755234E+04  0.50400001928E-02 0. -1.
       -1   -1    0    0    0  501  0.00000000000E+00  0.00000000000E+00 -0.12417005081E+04  0.12417005081E+04  0.50400001928E-02 0.  1.
    10030    2    1    2    0    0  0.00000000000E+00  0.00000000000E+00  0.10667501532E+03  0.25900760316E+04  0.25878783376E+04 0.  0.
        2    1    3    3  502    0  0.85522951145E+03  0.86692762742E+03  0.49108468566E+03  0.13130670954E+04  0.25500000920E-02 0.  1.
       -2    1    3    3    0  502 -0.85522951145E+03 -0.86692762742E+03 -0.38440967035E+03  0.12770089362E+04  0.25500000920E-02 0. -1.
</event>
<event>
 5   0  0.1086507E-05  0.2594277E+04  0.7818609E-02  0.8370148E-01
        2   -1    0    0  501    0  0.00000000000E+00  0.00000000000E+00  0.14278956017E+04  0.14278956017E+04  0.25500000920E-02 0. -1.
       -2   -1    0    0    0  501  0.00000000000E+00  0.00000000000E+00 -0.11783548235E+04  0.11783548235E+04  0.25500000920E-02 0.  1.
    10030    2    1    2    0    0  0.00000000000E+00  0.00000000000E+00  0.24954077821E+03  0.26062504252E+04  0.25942765232E+04 0.  0.
        2    1    3    3  502    0  0.93377406072E+03  0.68229057832E+03  0.71494522521E+03  0.13596327095E+04  0.25500000920E-02 0.  1.
       -2    1    3    3    0  502 -0.93377406072E+03 -0.68229057832E+03 -0.46540444700E+03  0.12466177157E+04  0.25500000920E-02 0. -1.
</event>
<event>
 5   0  0.4464297E-06  0.2565928E+04  0.7818609E-02  0.8379868E-01
        1   -1    0    0  501    0  0.00000000000E+00  0.00000000000E+00  0.28613083415E+04  0.28613083415E+04  0.50400001928E-02 0.  1.
       -1   -1    0    0    0  501  0.00000000000E+00  0.00000000000E+00 -0.57526007548E+03  0.57526007550E+03  0.50400001928E-02 0. -1.
    10030    2    1    2    0    0  0.00000000000E+00  0.00000000000E+00  0.22860482660E+04  0.34365684170E+04  0.25659278653E+04 0.  0.
        4    1    3    3  502    0 -0.70059393207E+03  0.76216117748E+03  0.12808529438E+03  0.10431342069E+04  0.12699999809E+01 0. -1.
       -4    1    3    3    0  502  0.70059393207E+03 -0.76216117748E+03  0.21579629716E+04  0.23934342101E+04  0.12699999809E+01 0.  1.
</event>
<event>
 5   0  0.4464297E-06  0.2600507E+04  0.7818609E-02  0.8368029E-01
       -1   -1    0    0    0  501  0.00000000000E+00  0.00000000000E+00  0.18525420252E+04  0.18525420253E+04  0.50400001928E-02 0. -1.
        1   -1    0    0  501    0  0.00000000000E+00  0.00000000000E+00 -0.91261576230E+03  0.91261576231E+03  0.50400001928E-02 0.  1.
    10030    2    1    2    0    0  0.00000000000E+00  0.00000000000E+00  0.93992626295E+03  0.27651577876E+04  0.26005069141E+04 0.  0.
        4    1    3    3  502    0 -0.47688422119E+03  0.76032246281E+03 -0.53042840027E+03  0.10425280373E+04  0.12699999809E+01 0.  1.
       -4    1    3    3    0  502  0.47688422119E+03 -0.76032246281E+03  0.14703546632E+04  0.17226297502E+04  0.12699999809E+01 0. -1.
</event>
<event>
 5   0  0.1116310E-05  0.2532975E+04  0.7818609E-02  0.8391331E-01
       -2   -1    0    0    0  501  0.00000000000E+00  0.00000000000E+00  0.83459895975E+03  0.83459895975E+03  0.25500000920E-02 0.  1.
        2   -1    0    0  501    0  0.00000000000E+00  0.00000000000E+00 -0.19218703141E+04  0.19218703141E+04  0.25500000920E-02 0. -1.
    10030    2    1    2    0    0  0.00000000000E+00  0.00000000000E+00 -0.10872713544E+04  0.27564692739E+04  0.25329752979E+04 0.  0.
        4    1    3    3  502    0  0.38890636150E+02 -0.13677781870E+03 -0.19131547315E+04  0.19184325093E+04  0.12699999809E+01 0. -1.
       -4    1    3    3    0  502 -0.38890636150E+02  0.13677781870E+03  0.82588337711E+03  0.83803676456E+03  0.12699999809E+01 0.  1.
</event>
<event>
 5   0  0.4361864E-06  0.2601358E+04  0.7818609E-02  0.8367740E-01
        1   -1    0    0  501    0  0.00000000000E+00  0.00000000000E+00  0.17921261473E+04  0.17921261474E+04  0.50400001928E-02 0.  1.
       -1   -1    0    0    0  501  0.00000000000E+00  0.00000000000E+00 -0.94399910170E+03  0.94399910171E+03  0.50400001928E-02 0. -1.
    10030    2    1    2    0    0  0.00000000000E+00  0.00000000000E+00  0.84812704565E+03  0.27361252491E+04  0.26013577019E+04 0.  0.
        3    1    3    3  502    0 -0.46816212494E+03  0.61140267861E+03 -0.67846687259E+03  0.10263071266E+04  0.10100000352E+00 0. -1.
       -3    1    3    3    0  502  0.46816212494E+03 -0.61140267861E+03  0.15265939182E+04  0.17098181225E+04  0.10100000352E+00 0.  1.
</event>
<event>
 5   0  0.4415080E-06  0.2925959E+04  0.7818609E-02  0.8265196E-01
        1   -1    0    0  501    0  0.00000000000E+00  0.00000000000E+00  0.76386563431E+03  0.76386563433E+03  0.50400001928E-02 0.  1.
       -1   -1    0    0    0  501  0.00000000000E+00  0.00000000000E+00 -0.28019440020E+04  0.28019440020E+04  0.50400001928E-02 0. -1.
    10030    2    1    2    0    0  0.00000000000E+00  0.00000000000E+00 -0.20380783676E+04  0.35658096363E+04  0.29259588052E+04 0.  0.
        2    1    3    3  502    0  0.40694195974E+03 -0.13024034794E+03 -0.27242102113E+04  0.27575143847E+04  0.25500000920E-02 0. -1.
       -2    1    3    3    0  502 -0.40694195974E+03  0.13024034794E+03  0.68613184363E+03  0.80829525155E+03  0.25500000920E-02 0.  1.
</event>
<event>
 5   0  0.1136881E-05  0.2487041E+04  0.7818609E-02  0.8407617E-01
       -2   -1    0    0    0  501  0.00000000000E+00  0.00000000000E+00  0.10994185676E+04  0.10994185676E+04  0.25500000920E-02 0.  1.
        2   -1    0    0  501    0  0.00000000000E+00  0.00000000000E+00 -0.14065102691E+04  0.14065102691E+04  0.25500000920E-02 0. -1.
    10030    2    1    2    0    0  0.00000000000E+00  0.00000000000E+00 -0.30709170149E+03  0.25059288368E+04  0.24870412184E+04 0.  0.
        3    1    3    3  502    0 -0.42257109610E+03 -0.29283848074E+02 -0.13315782620E+04  0.13973276470E+04  0.10100000352E+00 0. -1.
       -3    1    3    3    0  502  0.42257109610E+03  0.29283848074E+02  0.10244865605E+04  0.11086011898E+04  0.10100000352E+00 0.  1.
</event>
<event>
 5   0  0.1136881E-05  0.2605932E+04  0.7818609E-02  0.8366189E-01
        2   -1    0    0  501    0  0.00000000000E+00  0.00000000000E+00  0.11059747188E+04  0.11059747188E+04  0.25500000920E-02 0.  1.
       -2   -1    0    0    0  501  0.00000000000E+00  0.00000000000E+00 -0.15350447256E+04  0.15350447256E+04  0.25500000920E-02 0. -1.
    10030    2    1    2    0    0  0.00000000000E+00  0.00000000000E+00 -0.42907000681E+03  0.26410194443E+04  0.26059322007E+04 0.  0.
        3    1    3    3  502    0 -0.66116200772E+02 -0.11601974430E+04  0.38271391142E+03  0.12234784048E+04  0.10100000352E+00 0.  1.
       -3    1    3    3    0  502  0.66116200772E+02  0.11601974430E+04 -0.81178391824E+03  0.14175410396E+04  0.10100000352E+00 0. -1.
</event>
<event>
 5   0  0.1116310E-05  0.2560230E+04  0.7818609E-02  0.8381837E-01
       -2   -1    0    0    0  501  0.00000000000E+00  0.00000000000E+00  0.86868352671E+03  0.86868352671E+03  0.25500000920E-02 0. -1.
        2   -1    0    0  501    0  0.00000000000E+00  0.00000000000E+00 -0.18864112929E+04  0.18864112929E+04  0.25500000920E-02 0.  1.
    10030    2    1    2    0    0  0.00000000000E+00  0.00000000000E+00 -0.10177277662E+04  0.27550948196E+04  0.25602300012E+04 0.  0.
        4    1    3    3  502    0  0.18925544240E+02 -0.10227898462E+04 -0.13370058749E+04  0.16834617810E+04  0.12699999809E+01 0.  1.
       -4    1    3    3    0  502 -0.18925544240E+02  0.10227898462E+04  0.31927810876E+03  0.10716330386E+04  0.12699999809E+01 0. -1.
</event>
<event>
 5   0  0.4218590E-06  0.2589414E+04  0.7818609E-02  0.8371806E-01
        1   -1    0    0  501    0  0.00000000000E+00  0.00000000000E+00  0.18012163043E+04  0.18012163043E+04  0.50400001928E-02 0.  1.
       -1   -1    0    0    0  501  0.00000000000E+00  0.00000000000E+00 -0.93062997670E+03  0.93062997671E+03  0.50400001928E-02 0. -1.
    10030    2    1    2    0    0  0.00000000000E+00  0.00000000000E+00  0.87058632758E+03  0.27318462810E+04  0.25894137462E+04 0.  0.
        1    1    3    3  502    0 -0.69018007119E+02  0.56142031842E+03  0.16639602697E+04  0.17574754731E+04  0.50400001928E-02 0.  1.
       -1    1    3    3    0  502  0.69018007119E+02 -0.56142031842E+03 -0.79337394214E+03  0.97437080792E+03  0.50400001928E-02 0. -1.
</event>
<event>
 5   0  0.1116310E-05  0.2595702E+04  0.7818609E-02  0.8369663E-01
       -2   -1    0    0    0  501  0.00000000000E+00  0.00000000000E+00  0.93755465412E+03  0.93755465413E+03  0.25500000920E-02 0.  1.
        2   -1    0    0  501    0  0.00000000000E+00  0.00000000000E+00 -0.17966062717E+04  0.17966062717E+04  0.25500000920E-02 0. -1.
    10030    2    1    2    0    0  0.00000000000E+00  0.00000000000E+00 -0.85905161758E+03  0.27341609258E+04  0.25957015018E+04 0.  0.
        4    1    3    3  502    0  0.75784371754E+03 -0.10210156648E+04 -0.15562681592E+03  0.12810235777E+04  0.12699999809E+01 0.  1.
       -4    1    3    3    0  502 -0.75784371754E+03  0.10210156648E+04 -0.70342480167E+03  0.14531373481E+04  0.12699999809E+01 0. -1.
</event>
<event>
 5   0  0.4361864E-06  0.2602178E+04  0.7818609E-02  0.8367462E-01
       -1   -1    0    0    0  501  0.00000000000E+00  0.00000000000E+00  0.28832937145E+04  0.28832937145E+04  0.50400001928E-02 0. -1.
        1   -1    0    0  501    0  0.00000000000E+00  0.00000000000E+00 -0.58711765319E+03  0.58711765321E+03  0.50400001928E-02 0.  1.
    10030    2    1    2    0    0  0.00000000000E+00  0.00000000000E+00  0.22961760613E+04  0.34704113677E+04  0.26021780409E+04 0.  0.
        3    1    3    3  502    0  0.86298407104E+03  0.24213073319E+02 -0.15009124064E+03  0.87627345647E+03  0.10100000352E+00 0.  1.
       -3    1    3    3    0  502 -0.86298407104E+03 -0.24213073319E+02  0.24462673019E+04  0.25941379112E+04  0.10100000352E+00 0. -1.
</event>
<event>
 5   0  0.1136881E-05  0.2656977E+04  0.7818609E-02  0.8349101E-01
       -2   -1    0    0    0  501  0.00000000000E+00  0.00000000000E+00  0.13339251435E+04  0.13339251435E+04  0.25500000920E-02 0. -1.
        2   -1    0    0  501    0  0.00000000000E+00  0.00000000000E+00 -0.13230744651E+04  0.13230744651E+04  0.25500000920E-02 0.  1.
    10030    2    1    2    0    0  0.00000000000E+00  0.00000000000E+00  0.10850678430E+02  0.26569996086E+04  0.26569774525E+04 0.  0.
        3    1    3    3  502    0  0.20099779057E+03 -0.11814432532E+04  0.57873109945E+03  0.13308410754E+04  0.10100000352E+00 0. -1.
       -3    1    3    3    0  502 -0.20099779057E+03  0.11814432532E+04 -0.56788042102E+03  0.13261585332E+04  0.10100000352E+00 0.  1.
</event>
<event>
 5   0  0.1136881E-05  0.2609760E+04  0.7818609E-02  0.8364894E-01
        2   -1    0    0  501    0  0.00000000000E+00  0.00000000000E+00  0.20452933677E+04  0.20452933677E+04  0.25500000920E-02 0. -1.
       -2   -1    0    0    0  501  0.00000000000E+00  0.00000000000E+00 -0.83250241684E+03  0.83250241684E+03  0.25500000920E-02 0.  1.
    10030    2    1    2    0    0  0.00000000000E+00  0.00000000000E+00  0.12127909509E+04  0.28777957846E+04  0.26097598907E+04 0.  0.
        3    1    3    3  502    0 -0.38612022170E+03 -0.77290670918E+02  0.19782108123E+04  0.20170227321E+04  0.10100000352E+00 0. -1.
       -3    1    3    3    0  502  0.38612022170E+03  0.77290670918E+02 -0.76541986145E+03  0.86077305251E+03  0.10100000352E+00 0.  1.
</event>
<event>
 5   0  0.4218590E-06  0.2702558E+04  0.7818609E-02  0.8334175E-01
       -1   -1    0    0    0  501  0.00000000000E+00  0.00000000000E+00  0.10150037033E+04  0.10150037034E+04  0.50400001928E-02 0.  1.
        1   -1    0    0  501    0  0.00000000000E+00  0.00000000000E+00 -0.17989638465E+04  0.17989638465E+04  0.50400001928E-02 0. -1.
    10030    2    1    2    0    0  0.00000000000E+00  0.00000000000E+00 -0.78396014319E+03  0.28139675499E+04  0.27025580227E+04 0.  0.
        1    1    3    3  502    0  0.43603711303E+03  0.11827199203E+03  0.93403310392E+03  0.10375617896E+04  0.50400001928E-02 0.  1.
       -1    1    3    3    0  502 -0.43603711303E+03 -0.11827199203E+03 -0.17179932471E+04  0.17764057603E+04  0.50400001928E-02 0. -1.
</event>
<event>
 5   0  0.4218590E-06  0.2632772E+04  0.7818609E-02  0.8357154E-01
        1   -1    0    0  501    0  0.00000000000E+00  0.00000000000E+00  0.88557355730E+03  0.88557355731E+03  0.50400001928E-02 0. -1.
       -1   -1    0    0    0  501  0.00000000000E+00  0.00000000000E+00 -0.19567794929E+04  0.19567794929E+04  0.50400001928E-02 0.  1.
    10030    2    1    2    0    0  0.00000000000E+00  0.00000000000E+00 -0.10712059356E+04  0.28423530502E+04  0.26327720573E+04 0.  0.
        1    1    3    3  502    0  0.54434119815E+03 -0.11564788256E+04 -0.87550114076E+03  0.15492749471E+04  0.50400001928E-02 0. -1.
       -1    1    3    3    0  502 -0.54434119815E+03  0.11564788256E+04 -0.19570479485E+03  0.12930781032E+04  0.50400001928E-02 0.  1.
</event>
<event>
 5   0  0.1085061E-05  0.2571509E+04  0.7818609E-02  0.8377944E-01
       -2   -1    0    0    0  501  0.00000000000E+00  0.00000000000E+00  0.10157750930E+04  0.10157750930E+04  0.25500000920E-02 0.  1.
        2   -1    0    0  501    0  0.00000000000E+00  0.00000000000E+00 -0.16274908915E+04  0.16274908915E+04  0.25500000920E-02 0. -1.
    10030    2    1    2    0    0  0.00000000000E+00  0.00000000000E+00 -0.61171579856E+03  0.26432659845E+04  0.25715090602E+04 0.  0.
        1    1    3    3  502    0 -0.70071963152E+03 -0.55829734768E+03 -0.12537959444E+04  0.15410088256E+04  0.50400001928E-02 0. -1.
       -1    1    3    3    0  502  0.70071963152E+03  0.55829734768E+03  0.64208014588E+03  0.11022571588E+04  0.50400001928E-02 0.  1.
</event>
<event>
 5   0  0.4464297E-06  0.2614594E+04  0.7818609E-02  0.8363261E-01
       -1   -1    0    0    0  501  0.00000000000E+00  0.00000000000E+00  0.69689098521E+03  0.69689098523E+03  0.50400001928E-02 0. -1.
        1   -1    0    0  501    0  0.00000000000E+00  0.00000000000E+00 -0.24523569394E+04  0.24523569394E+04  0.50400001928E-02 0.  1.
    10030    2    1    2    0    0  0.00000000000E+00  0.00000000000E+00 -0.17554659542E+04  0.31492479246E+04  0.26145939980E+04 0.  0.
        4    1    3    3  502    0 -0.49349419190E+03 -0.11629069671E+04 -0.12828686685E+04  0.18004562658E+04  0.12699999809E+01 0.  1.
       -4    1    3    3    0  502  0.49349419190E+03  0.11629069671E+04 -0.47259728568E+03  0.13487916588E+04  0.12699999809E+01 0. -1.
</event>
<event>
 5   0  0.1085255E-05  0.2300166E+04  0.7818609E-02  0.8477856E-01
       -2   -1    0    0    0  501  0.00000000000E+00  0.00000000000E+00  0.63642934070E+03  0.63642934071E+03  0.25500000920E-02 0.  1.
        2   -1    0    0  501    0  0.00000000000E+00  0.00000000000E+00 -0.20782993530E+04  0.20782993530E+04  0.25500000920E-02 0. -1.
    10030    2    1    2    0    0  0.00000000000E+00  0.00000000000E+00 -0.14418700123E+04  0.27147286937E+04  0.23001658088E+04 0.  0.
        5    1    3    3  502    0 -0.36266158278E+03 -0.73186752702E+03 -0.16764964955E+04  0.18648903695E+04  0.46999998093E+01 0. -1.
       -5    1    3    3    0  502  0.36266158278E+03  0.73186752702E+03  0.23462648320E+03  0.84983832424E+03  0.46999998093E+01 0.  1.
</event>
<event>
 5   0  0.4415080E-06  0.2598845E+04  0.7818609E-02  0.8368594E-01
       -1   -1    0    0    0  501  0.00000000000E+00  0.00000000000E+00  0.19261229931E+04  0.19261229931E+04  0.50400001928E-02 0.  1.
        1   -1    0    0  501    0  0.00000000000E+00  0.00000000000E+00 -0.87663098344E+03  0.87663098345E+03  0.50400001928E-02 0. -1.
    10030    2    1    2    0    0  0.00000000000E+00  0.00000000000E+00  0.10494920097E+04  0.28027539766E+04  0.25988452002E+04 0.  0.
        2    1    3    3  502    0  0.21224710072E+03 -0.12054038888E+03 -0.85168510693E+03  0.88597197388E+03  0.25500000920E-02 0. -1.
       -2    1    3    3    0  502 -0.21224710072E+03  0.12054038888E+03  0.19011771166E+04  0.19167820027E+04  0.25500000920E-02 0.  1.
</event>
<event>
 5   0  0.4597705E-06  0.2574149E+04  0.7818609E-02  0.8377036E-01
       -1   -1    0    0    0  501  0.00000000000E+00  0.00000000000E+00  0.70644329097E+03  0.70644329099E+03  0.50400001928E-02 0. -1.
        1   -1    0    0  501    0  0.00000000000E+00  0.00000000000E+00 -0.23449311120E+04  0.23449311121E+04  0.50400001928E-02 0.  1.
    10030    2    1    2    0    0  0.00000000000E+00  0.00000000000E+00 -0.16384878211E+04  0.30513744030E+04  0.25741490648E+04 0.  0.
        5    1    3    3  502    0  0.11106839149E+04  0.25347986140E+03 -0.15291617658E+04  0.19068897700E+04  0.46999998093E+01 0.  1.
       -5    1    3    3    0  502 -0.11106839149E+04 -0.25347986140E+03 -0.10932605529E+03  0.11444846331E+04  0.46999998093E+01 0. -1.
</event>
<event>
 5   0  0.4218590E-06  0.2623794E+04  0.7818609E-02  0.8360163E-01
       -1   -1    0    0    0  501  0.00000000000E+00  0.00000000000E+00  0.99746590579E+03  0.99746590580E+03  0.50400001928E-02 0.  1.
        1   -1    0    0  501    0  0.00000000000E+00  0.00000000000E+00 -0.17254467583E+04  0.17254467583E+04  0.50400001928E-02 0. -1.
    10030    2    1    2    0    0  0.00000000000E+00  0.00000000000E+00 -0.72798085251E+03  0.27229126641E+04  0.26237944384E+04 0.  0.
        1    1    3    3  502    0  0.79207371280E+03 -0.10247544511E+04 -0.58061462294E+03  0.14193716187E+04  0.50400001928E-02 0. -1.
       -1    1    3    3    0  502 -0.79207371280E+03  0.10247544511E+04 -0.14736622957E+03  0.13035410454E+04  0.50400001928E-02 0.  1.
</event>
<event>
 5   0  0.1085255E-05  0.2602521E+04  0.7818609E-02  0.8367345E-01
       -2   -1    0    0    0  501  0.00000000000E+00  0.00000000000E+00  0.90572119108E+03  0.90572119108E+03  0.25500000920E-02 0.  1.
        2   -1    0    0  501    0  0.00000000000E+00  0.00000000000E+00 -0.18695367483E+04  0.18695367483E+04  0.25500000920E-02 0. -1.
    10030    2    1    2    0    0  0.00000000000E+00  0.00000000000E+00 -0.96381555722E+03  0.27752579394E+04  0.26025211242E+04 0.  0.
        5    1    3    3  502    0 -0.94343115796E+03  0.84612281272E+03 -0.16688383773E+03  0.12782247335E+04  0.46999998093E+01 0.  1.
       -5    1    3    3    0  502  0.94343115796E+03 -0.84612281272E+03 -0.79693171949E+03  0.14970332059E+04  0.46999998093E+01 0. -1.
</event>
<event>
 5   0  0.4415080E-06  0.2580607E+04  0.7818609E-02  0.8374819E-01
        1   -1    0    0  501    0  0.00000000000E+00  0.00000000000E+00  0.99540482063E+03  0.99540482065E+03  0.50400001928E-02 0.  1.
       -1   -1    0    0    0  501  0.00000000000E+00  0.00000000000E+00 -0.16725687568E+04  0.16725687568E+04  0.50400001928E-02 0. -1.
    10030    2    1    2    0    0  0.00000000000E+00  0.00000000000E+00 -0.67716393620E+03  0.26679735775E+04  0.25806069080E+04 0.  0.
        2    1    3    3  502    0  0.61510947617E+03 -0.53883922457E+03 -0.13704582363E+04  0.15958894557E+04  0.25500000920E-02 0. -1.
       -2    1    3    3    0  502 -0.61510947617E+03  0.53883922457E+03  0.69329430006E+03  0.10720841217E+04  0.25500000920E-02 0.  1.
</event>
<event>
 5   0  0.4361864E-06  0.2591918E+04  0.7818609E-02  0.8370952E-01
        1   -1    0    0  501    0  0.00000000000E+00  0.00000000000E+00  0.12551511160E+04  0.12551511160E+04  0.50400001928E-02 0. -1.
       -1   -1    0    0    0  501  0.00000000000E+00  0.00000000000E+00 -0.13380937555E+04  0.13380937555E+04  0.50400001928E-02 0.  1.
    10030    2    1    2    0    0  0.00000000000E+00  0.00000000000E+00 -0.82942639480E+02  0.25932448715E+04  0.25919181086E+04 0.  0.
        3    1    3    3  502    0  0.82097550788E+02 -0.11055792687E+04  0.63003863736E+03  0.12751447847E+04  0.10100000352E+00 0. -1.
       -3    1    3    3    0  502 -0.82097550788E+02  0.11055792687E+04 -0.71298127684E+03  0.13181000867E+04  0.10100000352E+00 0.  1.
</event>
<event>
 5   0  0.1136881E-05  0.2600966E+04  0.7818609E-02  0.8367873E-01
       -2   -1    0    0    0  501  0.00000000000E+00  0.00000000000E+00  0.10303164783E+04  0.10303164783E+04  0.25500000920E-02 0.  1.
        2   -1    0    0  501    0  0.00000000000E+00  0.00000000000E+00 -0.16414919306E+04  0.16414919306E+04  0.25500000920E-02 0. -1.
    10030    2    1    2    0    0  0.00000000000E+00  0.00000000000E+00 -0.61117545225E+03  0.26718084089E+04  0.26009661168E+04 0.  0.
        3    1    3    3  502    0 -0.87226709625E+03 -0.54400951512E+03  0.51263722535E+03  0.11487354677E+04  0.10100000352E+00 0.  1.
       -3    1    3    3    0  502  0.87226709625E+03  0.54400951512E+03 -0.11238126776E+04  0.15230729412E+04  0.10100000352E+00 0. -1.
</event>
<event>
 5   0  0.1085255E-05  0.2402323E+04  0.7818609E-02  0.8438634E-01
       -2   -1    0    0    0  501  0.00000000000E+00  0.00000000000E+00  0.84289208097E+03  0.84289208097E+03  0.25500000920E-02 0. -1.
        2   -1    0    0  501    0  0.00000000000E+00  0.00000000000E+00 -0.17117127384E+04  0.17117127384E+04  0.25500000920E-02 0.  1.
    10030    2    1    2    0    0  0.00000000000E+00  0.00000000000E+00 -0.86882065748E+03  0.25546048194E+04  0.24023231357E+04 0.  0.
        5    1    3    3  502    0 -0.30658183887E+03  0.10682241416E+04  0.50187035388E+02  0.11124909299E+04  0.46999998093E+01 0. -1.
       -5    1    3    3    0  502  0.30658183887E+03 -0.10682241416E+04 -0.91900769287E+03  0.14421138895E+04  0.46999998093E+01 0.  1.
</event>
<event>
 5   0  0.1085061E-05  0.2513430E+04  0.7818609E-02  0.8398217E-01
        2   -1    0    0  501    0  0.00000000000E+00  0.00000000000E+00  0.10921119640E+04  0.10921119640E+04  0.25500000920E-02 0.  1.
       -2   -1    0    0    0  501  0.00000000000E+00  0.00000000000E+00 -0.14461272241E+04  0.14461272241E+04  0.25500000920E-02 0. -1.
    10030    2    1    2    0    0  0.00000000000E+00  0.00000000000E+00 -0.35401526011E+03  0.25382391881E+04  0.25134302003E+04 0.  0.
        1    1    3    3  502    0  0.18074934268E+03 -0.83389744466E+03 -0.11087617271E+04  0.13990739225E+04  0.50400001928E-02 0. -1.
       -1    1    3    3    0  502 -0.18074934268E+03  0.83389744466E+03  0.75474646696E+03  0.11391652657E+04  0.50400001928E-02 0.  1.
</event>
<event>
 5   0  0.4464297E-06  0.2620141E+04  0.7818609E-02  0.8361392E-01
       -1   -1    0    0    0  501  0.00000000000E+00  0.00000000000E+00  0.91398570952E+03  0.91398570954E+03  0.50400001928E-02 0.  1.
        1   -1    0    0  501    0  0.00000000000E+00  0.00000000000E+00 -0.18778030343E+04  0.18778030343E+04  0.50400001928E-02 0. -1.
    10030    2    1    2    0    0  0.00000000000E+00  0.00000000000E+00 -0.96381732476E+03  0.27917887438E+04  0.26201413234E+04 0.  0.
        4    1    3    3  502    0 -0.79361609827E+03  0.10410770373E+04 -0.42741513978E+03  0.13770814151E+04  0.12699999809E+01 0. -1.
       -4    1    3    3    0  502  0.79361609827E+03 -0.10410770373E+04 -0.53640218498E+03  0.14147073288E+04  0.12699999809E+01 0.  1.
</event>
<event>
 5   0  0.4597705E-06  0.2586663E+04  0.7818609E-02  0.8372746E-01
       -1   -1    0    0    0  501  0.00000000000E+00  0.00000000000E+00  0.74206967297E+03  0.74206967299E+03  0.50400001928E-02 0. -1.
        1   -1    0    0  501    0  0.00000000000E+00  0.00000000000E+00 -0.22541090863E+04  0.22541090863E+04  0.50400001928E-02 0.  1.
    10030    2    1    2    0    0  0.00000000000E+00  0.00000000000E+00 -0.15120394133E+04  0.29961787593E+04  0.25866627090E+04 0.  0.
        5    1    3    3  502    0 -0.56330278454E+03 -0.94319910445E+03  0.34484227765E+02  0.10991568722E+04  0.46999998093E+01 0. -1.
       -5    1    3    3    0  502  0.56330278454E+03  0.94319910445E+03 -0.15465236411E+04  0.18970218871E+04  0.46999998093E+01 0.  1.
</event>
<event>
 5   0  0.4218590E-06  0.2555303E+04  0.7818609E-02  0.8383544E-01
        1   -1    0    0  501    0  0.00000000000E+00  0.00000000000E+00  0.17277662124E+04  0.17277662124E+04  0.50400001928E-02 0.  1.
       -1   -1    0    0    0  501  0.00000000000E+00  0.00000000000E+00 -0.94480021936E+03  0.94480021937E+03  0.50400001928E-02 0. -1.
    10030    2    1    2    0    0  0.00000000000E+00  0.00000000000E+00  0.78296599303E+03  0.26725664318E+04  0.25553034235E+04 0.  0.
        1    1    3    3  502    0  0.31447517756E+03  0.68999868287E+03  0.14669718325E+04  0.16513628242E+04  0.50400001928E-02 0.  1.
       -1    1    3    3    0  502 -0.31447517756E+03 -0.68999868287E+03 -0.68400583948E+03  0.10212036076E+04  0.50400001928E-02 0. -1.
</event>
<event>
 5   0  0.1086507E-05  0.2599252E+04  0.7818609E-02  0.8368455E-01
       -2   -1    0    0    0  501  0.00000000000E+00  0.00000000000E+00  0.18924380550E+04  0.18924380550E+04  0.25500000920E-02 0.  1.
        2   -1    0    0  501    0  0.00000000000E+00  0.00000000000E+00 -0.89251406793E+03  0.89251406793E+03  0.25500000920E-02 0. -1.
    10030    2    1    2    0    0  0.00000000000E+00  0.00000000000E+00  0.99992398704E+03  0.27849521229E+04  0.25992518822E+04 0.  0.
        2    1    3    3  502    0  0.15571262784E+03 -0.29163305509E+03 -0.84670737398E+03  0.90896074637E+03  0.25500000920E-02 0. -1.
       -2    1    3    3    0  502 -0.15571262784E+03  0.29163305509E+03  0.18466313610E+04  0.18759913765E+04  0.25500000920E-02 0.  1.
</event>
<event>
 5   0  0.4361864E-06  0.2608501E+04  0.7818609E-02  0.8365319E-01
        1   -1    0    0  501    0  0.00000000000E+00  0.00000000000E+00  0.18665374324E+04  0.18665374324E+04  0.50400001928E-02 0. -1.
       -1   -1    0    0    0  501  0.00000000000E+00  0.00000000000E+00 -0.91135009374E+03  0.91135009376E+03  0.50400001928E-02 0.  1.
    10030    2    1    2    0    0  0.00000000000E+00  0.00000000000E+00  0.95518733866E+03  0.27778875262E+04  0.26085007679E+04 0.  0.
        3    1    3    3  502    0  0.17076309933E+03 -0.64573196473E+03 -0.71539148591E+03  0.97873121677E+03  0.10100000352E+00 0.  1.
       -3    1    3    3    0  502 -0.17076309933E+03  0.64573196473E+03  0.16705788246E+04  0.17991563094E+04  0.10100000352E+00 0. -1.
</event>
<event>
 5   0  0.4415080E-06  0.2587336E+04  0.7818609E-02  0.8372516E-01
        1   -1    0    0  501    0  0.00000000000E+00  0.00000000000E+00  0.24976318878E+04  0.24976318878E+04  0.50400001928E-02 0. -1.
       -1   -1    0    0    0  501  0.00000000000E+00  0.00000000000E+00 -0.67006526289E+03  0.67006526291E+03  0.50400001928E-02 0.  1.
    10030    2    1    2    0    0  0.00000000000E+00  0.00000000000E+00  0.18275666249E+04  0.31676971507E+04  0.25873355929E+04 0.  0.
        2    1    3    3  502    0  0.74771506507E+03  0.66666386731E+02  0.22037038926E+04  0.23280534942E+04  0.25500000920E-02 0. -1.
       -2    1    3    3    0  502 -0.74771506507E+03 -0.66666386731E+02 -0.37613726772E+03  0.83964365646E+03  0.25500000920E-02 0.  1.
</event>
<event>
 5   0  0.4464297E-06  0.2592341E+04  0.7818609E-02  0.8370808E-01
        1   -1    0    0  501    0  0.00000000000E+00  0.00000000000E+00  0.15914302793E+04  0.15914302793E+04  0.50400001928E-02 0. -1.
       -1   -1    0    0    0  501  0.00000000000E+00  0.00000000000E+00 -0.10556902704E+04  0.10556902704E+04  0.50400001928E-02 0.  1.
    10030    2    1    2    0    0  0.00000000000E+00  0.00000000000E+00  0.53574000891E+03  0.26471205497E+04  0.25923406118E+04 0.  0.
        4    1    3    3  502    0 -0.10789333228E+04 -0.98626220189E+00 -0.46561076296E+03  0.11751140725E+04  0.12699999809E+01 0.  1.
       -4    1    3    3    0  502  0.10789333228E+04  0.98626220189E+00  0.10013507719E+04  0.14720064772E+04  0.12699999809E+01 0. -1.
</event>
<event>
 5   0  0.1085061E-05  0.2512737E+04  0.7818609E-02  0.8398462E-01
       -2   -1    0    0    0  501  0.00000000000E+00  0.00000000000E+00  0.11786990449E+04  0.11786990449E+04  0.25500000920E-02 0. -1.
        2   -1    0    0  501    0  0.00000000000E+00  0.00000000000E+00 -0.13391560951E+04  0.13391560951E+04  0.25500000920E-02 0.  1.
    10030    2    1    2    0    0  0.00000000000E+00  0.00000000000E+00 -0.16045705016E+03  0.25178551400E+04  0.25127371612E+04 0.  0.
        1    1    3    3  502    0 -0.60254539478E+03  0.19297209465E+03 -0.11678714415E+04  0.13282405226E+04  0.50400001928E-02 0.  1.
       -1    1    3    3    0  502  0.60254539478E+03 -0.19297209465E+03  0.10074143913E+04  0.11896146174E+04  0.50400001928E-02 0. -1.
</event>
<event>
 5   0  0.1136881E-05  0.2689716E+04  0.7818609E-02  0.8338350E-01
        2   -1    0    0  501    0  0.00000000000E+00  0.00000000000E+00  0.24898361557E+04  0.24898361557E+04  0.25500000920E-02 0. -1.
       -2   -1    0    0    0  501  0.00000000000E+00  0.00000000000E+00 -0.72641033580E+03  0.72641033580E+03  0.25500000920E-02 0.  1.
    10030    2    1    2    0    0  0.00000000000E+00  0.00000000000E+00  0.17634258199E+04  0.32162464915E+04  0.26897157604E+04 0.  0.
        3    1    3    3  502    0 -0.16162461081E+03  0.89440430105E+03 -0.30357192945E+03  0.95824709501E+03  0.10100000352E+00 0.  1.
       -3    1    3    3    0  502  0.16162461081E+03 -0.89440430105E+03  0.20669977494E+04  0.22579993965E+04  0.10100000352E+00 0. -1.
</event>
<event>
 5   0  0.4415080E-06  0.2600195E+04  0.7818609E-02  0.8368135E-01
       -1   -1    0    0    0  501  0.00000000000E+00  0.00000000000E+00  0.17252087470E+04  0.17252087470E+04  0.50400001928E-02 0. -1.
        1   -1    0    0  501    0  0.00000000000E+00  0.00000000000E+00 -0.97973867830E+03  0.97973867831E+03  0.50400001928E-02 0.  1.
    10030    2    1    2    0    0  0.00000000000E+00  0.00000000000E+00  0.74547006873E+03  0.27049474253E+04  0.26001951755E+04 0.  0.
        2    1    3    3  502    0 -0.35284248006E+03 -0.56267028925E+03  0.15354187204E+04  0.16729035588E+04  0.25500000920E-02 0. -1.
       -2    1    3    3    0  502  0.35284248006E+03  0.56267028925E+03 -0.78994865167E+03  0.10320438665E+04  0.25500000920E-02 0.  1.
</event>
<event>
 5   0  0.4597705E-06  0.2620077E+04  0.7818609E-02  0.8361413E-01
        1   -1    0    0  501    0  0.00000000000E+00  0.00000000000E+00  0.14258318748E+04  0.14258318748E+04  0.50400001928E-02 0.  1.
       -1   -1    0    0    0  501  0.00000000000E+00  0.00000000000E+00 -0.12036491173E+04  0.12036491173E+04  0.50400001928E-02 0. -1.
    10030    2    1    2    0    0  0.00000000000E+00  0.00000000000E+00  0.22218275748E+03  0.26294809921E+04  0.26200773100E+04 0.  0.
        5    1    3    3  502    0  0.12726502100E+04 -0.26111063546E+03  0.28010563321E+03  0.13290216615E+04  0.46999998093E+01 0.  1.
       -5    1    3    3    0  502 -0.12726502100E+04  0.26111063546E+03 -0.57922875733E+02  0.13004593306E+04  0.46999998093E+01 0. -1.
</event>
<event>
 5   0  0.1085255E-05  0.2614998E+04  0.7818609E-02  0.8363124E-01
       -2   -1    0    0    0  501  0.00000000000E+00  0.00000000000E+00  0.16071611692E+04  0.16071611692E+04  0.25500000920E-02 0.  1.
        2   -1    0    0  501    0  0.00000000000E+00  0.00000000000E+00 -0.10637104806E+04  0.10637104806E+04  0.25500000920E-02 0. -1.
    10030    2    1    2    0    0  0.00000000000E+00  0.00000000000E+00  0.54345068862E+03  0.26708716497E+04  0.26149984165E+04 0.  0.
        5    1    3    3  502    0  0.25430008566E+03  0.12063996030E+04  0.71629972054E+03  0.14258947771E+04  0.46999998093E+01 0.  1.
       -5    1    3    3    0  502 -0.25430008566E+03 -0.12063996030E+04 -0.17284903192E+03  0.12449768727E+04  0.46999998093E+01 0. -1.
</event>
<event>
 5   0  0.1085061E-05  0.2597256E+04  0.7818609E-02  0.8369134E-01
       -2   -1    0    0    0  501  0.00000000000E+00  0.00000000000E+00  0.12181065019E+04  0.12181065019E+04  0.25500000920E-02 0.  1.
        2   -1    0    0  501    0  0.00000000000E+00  0.00000000000E+00 -0.13844720024E+04  0.13844720024E+04  0.25500000920E-02 0. -1.
    10030    2    1    2    0    0  0.00000000000E+00  0.00000000000E+00 -0.16636550050E+03  0.26025785043E+04  0.25972557423E+04 0.  0.
        1    1    3    3  502    0  0.72067153529E+01 -0.12814920213E+04 -0.29375767613E+03  0.13147499039E+04  0.50400001928E-02 0. -1.
       -1    1    3    3    0  502 -0.72067153529E+01  0.12814920213E+04  0.12739217564E+03  0.12878286004E+04  0.50400001928E-02 0.  1.
</event>
<event>
 5   0  0.3705250E-06  0.2614073E+04  0.7818609E-02  0.8363437E-01
       -3   -1    0    0    0  501  0.00000000000E+00  0.00000000000E+00  0.10840390348E+04  0.10840390395E+04  0.10100000352E+00 0. -1.
        3   -1    0    0  501    0  0.00000000000E+00  0.00000000000E+00 -0.15759070384E+04  0.15759070416E+04  0.10100000352E+00 0.  1.
    10030    2    1    2    0    0  0.00000000000E+00  0.00000000000E+00 -0.49186800362E+03  0.26599460811E+04  0.26140732624E+04 0.  0.
        4    1    3    3  502    0 -0.11167569759E+03  0.10382144312E+04  0.55397974100E+03  0.11820557656E+04  0.12699999809E+01 0. -1.
       -4    1    3    3    0  502  0.11167569759E+03 -0.10382144312E+04 -0.10458477446E+04  0.14778903155E+04  0.12699999809E+01 0.  1.
</event>
<event>
 5   0  0.4464297E-06  0.2599047E+04  0.7818609E-02  0.8368525E-01
        1   -1    0    0  501    0  0.00000000000E+00  0.00000000000E+00  0.17011966465E+04  0.17011966465E+04  0.50400001928E-02 0. -1.
       -1   -1    0    0    0  501  0.00000000000E+00  0.00000000000E+00 -0.99269016500E+03  0.99269016501E+03  0.50400001928E-02 0.  1.
    10030    2    1    2    0    0  0.00000000000E+00  0.00000000000E+00  0.70850648149E+03  0.26938868115E+04  0.25990468866E+04 0.  0.
        4    1    3    3  502    0  0.89039755028E+03 -0.42577881855E+03 -0.52197295655E+03  0.11164912808E+04  0.12699999809E+01 0.  1.
       -4    1    3    3    0  502 -0.89039755028E+03  0.42577881855E+03  0.12304794380E+04  0.15773955307E+04  0.12699999809E+01 0. -1.
</event>
<event>
 5   0  0.1116310E-05  0.2597745E+04  0.7818609E-02  0.8368968E-01
       -2   -1    0    0    0  501  0.00000000000E+00  0.00000000000E+00  0.14313350618E+04  0.14313350618E+04  0.25500000920E-02 0. -1.
        2   -1    0    0  501    0  0.00000000000E+00  0.00000000000E+00 -0.11786687416E+04  0.11786687416E+04  0.25500000920E-02 0.  1.
    10030    2    1    2    0    0  0.00000000000E+00  0.00000000000E+00  0.25266632023E+03  0.26100038034E+04  0.25977450961E+04 0.  0.
        4    1    3    3  502    0  0.30927137835E+03 -0.66241150583E+03  0.12050057902E+04  0.14094248316E+04  0.12699999809E+01 0. -1.
       -4    1    3    3    0  502 -0.30927137835E+03  0.66241150583E+03 -0.95233947001E+03  0.12005789718E+04  0.12699999809E+01 0.  1.
</event>
<event>
 5   0  0.1136881E-05  0.2594057E+04  0.7818609E-02  0.8370223E-01
        2   -1    0    0  501    0  0.00000000000E+00  0.00000000000E+00  0.17480164726E+04  0.17480164726E+04  0.25500000920E-02 0. -1.
       -2   -1    0    0    0  501  0.00000000000E+00  0.00000000000E+00 -0.96239554927E+03  0.96239554927E+03  0.25500000920E-02 0.  1.
    10030    2    1    2    0    0  0.00000000000E+00  0.00000000000E+00  0.78562092334E+03  0.27104120219E+04  0.25940572648E+04 0.  0.
        3    1    3    3  502    0  0.16446034334E+03  0.83708883228E+03 -0.62800654271E+03  0.10593191896E+04  0.10100000352E+00 0.  1.
       -3    1    3    3    0  502 -0.16446034334E+03 -0.83708883228E+03  0.14136274661E+04  0.16510928322E+04  0.10100000352E+00 0. -1.
</event>
<event>
 5   0  0.1085255E-05  0.2600123E+04  0.7818609E-02  0.8368159E-01
        2   -1    0    0  501    0  0.00000000000E+00  0.00000000000E+00  0.12092248788E+04  0.12092248788E+04  0.25500000920E-02 0.  1.
       -2   -1    0    0    0  501  0.00000000000E+00  0.00000000000E+00 -0.13977221814E+04  0.13977221814E+04  0.25500000920E-02 0. -1.
    10030    2    1    2    0    0  0.00000000000E+00  0.00000000000E+00 -0.18849730266E+03  0.26069470602E+04  0.26001234089E+04 0.  0.
        5    1    3    3  502    0  0.69490737834E+03 -0.14189637660E+03 -0.11866526344E+04  0.13824606363E+04  0.46999998093E+01 0. -1.
       -5    1    3    3    0  502 -0.69490737834E+03  0.14189637660E+03  0.99815533173E+03  0.12244864239E+04  0.46999998093E+01 0.  1.
</event>
<event>
 5   0  0.1085255E-05  0.2615187E+04  0.7818609E-02  0.8363061E-01
       -2   -1    0    0    0  501  0.00000000000E+00  0.00000000000E+00  0.87969403555E+03  0.87969403555E+03  0.25500000920E-02 0. -1.
        2   -1    0    0  501    0  0.00000000000E+00  0.00000000000E+00 -0.19436317395E+04  0.19436317395E+04  0.25500000920E-02 0.  1.
    10030    2    1    2    0    0  0.00000000000E+00  0.00000000000E+00 -0.10639377040E+04  0.28233257751E+04  0.26151873727E+04 0.  0.
        5    1    3    3  502    0  0.74373578873E+03 -0.27006856734E+03  0.59189204163E+03  0.98814889234E+03  0.46999998093E+01 0. -1.
       -5    1    3    3    0  502 -0.74373578873E+03  0.27006856734E+03 -0.16558297456E+04  0.18351768827E+04  0.46999998093E+01 0.  1.
</event>
<event>
 5   0  0.1085255E-05  0.2628285E+04  0.7818609E-02  0.8358656E-01
        2   -1    0    0  501    0  0.00000000000E+00  0.00000000000E+00  0.19394967620E+04  0.19394967620E+04  0.25500000920E-02 0. -1.
       -2   -1    0    0    0  501  0.00000000000E+00  0.00000000000E+00 -0.89042218019E+03  0.89042218019E+03  0.25500000920E-02 0.  1.
    10030    2    1    2    0    0  0.00000000000E+00  0.00000000000E+00  0.10490745818E+04  0.28299189422E+04  0.26282853234E+04 0.  0.
        5    1    3    3  502    0  0.18711221267E+03 -0.23905672684E+03 -0.85214092008E+03  0.90461336296E+03  0.46999998093E+01 0.  1.
       -5    1    3    3    0  502 -0.18711221267E+03  0.23905672684E+03  0.19012155019E+04  0.19253055793E+04  0.46999998093E+01 0. -1.
</event>
<event>
 5   0  0.4597705E-06  0.2603330E+04  0.7818609E-02  0.8367071E-01
       -1   -1    0    0    0  501  0.00000000000E+00  0.00000000000E+00  0.14127950323E+04  0.14127950323E+04  0.50400001928E-02 0.  1.
        1   -1    0    0  501    0  0.00000000000E+00  0.00000000000E+00 -0.11992768357E+04  0.11992768357E+04  0.50400001928E-02 0. -1.
    10030    2    1    2    0    0  0.00000000000E+00  0.00000000000E+00  0.21351819653E+03  0.26120718680E+04  0.26033304484E+04 0.  0.
        5    1    3    3  502    0 -0.12756552535E+04 -0.25000425691E+03  0.39363535305E+02  0.13005268287E+04  0.46999998093E+01 0. -1.
       -5    1    3    3    0  502  0.12756552535E+04  0.25000425691E+03  0.17415466123E+03  0.13115450393E+04  0.46999998093E+01 0.  1.
</event>
<event>
 5   0  0.1085061E-05  0.2607229E+04  0.7818609E-02  0.8365750E-01
        2   -1    0    0  501    0  0.00000000000E+00  0.00000000000E+00  0.21903654811E+04  0.21903654811E+04  0.25500000920E-02 0. -1.
       -2   -1    0    0    0  501  0.00000000000E+00  0.00000000000E+00 -0.77585720669E+03  0.77585720669E+03  0.25500000920E-02 0.  1.
    10030    2    1    2    0    0  0.00000000000E+00  0.00000000000E+00  0.14145082744E+04  0.29662226878E+04  0.26072290607E+04 0.  0.
        1    1    3    3  502    0 -0.12644794532E+04  0.28685875327E+03  0.55370954553E+03  0.14098902414E+04  0.50400001928E-02 0.  1.
       -1    1    3    3    0  502  0.12644794532E+04 -0.28685875327E+03  0.86079872889E+03  0.15563324464E+04  0.50400001928E-02 0. -1.
</event>
<event>
 5   0  0.4415080E-06  0.2626641E+04  0.7818609E-02  0.8359208E-01
       -1   -1    0    0    0  501  0.00000000000E+00  0.00000000000E+00  0.11033317966E+04  0.11033317966E+04  0.50400001928E-02 0.  1.
        1   -1    0    0  501    0  0.00000000000E+00  0.00000000000E+00 -0.15632751094E+04  0.15632751094E+04  0.50400001928E-02 0. -1.
    10030    2    1    2    0    0  0.00000000000E+00  0.00000000000E+00 -0.45994331282E+03  0.26666069060E+04  0.26266413040E+04 0.  0.
        2    1    3    3  502    0 -0.53860749322E+03 -0.10749766553E+04  0.30640261793E+03  0.12407882195E+04  0.25500000920E-02 0.  1.
       -2    1    3    3    0  502  0.53860749322E+03  0.10749766553E+04 -0.76634593075E+03  0.14258186865E+04  0.25500000920E-02 0. -1.
</event>
<event>
 5   0  0.4464297E-06  0.2617499E+04  0.7818609E-02  0.8362281E-01
        1   -1    0    0  501    0  0.00000000000E+00  0.00000000000E+00  0.10612431656E+04  0.10612431656E+04  0.50400001928E-02 0. -1.
       -1   -1    0    0    0  501  0.00000000000E+00  0.00000000000E+00 -0.16139796248E+04  0.16139796248E+04  0.50400001928E-02 0.  1.
    10030    2    1    2    0    0  0.00000000000E+00  0.00000000000E+00 -0.55273645922E+03  0.26752227904E+04  0.26174986887E+04 0.  0.
        4    1    3    3  502    0  0.97408322423E+03  0.41680443091E+03 -0.10615945616E+04  0.14998495550E+04  0.12699999809E+01 0.  1.
       -4    1    3    3    0  502 -0.97408322423E+03 -0.41680443091E+03  0.50885810243E+03  0.11753732355E+04  0.12699999809E+01 0. -1.
</event>
<event>
 5   0  0.4361864E-06  0.2573222E+04  0.7818609E-02  0.8377354E-01
       -1   -1    0    0    0  501  0.00000000000E+00  0.00000000000E+00  0.14895400364E+04  0.14895400364E+04  0.50400001928E-02 0.  1.
        1   -1    0    0  501    0  0.00000000000E+00  0.00000000000E+00 -0.11113282359E+04  0.11113282359E+04  0.50400001928E-02 0. -1.
    10030    2    1    2    0    0  0.00000000000E+00  0.00000000000E+00  0.37821180046E+03  0.26008682723E+04  0.25732220277E+04 0.  0.
        3    1    3    3  502    0 -0.14703937193E+03 -0.12716730859E+04  0.58900766407E+02  0.12815000292E+04  0.10100000352E+00 0.  1.
       -3    1    3    3    0  502  0.14703937193E+03  0.12716730859E+04  0.31931103406E+03  0.13193682431E+04  0.10100000352E+00 0. -1.
</event>
<event>
 5   0  0.1085061E-05  0.2628373E+04  0.7818609E-02  0.8358627E-01
       -2   -1    0    0    0  501  0.00000000000E+00  0.00000000000E+00  0.10381638106E+04  0.10381638106E+04  0.25500000920E-02 0. -1.
        2   -1    0    0  501    0  0.00000000000E+00  0.00000000000E+00 -0.16635969028E+04  0.16635969028E+04  0.25500000920E-02 0.  1.
    10030    2    1    2    0    0  0.00000000000E+00  0.00000000000E+00 -0.62543309223E+03  0.27017607134E+04  0.26283729567E+04 0.  0.
        1    1    3    3  502    0 -0.74731377431E+03 -0.17669621195E+03 -0.14089775343E+04  0.16046548292E+04  0.50400001928E-02 0.  1.
       -1    1    3    3    0  502  0.74731377431E+03  0.17669621195E+03  0.78354444206E+03  0.10971058843E+04  0.50400001928E-02 0. -1.
</event>
<event>
 5   0  0.4464297E-06  0.2606138E+04  0.7818609E-02  0.8366119E-01
        1   -1    0    0  501    0  0.00000000000E+00  0.00000000000E+00  0.31474952288E+04  0.31474952288E+04  0.50400001928E-02 0.  1.
       -1   -1    0    0    0  501  0.00000000000E+00  0.00000000000E+00 -0.53947316539E+03  0.53947316541E+03  0.50400001928E-02 0. -1.
    10030    2    1    2    0    0  0.00000000000E+00  0.00000000000E+00  0.26080220634E+04  0.36869683942E+04  0.26061383035E+04 0.  0.
        4    1    3    3  502    0 -0.92920579056E+03  0.86399589972E+03  0.88415636488E+03  0.15464948776E+04  0.12699999809E+01 0. -1.
       -4    1    3    3    0  502  0.92920579056E+03 -0.86399589972E+03  0.17238656985E+04  0.21404735166E+04  0.12699999809E+01 0.  1.
</event>
<event>
 5   0  0.4464297E-06  0.2602255E+04  0.7818609E-02  0.8367436E-01
       -1   -1    0    0    0  501  0.00000000000E+00  0.00000000000E+00  0.12272313338E+04  0.12272313338E+04  0.50400001928E-02 0. -1.
        1   -1    0    0  501    0  0.00000000000E+00  0.00000000000E+00 -0.13794732601E+04  0.13794732601E+04  0.50400001928E-02 0.  1.
    10030    2    1    2    0    0  0.00000000000E+00  0.00000000000E+00 -0.15224192633E+03  0.26067045939E+04  0.26022550289E+04 0.  0.
        4    1    3    3  502    0  0.84218146419E+03  0.19561596996E+03  0.89785633452E+03  0.12464681451E+04  0.12699999809E+01 0. -1.
       -4    1    3    3    0  502 -0.84218146419E+03 -0.19561596996E+03 -0.10500982609E+04  0.13602364488E+04  0.12699999809E+01 0.  1.
</event>
<event>
 5   0  0.4597705E-06  0.2596454E+04  0.7818609E-02  0.8369407E-01
       -1   -1    0    0    0  501  0.00000000000E+00  0.00000000000E+00  0.11615812140E+04  0.11615812140E+04  0.50400001928E-02 0.  1.
        1   -1    0    0  501    0  0.00000000000E+00  0.00000000000E+00 -0.14509472272E+04  0.14509472272E+04  0.50400001928E-02 0. -1.
    10030    2    1    2    0    0  0.00000000000E+00  0.00000000000E+00 -0.28936601320E+03  0.26125284412E+04  0.25964537674E+04 0.  0.
        5    1    3    3  502    0  0.33511033670E+03  0.99402264702E+01  0.11172639354E+04  0.11664898358E+04  0.46999998093E+01 0.  1.
       -5    1    3    3    0  502 -0.33511033670E+03 -0.99402264702E+01 -0.14066299486E+04  0.14460386053E+04  0.46999998093E+01 0. -1.
</event>
<event>
 5   0  0.1086507E-05  0.2545448E+04  0.7818609E-02  0.8386971E-01
       -2   -1    0    0    0  501  0.00000000000E+00  0.00000000000E+00  0.81580371449E+03  0.81580371449E+03  0.25500000920E-02 0. -1.
        2   -1    0    0  501    0  0.00000000000E+00  0.00000000000E+00 -0.19855585449E+04  0.19855585449E+04  0.25500000920E-02 0.  1.
    10030    2    1    2    0    0  0.00000000000E+00  0.00000000000E+00 -0.11697548304E+04  0.28013622594E+04  0.25454477298E+04 0.  0.
        2    1    3    3  502    0 -0.20287542512E+03 -0.46092716671E+03  0.70148817779E+03  0.86353804475E+03  0.25500000920E-02 0. -1.
       -2    1    3    3    0  502  0.20287542512E+03  0.46092716671E+03 -0.18712430082E+04  0.19378242147E+04  0.25500000920E-02 0.  1.
</event>
<event>
 5   0  0.1116310E-05  0.2610125E+04  0.7818609E-02  0.8364770E-01
        2   -1    0    0  501    0  0.00000000000E+00  0.00000000000E+00  0.18215062317E+04  0.18215062317E+04  0.25500000920E-02 0.  1.
       -2   -1    0    0    0  501  0.00000000000E+00  0.00000000000E+00 -0.93504397010E+03  0.93504397011E+03  0.25500000920E-02 0. -1.
    10030    2    1    2    0    0  0.00000000000E+00  0.00000000000E+00  0.88646226155E+03  0.27565502018E+04  0.26101252218E+04 0.  0.
        4    1    3    3  502    0  0.65826800644E+03  0.93108218197E+03 -0.22716790408E+03  0.11626855411E+04  0.12699999809E+01 0. -1.
       -4    1    3    3    0  502 -0.65826800644E+03 -0.93108218197E+03  0.11136301656E+04  0.15938646607E+04  0.12699999809E+01 0.  1.
</event>
<event>
 5   0  0.1085255E-05  0.2617076E+04  0.7818609E-02  0.8362424E-01
       -2   -1    0    0    0  501  0.00000000000E+00  0.00000000000E+00  0.18275245386E+04  0.18275245386E+04  0.25500000920E-02 0.  1.
        2   -1    0    0  501    0  0.00000000000E+00  0.00000000000E+00 -0.93693469632E+03  0.93693469633E+03  0.25500000920E-02 0. -1.
    10030    2    1    2    0    0  0.00000000000E+00  0.00000000000E+00  0.89058984229E+03  0.27644592349E+04  0.26170755806E+04 0.  0.
        5    1    3    3  502    0 -0.98109865253E+03 -0.10338058489E+03  0.13533625323E+04  0.16747699380E+04  0.46999998093E+01 0.  1.
       -5    1    3    3    0  502  0.98109865253E+03  0.10338058489E+03 -0.46277269000E+03  0.10896892970E+04  0.46999998093E+01 0. -1.
</event>
<event>
 5   0  0.1136881E-05  0.2596299E+04  0.7818609E-02  0.8369460E-01
       -2   -1    0    0    0  501  0.00000000000E+00  0.00000000000E+00  0.60160493698E+03  0.60160493699E+03  0.25500000920E-02 0.  1.
        2   -1    0    0  501    0  0.00000000000E+00  0.00000000000E+00 -0.28011602440E+04  0.28011602440E+04  0.25500000920E-02 0. -1.
    10030    2    1    2    0    0  0.00000000000E+00  0.00000000000E+00 -0.21995553070E+04  0.34027651809E+04  0.25962987748E+04 0.  0.
        3    1    3    3  502    0  0.20906431517E+03  0.96140537531E+03  0.10144445220E+02  0.98392637098E+03  0.10100000352E+00 0.  1.
       -3    1    3    3    0  502 -0.20906431517E+03 -0.96140537531E+03 -0.22096997522E+04  0.24188388100E+04  0.10100000352E+00 0. -1.
</event>
<event>
 5   0  0.1085255E-05  0.2598507E+04  0.7818609E-02  0.8368709E-01
       -2   -1    0    0    0  501  0.00000000000E+00  0.00000000000E+00  0.10120358275E+04  0.10120358275E+04  0.25500000920E-02 0. -1.
        2   -1    0    0  501    0  0.00000000000E+00  0.00000000000E+00 -0.16679841304E+04  0.16679841304E+04  0.25500000920E-02 0.  1.
    10030    2    1    2    0    0  0.00000000000E+00  0.00000000000E+00 -0.65594830294E+03  0.26800199579E+04  0.25985070326E+04 0.  0.
        5    1    3    3  502    0 -0.31137206679E+03  0.83821751917E+01  0.97294779230E+03  0.10216028198E+04  0.46999998093E+01 0. -1.
       -5    1    3    3    0  502  0.31137206679E+03 -0.83821751917E+01 -0.16288960952E+04  0.16584171381E+04  0.46999998093E+01 0.  1.
</event>
<event>
 5   0  0.1086507E-05  0.2600944E+04  0.7818609E-02  0.8367881E-01
       -2   -1    0    0    0  501  0.00000000000E+00  0.00000000000E+00  0.71739696529E+03  0.71739696530E+03  0.25500000920E-02 0. -1.
        2   -1    0    0  501    0  0.00000000000E+00  0.00000000000E+00 -0.23574493887E+04  0.23574493887E+04  0.25500000920E-02 0.  1.
    10030    2    1    2    0    0  0.00000000000E+00  0.00000000000E+00 -0.16400524234E+04  0.30748463540E+04  0.26009437036E+04 0.  0.
        2    1    3    3  502    0 -0.11359100804E+04  0.11075581631E+02 -0.15684768820E+04  0.19366295744E+04  0.25500000920E-02 0.  1.
       -2    1    3    3    0  502  0.11359100804E+04 -0.11075581631E+02 -0.71575541430E+02  0.11382167796E+04  0.25500000920E-02 0. -1.
</event>
<event>
 5   0  0.4218590E-06  0.2606028E+04  0.7818609E-02  0.8366157E-01
       -1   -1    0    0    0  501  0.00000000000E+00  0.00000000000E+00  0.17799830773E+04  0.17799830773E+04  0.50400001928E-02 0. -1.
        1   -1    0    0  501    0  0.00000000000E+00  0.00000000000E+00 -0.95385474358E+03  0.95385474360E+03  0.50400001928E-02 0.  1.
    10030    2    1    2    0    0  0.00000000000E+00  0.00000000000E+00  0.82612833374E+03  0.27338378209E+04  0.26060278600E+04 0.  0.
        1    1    3    3  502    0 -0.98777952691E+03  0.60330273091E+03  0.10408823426E+04  0.15566369616E+04  0.50400001928E-02 0. -1.
       -1    1    3    3    0  502  0.98777952691E+03 -0.60330273091E+03 -0.21475400889E+03  0.11772008594E+04  0.50400001928E-02 0.  1.
</event>
<event>
 5   0  0.4464297E-06  0.2560366E+04  0.7818609E-02  0.8381790E-01
        1   -1    0    0  501    0  0.00000000000E+00  0.00000000000E+00  0.10056471817E+04  0.10056471817E+04  0.50400001928E-02 0. -1.
       -1   -1    0    0    0  501  0.00000000000E+00  0.00000000000E+00 -0.16296653111E+04  0.16296653111E+04  0.50400001928E-02 0.  1.
    10030    2    1    2    0    0  0.00000000000E+00  0.00000000000E+00 -0.62401812932E+03  0.26353124928E+04  0.25603658545E+04 0.  0.
        4    1    3    3  502    0 -0.79058095023E+03  0.51724245470E+03 -0.12011883807E+04  0.15282058548E+04  0.12699999809E+01 0.  1.
       -4    1    3    3    0  502  0.79058095023E+03 -0.51724245470E+03  0.57717025143E+03  0.11071066380E+04  0.12699999809E+01 0. -1.
</event>
<event>
 5   0  0.1116310E-05  0.2586941E+04  0.7818609E-02  0.8372651E-01
        2   -1    0    0  501    0  0.00000000000E+00  0.00000000000E+00  0.26075913474E+04  0.26075913474E+04  0.25500000920E-02 0. -1.
       -2   -1    0    0    0  501  0.00000000000E+00  0.00000000000E+00 -0.64161338318E+03  0.64161338319E+03  0.25500000920E-02 0.  1.
    10030    2    1    2    0    0  0.00000000000E+00  0.00000000000E+00  0.19659779642E+04  0.32492047306E+04  0.25869406691E+04 0.  0.
        4    1    3    3  502    0  0.15358859989E+02  0.65299702084E+03  0.23852320975E+04  0.24730496913E+04  0.12699999809E+01 0. -1.
       -4    1    3    3    0  502 -0.15358859989E+02 -0.65299702084E+03 -0.41925413330E+03  0.77615503927E+03  0.12699999809E+01 0.  1.
</event>
<event>
 5   0  0.1116310E-05  0.2603217E+04  0.7818609E-02  0.8367109E-01
        2   -1    0    0  501    0  0.00000000000E+00  0.00000000000E+00  0.14042527693E+04  0.14042527693E+04  0.25500000920E-02 0. -1.
       -2   -1    0    0    0  501  0.00000000000E+00  0.00000000000E+00 -0.12064672542E+04  0.12064672542E+04  0.25500000920E-02 0.  1.
    10030    2    1    2    0    0  0.00000000000E+00  0.00000000000E+00  0.19778551515E+03  0.26107200235E+04  0.26032172270E+04 0.  0.
        4    1    3    3  502    0  0.99347227429E+02 -0.12482058583E+04  0.45529797936E+03  0.13323609118E+04  0.12699999809E+01 0. -1.
       -4    1    3    3    0  502 -0.99347227429E+02  0.12482058583E+04 -0.25751246421E+03  0.12783591117E+04  0.12699999809E+01 0.  1.
</event>
<event>
 5   0  0.4415080E-06  0.2745052E+04  0.7818609E-02  0.8320533E-01
        1   -1    0    0  501    0  0.00000000000E+00  0.00000000000E+00  0.10518671234E+04  0.10518671234E+04  0.50400001928E-02 0. -1.
       -1   -1    0    0    0  501  0.00000000000E+00  0.00000000000E+00 -0.17909372473E+04  0.17909372473E+04  0.50400001928E-02 0.  1.
    10030    2    1    2    0    0  0.00000000000E+00  0.00000000000E+00 -0.73907012396E+03  0.28428043707E+04  0.27450522840E+04 0.  0.
        2    1    3    3  502    0  0.78366539394E+03 -0.48139230445E+03  0.68554701632E+03  0.11471027469E+04  0.25500000920E-02 0. -1.
       -2    1    3    3    0  502 -0.78366539394E+03  0.48139230445E+03 -0.14246171403E+04  0.16957016238E+04  0.25500000920E-02 0.  1.
</event>
<event>
 5   0  0.4415080E-06  0.2589963E+04  0.7818609E-02  0.8371619E-01
       -1   -1    0    0    0  501  0.00000000000E+00  0.00000000000E+00  0.12387523933E+04  0.12387523933E+04  0.50400001928E-02 0.  1.
        1   -1    0    0  501    0  0.00000000000E+00  0.00000000000E+00 -0.13537625541E+04  0.13537625541E+04  0.50400001928E-02 0. -1.
    10030    2    1    2    0    0  0.00000000000E+00  0.00000000000E+00 -0.11501016081E+03  0.25925149474E+04  0.25899626281E+04 0.  0.
        2    1    3    3  502    0  0.35964453265E+03  0.81262642273E+03  0.88537366169E+03  0.12544291186E+04  0.25500000920E-02 0.  1.
       -2    1    3    3    0  502 -0.35964453265E+03 -0.81262642273E+03 -0.10003838225E+04  0.13380858287E+04  0.25500000920E-02 0. -1.
</event>
<event>
 5   0  0.1086507E-05  0.2584556E+04  0.7818609E-02  0.8373466E-01
       -2   -1    0    0    0  501  0.00000000000E+00  0.00000000000E+00  0.11675126558E+04  0.11675126558E+04  0.25500000920E-02 0. -1.
        2   -1    0    0  501    0  0.00000000000E+00  0.00000000000E+00 -0.14303759154E+04  0.14303759154E+04  0.25500000920E-02 0.  1.
    10030    2    1    2    0    0  0.00000000000E+00  0.00000000000E+00 -0.26286325968E+03  0.25978885712E+04  0.25845556553E+04 0.  0.
        2    1    3    3  502    0 -0.38418753374E+03 -0.12084425614E+04 -0.38181199527E+03  0.13242786282E+04  0.25500000920E-02 0.  1.
       -2    1    3    3    0  502  0.38418753374E+03  0.12084425614E+04  0.11894873559E+03  0.12736099430E+04  0.25500000920E-02 0. -1.
</event>
<event>
 5   0  0.1136881E-05  0.2605305E+04  0.7818609E-02  0.8366401E-01
        2   -1    0    0  501    0  0.00000000000E+00  0.00000000000E+00  0.33157420212E+04  0.33157420212E+04  0.25500000920E-02 0.  1.
       -2   -1    0    0    0  501  0.00000000000E+00  0.00000000000E+00 -0.51177195224E+03  0.51177195225E+03  0.25500000920E-02 0. -1.
    10030    2    1    2    0    0  0.00000000000E+00  0.00000000000E+00  0.28039700690E+04  0.38275139735E+04  0.26053051778E+04 0.  0.
        3    1    3    3  502    0 -0.33800621572E+03  0.12219478252E+04  0.96247637283E+03  0.15917805966E+04  0.10100000352E+00 0. -1.
       -3    1    3    3    0  502  0.33800621572E+03 -0.12219478252E+04  0.18414936961E+04  0.22357333768E+04  0.10100000352E+00 0.  1.
</event>
<event>
 5   0  0.1086507E-05  0.2600355E+04  0.7818609E-02  0.8368081E-01
        2   -1    0    0  501    0  0.00000000000E+00  0.00000000000E+00  0.10095155664E+04  0.10095155664E+04  0.25500000920E-02 0. -1.
       -2   -1    0    0    0  501  0.00000000000E+00  0.00000000000E+00 -0.16745276096E+04  0.16745276096E+04  0.25500000920E-02 0.  1.
    10030    2    1    2    0    0  0.00000000000E+00  0.00000000000E+00 -0.66501204322E+03  0.26840431760E+04  0.26003551206E+04 0.  0.
        2    1    3    3  502    0 -0.69805464693E+03  0.28777943703E+03 -0.14250438543E+04  0.16127142590E+04  0.25500000920E-02 0.  1.
       -2    1    3    3    0  502  0.69805464693E+03 -0.28777943703E+03  0.76003181112E+03  0.10713289170E+04  0.25500000920E-02 0. -1.
</event>
<event>
 5   0  0.1085061E-05  0.2609569E+04  0.7818609E-02  0.8364958E-01
        2   -1    0    0  501    0  0.00000000000E+00  0.00000000000E+00  0.15702095096E+04  0.15702095096E+04  0.25500000920E-02 0. -1.
       -2   -1    0    0    0  501  0.00000000000E+00  0.00000000000E+00 -0.10842261652E+04  0.10842261652E+04  0.25500000920E-02 0.  1.
    10030    2    1    2    0    0  0.00000000000E+00  0.00000000000E+00  0.48598334441E+03  0.26544356748E+04  0.26095687269E+04 0.  0.
        1    1    3    3  502    0  0.11738356248E+04  0.45313395501E+03 -0.10825942630E+03  0.12629095608E+04  0.50400001928E-02 0.  1.
       -1    1    3    3    0  502 -0.11738356248E+04 -0.45313395501E+03  0.59424277071E+03  0.13915261140E+04  0.50400001928E-02 0. -1.
</event>
<event>
 5   0  0.4597705E-06  0.2599510E+04  0.7818609E-02  0.8368368E-01
        1   -1    0    0  501    0  0.00000000000E+00  0.00000000000E+00  0.14343837958E+04  0.14343837958E+04  0.50400001928E-02 0. -1.
       -1   -1    0    0    0  501  0.00000000000E+00  0.00000000000E+00 -0.11777624981E+04  0.11777624981E+04  0.50400001928E-02 0.  1.
    10030    2    1    2    0    0  0.00000000000E+00  0.00000000000E+00  0.25662129774E+03  0.26121462939E+04  0.25995102944E+04 0.  0.
        5    1    3    3  502    0 -0.25278020038E+03  0.76989843961E+00  0.14094365670E+04  0.14319329414E+04  0.46999998093E+01 0. -1.
       -5    1    3    3    0  502  0.25278020038E+03 -0.76989843961E+00 -0.11528152692E+04  0.11802133525E+04  0.46999998093E+01 0.  1.
</event>
<event>
 5   0  0.1085255E-05  0.2603637E+04  0.7818609E-02  0.8366967E-01
        2   -1    0    0  501    0  0.00000000000E+00  0.00000000000E+00  0.25024023078E+04  0.25024023078E+04  0.25500000920E-02 0.  1.
       -2   -1    0    0    0  501  0.00000000000E+00  0.00000000000E+00 -0.67724176755E+03  0.67724176755E+03  0.25500000920E-02 0. -1.
    10030    2    1    2    0    0  0.00000000000E+00  0.00000000000E+00  0.18251605403E+04  0.31796440754E+04  0.26036369655E+04 0.  0.
        5    1    3    3  502    0 -0.67653163844E+03  0.84725696329E+03  0.32640772268E+02  0.10847243565E+04  0.46999998093E+01 0. -1.
       -5    1    3    3    0  502  0.67653163844E+03 -0.84725696329E+03  0.17925197680E+04  0.20949197188E+04  0.46999998093E+01 0.  1.
</event>
<event>
 5   0  0.1116310E-05  0.2596365E+04  0.7818609E-02  0.8369437E-01
        2   -1    0    0  501    0  0.00000000000E+00  0.00000000000E+00  0.18877382469E+04  0.18877382469E+04  0.25500000920E-02 0.  1.
       -2   -1    0    0    0  501  0.00000000000E+00  0.00000000000E+00 -0.89275004979E+03  0.89275004980E+03  0.25500000920E-02 0. -1.
    10030    2    1    2    0    0  0.00000000000E+00  0.00000000000E+00  0.99498819714E+03  0.27804882967E+04  0.25963654704E+04 0.  0.
        4    1    3    3  502    0 -0.95364347967E+03 -0.83418657859E+03  0.80034491675E+03  0.14986182746E+04  0.12699999809E+01 0.  1.
       -4    1    3    3    0  502  0.95364347967E+03  0.83418657859E+03  0.19464328038E+03  0.12818700222E+04  0.12699999809E+01 0. -1.
</event>
<event>
 5   0  0.1086507E-05  0.2602362E+04  0.7818609E-02  0.8367399E-01
        2   -1    0    0  501    0  0.00000000000E+00  0.00000000000E+00  0.12544573708E+04  0.12544573708E+04  0.25500000920E-02 0.  1.
       -2   -1    0    0    0  501  0.00000000000E+00  0.00000000000E+00 -0.13496450538E+04  0.13496450538E+04  0.25500000920E-02 0. -1.
    10030    2    1    2    0    0  0.00000000000E+00  0.00000000000E+00 -0.95187682943E+02  0.26041024246E+04  0.26023621467E+04 0.  0.
        2    1    3    3  502    0  0.11564686697E+04  0.17407270974E+03  0.52318315787E+03  0.12811876166E+04  0.25500000920E-02 0.  1.
       -2    1    3    3    0  502 -0.11564686697E+04 -0.17407270974E+03 -0.61837084081E+03  0.13229148079E+04  0.25500000920E-02 0. -1.
</event>
<event>
 5   0  0.4361864E-06  0.2602955E+04  0.7818609E-02  0.8367198E-01
        1   -1    0    0  501    0  0.00000000000E+00  0.00000000000E+00  0.15771125396E+04  0.15771125397E+04  0.50400001928E-02 0.  1.
       -1   -1    0    0    0  501  0.00000000000E+00  0.00000000000E+00 -0.10740161098E+04  0.10740161098E+04  0.50400001928E-02 0. -1.
    10030    2    1    2    0    0  0.00000000000E+00  0.00000000000E+00  0.50309642984E+03  0.26511286495E+04  0.26029554545E+04 0.  0.
        3    1    3    3  502    0 -0.88722371843E+03  0.92157705837E+03  0.49551003865E+03  0.13718602005E+04  0.10100000352E+00 0.  1.
       -3    1    3    3    0  502  0.88722371843E+03 -0.92157705837E+03  0.75863911872E+01  0.12792684490E+04  0.10100000352E+00 0. -1.
</event>
<event>
 5   0  0.4597705E-06  0.2601598E+04  0.7818609E-02  0.8367658E-01
        1   -1    0    0  501    0  0.00000000000E+00  0.00000000000E+00  0.10133343180E+04  0.10133343180E+04  0.50400001928E-02 0. -1.
       -1   -1    0    0    0  501  0.00000000000E+00  0.00000000000E+00 -0.16698126962E+04  0.16698126962E+04  0.50400001928E-02 0.  1.
    10030    2    1    2    0    0  0.00000000000E+00  0.00000000000E+00 -0.65647837818E+03  0.26831470142E+04  0.26015983623E+04 0.  0.
        5    1    3    3  502    0  0.18019136054E+03 -0.10350392340E+04  0.46279769113E+03  0.11480326368E+04  0.46999998093E+01 0. -1.
       -5    1    3    3    0  502 -0.18019136054E+03  0.10350392340E+04 -0.11192760693E+04  0.15351143774E+04  0.46999998093E+01 0.  1.
</event>
<event>
 5   0  0.1085061E-05  0.2583059E+04  0.7818609E-02  0.8373979E-01
        2   -1    0    0  501    0  0.00000000000E+00  0.00000000000E+00  0.14261249856E+04  0.14261249856E+04  0.25500000920E-02 0.  1.
       -2   -1    0    0    0  501  0.00000000000E+00  0.00000000000E+00 -0.11696368439E+04  0.11696368439E+04  0.25500000920E-02 0. -1.
    10030    2    1    2    0    0  0.00000000000E+00  0.00000000000E+00  0.25648814178E+03  0.25957618295E+04  0.25830589054E+04 0.  0.
        1    1    3    3  502    0  0.78313432925E+03 -0.56737903383E+02  0.11587282201E+04  0.13997034169E+04  0.50400001928E-02 0.  1.
       -1    1    3    3    0  502 -0.78313432925E+03  0.56737903383E+02 -0.90224007830E+03  0.11960584126E+04  0.50400001928E-02 0. -1.
</event>
<event>
 5   0  0.1085255E-05  0.2588895E+04  0.7818609E-02  0.8371983E-01
        2   -1    0    0  501    0  0.00000000000E+00  0.00000000000E+00  0.87465415844E+03  0.87465415844E+03  0.25500000920E-02 0. -1.
       -2   -1    0    0    0  501  0.00000000000E+00  0.00000000000E+00 -0.19157221937E+04  0.19157221937E+04  0.25500000920E-02 0.  1.
    10030    2    1    2    0    0  0.00000000000E+00  0.00000000000E+00 -0.10410680352E+04  0.27903763521E+04  0.25888950408E+04 0.  0.
        5    1    3    3  502    0  0.10279925775E+04  0.50174310933E+03 -0.11735372554E+04  0.16388186803E+04  0.46999998093E+01 0.  1.
       -5    1    3    3    0  502 -0.10279925775E+04 -0.50174310933E+03  0.13246922022E+03  0.11515576718E+04  0.46999998093E+01 0. -1.
</event>
<event>
 5   0  0.1085255E-05  0.2588360E+04  0.7818609E-02  0.8372166E-01
        2   -1    0    0  501    0  0.00000000000E+00  0.00000000000E+00  0.21279273737E+04  0.21279273737E+04  0.25500000920E-02 0. -1.
       -2   -1    0    0    0  501  0.00000000000E+00  0.00000000000E+00 -0.78710507371E+03  0.78710507371E+03  0.25500000920E-02 0.  1.
    10030    2    1    2    0    0  0.00000000000E+00  0.00000000000E+00  0.13408223000E+04  0.29150324474E+04  0.25883604327E+04 0.  0.
        5    1    3    3  502    0 -0.46165166030E+03  0.10037319306E+04  0.14294789908E+04  0.18066633110E+04  0.46999998093E+01 0. -1.
       -5    1    3    3    0  502  0.46165166030E+03 -0.10037319306E+04 -0.88656690814E+02  0.11083691365E+04  0.46999998093E+01 0.  1.
</event>
<event>
 5   0  0.4464297E-06  0.2599378E+04  0.7818609E-02  0.8368412E-01
       -1   -1    0    0    0  501  0.00000000000E+00  0.00000000000E+00  0.77899808932E+03  0.77899808933E+03  0.50400001928E-02 0.  1.
        1   -1    0    0  501    0  0.00000000000E+00  0.00000000000E+00 -0.21684159434E+04  0.21684159434E+04  0.50400001928E-02 0. -1.
    10030    2    1    2    0    0  0.00000000000E+00  0.00000000000E+00 -0.13894178541E+04  0.29474140327E+04  0.25993782924E+04 0.  0.
        4    1    3    3  502    0  0.41298023743E+03  0.61738454397E+03 -0.19040321187E+04  0.20437847914E+04  0.12699999809E+01 0. -1.
       -4    1    3    3    0  502 -0.41298023743E+03 -0.61738454397E+03  0.51461426458E+03  0.90362924137E+03  0.12699999809E+01 0.  1.
</event>
<event>
 5   0  0.4464297E-06  0.2597191E+04  0.7818609E-02  0.8369156E-01
       -1   -1    0    0    0  501  0.00000000000E+00  0.00000000000E+00  0.74589869671E+03  0.74589869673E+03  0.50400001928E-02 0.  1.
        1   -1    0    0  501    0  0.00000000000E+00  0.00000000000E+00 -0.22608295825E+04  0.22608295825E+04  0.50400001928E-02 0. -1.
    10030    2    1    2    0    0  0.00000000000E+00  0.00000000000E+00 -0.15149308858E+04  0.30067282792E+04  0.25971906662E+04 0.  0.
        4    1    3    3  502    0  0.16501035761E+03  0.97329259667E+03  0.21926752655E+03  0.10112402078E+04  0.12699999809E+01 0.  1.
       -4    1    3    3    0  502 -0.16501035761E+03 -0.97329259667E+03 -0.17341984123E+04  0.19954880714E+04  0.12699999809E+01 0. -1.
</event>
<event>
 5   0  0.4415080E-06  0.2602751E+04  0.7818609E-02  0.8367267E-01
        1   -1    0    0  501    0  0.00000000000E+00  0.00000000000E+00  0.19995085545E+04  0.19995085545E+04  0.50400001928E-02 0.  1.
       -1   -1    0    0    0  501  0.00000000000E+00  0.00000000000E+00 -0.84699744870E+03  0.84699744872E+03  0.50400001928E-02 0. -1.
    10030    2    1    2    0    0  0.00000000000E+00  0.00000000000E+00  0.11525111058E+04  0.28465060033E+04  0.26027513476E+04 0.  0.
        2    1    3    3  502    0  0.65597318328E+03  0.65670813287E+03 -0.42131652742E+03  0.10193497953E+04  0.25500000920E-02 0. -1.
       -2    1    3    3    0  502 -0.65597318328E+03 -0.65670813287E+03  0.15738276333E+04  0.18271562079E+04  0.25500000920E-02 0.  1.
</event>
<event>
 5   0  0.1085061E-05  0.2645344E+04  0.7818609E-02  0.8352960E-01
       -2   -1    0    0    0  501  0.00000000000E+00  0.00000000000E+00  0.11019248367E+04  0.11019248367E+04  0.25500000920E-02 0. -1.
        2   -1    0    0  501    0  0.00000000000E+00  0.00000000000E+00 -0.15876415036E+04  0.15876415036E+04  0.25500000920E-02 0.  1.
    10030    2    1    2    0    0  0.00000000000E+00  0.00000000000E+00 -0.48571666689E+03  0.26895663402E+04  0.26453442910E+04 0.  0.
        1    1    3    3  502    0 -0.23554083685E+03 -0.82878867454E+03  0.77745723267E+03  0.11605213921E+04  0.50400001928E-02 0. -1.
       -1    1    3    3    0  502  0.23554083685E+03  0.82878867454E+03 -0.12631738996E+04  0.15290449481E+04  0.50400001928E-02 0.  1.
</event>
<event>
 5   0  0.1085255E-05  0.2443481E+04  0.7818609E-02  0.8423402E-01
        2   -1    0    0  501    0  0.00000000000E+00  0.00000000000E+00  0.20784335170E+04  0.20784335170E+04  0.25500000920E-02 0. -1.
       -2   -1    0    0    0  501  0.00000000000E+00  0.00000000000E+00 -0.71816087909E+03  0.71816087909E+03  0.25500000920E-02 0.  1.
    10030    2    1    2    0    0  0.00000000000E+00  0.00000000000E+00  0.13602726379E+04  0.27965943961E+04  0.24434808300E+04 0.  0.
        5    1    3    3  502    0  0.70635616862E+03 -0.97152866815E+03  0.93559746531E+03  0.15225543330E+04  0.46999998093E+01 0. -1.
       -5    1    3    3    0  502 -0.70635616862E+03  0.97152866815E+03  0.42467517258E+03  0.12740400630E+04  0.46999998093E+01 0.  1.
</event>
<event>
 5   0  0.1136881E-05  0.2610792E+04  0.7818609E-02  0.8364545E-01
        2   -1    0    0  501    0  0.00000000000E+00  0.00000000000E+00  0.14284720416E+04  0.14284720416E+04  0.25500000920E-02 0. -1.
       -2   -1    0    0    0  501  0.00000000000E+00  0.00000000000E+00 -0.11929237287E+04  0.11929237287E+04  0.25500000920E-02 0.  1.
    10030    2    1    2    0    0  0.00000000000E+00  0.00000000000E+00  0.23554831286E+03  0.26213957703E+04  0.26107915997E+04 0.  0.
        3    1    3    3  502    0 -0.61262746136E+03  0.22913033567E+03 -0.10165245215E+04  0.12087742676E+04  0.10100000352E+00 0.  1.
       -3    1    3    3    0  502  0.61262746136E+03 -0.22913033567E+03  0.12520728343E+04  0.14126215027E+04  0.10100000352E+00 0. -1.
</event>
<event>
 5   0  0.4218590E-06  0.2553624E+04  0.7818609E-02  0.8384127E-01
        1   -1    0    0  501    0  0.00000000000E+00  0.00000000000E+00  0.18453387353E+04  0.18453387353E+04  0.50400001928E-02 0. -1.
       -1   -1    0    0    0  501  0.00000000000E+00  0.00000000000E+00 -0.88344168329E+03  0.88344168331E+03  0.50400001928E-02 0.  1.
    10030    2    1    2    0    0  0.00000000000E+00  0.00000000000E+00  0.96189705201E+03  0.27287804186E+04  0.25536242156E+04 0.  0.
        1    1    3    3  502    0 -0.10568062976E+04  0.42692919656E+03 -0.13397077554E+03  0.11476307151E+04  0.50400001928E-02 0.  1.
       -1    1    3    3    0  502  0.10568062976E+04 -0.42692919656E+03  0.10958678275E+04  0.15811497035E+04  0.50400001928E-02 0. -1.
</event>
<event>
 5   0  0.1085061E-05  0.2592687E+04  0.7818609E-02  0.8370690E-01
       -2   -1    0    0    0  501  0.00000000000E+00  0.00000000000E+00  0.93757594473E+03  0.93757594474E+03  0.25500000920E-02 0. -1.
        2   -1    0    0  501    0  0.00000000000E+00  0.00000000000E+00 -0.17923945322E+04  0.17923945322E+04  0.25500000920E-02 0.  1.
    10030    2    1    2    0    0  0.00000000000E+00  0.00000000000E+00 -0.85481858744E+03  0.27299704769E+04  0.25926866350E+04 0.  0.
        1    1    3    3  502    0  0.61628754667E+03 -0.56439854337E+03 -0.14709197829E+04  0.16917331538E+04  0.50400001928E-02 0.  1.
       -1    1    3    3    0  502 -0.61628754667E+03  0.56439854337E+03  0.61610119548E+03  0.10382373231E+04  0.50400001928E-02 0. -1.
</event>
<event>
 5   0  0.4464297E-06  0.2600539E+04  0.7818609E-02  0.8368018E-01
        1   -1    0    0  501    0  0.00000000000E+00  0.00000000000E+00  0.10770435466E+04  0.10770435466E+04  0.50400001928E-02 0. -1.
       -1   -1    0    0    0  501  0.00000000000E+00  0.00000000000E+00 -0.15697610619E+04  0.15697610619E+04  0.50400001928E-02 0.  1.
    10030    2    1    2    0    0  0.00000000000E+00  0.00000000000E+00 -0.49271751533E+03  0.26468046085E+04  0.26005391914E+04 0.  0.
        4    1    3    3  502    0  0.95139291765E+03 -0.66272760601E+03  0.35262040508E+03  0.12118989754E+04  0.12699999809E+01 0.  1.
       -4    1    3    3    0  502 -0.95139291765E+03  0.66272760601E+03 -0.84533792041E+03  0.14349056332E+04  0.12699999809E+01 0. -1.
</event>
<event>
 5   0  0.1136881E-05  0.2562363E+04  0.7818609E-02  0.8381099E-01
       -2   -1    0    0    0  501  0.00000000000E+00  0.00000000000E+00  0.10708103037E+04  0.10708103037E+04  0.25500000920E-02 0. -1.
        2   -1    0    0  501    0  0.00000000000E+00  0.00000000000E+00 -0.15328816283E+04  0.15328816283E+04  0.25500000920E-02 0.  1.
    10030    2    1    2    0    0  0.00000000000E+00  0.00000000000E+00 -0.46207132454E+03  0.26036919320E+04  0.25623625364E+04 0.  0.
        3    1    3    3  502    0  0.28470724014E+03  0.64610596967E+03 -0.13173508557E+04  0.14946318690E+04  0.10100000352E+00 0.  1.
       -3    1    3    3    0  502 -0.28470724014E+03 -0.64610596967E+03  0.85527953118E+03  0.11090600630E+04  0.10100000352E+00 0. -1.
</event>
<event>
 5   0  0.1116310E-05  0.2605832E+04  0.7818609E-02  0.8366223E-01
        2   -1    0    0  501    0  0.00000000000E+00  0.00000000000E+00  0.17725442739E+04  0.17725442739E+04  0.25500000920E-02 0.  1.
       -2   -1    0    0    0  501  0.00000000000E+00  0.00000000000E+00 -0.95771394225E+03  0.95771394225E+03  0.25500000920E-02 0. -1.
    10030    2    1    2    0    0  0.00000000000E+00  0.00000000000E+00  0.81483033162E+03  0.27302582161E+04  0.26058322005E+04 0.  0.
        4    1    3    3  502    0 -0.92607832735E+03 -0.87202035717E+03  0.11190501774E+03  0.12769357531E+04  0.12699999809E+01 0. -1.
       -4    1    3    3    0  502  0.92607832735E+03  0.87202035717E+03  0.70292531388E+03  0.14533224630E+04  0.12699999809E+01 0.  1.
</event>
<event>
 5   0  0.4218590E-06  0.2568189E+04  0.7818609E-02  0.8379088E-01
        1   -1    0    0  501    0  0.00000000000E+00  0.00000000000E+00  0.25696971854E+04  0.25696971854E+04  0.50400001928E-02 0. -1.
       -1   -1    0    0    0  501  0.00000000000E+00  0.00000000000E+00 -0.64167038412E+03  0.64167038414E+03  0.50400001928E-02 0.  1.
    10030    2    1    2    0    0  0.00000000000E+00  0.00000000000E+00  0.19280268012E+04  0.32113675695E+04  0.25681889183E+04 0.  0.
        1    1    3    3  502    0  0.53557369587E+03 -0.11208652230E+04  0.13705903498E+04  0.18497826734E+04  0.50400001928E-02 0.  1.
       -1    1    3    3    0  502 -0.53557369587E+03  0.11208652230E+04  0.55743645139E+03  0.13615848961E+04  0.50400001928E-02 0. -1.
</event>
<event>
 5   0  0.1085061E-05  0.2615178E+04  0.7818609E-02  0.8363064E-01
        2   -1    0    0  501    0  0.00000000000E+00  0.00000000000E+00  0.12752006601E+04  0.12752006601E+04  0.25500000920E-02 0.  1.
       -2   -1    0    0    0  501  0.00000000000E+00  0.00000000000E+00 -0.13408002544E+04  0.13408002544E+04  0.25500000920E-02 0. -1.
    10030    2    1    2    0    0  0.00000000000E+00  0.00000000000E+00 -0.65599594299E+02  0.26160009146E+04  0.26151782881E+04 0.  0.
        1    1    3    3  502    0 -0.89744734242E+03  0.29380050337E+03 -0.93755039099E+03  0.13306882444E+04  0.50400001928E-02 0. -1.
       -1    1    3    3    0  502  0.89744734242E+03 -0.29380050337E+03  0.87195079669E+03  0.12853126702E+04  0.50400001928E-02 0.  1.
</event>
<event>
 5   0  0.4597705E-06  0.2597705E+04  0.7818609E-02  0.8368981E-01
        1   -1    0    0  501    0  0.00000000000E+00  0.00000000000E+00  0.10900454034E+04  0.10900454034E+04  0.50400001928E-02 0. -1.
       -1   -1    0    0    0  501  0.00000000000E+00  0.00000000000E+00 -0.15476584751E+04  0.15476584751E+04  0.50400001928E-02 0.  1.
    10030    2    1    2    0    0  0.00000000000E+00  0.00000000000E+00 -0.45761307164E+03  0.26377038785E+04  0.25977051464E+04 0.  0.
        5    1    3    3  502    0  0.47131926151E+03  0.33124175489E+03  0.95321976257E+03  0.11137831711E+04  0.46999998093E+01 0. -1.
       -5    1    3    3    0  502 -0.47131926151E+03 -0.33124175489E+03 -0.14108328342E+04  0.15239207074E+04  0.46999998093E+01 0.  1.
</event>
<event>
 5   0  0.4597705E-06  0.2601509E+04  0.7818609E-02  0.8367689E-01
        1   -1    0    0  501    0  0.00000000000E+00  0.00000000000E+00  0.23637871698E+04  0.23637871698E+04  0.50400001928E-02 0.  1.
       -1   -1    0    0    0  501  0.00000000000E+00  0.00000000000E+00 -0.71578426785E+03  0.71578426786E+03  0.50400001928E-02 0. -1.
    10030    2    1    2    0    0  0.00000000000E+00  0.00000000000E+00  0.16480029020E+04  0.30795714377E+04  0.26015085383E+04 0.  0.
        5    1    3    3  502    0 -0.29543020986E+03  0.12644967828E+04  0.73456298114E+03  0.14919235858E+04  0.46999998093E+01 0.  1.
       -5    1    3    3    0  502  0.29543020986E+03 -0.12644967828E+04  0.91343992082E+03  0.15876478519E+04  0.46999998093E+01 0. -1.
</event>
<event>
 5   0  0.4218590E-06  0.2592452E+04  0.7818609E-02  0.8370769E-01
        1   -1    0    0  501    0  0.00000000000E+00  0.00000000000E+00  0.13243604811E+04  0.13243604811E+04  0.50400001928E-02 0.  1.
       -1   -1    0    0    0  501  0.00000000000E+00  0.00000000000E+00 -0.12686895573E+04  0.12686895573E+04  0.50400001928E-02 0. -1.
    10030    2    1    2    0    0  0.00000000000E+00  0.00000000000E+00  0.55670923792E+02  0.25930500384E+04  0.25924523621E+04 0.  0.
        1    1    3    3  502    0  0.33856278191E+03 -0.21069554099E+03 -0.12058121488E+04  0.12700394901E+04  0.50400001928E-02 0. -1.
       -1    1    3    3    0  502 -0.33856278191E+03  0.21069554099E+03  0.12614830726E+04  0.13230105482E+04  0.50400001928E-02 0.  1.
</event>
<event>
 5   0  0.4361864E-06  0.2600124E+04  0.7818609E-02  0.8368159E-01
        1   -1    0    0  501    0  0.00000000000E+00  0.00000000000E+00  0.21361211172E+04  0.21361211172E+04  0.50400001928E-02 0. -1.
       -1   -1    0    0    0  501  0.00000000000E+00  0.00000000000E+00 -0.79122892353E+03  0.79122892355E+03  0.50400001928E-02 0.  1.
    10030    2    1    2    0    0  0.00000000000E+00  0.00000000000E+00  0.13448921937E+04  0.29273500408E+04  0.26001236987E+04 0.  0.
        3    1    3    3  502    0  0.11753831826E+03  0.10788782342E+04 -0.13343570726E+03  0.10934343138E+04  0.10100000352E+00 0.  1.
       -3    1    3    3    0  502 -0.11753831826E+03 -0.10788782342E+04  0.14783279009E+04  0.18339157269E+04  0.10100000352E+00 0. -1.
</event>
<event>
 5   0  0.4361864E-06  0.2593299E+04  0.7818609E-02  0.8370481E-01
        1   -1    0    0  501    0  0.00000000000E+00  0.00000000000E+00  0.17935831893E+04  0.17935831893E+04  0.50400001928E-02 0. -1.
       -1   -1    0    0    0  501  0.00000000000E+00  0.00000000000E+00 -0.93739709548E+03  0.93739709549E+03  0.50400001928E-02 0.  1.
    10030    2    1    2    0    0  0.00000000000E+00  0.00000000000E+00  0.85618609381E+03  0.27309802848E+04  0.25932988043E+04 0.  0.
        3    1    3    3  502    0  0.18880122147E+03  0.25846257008E+03 -0.89514067226E+03  0.95064485203E+03  0.10100000352E+00 0.  1.
       -3    1    3    3    0  502 -0.18880122147E+03 -0.25846257008E+03  0.17513267661E+04  0.17803354327E+04  0.10100000352E+00 0. -1.
</event>
<event>
 5   0  0.4464297E-06  0.2577363E+04  0.7818609E-02  0.8375931E-01
       -1   -1    0    0    0  501  0.00000000000E+00  0.00000000000E+00  0.78145693403E+03  0.78145693405E+03  0.50400001928E-02 0.  1.
        1   -1    0    0  501    0  0.00000000000E+00  0.00000000000E+00 -0.21251324846E+04  0.21251324846E+04  0.50400001928E-02 0. -1.
    10030    2    1    2    0    0  0.00000000000E+00  0.00000000000E+00 -0.13436755506E+04  0.29065894187E+04  0.25773626178E+04 0.  0.
        4    1    3    3  502    0 -0.40186069664E+03 -0.11912341764E+04 -0.99114300713E+03  0.16009050428E+04  0.12699999809E+01 0. -1.
       -4    1    3    3    0  502  0.40186069664E+03  0.11912341764E+04 -0.35253254346E+03  0.13056843759E+04  0.12699999809E+01 0.  1.
</event>
<event>
 5   0  0.4361864E-06  0.2607566E+04  0.7818609E-02  0.8365636E-01
       -1   -1    0    0    0  501  0.00000000000E+00  0.00000000000E+00  0.15052427591E+04  0.15052427591E+04  0.50400001928E-02 0. -1.
        1   -1    0    0  501    0  0.00000000000E+00  0.00000000000E+00 -0.11292866945E+04  0.11292866945E+04  0.50400001928E-02 0.  1.
    10030    2    1    2    0    0  0.00000000000E+00  0.00000000000E+00  0.37595606461E+03  0.26345294537E+04  0.26075663903E+04 0.  0.
        3    1    3    3  502    0  0.15121600950E+03 -0.11179189169E+04  0.84837407465E+03  0.14115054258E+04  0.10100000352E+00 0. -1.
       -3    1    3    3    0  502 -0.15121600950E+03  0.11179189169E+04 -0.47241801004E+03  0.12230240279E+04  0.10100000352E+00 0.  1.
</event>
<event>
 5   0  0.4218590E-06  0.2589780E+04  0.7818609E-02  0.8371681E-01
       -1   -1    0    0    0  501  0.00000000000E+00  0.00000000000E+00  0.10334541475E+04  0.10334541476E+04  0.50400001928E-02 0.  1.
        1   -1    0    0  501    0  0.00000000000E+00  0.00000000000E+00 -0.16224620554E+04  0.16224620554E+04  0.50400001928E-02 0. -1.
    10030    2    1    2    0    0  0.00000000000E+00  0.00000000000E+00 -0.58900790783E+03  0.26559162029E+04  0.25897800218E+04 0.  0.
        1    1    3    3  502    0  0.14954000258E+03 -0.12224329748E+04 -0.70476447350E+03  0.14189424066E+04  0.50400001928E-02 0. -1.
       -1    1    3    3    0  502 -0.14954000258E+03  0.12224329748E+04  0.11575656566E+03  0.12369737963E+04  0.50400001928E-02 0.  1.
</event>
<event>
 5   0  0.4597705E-06  0.2597351E+04  0.7818609E-02  0.8369102E-01
       -1   -1    0    0    0  501  0.00000000000E+00  0.00000000000E+00  0.95385389417E+03  0.95385389418E+03  0.50400001928E-02 0.  1.
        1   -1    0    0  501    0  0.00000000000E+00  0.00000000000E+00 -0.17681512477E+04  0.17681512477E+04  0.50400001928E-02 0. -1.
    10030    2    1    2    0    0  0.00000000000E+00  0.00000000000E+00 -0.81429735353E+03  0.27220051419E+04  0.25973509221E+04 0.  0.
        5    1    3    3  502    0 -0.21724096028E+03 -0.20944780338E+03  0.91659273599E+03  0.96500069991E+03  0.46999998093E+01 0.  1.
       -5    1    3    3    0  502  0.21724096028E+03  0.20944780338E+03 -0.17308900895E+04  0.17570044420E+04  0.46999998093E+01 0. -1.
</event>
<event>
 5   0  0.1136881E-05  0.2551349E+04  0.7818609E-02  0.8384917E-01
        2   -1    0    0  501    0  0.00000000000E+00  0.00000000000E+00  0.11694418908E+04  0.11694418908E+04  0.25500000920E-02 0.  1.
       -2   -1    0    0    0  501  0.00000000000E+00  0.00000000000E+00 -0.13915573673E+04  0.13915573673E+04  0.25500000920E-02 0. -1.
    10030    2    1    2    0    0  0.00000000000E+00  0.00000000000E+00 -0.22211547646E+03  0.25609992581E+04  0.25513490383E+04 0.  0.
        3    1    3    3  502    0 -0.75069633142E+03  0.10251394310E+04 -0.22501968613E+03  0.12903835493E+04  0.10100000352E+00 0. -1.
       -3    1    3    3    0  502  0.75069633142E+03 -0.10251394310E+04  0.29042096682E+01  0.12706157089E+04  0.10100000352E+00 0.  1.
</event>
<event>
 5   0  0.1086507E-05  0.2595184E+04  0.7818609E-02  0.8369839E-01
       -2   -1    0    0    0  501  0.00000000000E+00  0.00000000000E+00  0.87696964623E+03  0.87696964623E+03  0.25500000920E-02 0. -1.
        2   -1    0    0  501    0  0.00000000000E+00  0.00000000000E+00 -0.19199575250E+04  0.19199575250E+04  0.25500000920E-02 0.  1.
    10030    2    1    2    0    0  0.00000000000E+00  0.00000000000E+00 -0.10429878788E+04  0.27969271712E+04  0.25951835939E+04 0.  0.
        2    1    3    3  502    0  0.16377773447E+03 -0.81970128309E+03 -0.15911240997E+04  0.17973339257E+04  0.25500000920E-02 0.  1.
       -2    1    3    3    0  502 -0.16377773447E+03  0.81970128309E+03  0.54813622094E+03  0.99959324553E+03  0.25500000920E-02 0. -1.
</event>
<event>
 5   0  0.4597705E-06  0.2603301E+04  0.7818609E-02  0.8367081E-01
       -1   -1    0    0    0  501  0.00000000000E+00  0.00000000000E+00  0.13653204110E+04  0.13653204110E+04  0.50400001928E-02 0.  1.
        1   -1    0    0  501    0  0.00000000000E+00  0.00000000000E+00 -0.12409492776E+04  0.12409492776E+04  0.50400001928E-02 0. -1.
    10030    2    1    2    0    0  0.00000000000E+00  0.00000000000E+00  0.12437113343E+03  0.26062696886E+04  0.26033005033E+04 0.  0.
        5    1    3    3  502    0  0.80973626650E+03  0.81720648917E+03  0.67179057670E+03  0.13322251822E+04  0.46999998093E+01 0.  1.
       -5    1    3    3    0  502 -0.80973626650E+03 -0.81720648917E+03 -0.54741944327E+03  0.12740445063E+04  0.46999998093E+01 0. -1.
</event>
<event>
 5   0  0.1136881E-05  0.2529794E+04  0.7818609E-02  0.8392448E-01
       -2   -1    0    0    0  501  0.00000000000E+00  0.00000000000E+00  0.95918732190E+03  0.95918732191E+03  0.25500000920E-02 0. -1.
        2   -1    0    0  501    0  0.00000000000E+00  0.00000000000E+00 -0.16680416296E+04  0.16680416296E+04  0.25500000920E-02 0.  1.
    10030    2    1    2    0    0  0.00000000000E+00  0.00000000000E+00 -0.70885430772E+03  0.26272289515E+04  0.25297939707E+04 0.  0.
        3    1    3    3  502    0  0.42762595587E+03  0.34993668294E+03 -0.15360750133E+04  0.16324356333E+04  0.10100000352E+00 0.  1.
       -3    1    3    3    0  502 -0.42762595587E+03 -0.34993668294E+03  0.82722070554E+03  0.99479331827E+03  0.10100000352E+00 0. -1.
</event>
<event>
 5   0  0.1085061E-05  0.2605400E+04  0.7818609E-02  0.8366369E-01
       -2   -1    0    0    0  501  0.00000000000E+00  0.00000000000E+00  0.14627727960E+04  0.14627727960E+04  0.25500000920E-02 0.  1.
        2   -1    0    0  501    0  0.00000000000E+00  0.00000000000E+00 -0.11601442646E+04  0.11601442646E+04  0.25500000920E-02 0. -1.
    10030    2    1    2    0    0  0.00000000000E+00  0.00000000000E+00  0.30262853136E+03  0.26229170606E+04  0.26054001379E+04 0.  0.
        1    1    3    3  502    0  0.68108935640E+03  0.11058406575E+04  0.25329289468E+03  0.13232246830E+04  0.50400001928E-02 0.  1.
       -1    1    3    3    0  502 -0.68108935640E+03 -0.11058406575E+04  0.49335636684E+02  0.12996923776E+04  0.50400001928E-02 0. -1.
</event>
<event>
 5   0  0.1116310E-05  0.2601209E+04  0.7818609E-02  0.8367791E-01
       -2   -1    0    0    0  501  0.00000000000E+00  0.00000000000E+00  0.17235362276E+04  0.17235362276E+04  0.25500000920E-02 0. -1.
        2   -1    0    0  501    0  0.00000000000E+00  0.00000000000E+00 -0.98145435613E+03  0.98145435613E+03  0.25500000920E-02 0.  1.
    10030    2    1    2    0    0  0.00000000000E+00  0.00000000000E+00  0.74208187149E+03  0.27049905837E+04  0.26012090562E+04 0.  0.
        4    1    3    3  502    0  0.25449855039E+03 -0.77231890439E+03  0.14265877971E+04  0.16420719710E+04  0.12699999809E+01 0. -1.
       -4    1    3    3    0  502 -0.25449855039E+03  0.77231890439E+03 -0.68450592560E+03  0.10629186127E+04  0.12699999809E+01 0.  1.
</event>
<event>
 5   0  0.1086507E-05  0.2521292E+04  0.7818609E-02  0.8395439E-01
        2   -1    0    0  501    0  0.00000000000E+00  0.00000000000E+00  0.12073934321E+04  0.12073934321E+04  0.25500000920E-02 0. -1.
       -2   -1    0    0    0  501  0.00000000000E+00  0.00000000000E+00 -0.13162467940E+04  0.13162467940E+04  0.25500000920E-02 0.  1.
    10030    2    1    2    0    0  0.00000000000E+00  0.00000000000E+00 -0.10885336193E+03  0.25236402261E+04  0.25212915215E+04 0.  0.
        2    1    3    3  502    0  0.17166009335E+03 -0.26426700439E+03 -0.12761879755E+04  0.13145189181E+04  0.25500000920E-02 0.  1.
       -2    1    3    3    0  502 -0.17166009335E+03  0.26426700439E+03  0.11673346136E+04  0.12091213079E+04  0.25500000920E-02 0. -1.
</event>
<event>
 5   0  0.4597705E-06  0.2593860E+04  0.7818609E-02  0.8370290E-01
        1   -1    0    0  501    0  0.00000000000E+00  0.00000000000E+00  0.92358264839E+03  0.92358264840E+03  0.50400001928E-02 0. -1.
       -1   -1    0    0    0  501  0.00000000000E+00  0.00000000000E+00 -0.18211983503E+04  0.18211983503E+04  0.50400001928E-02 0.  1.
    10030    2    1    2    0    0  0.00000000000E+00  0.00000000000E+00 -0.89761570195E+03  0.27447809987E+04  0.25938598233E+04 0.  0.
        5    1    3    3  502    0  0.95241231505E+03 -0.86666332969E+03 -0.28552295708E+03  0.13189920371E+04  0.46999998093E+01 0. -1.
       -5    1    3    3    0  502 -0.95241231505E+03  0.86666332969E+03 -0.61209274488E+03  0.14257889617E+04  0.46999998093E+01 0.  1.
</event>
<event>
 5   0  0.1086507E-05  0.2617604E+04  0.7818609E-02  0.8362246E-01
       -2   -1    0    0    0  501  0.00000000000E+00  0.00000000000E+00  0.18880465735E+04  0.18880465735E+04  0.25500000920E-02 0.  1.
        2   -1    0    0  501    0  0.00000000000E+00  0.00000000000E+00 -0.90726713665E+03  0.90726713665E+03  0.25500000920E-02 0. -1.
    10030    2    1    2    0    0  0.00000000000E+00  0.00000000000E+00  0.98077943683E+03  0.27953137101E+04  0.26176039491E+04 0.  0.
        2    1    3    3  502    0 -0.79126005692E+03 -0.77540991829E+03  0.12345564394E+04  0.16587593621E+04  0.25500000920E-02 0.  1.
       -2    1    3    3    0  502  0.79126005692E+03  0.77540991829E+03 -0.25377700260E+03  0.11365543481E+04  0.25500000920E-02 0. -1.
</event>
<event>
 5   0  0.4597705E-06  0.2556748E+04  0.7818609E-02  0.8383043E-01
       -1   -1    0    0    0  501  0.00000000000E+00  0.00000000000E+00  0.89242559084E+03  0.89242559086E+03  0.50400001928E-02 0. -1.
        1   -1    0    0  501    0  0.00000000000E+00  0.00000000000E+00 -0.18312339769E+04  0.18312339770E+04  0.50400001928E-02 0.  1.
    10030    2    1    2    0    0  0.00000000000E+00  0.00000000000E+00 -0.93880838610E+03  0.27236595678E+04  0.25567479844E+04 0.  0.
        5    1    3    3  502    0 -0.70242452017E+03  0.32596685281E+03 -0.15529404600E+04  0.17353099890E+04  0.46999998093E+01 0.  1.
       -5    1    3    3    0  502  0.70242452017E+03 -0.32596685281E+03  0.61413207391E+03  0.98834957878E+03  0.46999998093E+01 0. -1.
</event>
<event>
 5   0  0.4464297E-06  0.2549635E+04  0.7818609E-02  0.8385513E-01
       -1   -1    0    0    0  501  0.00000000000E+00  0.00000000000E+00  0.74838854805E+03  0.74838854807E+03  0.50400001928E-02 0.  1.
        1   -1    0    0  501    0  0.00000000000E+00  0.00000000000E+00 -0.21715446006E+04  0.21715446007E+04  0.50400001928E-02 0. -1.
    10030    2    1    2    0    0  0.00000000000E+00  0.00000000000E+00 -0.14231560526E+04  0.29199331487E+04  0.25496345705E+04 0.  0.
        4    1    3    3  502    0  0.12165978223E+04 -0.32256397172E+03 -0.94346984053E+03  0.15729891068E+04  0.12699999809E+01 0.  1.
       -4    1    3    3    0  502 -0.12165978223E+04  0.32256397172E+03 -0.47968621207E+03  0.13469440419E+04  0.12699999809E+01 0. -1.
</event>
<event>
 5   0  0.4415080E-06  0.2596060E+04  0.7818609E-02  0.8369541E-01
        1   -1    0    0  501    0  0.00000000000E+00  0.00000000000E+00  0.21452064682E+04  0.21452064682E+04  0.50400001928E-02 0.  1.
       -1   -1    0    0    0  501  0.00000000000E+00  0.00000000000E+00 -0.78541701926E+03  0.78541701927E+03  0.50400001928E-02 0. -1.
    10030    2    1    2    0    0  0.00000000000E+00  0.00000000000E+00  0.13597894490E+04  0.29306234875E+04  0.25960598375E+04 0.  0.
        2    1    3    3  502    0 -0.98954518408E+02  0.12055835242E+03 -0.77480047776E+03  0.79034302262E+03  0.25500000920E-02 0. -1.
       -2    1    3    3    0  502  0.98954518408E+02 -0.12055835242E+03  0.21345899267E+04  0.21402804649E+04  0.25500000920E-02 0.  1.
</event>
<event>
 5   0  0.4464297E-06  0.2629310E+04  0.7818609E-02  0.8358313E-01
       -1   -1    0    0    0  501  0.00000000000E+00  0.00000000000E+00  0.62530064036E+03  0.62530064038E+03  0.50400001928E-02 0. -1.
        1   -1    0    0  501    0  0.00000000000E+00  0.00000000000E+00 -0.27639794889E+04  0.27639794889E+04  0.50400001928E-02 0.  1.
    10030    2    1    2    0    0  0.00000000000E+00  0.00000000000E+00 -0.21386788486E+04  0.33892801293E+04  0.26293102855E+04 0.  0.
        4    1    3    3  502    0 -0.30871436438E+03 -0.17567655719E+03 -0.27009524892E+04  0.27242086509E+04  0.12699999809E+01 0.  1.
       -4    1    3    3    0  502  0.30871436438E+03  0.17567655719E+03  0.56227364067E+03  0.66507147843E+03  0.12699999809E+01 0. -1.
</event>
<event>
 5   0  0.1085061E-05  0.2329026E+04  0.7818609E-02  0.8466564E-01
        2   -1    0    0  501    0  0.00000000000E+00  0.00000000000E+00  0.14590065416E+04  0.14590065416E+04  0.25500000920E-02 0. -1.
       -2   -1    0    0    0  501  0.00000000000E+00  0.00000000000E+00 -0.92946157290E+03  0.92946157291E+03  0.25500000920E-02 0.  1.
    10030    2    1    2    0    0  0.00000000000E+00  0.00000000000E+00  0.52954496867E+03  0.23884681145E+04  0.23290259896E+04 0.  0.
        1    1    3    3  502    0  0.34834815820E+03 -0.10116515587E+04  0.73618401903E+03  0.12987502552E+04  0.50400001928E-02 0. -1.
       -1    1    3    3    0  502 -0.34834815820E+03  0.10116515587E+04 -0.20663905036E+03  0.10897178592E+04  0.50400001928E-02 0.  1.
</event>
<event>
 5   0  0.1116310E-05  0.2486832E+04  0.7818609E-02  0.8407692E-01
       -2   -1    0    0    0  501  0.00000000000E+00  0.00000000000E+00  0.10764401276E+04  0.10764401276E+04  0.25500000920E-02 0. -1.
        2   -1    0    0  501    0  0.00000000000E+00  0.00000000000E+00 -0.14362923677E+04  0.14362923677E+04  0.25500000920E-02 0.  1.
    10030    2    1    2    0    0  0.00000000000E+00  0.00000000000E+00 -0.35985224018E+03  0.25127324953E+04  0.24868315098E+04 0.  0.
        4    1    3    3  502    0  0.66287925698E+03 -0.27439663059E+03  0.84621945111E+03  0.11094103806E+04  0.12699999809E+01 0. -1.
       -4    1    3    3    0  502 -0.66287925698E+03  0.27439663059E+03 -0.12060716913E+04  0.14033221147E+04  0.12699999809E+01 0.  1.
</event>
<event>
 5   0  0.4361864E-06  0.2595179E+04  0.7818609E-02  0.8369841E-01
        1   -1    0    0  501    0  0.00000000000E+00  0.00000000000E+00  0.16863236119E+04  0.16863236119E+04  0.50400001928E-02 0. -1.
       -1   -1    0    0    0  501  0.00000000000E+00  0.00000000000E+00 -0.99846708030E+03  0.99846708031E+03  0.50400001928E-02 0.  1.
    10030    2    1    2    0    0  0.00000000000E+00  0.00000000000E+00  0.68785653155E+03  0.26847906922E+04  0.25951790791E+04 0.  0.
        3    1    3    3  502    0  0.88638890327E+03  0.87105191082E+03 -0.42218828364E+02  0.12434625683E+04  0.10100000352E+00 0.  1.
       -3    1    3    3    0  502 -0.88638890327E+03 -0.87105191082E+03  0.73007535992E+03  0.14413281238E+04  0.10100000352E+00 0. -1.
</event>
<event>
 5   0  0.1136881E-05  0.2491647E+04  0.7818609E-02  0.8405967E-01
        2   -1    0    0  501    0  0.00000000000E+00  0.00000000000E+00  0.11556168804E+04  0.11556168804E+04  0.25500000920E-02 0.  1.
       -2   -1    0    0    0  501  0.00000000000E+00  0.00000000000E+00 -0.13430718225E+04  0.13430718225E+04  0.25500000920E-02 0. -1.
    10030    2    1    2    0    0  0.00000000000E+00  0.00000000000E+00 -0.18745494212E+03  0.24986887030E+04  0.24916472220E+04 0.  0.
        3    1    3    3  502    0 -0.99026658298E+03  0.63857291199E+03  0.31198127861E+03  0.12189075427E+04  0.10100000352E+00 0.  1.
       -3    1    3    3    0  502  0.99026658298E+03 -0.63857291199E+03 -0.49943622074E+03  0.12797811602E+04  0.10100000352E+00 0. -1.
</event>
<event>
 5   0  0.4361864E-06  0.2615999E+04  0.7818609E-02  0.8362787E-01
        1   -1    0    0  501    0  0.00000000000E+00  0.00000000000E+00  0.17844437667E+04  0.17844437667E+04  0.50400001928E-02 0. -1.
       -1   -1    0    0    0  501  0.00000000000E+00  0.00000000000E+00 -0.95876520963E+03  0.95876520964E+03  0.50400001928E-02 0.  1.
    10030    2    1    2    0    0  0.00000000000E+00  0.00000000000E+00  0.82567855705E+03  0.27432089763E+04  0.26159989312E+04 0.  0.
        3    1    3    3  502    0 -0.25645209618E+03  0.73312405807E+03  0.15164540775E+04  0.17037815416E+04  0.10100000352E+00 0. -1.
       -3    1    3    3    0  502  0.25645209618E+03 -0.73312405807E+03 -0.69077552046E+03  0.10394274347E+04  0.10100000352E+00 0.  1.
</event>
<event>
 5   0  0.4415080E-06  0.2603144E+04  0.7818609E-02  0.8367134E-01
        1   -1    0    0  501    0  0.00000000000E+00  0.00000000000E+00  0.19271219255E+04  0.19271219255E+04  0.50400001928E-02 0. -1.
       -1   -1    0    0    0  501  0.00000000000E+00  0.00000000000E+00 -0.87907776804E+03  0.87907776806E+03  0.50400001928E-02 0.  1.
    10030    2    1    2    0    0  0.00000000000E+00  0.00000000000E+00  0.10480441575E+04  0.28061996936E+04  0.26031442842E+04 0.  0.
        2    1    3    3  502    0  0.76452659689E+03  0.43130789968E+03  0.15600071708E+04  0.17900139091E+04  0.25500000920E-02 0. -1.
       -2    1    3    3    0  502 -0.76452659689E+03 -0.43130789968E+03 -0.51196301332E+03  0.10161857845E+04  0.25500000920E-02 0.  1.
</event>
<event>
 5   0  0.1086507E-05  0.2614127E+04  0.7818609E-02  0.8363418E-01
       -2   -1    0    0    0  501  0.00000000000E+00  0.00000000000E+00  0.10570464445E+04  0.10570464445E+04  0.25500000920E-02 0.  1.
        2   -1    0    0  501    0  0.00000000000E+00  0.00000000000E+00 -0.16162159356E+04  0.16162159356E+04  0.25500000920E-02 0. -1.
    10030    2    1    2    0    0  0.00000000000E+00  0.00000000000E+00 -0.55916949112E+03  0.26732623801E+04  0.26141272412E+04 0.  0.
        2    1    3    3  502    0  0.35348463166E+03 -0.87687501060E+03 -0.12025276630E+04  0.15296842646E+04  0.25500000920E-02 0. -1.
       -2    1    3    3    0  502 -0.35348463166E+03  0.87687501060E+03  0.64335817189E+03  0.11435781156E+04  0.25500000920E-02 0.  1.
</event>
<event>
 5   0  0.3705250E-06  0.2597134E+04  0.7818609E-02  0.8369175E-01
       -3   -1    0    0    0  501  0.00000000000E+00  0.00000000000E+00  0.20306058366E+04  0.20306058391E+04  0.10100000352E+00 0.  1.
        3   -1    0    0  501    0  0.00000000000E+00  0.00000000000E+00 -0.83043012423E+03  0.83043013038E+03  0.10100000352E+00 0. -1.
    10030    2    1    2    0    0  0.00000000000E+00  0.00000000000E+00  0.12001757123E+04  0.28610359695E+04  0.25971340123E+04 0.  0.
        2    1    3    3  502    0 -0.47663538922E+03 -0.11664200701E+04  0.94592969561E+03  0.15755951457E+04  0.25500000920E-02 0. -1.
       -2    1    3    3    0  502  0.47663538922E+03  0.11664200701E+04  0.25424601673E+03  0.12854408237E+04  0.25500000920E-02 0.  1.
</event>
<event>
 5   0  0.4218590E-06  0.2595114E+04  0.7818609E-02  0.8369863E-01
       -1   -1    0    0    0  501  0.00000000000E+00  0.00000000000E+00  0.14282207292E+04  0.14282207292E+04  0.50400001928E-02 0. -1.
        1   -1    0    0  501    0  0.00000000000E+00  0.00000000000E+00 -0.11788471916E+04  0.11788471917E+04  0.50400001928E-02 0.  1.
    10030    2    1    2    0    0  0.00000000000E+00  0.00000000000E+00  0.24937353758E+03  0.26070679209E+04  0.25951138670E+04 0.  0.
        1    1    3    3  502    0  0.64259730980E+03  0.10595596191E+04 -0.26186626828E+03  0.12665590518E+04  0.50400001928E-02 0.  1.
       -1    1    3    3    0  502 -0.64259730980E+03 -0.10595596191E+04  0.51123980587E+03  0.13405088691E+04  0.50400001928E-02 0. -1.
</event>
<event>
 5   0  0.1116310E-05  0.2594575E+04  0.7818609E-02  0.8370046E-01
       -2   -1    0    0    0  501  0.00000000000E+00  0.00000000000E+00  0.17515595378E+04  0.17515595378E+04  0.25500000920E-02 0. -1.
        2   -1    0    0  501    0  0.00000000000E+00  0.00000000000E+00 -0.96083258948E+03  0.96083258949E+03  0.25500000920E-02 0.  1.
    10030    2    1    2    0    0  0.00000000000E+00  0.00000000000E+00  0.79072694835E+03  0.27123921273E+04  0.25945754846E+04 0.  0.
        4    1    3    3  502    0  0.10355573284E+04  0.52688552851E+03  0.99859837049E+03  0.15320534126E+04  0.12699999809E+01 0. -1.
       -4    1    3    3    0  502 -0.10355573284E+04 -0.52688552851E+03 -0.20787142214E+03  0.11803387148E+04  0.12699999809E+01 0.  1.
</event>
<event>
 5   0  0.4218590E-06  0.2625265E+04  0.7818609E-02  0.8359670E-01
       -1   -1    0    0    0  501  0.00000000000E+00  0.00000000000E+00  0.96398438347E+03  0.96398438348E+03  0.50400001928E-02 0.  1.
        1   -1    0    0  501    0  0.00000000000E+00  0.00000000000E+00 -0.17873773097E+04  0.17873773097E+04  0.50400001928E-02 0. -1.
    10030    2    1    2    0    0  0.00000000000E+00  0.00000000000E+00 -0.82339292626E+03  0.27513616932E+04  0.26252647973E+04 0.  0.
        1    1    3    3  502    0  0.24093555290E+03  0.56517224002E+03 -0.16273839423E+04  0.17394965068E+04  0.50400001928E-02 0. -1.
       -1    1    3    3    0  502 -0.24093555290E+03 -0.56517224002E+03  0.80399101604E+03  0.10118651864E+04  0.50400001928E-02 0.  1.
</event>
<event>
 5   0  0.1116310E-05  0.2502509E+04  0.7818609E-02  0.8402092E-01
       -2   -1    0    0    0  501  0.00000000000E+00  0.00000000000E+00  0.12046534389E+04  0.12046534389E+04  0.25500000920E-02 0. -1.
        2   -1    0    0  501    0  0.00000000000E+00  0.00000000000E+00 -0.12996580380E+04  0.12996580380E+04  0.25500000920E-02 0.  1.
    10030    2    1    2    0    0  0.00000000000E+00  0.00000000000E+00 -0.95004599065E+02  0.25043114770E+04  0.25025087612E+04 0.  0.
        4    1    3    3  502    0  0.15316195224E+03  0.10250182704E+04  0.65408395140E+03  0.12255400714E+04  0.12699999809E+01 0. -1.
       -4    1    3    3    0  502 -0.15316195224E+03 -0.10250182704E+04 -0.74908855047E+03  0.12787714055E+04  0.12699999809E+01 0.  1.
</event>
<event>
 5   0  0.1085255E-05  0.2585987E+04  0.7818609E-02  0.8372977E-01
        2   -1    0    0  501    0  0.00000000000E+00  0.00000000000E+00  0.17004265204E+04  0.17004265204E+04  0.25500000920E-02 0.  1.
       -2   -1    0    0    0  501  0.00000000000E+00  0.00000000000E+00 -0.98318428303E+03  0.98318428303E+03  0.25500000920E-02 0. -1.
    10030    2    1    2    0    0  0.00000000000E+00  0.00000000000E+00  0.71724223735E+03  0.26836108034E+04  0.25859873389E+04 0.  0.
        5    1    3    3  502    0 -0.60953403588E+03  0.40074746827E+03  0.14664805298E+04  0.16379003353E+04  0.46999998093E+01 0.  1.
       -5    1    3    3    0  502  0.60953403588E+03 -0.40074746827E+03 -0.74923829244E+03  0.10457104681E+04  0.46999998093E+01 0. -1.
</event>
<event>
 5   0  0.4464297E-06  0.2577653E+04  0.7818609E-02  0.8375832E-01
       -1   -1    0    0    0  501  0.00000000000E+00  0.00000000000E+00  0.68413837085E+03  0.68413837087E+03  0.50400001928E-02 0. -1.
        1   -1    0    0  501    0  0.00000000000E+00  0.00000000000E+00 -0.24279797032E+04  0.24279797032E+04  0.50400001928E-02 0.  1.
    10030    2    1    2    0    0  0.00000000000E+00  0.00000000000E+00 -0.17438413324E+04  0.31121180741E+04  0.25776532572E+04 0.  0.
        4    1    3    3  502    0  0.11958961162E+04  0.31821962269E+03 -0.43720717490E+03  0.13124720857E+04  0.12699999809E+01 0.  1.
       -4    1    3    3    0  502 -0.11958961162E+04 -0.31821962269E+03 -0.13066341575E+04  0.17996459884E+04  0.12699999809E+01 0. -1.
</event>
<event>
 5   0  0.1085255E-05  0.2604128E+04  0.7818609E-02  0.8366800E-01
       -2   -1    0    0    0  501  0.00000000000E+00  0.00000000000E+00  0.73526407331E+03  0.73526407332E+03  0.25500000920E-02 0. -1.
        2   -1    0    0  501    0  0.00000000000E+00  0.00000000000E+00 -0.23057986712E+04  0.23057986712E+04  0.25500000920E-02 0.  1.
    10030    2    1    2    0    0  0.00000000000E+00  0.00000000000E+00 -0.15705345979E+04  0.30410627445E+04  0.26041282021E+04 0.  0.
        5    1    3    3  502    0  0.31416502740E+03  0.28933138755E+03  0.65112600724E+03  0.77871656176E+03  0.46999998093E+01 0. -1.
       -5    1    3    3    0  502 -0.31416502740E+03 -0.28933138755E+03 -0.22216606051E+04  0.22623461827E+04  0.46999998093E+01 0.  1.
</event>
<event>
 5   0  0.4415080E-06  0.2569371E+04  0.7818609E-02  0.8378680E-01
        1   -1    0    0  501    0  0.00000000000E+00  0.00000000000E+00  0.11818461149E+04  0.11818461149E+04  0.50400001928E-02 0. -1.
       -1   -1    0    0    0  501  0.00000000000E+00  0.00000000000E+00 -0.13964740580E+04  0.13964740580E+04  0.50400001928E-02 0.  1.
    10030    2    1    2    0    0  0.00000000000E+00  0.00000000000E+00 -0.21462794305E+03  0.25783201729E+04  0.25693714718E+04 0.  0.
        2    1    3    3  502    0 -0.49419412663E+03  0.37146480902E+03  0.10227536263E+04  0.11950895026E+04  0.25500000920E-02 0. -1.
       -2    1    3    3    0  502  0.49419412663E+03 -0.37146480902E+03 -0.12373815693E+04  0.13832306703E+04  0.25500000920E-02 0.  1.
</event>
<event>
 5   0  0.1086507E-05  0.2515375E+04  0.7818609E-02  0.8397528E-01
       -2   -1    0    0    0  501  0.00000000000E+00  0.00000000000E+00  0.64834055539E+03  0.64834055540E+03  0.25500000920E-02 0. -1.
        2   -1    0    0  501    0  0.00000000000E+00  0.00000000000E+00 -0.24397331719E+04  0.24397331719E+04  0.25500000920E-02 0.  1.
    10030    2    1    2    0    0  0.00000000000E+00  0.00000000000E+00 -0.17913926165E+04  0.30880737273E+04  0.25153750891E+04 0.  0.
        2    1    3    3  502    0  0.56601619351E+03  0.80078812176E+02 -0.22710209131E+04  0.23418631334E+04  0.25500000920E-02 0.  1.
       -2    1    3    3    0  502 -0.56601619351E+03 -0.80078812176E+02  0.47962829667E+03  0.74621059390E+03  0.25500000920E-02 0. -1.
</event>
<event>
 5   0  0.4597705E-06  0.2587634E+04  0.7818609E-02  0.8372414E-01
       -1   -1    0    0    0  501  0.00000000000E+00  0.00000000000E+00  0.10259737902E+04  0.10259737903E+04  0.50400001928E-02 0. -1.
        1   -1    0    0  501    0  0.00000000000E+00  0.00000000000E+00 -0.16315838680E+04  0.16315838680E+04  0.50400001928E-02 0.  1.
    10030    2    1    2    0    0  0.00000000000E+00  0.00000000000E+00 -0.60561007773E+03  0.26575576582E+04  0.25876338884E+04 0.  0.
        5    1    3    3  502    0 -0.39575099414E+03  0.11301163020E+04 -0.80610724888E+03  0.14434724425E+04  0.46999998093E+01 0.  1.
       -5    1    3    3    0  502  0.39575099414E+03 -0.11301163020E+04  0.20049717116E+03  0.12140852158E+04  0.46999998093E+01 0. -1.
</event>
</LesHouchesEvents>
